                  Welcome to Q-Chem
     A Quantum Leap Into The Future Of Chemistry


 Q-Chem 5.2 (devel), Q-Chem, Inc., Pleasanton, CA (2019)

 Yihan Shao,  Zhengting Gan,  E. Epifanovsky,  A. T. B. Gilbert,  M. Wormit,  
 J. Kussmann,  A. W. Lange,  A. Behn,  Jia Deng,  Xintian Feng,  D. Ghosh,  
 M. Goldey,  P. R. Horn,  L. D. Jacobson,  I. Kaliman,  T. Kus,  A. Landau,  
 Jie Liu,  E. I. Proynov,  R. M. Richard,  R. P. Steele,  E. J. Sundstrom,  
 H. L. Woodcock III,  P. M. Zimmerman,  D. Zuev,  B. Alam,  B. Albrecht,  
 E. Alguire,  S. A. Baeppler,  D. Barton,  Z. Benda,  Y. A. Bernard,  
 E. J. Berquist,  K. B. Bravaya,  H. Burton,  K. Carter-Fenk,  D. Casanova,  
 Chun-Min Chang,  Yunqing Chen,  A. Chien,  K. D. Closser,  M. P. Coons,  
 S. Coriani,  S. Dasgupta,  A. L. Dempwolff,  M. Diedenhofen,  Hainam Do,  
 R. G. Edgar,  Po-Tung Fang,  S. Faraji,  S. Fatehi,  Qingguo Feng,  
 J. Fosso-Tande,  J. Gayvert,  Qinghui Ge,  A. Ghysels,  G. Gidofalvi,  
 J. Gomes,  J. Gonthier,  A. Gunina,  D. Hait,  M. W. D. Hanson-Heine,  
 P. H. P. Harbach,  A. W. Hauser,  M. F. Herbst,  J. E. Herr,  
 E. G. Hohenstein,  Z. C. Holden,  Kerwin Hui,  B. C. Huynh,  T.-C. Jagau,  
 Hyunjun Ji,  B. Kaduk,  K. Khistyaev,  Jaehoon Kim,  P. Klunzinger,  K. Koh,  
 D. Kosenkov,  L. Koulias,  T. Kowalczyk,  C. M. Krauter,  A. Kunitsa,  
 Ka Un Lao,  A. Laurent,  K. V. Lawler,  Joonho Lee,  D. Lefrancois,  
 S. Lehtola,  D. S. Levine,  Yi-Pei Li,  You-Sheng Lin,  Fenglai Liu,  
 Kuan-Yu Liu,  E. Livshits,  M. Loipersberger,  A. Luenser,  P. Manohar,  
 E. Mansoor,  S. F. Manzer,  Shan-Ping Mao,  Yuezhi Mao,  N. Mardirossian,  
 A. V. Marenich,  T. Markovich,  L. A. Martinez-Martinez,  S. A. Maurer,  
 N. J. Mayhall,  S. C. McKenzie,  J.-M. Mewes,  P. Morgante,  A. F. Morrison,  
 J. W. Mullinax,  K. Nanda,  T. S. Nguyen-Beck,  R. Olivares-Amaya,  
 J. A. Parkhill,  S. K. Paul,  F. Pavosevic,  Zheng Pei,  T. M. Perrine,  
 F. Plasser,  P. Pokhilko,  S. Prager,  A. Prociuk,  E. Ramos,  B. Rana,  
 D. R. Rehn,  F. Rob,  M. Scheurer,  M. Schneider,  N. Sergueev,  
 S. M. Sharada,  S. Sharma,  D. W. Small,  T. Stauch,  C. J. Stein,  
 T. Stein,  Yu-Chuan Su,  S. P. Veccham,  Zhen Tao,  A. J. W. Thom,  
 A. Tkatchenko,  T. Tsuchimochi,  N. M. Tubman,  L. Vogt,  M. L. Vidal,  
 O. Vydrov,  M. A. Watson,  J. Wenzel,  M. de Wergifosse,  T. A. Wesolowski,  
 A. White,  J. Witte,  A. Yamada,  Jun Yang,  K. Yao,  S. Yeganeh,  
 S. R. Yost,  Zhi-Qiang You,  A. Zech,  Igor Ying Zhang,  Xing Zhang,  
 Yan Zhao,  Ying Zhu,  B. R. Brooks,  G. K. L. Chan,  C. J. Cramer,  
 M. S. Gordon,  W. J. Hehre,  A. Klamt,  M. W. Schmidt,  C. D. Sherrill,  
 D. G. Truhlar,  A. Aspuru-Guzik,  R. Baer,  A. T. Bell,  N. A. Besley,  
 Jeng-Da Chai,  A. E. DePrince, III,  R. A. DiStasio Jr.,  A. Dreuw,  
 B. D. Dunietz,  T. R. Furlani,  Chao-Ping Hsu,  Yousung Jung,  Jing Kong,  
 D. S. Lambrecht,  WanZhen Liang,  C. Ochsenfeld,  V. A. Rassolov,  
 L. V. Slipchenko,  J. E. Subotnik,  T. Van Voorhis,  J. M. Herbert,  
 A. I. Krylov,  P. M. W. Gill,  M. Head-Gordon

 Contributors to earlier versions of Q-Chem not listed above: 
 R. D. Adamson,  B. Austin,  J. Baker,  G. J. O. Beran,  K. Brandhorst,  
 S. T. Brown,  E. F. C. Byrd,  A. K. Chakraborty,  C.-L. Cheng,  
 Siu Hung Chien,  D. M. Chipman,  D. L. Crittenden,  H. Dachsel,  
 R. J. Doerksen,  A. D. Dutoi,  L. Fusti-Molnar,  W. A. Goddard III,  
 A. Golubeva-Zadorozhnaya,  S. R. Gwaltney,  G. Hawkins,  A. Heyden,  
 S. Hirata,  G. Kedziora,  F. J. Keil,  C. Kelley,  Jihan Kim,  R. A. King,  
 R. Z. Khaliullin,  P. P. Korambath,  W. Kurlancheek,  A. M. Lee,  M. S. Lee,  
 S. V. Levchenko,  Ching Yeh Lin,  D. Liotard,  R. C. Lochan,  I. Lotan,  
 P. E. Maslen,  N. Nair,  D. P. O'Neill,  D. Neuhauser,  E. Neuscamman,  
 C. M. Oana,  R. Olson,  B. Peters,  R. Peverati,  P. A. Pieniazek,  
 Y. M. Rhee,  J. Ritchie,  M. A. Rohrdanz,  E. Rosta,  N. J. Russ,  
 H. F. Schaefer III,  N. E. Schultz,  N. Shenvi,  A. C. Simmonett,  A. Sodt,  
 D. Stuck,  K. S. Thanthiriwatte,  V. Vanovschi,  Tao Wang,  A. Warshel,  
 C. F. Williams,  Q. Wu,  X. Xu,  W. Zhang

 Please cite Q-Chem as follows:
 Y. Shao et al., Mol. Phys. 113, 184-215 (2015)
 DOI: 10.1080/00268976.2014.952696

 Q-Chem 5.2.2 for Intel X86 EM64T Linux

 Parts of Q-Chem use Armadillo 9.800.1 (Horizon Scraper).
 http://arma.sourceforge.net/

 Q-Chem begins on Fri Dec  3 23:13:54 2021  

Host: node023
0

     Scratch files written to /home/ymao90/scratch/r7.00_frame_0079_spade_B3LYP_dp20211203120854//

Checking the input file for inconsistencies... 	...done.

--------------------------------------------------------------
User input:
--------------------------------------------------------------
$molecule
0 1
--
0 1
C    30.11000   28.25000   26.57000  
C    29.38100   28.09800   27.91500  
C    29.29800   26.64300   28.40500  
C    30.69700   26.00900   28.33400  
C    31.35800   26.08300   26.94700  
C    31.46400   27.53200   26.44200  
H    29.00300   26.57000   29.45900  
H    30.06300   28.56500   28.63700  
H    29.41200   27.90400   25.79800  
H    30.26600   29.30200   26.30400  
H    31.26300   26.58000   29.07900  
H    30.57200   24.95900   28.62500  
H    32.41100   25.80100   27.06000  
H    30.79400   25.48500   26.22100  
H    32.17000   28.10100   27.05900  
H    31.84600   27.53500   25.41400  
H    28.56100   26.06800   27.83000  
N    28.11000   28.81900   27.91600  
H    27.36400   28.59700   27.26700  
C    27.70000   29.64600   28.94100  
H    26.66600   30.01000   28.80500  
O    28.42400   29.98900   29.85900  
--
0 1
C    23.94100   31.75800   24.60000  
H    23.80000   30.73100   24.94600  
H    24.20200   32.42500   25.42600  
H    23.06800   32.10100   24.03900  
S    25.33300   31.88300   23.45400  
C    25.01000   33.61300   23.04300  
H    24.79100   34.17200   23.95600  
H    25.85700   34.00900   22.47700  
H    24.19600   33.79900   22.33800  
O    24.94600   30.99700   22.31200  
C    32.38400   31.19500   27.80900  
H    32.17100   30.87300   26.78700  
H    33.18900   30.65700   28.31700  
H    31.60500   31.41300   28.54400  
S    33.34700   32.68400   27.45700  
C    34.36100   32.61000   28.95000  
H    33.62500   32.69000   29.75400  
H    34.93200   31.68400   29.06300  
H    35.07200   33.43200   29.06800  
O    32.47700   33.88100   27.68100  
C    26.84300   25.84000   32.09100  
H    27.15300   25.80600   31.04400  
H    27.72300   25.62000   32.70000  
H    26.03800   25.11800   32.24900  
S    26.08600   27.39900   32.60200  
C    27.69700   28.14700   32.93700  
H    27.63100   29.19700   33.23200  
H    28.11300   27.61200   33.79400  
H    28.36400   28.07100   32.07500  
O    25.45800   27.22200   33.94900  
C    38.26400   24.31200   30.34700  
H    38.06000   23.60500   29.53800  
H    38.33800   25.34400   29.99400  
H    39.24000   24.23700   30.83300  
S    37.02200   24.22900   31.65700  
C    36.90800   22.44700   31.93300  
H    37.90900   22.09300   32.19300  
H    36.19900   22.29500   32.75100  
H    36.55000   22.00500   31.00000  
O    35.83500   24.37300   30.75700  
C    32.17900   34.15500   24.53300  
H    32.08700   34.94200   25.28500  
H    32.16800   33.13400   24.92500  
H    33.13600   34.28100   24.02000  
S    30.91300   34.39600   23.26600  
C    31.58700   35.91500   22.55700  
H    30.88400   36.06500   21.73500  
H    31.62600   36.78000   23.22400  
H    32.53400   35.61800   22.09900  
O    29.61700   34.80100   23.89700  
C    28.95100   31.56500   22.97200  
H    28.54000   32.57200   22.85800  
H    28.78800   31.31000   24.02300  
H    30.04000   31.55500   22.88600  
S    28.21600   30.38200   21.82100  
C    29.61700   29.26400   22.04800  
H    29.97200   29.29600   23.08100  
H    29.45700   28.21300   21.79300  
H    30.42400   29.64300   21.41600  
O    28.53100   30.89800   20.45100  
C    33.46700   21.28500   32.19000  
H    34.41100   20.73600   32.22400  
H    33.50700   22.18800   32.80500  
H    32.67700   20.57600   32.45500  
S    32.98300   21.75500   30.51400  
C    31.30400   22.32200   30.86800  
H    30.63200   21.50500   31.14400  
H    31.30500   23.15900   31.57200  
H    30.89200   22.62000   29.90100  
O    32.71900   20.38100   29.98100  
C    28.32200   20.20900   29.85700  
H    28.46000   20.78000   30.77900  
H    29.08800   20.49500   29.13100  
H    27.31300   20.39000   29.47700  
S    28.47600   18.43000   30.12900  
C    30.24500   18.52600   30.48500  
H    30.51700   17.48100   30.65900  
H    30.83600   18.88700   29.64000  
H    30.50700   19.15500   31.33900  
O    28.60400   17.94100   28.72000  
C    30.06800   35.25200   30.03100  
H    30.83600   35.56400   29.31900  
H    29.06200   35.20100   29.60500  
H    30.01400   35.97000   30.85300  
S    30.67800   33.70800   30.74500  
C    28.97700   33.10800   30.85200  
H    28.51700   33.15700   29.86100  
H    29.04300   32.05600   31.13800  
H    28.35000   33.74900   31.47700  
O    30.80300   34.11600   32.18000  
C    30.26900   22.37900   34.91300  
H    30.48100   21.84300   35.84200  
H    31.15700   22.75000   34.39500  
H    29.59200   23.21600   35.10100  
S    29.35300   21.25100   33.83900  
C    28.55800   20.40300   35.22300  
H    27.73000   19.73500   34.97400  
H    29.33700   19.81000   35.70900  
H    28.21100   21.20500   35.88100  
O    30.33300   20.18700   33.45500  
C    24.77900   24.31300   27.97700  
H    25.28900   25.04500   27.34500  
H    24.26000   23.53700   27.40800  
H    24.11700   24.73700   28.73600  
S    26.09800   23.59200   28.98000  
C    26.92100   22.76700   27.59900  
H    27.75600   22.17100   27.97700  
H    26.07200   22.34000   27.06000  
H    27.28400   23.63300   27.03900  
O    25.45800   22.45300   29.71100  
C    38.00100   26.67000   25.11600  
H    38.70900   26.28900   25.85700  
H    37.03400   26.54500   25.60900  
H    37.89900   26.09700   24.19100  
S    38.18700   28.43000   24.74800  
C    39.76300   28.25000   23.88200  
H    40.30500   29.19600   23.96300  
H    40.42000   27.60100   24.46800  
H    39.80800   27.84100   22.87000  
O    38.57900   29.01200   26.07000  
C    28.76000   24.18700   24.22200  
H    29.53200   24.91900   24.47500  
H    27.80200   24.48200   24.65800  
H    28.97000   23.16200   24.53700  
S    28.57200   24.56300   22.46500  
C    30.24900   23.99500   22.10800  
H    30.23700   22.90800   22.21700  
H    30.33400   24.39600   21.09400  
H    30.85300   24.55900   22.82300  
O    28.71900   26.05100   22.54600  
C    32.21500   22.49400   25.56400  
H    33.20000   22.02900   25.47600  
H    31.45100   22.36800   24.79300  
H    32.39000   23.57300   25.59000  
S    31.57400   22.01000   27.18300  
C    31.37000   20.25600   26.79600  
H    30.73900   19.83600   27.58400  
H    30.85000   20.16100   25.84000  
H    32.38100   19.85500   26.69300  
O    30.17200   22.53100   27.24500  
C    22.07300   36.01100   28.27800  
H    22.56900   36.83400   27.75700  
H    21.25500   35.57200   27.70000  
H    21.80100   36.19000   29.32100  
S    23.29500   34.69500   28.47400  
C    24.62600   35.60600   29.28800  
H    25.43300   34.87000   29.32300  
H    25.07000   36.41600   28.70200  
H    24.39900   35.96300   30.29600  
O    23.72500   34.59800   27.04300  
C    32.88300   25.91900   32.41100  
H    33.45500   26.84800   32.35400  
H    33.02600   25.52500   33.42000  
H    33.32600   25.34700   31.59100  
S    31.17600   26.36700   32.02300  
C    31.41700   28.05600   31.42600  
H    30.40200   28.43400   31.27900  
H    31.91800   28.51900   32.28000  
H    32.04100   28.10800   30.53100  
O    30.53900   26.60400   33.35700  
C    33.27100   29.04200   22.68500  
H    32.80900   29.61100   21.87400  
H    33.65900   28.10200   22.28500  
H    32.54600   28.68600   23.42000  
S    34.49300   30.01700   23.59200  
C    34.61700   28.87400   24.98600  
H    35.15500   29.41000   25.77300  
H    33.62500   28.58900   25.34500  
H    35.23400   28.01100   24.72600  
O    33.67100   31.06700   24.27200  
C    24.69300   26.36200   24.39500  
H    25.62200   25.78800   24.45300  
H    23.90200   25.89500   24.98700  
H    24.39300   26.57900   23.36700  
S    25.13700   27.88400   25.26200  
C    26.67500   28.19800   24.36700  
H    27.01800   29.23300   24.43800  
H    27.38900   27.45900   24.73900  
H    26.55400   28.00400   23.29800  
O    25.72800   27.37600   26.53900  
C    35.93300   30.15700   33.56600  
H    36.50300   29.26200   33.82600  
H    36.43300   30.85700   32.89100  
H    35.56600   30.59000   34.50000  
S    34.35300   29.52800   32.95300  
C    33.63400   31.17800   32.79900  
H    33.56900   31.51500   33.83700  
H    34.27200   31.70500   32.08500  
H    32.62700   31.04300   32.39700  
O    33.67400   28.91200   34.13600  
C    33.94400   24.94600   23.69500  
H    34.44700   25.23200   24.62300  
H    33.04600   25.56000   23.59500  
H    33.73700   23.87300   23.72000  
S    35.17600   25.20400   22.39800  
C    36.31200   23.91500   22.95900  
H    37.24600   23.88200   22.39300  
H    36.52100   24.09400   24.01700  
H    35.84000   22.93800   22.82900  
O    35.73300   26.54500   22.76200  
C    23.53300   32.28000   32.71800  
H    22.59300   32.67000   32.32000  
H    23.45900   31.19000   32.75200  
H    23.81200   32.72300   33.67800  
S    24.71500   32.66900   31.40700  
C    26.07900   31.59900   31.91700  
H    26.91800   31.63700   31.21700  
H    26.48900   31.92300   32.87800  
H    25.70300   30.58700   32.08500  
O    25.26500   34.03100   31.69700  
C    37.52300   23.39300   26.81300  
H    37.42500   22.91200   25.83700  
H    37.99100   24.37400   26.70000  
H    38.18500   22.78000   27.43000  
S    35.91300   23.55300   27.61700  
C    35.46000   21.83000   27.92400  
H    34.37900   21.77000   28.07400  
H    35.91000   21.27000   27.10000  
H    35.88800   21.37700   28.82100  
O    34.87600   24.04900   26.65800  
C    23.46600   31.29300   28.58300  
H    24.46400   31.71000   28.42500  
H    22.99800   31.46700   27.61000  
H    23.01200   31.76600   29.45700  
S    23.92500   29.56400   28.83700  
C    22.22900   28.95600   28.69800  
H    21.45600   29.46300   29.28000  
H    22.11000   29.07300   27.61800  
H    22.16800   27.89400   28.94900  
O    24.30800   29.35100   30.26900  
C    26.87800   34.28300   26.20800  
H    26.83400   33.94400   25.17000  
H    25.84900   34.36300   26.56700  
H    27.32400   35.26200   26.40100  
S    27.66800   32.93600   27.11900  
C    29.37000   33.49300   26.87600  
H    29.73800   33.59500   25.85200  
H    29.34300   34.48100   27.34100  
H    30.03300   32.74900   27.32400  
O    27.55100   31.75700   26.20500  
C    30.33900   33.03200   35.36500  
H    31.42600   32.91400   35.38100  
H    30.01300   33.28500   34.35300  
H    29.89800   33.69900   36.11000  
S    29.73800   31.37800   35.77800  
C    30.53200   30.49300   34.41800  
H    30.11800   29.49900   34.23300  
H    30.61200   31.09500   33.51000  
H    31.56100   30.39000   34.77300  
O    28.28100   31.46000   35.44500  
C    35.87000   27.03300   28.42700  
H    36.72600   26.61500   27.89100  
H    35.33900   26.23100   28.94700  
H    35.09200   27.34400   27.72500  
S    36.21400   28.51600   29.40000  
C    36.98300   27.63900   30.78000  
H    37.93700   27.24300   30.42100  
H    37.24100   28.40500   31.51600  
H    36.33300   26.90600   31.26300  
O    34.84700   28.90300   29.87000  
$end

$rem
JOBTYPE  SP
METHOD  B3LYP
BASIS  6-31+G(D)
SYMMETRY  FALSE
SYM_IGNORE  TRUE
MEM_TOTAL  16000
MEM_STATIC  8000
MAX_SUB_FILE_NUM  16000
BASIS_LIN_DEP_THRESH  6
THRESH  14
SCF_CONVERGENCE  8
GEN_SCFMAN  TRUE
SCF_GUESS  SAD
FD_MAT_VEC_PROD  FALSE
XC_GRID  000075000302
NL_GRID  1
MAX_SCF_CYCLES  200
ENV_METHOD  B3LYP
GEN_SCFMAN_EMBED  TRUE
SPADE_PARTITION  TRUE
$end

$development
embedding_early_stop  1
$end

--------------------------------------------------------------
 ----------------------------------------------------------------
             Standard Nuclear Orientation (Angstroms)
    I     Atom           X                Y                Z
 ----------------------------------------------------------------
    1      C      30.1100000000    28.2500000000    26.5700000000
    2      C      29.3810000000    28.0980000000    27.9150000000
    3      C      29.2980000000    26.6430000000    28.4050000000
    4      C      30.6970000000    26.0090000000    28.3340000000
    5      C      31.3580000000    26.0830000000    26.9470000000
    6      C      31.4640000000    27.5320000000    26.4420000000
    7      H      29.0030000000    26.5700000000    29.4590000000
    8      H      30.0630000000    28.5650000000    28.6370000000
    9      H      29.4120000000    27.9040000000    25.7980000000
   10      H      30.2660000000    29.3020000000    26.3040000000
   11      H      31.2630000000    26.5800000000    29.0790000000
   12      H      30.5720000000    24.9590000000    28.6250000000
   13      H      32.4110000000    25.8010000000    27.0600000000
   14      H      30.7940000000    25.4850000000    26.2210000000
   15      H      32.1700000000    28.1010000000    27.0590000000
   16      H      31.8460000000    27.5350000000    25.4140000000
   17      H      28.5610000000    26.0680000000    27.8300000000
   18      N      28.1100000000    28.8190000000    27.9160000000
   19      H      27.3640000000    28.5970000000    27.2670000000
   20      C      27.7000000000    29.6460000000    28.9410000000
   21      H      26.6660000000    30.0100000000    28.8050000000
   22      O      28.4240000000    29.9890000000    29.8590000000
   23      C      23.9410000000    31.7580000000    24.6000000000
   24      H      23.8000000000    30.7310000000    24.9460000000
   25      H      24.2020000000    32.4250000000    25.4260000000
   26      H      23.0680000000    32.1010000000    24.0390000000
   27      S      25.3330000000    31.8830000000    23.4540000000
   28      C      25.0100000000    33.6130000000    23.0430000000
   29      H      24.7910000000    34.1720000000    23.9560000000
   30      H      25.8570000000    34.0090000000    22.4770000000
   31      H      24.1960000000    33.7990000000    22.3380000000
   32      O      24.9460000000    30.9970000000    22.3120000000
   33      C      32.3840000000    31.1950000000    27.8090000000
   34      H      32.1710000000    30.8730000000    26.7870000000
   35      H      33.1890000000    30.6570000000    28.3170000000
   36      H      31.6050000000    31.4130000000    28.5440000000
   37      S      33.3470000000    32.6840000000    27.4570000000
   38      C      34.3610000000    32.6100000000    28.9500000000
   39      H      33.6250000000    32.6900000000    29.7540000000
   40      H      34.9320000000    31.6840000000    29.0630000000
   41      H      35.0720000000    33.4320000000    29.0680000000
   42      O      32.4770000000    33.8810000000    27.6810000000
   43      C      26.8430000000    25.8400000000    32.0910000000
   44      H      27.1530000000    25.8060000000    31.0440000000
   45      H      27.7230000000    25.6200000000    32.7000000000
   46      H      26.0380000000    25.1180000000    32.2490000000
   47      S      26.0860000000    27.3990000000    32.6020000000
   48      C      27.6970000000    28.1470000000    32.9370000000
   49      H      27.6310000000    29.1970000000    33.2320000000
   50      H      28.1130000000    27.6120000000    33.7940000000
   51      H      28.3640000000    28.0710000000    32.0750000000
   52      O      25.4580000000    27.2220000000    33.9490000000
   53      C      38.2640000000    24.3120000000    30.3470000000
   54      H      38.0600000000    23.6050000000    29.5380000000
   55      H      38.3380000000    25.3440000000    29.9940000000
   56      H      39.2400000000    24.2370000000    30.8330000000
   57      S      37.0220000000    24.2290000000    31.6570000000
   58      C      36.9080000000    22.4470000000    31.9330000000
   59      H      37.9090000000    22.0930000000    32.1930000000
   60      H      36.1990000000    22.2950000000    32.7510000000
   61      H      36.5500000000    22.0050000000    31.0000000000
   62      O      35.8350000000    24.3730000000    30.7570000000
   63      C      32.1790000000    34.1550000000    24.5330000000
   64      H      32.0870000000    34.9420000000    25.2850000000
   65      H      32.1680000000    33.1340000000    24.9250000000
   66      H      33.1360000000    34.2810000000    24.0200000000
   67      S      30.9130000000    34.3960000000    23.2660000000
   68      C      31.5870000000    35.9150000000    22.5570000000
   69      H      30.8840000000    36.0650000000    21.7350000000
   70      H      31.6260000000    36.7800000000    23.2240000000
   71      H      32.5340000000    35.6180000000    22.0990000000
   72      O      29.6170000000    34.8010000000    23.8970000000
   73      C      28.9510000000    31.5650000000    22.9720000000
   74      H      28.5400000000    32.5720000000    22.8580000000
   75      H      28.7880000000    31.3100000000    24.0230000000
   76      H      30.0400000000    31.5550000000    22.8860000000
   77      S      28.2160000000    30.3820000000    21.8210000000
   78      C      29.6170000000    29.2640000000    22.0480000000
   79      H      29.9720000000    29.2960000000    23.0810000000
   80      H      29.4570000000    28.2130000000    21.7930000000
   81      H      30.4240000000    29.6430000000    21.4160000000
   82      O      28.5310000000    30.8980000000    20.4510000000
   83      C      33.4670000000    21.2850000000    32.1900000000
   84      H      34.4110000000    20.7360000000    32.2240000000
   85      H      33.5070000000    22.1880000000    32.8050000000
   86      H      32.6770000000    20.5760000000    32.4550000000
   87      S      32.9830000000    21.7550000000    30.5140000000
   88      C      31.3040000000    22.3220000000    30.8680000000
   89      H      30.6320000000    21.5050000000    31.1440000000
   90      H      31.3050000000    23.1590000000    31.5720000000
   91      H      30.8920000000    22.6200000000    29.9010000000
   92      O      32.7190000000    20.3810000000    29.9810000000
   93      C      28.3220000000    20.2090000000    29.8570000000
   94      H      28.4600000000    20.7800000000    30.7790000000
   95      H      29.0880000000    20.4950000000    29.1310000000
   96      H      27.3130000000    20.3900000000    29.4770000000
   97      S      28.4760000000    18.4300000000    30.1290000000
   98      C      30.2450000000    18.5260000000    30.4850000000
   99      H      30.5170000000    17.4810000000    30.6590000000
  100      H      30.8360000000    18.8870000000    29.6400000000
  101      H      30.5070000000    19.1550000000    31.3390000000
  102      O      28.6040000000    17.9410000000    28.7200000000
  103      C      30.0680000000    35.2520000000    30.0310000000
  104      H      30.8360000000    35.5640000000    29.3190000000
  105      H      29.0620000000    35.2010000000    29.6050000000
  106      H      30.0140000000    35.9700000000    30.8530000000
  107      S      30.6780000000    33.7080000000    30.7450000000
  108      C      28.9770000000    33.1080000000    30.8520000000
  109      H      28.5170000000    33.1570000000    29.8610000000
  110      H      29.0430000000    32.0560000000    31.1380000000
  111      H      28.3500000000    33.7490000000    31.4770000000
  112      O      30.8030000000    34.1160000000    32.1800000000
  113      C      30.2690000000    22.3790000000    34.9130000000
  114      H      30.4810000000    21.8430000000    35.8420000000
  115      H      31.1570000000    22.7500000000    34.3950000000
  116      H      29.5920000000    23.2160000000    35.1010000000
  117      S      29.3530000000    21.2510000000    33.8390000000
  118      C      28.5580000000    20.4030000000    35.2230000000
  119      H      27.7300000000    19.7350000000    34.9740000000
  120      H      29.3370000000    19.8100000000    35.7090000000
  121      H      28.2110000000    21.2050000000    35.8810000000
  122      O      30.3330000000    20.1870000000    33.4550000000
  123      C      24.7790000000    24.3130000000    27.9770000000
  124      H      25.2890000000    25.0450000000    27.3450000000
  125      H      24.2600000000    23.5370000000    27.4080000000
  126      H      24.1170000000    24.7370000000    28.7360000000
  127      S      26.0980000000    23.5920000000    28.9800000000
  128      C      26.9210000000    22.7670000000    27.5990000000
  129      H      27.7560000000    22.1710000000    27.9770000000
  130      H      26.0720000000    22.3400000000    27.0600000000
  131      H      27.2840000000    23.6330000000    27.0390000000
  132      O      25.4580000000    22.4530000000    29.7110000000
  133      C      38.0010000000    26.6700000000    25.1160000000
  134      H      38.7090000000    26.2890000000    25.8570000000
  135      H      37.0340000000    26.5450000000    25.6090000000
  136      H      37.8990000000    26.0970000000    24.1910000000
  137      S      38.1870000000    28.4300000000    24.7480000000
  138      C      39.7630000000    28.2500000000    23.8820000000
  139      H      40.3050000000    29.1960000000    23.9630000000
  140      H      40.4200000000    27.6010000000    24.4680000000
  141      H      39.8080000000    27.8410000000    22.8700000000
  142      O      38.5790000000    29.0120000000    26.0700000000
  143      C      28.7600000000    24.1870000000    24.2220000000
  144      H      29.5320000000    24.9190000000    24.4750000000
  145      H      27.8020000000    24.4820000000    24.6580000000
  146      H      28.9700000000    23.1620000000    24.5370000000
  147      S      28.5720000000    24.5630000000    22.4650000000
  148      C      30.2490000000    23.9950000000    22.1080000000
  149      H      30.2370000000    22.9080000000    22.2170000000
  150      H      30.3340000000    24.3960000000    21.0940000000
  151      H      30.8530000000    24.5590000000    22.8230000000
  152      O      28.7190000000    26.0510000000    22.5460000000
  153      C      32.2150000000    22.4940000000    25.5640000000
  154      H      33.2000000000    22.0290000000    25.4760000000
  155      H      31.4510000000    22.3680000000    24.7930000000
  156      H      32.3900000000    23.5730000000    25.5900000000
  157      S      31.5740000000    22.0100000000    27.1830000000
  158      C      31.3700000000    20.2560000000    26.7960000000
  159      H      30.7390000000    19.8360000000    27.5840000000
  160      H      30.8500000000    20.1610000000    25.8400000000
  161      H      32.3810000000    19.8550000000    26.6930000000
  162      O      30.1720000000    22.5310000000    27.2450000000
  163      C      22.0730000000    36.0110000000    28.2780000000
  164      H      22.5690000000    36.8340000000    27.7570000000
  165      H      21.2550000000    35.5720000000    27.7000000000
  166      H      21.8010000000    36.1900000000    29.3210000000
  167      S      23.2950000000    34.6950000000    28.4740000000
  168      C      24.6260000000    35.6060000000    29.2880000000
  169      H      25.4330000000    34.8700000000    29.3230000000
  170      H      25.0700000000    36.4160000000    28.7020000000
  171      H      24.3990000000    35.9630000000    30.2960000000
  172      O      23.7250000000    34.5980000000    27.0430000000
  173      C      32.8830000000    25.9190000000    32.4110000000
  174      H      33.4550000000    26.8480000000    32.3540000000
  175      H      33.0260000000    25.5250000000    33.4200000000
  176      H      33.3260000000    25.3470000000    31.5910000000
  177      S      31.1760000000    26.3670000000    32.0230000000
  178      C      31.4170000000    28.0560000000    31.4260000000
  179      H      30.4020000000    28.4340000000    31.2790000000
  180      H      31.9180000000    28.5190000000    32.2800000000
  181      H      32.0410000000    28.1080000000    30.5310000000
  182      O      30.5390000000    26.6040000000    33.3570000000
  183      C      33.2710000000    29.0420000000    22.6850000000
  184      H      32.8090000000    29.6110000000    21.8740000000
  185      H      33.6590000000    28.1020000000    22.2850000000
  186      H      32.5460000000    28.6860000000    23.4200000000
  187      S      34.4930000000    30.0170000000    23.5920000000
  188      C      34.6170000000    28.8740000000    24.9860000000
  189      H      35.1550000000    29.4100000000    25.7730000000
  190      H      33.6250000000    28.5890000000    25.3450000000
  191      H      35.2340000000    28.0110000000    24.7260000000
  192      O      33.6710000000    31.0670000000    24.2720000000
  193      C      24.6930000000    26.3620000000    24.3950000000
  194      H      25.6220000000    25.7880000000    24.4530000000
  195      H      23.9020000000    25.8950000000    24.9870000000
  196      H      24.3930000000    26.5790000000    23.3670000000
  197      S      25.1370000000    27.8840000000    25.2620000000
  198      C      26.6750000000    28.1980000000    24.3670000000
  199      H      27.0180000000    29.2330000000    24.4380000000
  200      H      27.3890000000    27.4590000000    24.7390000000
  201      H      26.5540000000    28.0040000000    23.2980000000
  202      O      25.7280000000    27.3760000000    26.5390000000
  203      C      35.9330000000    30.1570000000    33.5660000000
  204      H      36.5030000000    29.2620000000    33.8260000000
  205      H      36.4330000000    30.8570000000    32.8910000000
  206      H      35.5660000000    30.5900000000    34.5000000000
  207      S      34.3530000000    29.5280000000    32.9530000000
  208      C      33.6340000000    31.1780000000    32.7990000000
  209      H      33.5690000000    31.5150000000    33.8370000000
  210      H      34.2720000000    31.7050000000    32.0850000000
  211      H      32.6270000000    31.0430000000    32.3970000000
  212      O      33.6740000000    28.9120000000    34.1360000000
  213      C      33.9440000000    24.9460000000    23.6950000000
  214      H      34.4470000000    25.2320000000    24.6230000000
  215      H      33.0460000000    25.5600000000    23.5950000000
  216      H      33.7370000000    23.8730000000    23.7200000000
  217      S      35.1760000000    25.2040000000    22.3980000000
  218      C      36.3120000000    23.9150000000    22.9590000000
  219      H      37.2460000000    23.8820000000    22.3930000000
  220      H      36.5210000000    24.0940000000    24.0170000000
  221      H      35.8400000000    22.9380000000    22.8290000000
  222      O      35.7330000000    26.5450000000    22.7620000000
  223      C      23.5330000000    32.2800000000    32.7180000000
  224      H      22.5930000000    32.6700000000    32.3200000000
  225      H      23.4590000000    31.1900000000    32.7520000000
  226      H      23.8120000000    32.7230000000    33.6780000000
  227      S      24.7150000000    32.6690000000    31.4070000000
  228      C      26.0790000000    31.5990000000    31.9170000000
  229      H      26.9180000000    31.6370000000    31.2170000000
  230      H      26.4890000000    31.9230000000    32.8780000000
  231      H      25.7030000000    30.5870000000    32.0850000000
  232      O      25.2650000000    34.0310000000    31.6970000000
  233      C      37.5230000000    23.3930000000    26.8130000000
  234      H      37.4250000000    22.9120000000    25.8370000000
  235      H      37.9910000000    24.3740000000    26.7000000000
  236      H      38.1850000000    22.7800000000    27.4300000000
  237      S      35.9130000000    23.5530000000    27.6170000000
  238      C      35.4600000000    21.8300000000    27.9240000000
  239      H      34.3790000000    21.7700000000    28.0740000000
  240      H      35.9100000000    21.2700000000    27.1000000000
  241      H      35.8880000000    21.3770000000    28.8210000000
  242      O      34.8760000000    24.0490000000    26.6580000000
  243      C      23.4660000000    31.2930000000    28.5830000000
  244      H      24.4640000000    31.7100000000    28.4250000000
  245      H      22.9980000000    31.4670000000    27.6100000000
  246      H      23.0120000000    31.7660000000    29.4570000000
  247      S      23.9250000000    29.5640000000    28.8370000000
  248      C      22.2290000000    28.9560000000    28.6980000000
  249      H      21.4560000000    29.4630000000    29.2800000000
  250      H      22.1100000000    29.0730000000    27.6180000000
  251      H      22.1680000000    27.8940000000    28.9490000000
  252      O      24.3080000000    29.3510000000    30.2690000000
  253      C      26.8780000000    34.2830000000    26.2080000000
  254      H      26.8340000000    33.9440000000    25.1700000000
  255      H      25.8490000000    34.3630000000    26.5670000000
  256      H      27.3240000000    35.2620000000    26.4010000000
  257      S      27.6680000000    32.9360000000    27.1190000000
  258      C      29.3700000000    33.4930000000    26.8760000000
  259      H      29.7380000000    33.5950000000    25.8520000000
  260      H      29.3430000000    34.4810000000    27.3410000000
  261      H      30.0330000000    32.7490000000    27.3240000000
  262      O      27.5510000000    31.7570000000    26.2050000000
  263      C      30.3390000000    33.0320000000    35.3650000000
  264      H      31.4260000000    32.9140000000    35.3810000000
  265      H      30.0130000000    33.2850000000    34.3530000000
  266      H      29.8980000000    33.6990000000    36.1100000000
  267      S      29.7380000000    31.3780000000    35.7780000000
  268      C      30.5320000000    30.4930000000    34.4180000000
  269      H      30.1180000000    29.4990000000    34.2330000000
  270      H      30.6120000000    31.0950000000    33.5100000000
  271      H      31.5610000000    30.3900000000    34.7730000000
  272      O      28.2810000000    31.4600000000    35.4450000000
  273      C      35.8700000000    27.0330000000    28.4270000000
  274      H      36.7260000000    26.6150000000    27.8910000000
  275      H      35.3390000000    26.2310000000    28.9470000000
  276      H      35.0920000000    27.3440000000    27.7250000000
  277      S      36.2140000000    28.5160000000    29.4000000000
  278      C      36.9830000000    27.6390000000    30.7800000000
  279      H      37.9370000000    27.2430000000    30.4210000000
  280      H      37.2410000000    28.4050000000    31.5160000000
  281      H      36.3330000000    26.9060000000    31.2630000000
  282      O      34.8470000000    28.9030000000    29.8700000000
 ----------------------------------------------------------------
 Nuclear Repulsion Energy =       45393.31288103 hartrees
 There are      581 alpha and      581 beta electrons
 Requested basis set is 6-31+G(d)
 There are 929 shells and 2589 basis functions

 Total QAlloc Memory Limit  16000 MB
 Mega-Array Size      7821 MB
 MEM_STATIC part      8000 MB
 A cutoff of  1.0D-14 yielded 167586 shell pairs
 There are   1453765 function pairs
 Smallest overlap matrix eigenvalue = 7.24E-07
 Linear dependence detected in AO basis
 Tighter screening thresholds may be required for diffuse basis sets
 Use S2THRESH > 14 and THRESH = 14 in case of SCF convergence issues
 Number of orthogonalized atomic orbitals = 2588
 Maximum deviation from orthogonality = 2.373E-10

 Scale SEOQF with 1.000000e-03/1.000000e-03/1.000000e-03

 Standard Electronic Orientation quadrupole field applied
 Nucleus-field energy     =     0.0000000427 hartrees
 Guess from superposition of atomic densities
 Warning:  Energy on first SCF cycle will be non-variational
 SAD guess density has 1162.000002 electrons

 -----------------------------------------------------------------------
  General SCF calculation program by
  Eric Jon Sundstrom, Paul Horn, Yuezhi Mao, Dmitri Zuev, Alec White,
  David Stuck, Shaama M.S., Shane Yost, Joonho Lee, David Small,
  Daniel Levine, Susi Lehtola, Hugh Burton, Evgeny Epifanovsky,
  Bang C. Huynh
 -----------------------------------------------------------------------
=================================================
        Doing projection-based embedding         
      F. Manby et al. JCTC, 8, 2564 (2012)       
=================================================

****************************************************
   Low-level SCF calculation for the whole system   
****************************************************
----------------------------------------------
 Summary of the low-level theory: 
 Exchange:     0.2000 Hartree-Fock + 0.0800 Slater + 0.7200 B88
 Correlation:  0.1900 VWN1RPA + 0.8100 LYP
 Using Euler-Maclaurin-Lebedev (75,302) quadrature formula
----------------------------------------------
 using 16 threads for integral computing
 -------------------------------------------------------
 OpenMP Integral computing Module                
 Release: version 2.0, May 2017, Q-Chem Inc. Pleasanton 
 -------------------------------------------------------
 A restricted SCF calculation will be
 performed using DIIS
 SCF converges when DIIS error is below 1.0e-08
 ---------------------------------------
  Cycle       Energy         DIIS error
 ---------------------------------------
    1  -14806.1100646825      1.37e-02  
    2  -14782.8276150922      2.55e-03  
    3  -14766.5770400388      5.08e-03  
    4  -14784.0308151007      1.57e-03  
    5  -14785.5704208270      1.01e-03  
    6  -14787.3970590163      3.85e-04  
    7  -14787.4601376084      2.79e-04  
    8  -14787.5085462062      1.20e-04  
    9  -14787.5181049057      6.63e-05  
   10  -14787.5213783171      2.84e-05  
   11  -14787.5221918302      1.15e-05  
   12  -14787.5222823385      4.44e-06  
   13  -14787.5222951589      1.51e-06  
   14  -14787.5222967273      3.99e-07  
   15  -14787.5222968400      1.24e-07  
   16  -14787.5222968500      5.68e-08  
   17  -14787.5222968518      1.85e-08  
   18  -14787.5222968521      5.22e-09  Convergence criterion met
 ---------------------------------------
 SCF time:   CPU 208097.14s  wall 13144.00s 
 SCF   energy in the final basis set =   -14787.5222968521
 Total energy in the final basis set =   -14787.5222968521

****************************************************
             Start embedding calculation            
****************************************************
----------------------------------------------
 Summary of the high-level theory: 
 Exchange:     0.2000 Hartree-Fock + 0.0800 Slater + 0.7200 B88
 Correlation:  0.1900 VWN1RPA + 0.8100 LYP
 Using Euler-Maclaurin-Lebedev (75,302) quadrature formula
----------------------------------------------
Doing R-in-R Embedding Calculation
Number of fragments: 2
Embedded fragment(s): 1 
NOcc for each fragment
           35
          546
NBasis for each fragment
          197
         2392
Variational space of the embedded problem: 
NOcc (active)  = 35
NOcc (fixed)   = 546
NVir (total)   = 2007
Read converged orbitals from disk
=========================================================
       Doing SPADE partition for the orbital space       
     D. CLaudino and N. Mayhall JCTC 15, 1053 (2019)     
=========================================================
SPADE singular values:
 1.0000 1.0000 1.0000 1.0000 1.0000 1.0000 1.0000 1.0000 1.0000 0.9999
 0.9998 0.9997 0.9997 0.9996 0.9996 0.9996 0.9995 0.9992 0.9988 0.9977
 0.9972 0.9970 0.9967 0.9962 0.9958 0.9952 0.9946 0.9940 0.9936 0.9929
 0.9923 0.9909 0.9902 0.9865 0.9814 0.1973 0.1667 0.1624 0.1488 0.1413
 0.1349 0.1217 0.1149 0.1137 0.1022 0.0953 0.0866 0.0753 0.0696 0.0675
 0.0590 0.0504 0.0457 0.0432 0.0419 0.0393 0.0383 0.0362 0.0328 0.0316
 0.0305 0.0270 0.0265 0.0232 0.0226 0.0212 0.0199 0.0181 0.0177 0.0168
 0.0152 0.0149 0.0138 0.0135 0.0126 0.0123 0.0114 0.0102 0.0097 0.0096
 0.0090 0.0086 0.0082 0.0080 0.0077 0.0070 0.0068 0.0066 0.0063 0.0059
 0.0057 0.0053 0.0051 0.0050 0.0048 0.0046 0.0044 0.0042 0.0039 0.0037
 0.0035 0.0034 0.0034 0.0031 0.0030 0.0027 0.0025 0.0024 0.0023 0.0023
 0.0022 0.0021 0.0020 0.0019 0.0018 0.0017 0.0016 0.0015 0.0015 0.0014
 0.0014 0.0013 0.0013 0.0012 0.0012 0.0012 0.0011 0.0011 0.0010 0.0010
 0.0009 0.0009 0.0008 0.0008 0.0008 0.0007 0.0007 0.0007 0.0007 0.0007
 0.0006 0.0006 0.0006 0.0005 0.0005 0.0005 0.0005 0.0004 0.0004 0.0004
 0.0004 0.0004 0.0004 0.0003 0.0003 0.0003 0.0003 0.0003 0.0003 0.0003
 0.0003 0.0003 0.0002 0.0002 0.0002 0.0002 0.0002 0.0002 0.0002 0.0002
 0.0002 0.0002 0.0002 0.0002 0.0002 0.0001 0.0001 0.0001 0.0001 0.0001
 0.0001 0.0001 0.0001 0.0001 0.0001 0.0001 0.0001 0.0001 0.0001 0.0001
 0.0001 0.0001 0.0001 0.0001 0.0000 0.0000 0.0000
Early stop requested!
546 environment occs will be part of frozen-core in future post-HF calculations
 
 --------------------------------------------------------------
 
                    Orbital Energies (a.u.)
 --------------------------------------------------------------
 
 Alpha MOs
 -- Occupied --
 -0.5055  -0.4699  -0.4822  -0.4823  -0.4749  -0.4522  -0.4598  -0.4782
 -0.4709  -0.4620  -0.4290  -0.4614  -0.4225  -0.4733  -0.4368  -0.4298
 -0.4442  -0.4768  -0.4948  -0.5122  -0.5328  -0.5702  -0.5641  -0.5378
 -0.6370  -0.4752  -0.5073  -0.6196  -0.4789  -0.5853  -0.5660  -0.5423
 -0.5685  -0.5085  -0.6025  -0.5350  -0.5016  -0.5445  -0.5525  -0.5396
 -0.5626  -0.5537  -0.4894  -0.4637  -0.5483  -0.5790  -0.5278  -0.5573
 -0.5039  -0.5028  -0.5703  -0.5870  -0.6209  -0.5758  -0.5723  -0.8341
 -0.6558  -0.6889  -0.6430  -0.6378  -0.6956  -0.6212  -0.5701  -0.7444
 -0.8342  -0.6109  -0.7593  -0.6940  -0.7720  -0.6730  -0.7517  -1.0014
 -0.9289  -0.9175  -0.9971  -0.9268  -0.7005  -0.9775  -0.9774  -1.0309
 -1.2351  -0.9502  -0.9239  -0.8674  -0.8086  -1.0545  -1.0046  -0.9155
 -0.9568  -1.0527  -1.0609  -1.0642  -0.9706  -1.1214  -0.9687  -1.0342
 -1.0388  -1.0225  -0.9752  -1.1498  -1.1569  -1.0257  -1.0172  -0.9857
 -1.1039  -1.2414  -1.4262  -1.1188  -1.1202  -1.0583  -1.7034  -1.4938
 -1.1247  -1.1437  -1.4770  -1.2545  -1.0331  -1.1155  -1.8757  -1.2981
 -1.3519  -1.7514  -1.1529  -1.0141  -1.3600  -1.5308  -1.3322  -1.4449
 -1.6409  -1.3631  -1.5893  -1.6772  -1.6074  -1.9605  -1.0759  -1.5015
 -1.5056  -1.5927  -1.7725  -1.5325  -1.8178  -1.3176  -1.4484  -1.7692
 -1.9086  -1.6108  -1.3998  -1.3711  -1.5146  -1.7458  -2.0005  -1.8075
 -1.7052  -1.6787  -2.4519  -1.6879  -2.2203  -2.0087  -2.5964  -2.5415
 -1.7677  -2.3326  -5.9857  -5.9349  -5.9675  -5.9006  -5.8375  -5.7448
 -5.9280  -5.8444  -5.9723  -5.9065  -5.9030  -5.8993  -5.9650  -5.9466
 -5.9562  -5.9415  -5.9469  -5.8176  -5.8748  -5.8391  -4.0426  -3.5254
 -4.3061  -4.4901  -6.1762  -1.7981 -10.9059  -2.9166  -1.6949 -15.2883
-32.8779  -3.1694  -7.1083  -1.2089  -4.7443  -6.0488 -10.5405  -1.6191
-12.4370  -2.8896  -5.5400  -2.1561  -1.2169  -3.0378  -5.4238  -1.5856
 -4.2035 -72.6911  -4.5313  -4.4969  -1.6652 -81.3730  -6.0377  -3.8703
 -1.6256  -8.0337  -1.2164  -1.8388  -3.4008 -14.2203 -13.3264  -9.1160
 -4.6897  -1.0340 -10.4925  -1.2507 -13.3891  -2.1761  -1.2486  -6.7511
 -2.2851  -5.4577  -3.0628  -1.3187  -1.8165 -13.1375  -6.0682 -10.1570
-69.2529  -9.1345  -4.7172  -9.0928 -54.9051 -29.4781  -6.8006  -1.8078
 -1.1756 -10.9682  -1.1208 -19.0750 -18.0286  -5.3344 -12.1138  -1.7877
 -5.7860  -2.0580  -7.2831  -5.6126  -1.6407  -4.3308  -1.9254  -7.3800
 -7.2394  -1.4472  -3.3997  -5.9332  -1.2835  -5.6293 -62.1567 -10.3473
 -9.2342  -3.8799  -1.7957 -35.9163 -44.4174 -21.6629  -1.4583  -1.3362
-14.5231 -11.3100  -5.8621  -4.9539  -2.5967  -1.5818  -4.6663  -3.9003
 -8.7267  -6.5816  -3.7846  -6.4378 -51.9592  -7.7494 -69.2966  -1.6433
 -3.2421 -41.7640 -28.1571  -1.9784  -3.6788  -8.5671  -2.6790  -4.7616
 -2.3542  -6.3195  -5.3357  -5.3833  -2.8555  -4.3724  -3.1692  -2.0470
 -3.5416  -3.2689 -12.9615  -7.2848  -7.7546  -4.6967 -11.1776  -7.0984
-13.7378 -12.6590  -5.0359  -5.2172 -17.4723 -24.2112 -11.8977  -1.0492
 -4.7075  -6.5308  -9.7528  -5.0485 -10.7346  -8.1821  -7.3192  -2.5274
 -1.9605 -22.7640  -4.2809  -8.5055  -6.9873  -7.6706  -7.6644 -18.0327
-12.4553 -21.8270 -10.9198 -11.0913  -6.4071 -10.2710  -6.0693  -4.5729
 -5.5440  -9.9349  -7.3434  -9.9358  -5.9307  -5.9823  -5.5218  -3.3783
 -3.3409  -5.4258 -13.7486 -31.0449  -5.4427  -9.7220  -5.4509 -11.7876
 -5.7385  -5.2399  -9.8943  -6.7762  -6.0087 -23.7048 -14.3340  -3.6835
 -3.1253  -2.6227  -3.5516  -3.4559  -5.6328  -3.6231  -2.9103  -2.1737
 -3.5487  -8.6762  -5.9255  -2.8525 -14.1624  -5.7096  -2.8766  -4.0363
 -6.3691  -3.6741 -12.2007  -4.3017  -7.7789  -2.1903  -4.8797  -9.1994
-24.9187 -16.5969  -1.1546 -15.7697  -5.9121 -17.8105 -19.9688 -12.6510
 -4.2463  -3.9637 -29.7045  -5.7313 -26.6408 -31.8533  -7.6776  -2.1488
 -3.3740  -3.3227  -9.3280  -6.9668  -9.5173 -16.0341  -8.0434  -4.8450
 -6.2977  -3.9635 -10.5583 -13.9867 -10.7637 -10.4684  -9.6011 -20.8833
-16.5270  -6.0711  -6.7852 -10.0698 -26.3841  -4.9340  -4.9545  -2.8383
-12.8086  -4.3425  -2.1214 -10.6815  -4.1438 -12.9176  -6.9348 -10.1323
-18.5771 -33.3056  -4.6487  -6.3748  -4.1786 -10.7514 -10.8952 -15.7417
 -2.9970  -3.1944  -8.8952  -6.2000  -7.3293  -3.2091 -12.6529 -27.3430
-18.4065 -15.2335  -5.9114 -22.3750  -6.5754  -1.6567  -8.2949  -3.8220
-45.9635 -10.5036 -29.9496  -7.6445  -7.3852 -12.4317  -8.6440 -65.7032
 -6.0333  -7.4460  -5.5508  -1.3361  -9.9566  -4.8305 -12.6143 -68.3230
 -2.4075  -8.3274 -34.0529 -23.8184 -41.8967 -81.6507  -3.5401  -9.0535
 -2.4085  -9.5292 -13.0787  -3.6166  -7.6441  -4.7141 -21.5228  -3.3381
 -9.3783  -8.0372  -3.4405 -20.9363 -20.1928  -8.5869  -9.0406  -9.6673
 -7.0686 -12.6607  -5.9849 -15.7333 -15.1263 -12.1084 -21.7329 -12.8702
 -8.1662  -6.3565 -22.6303 -17.8105 -35.4463 -17.0857  -2.4356  -6.5165
-56.4642  -4.6840 -13.1997 -12.9977  -8.8687 -12.0260  -8.2811 -10.4066
-18.5597  -9.9026 -16.4303 -13.7084  -2.5742  -9.9811  -6.6625 -12.4738
 -3.4145 -10.7461 -10.3994 -13.5574 -10.2480 -13.2764 -15.5433 -10.2505
-10.1552 -10.0818 -10.5807  -0.8167  -0.6427  -0.6306  -0.7899  -0.7502
 -0.8280  -0.7450  -0.6864  -0.4352  -0.4379  -0.4438  -0.4502  -0.4275
 -0.4341  -0.4546  -0.4708  -0.4071  -0.3869  -0.4302  -0.3600  -0.4315
 -0.4551  -0.4753  -0.4836  -0.5004  -0.5042
 -- Virtual --
 -0.0584  -0.0435  -0.0424  -0.0378  -0.0329  -0.0302  -0.0263  -0.0228
 -0.0206  -0.0198  -0.0182  -0.0173  -0.0139  -0.0125  -0.0110  -0.0096
 -0.0088  -0.0082  -0.0066  -0.0063  -0.0054  -0.0048  -0.0034  -0.0024
 -0.0018   0.0002   0.0006   0.0014   0.0027   0.0032   0.0039   0.0048
  0.0055   0.0071   0.0081   0.0087   0.0100   0.0109   0.0111   0.0119
  0.0133   0.0137   0.0145   0.0160   0.0162   0.0164   0.0186   0.0190
  0.0197   0.0202   0.0210   0.0212   0.0221   0.0224   0.0229   0.0233
  0.0242   0.0246   0.0253   0.0254   0.0265   0.0274   0.0282   0.0285
  0.0295   0.0298   0.0303   0.0310   0.0315   0.0326   0.0337   0.0341
  0.0352   0.0357   0.0364   0.0373   0.0379   0.0390   0.0393   0.0396
  0.0410   0.0416   0.0423   0.0429   0.0436   0.0438   0.0441   0.0446
  0.0450   0.0460   0.0463   0.0466   0.0474   0.0478   0.0483   0.0496
  0.0501   0.0507   0.0520   0.0524   0.0526   0.0539   0.0544   0.0554
  0.0558   0.0562   0.0565   0.0570   0.0578   0.0588   0.0593   0.0604
  0.0607   0.0617   0.0624   0.0633   0.0635   0.0643   0.0647   0.0647
  0.0657   0.0660   0.0666   0.0672   0.0677   0.0685   0.0696   0.0701
  0.0705   0.0713   0.0718   0.0729   0.0738   0.0741   0.0747   0.0754
  0.0764   0.0770   0.0776   0.0785   0.0791   0.0802   0.0804   0.0807
  0.0811   0.0822   0.0829   0.0833   0.0840   0.0850   0.0867   0.0874
  0.0875   0.0877   0.0882   0.0887   0.0891   0.0900   0.0913   0.0915
  0.0919   0.0925   0.0932   0.0941   0.0945   0.0951   0.0959   0.0967
  0.0979   0.0983   0.0990   0.0999   0.1009   0.1014   0.1025   0.1030
  0.1034   0.1044   0.1052   0.1059   0.1066   0.1072   0.1075   0.1077
  0.1086   0.1093   0.1101   0.1105   0.1113   0.1118   0.1126   0.1128
  0.1134   0.1136   0.1144   0.1153   0.1160   0.1161   0.1168   0.1184
  0.1188   0.1194   0.1199   0.1204   0.1213   0.1215   0.1222   0.1231
  0.1232   0.1244   0.1248   0.1260   0.1267   0.1271   0.1276   0.1289
  0.1293   0.1301   0.1305   0.1309   0.1315   0.1322   0.1326   0.1332
  0.1345   0.1350   0.1350   0.1360   0.1367   0.1373   0.1381   0.1386
  0.1390   0.1396   0.1401   0.1409   0.1419   0.1428   0.1437   0.1446
  0.1453   0.1460   0.1463   0.1473   0.1476   0.1479   0.1485   0.1489
  0.1493   0.1497   0.1501   0.1512   0.1518   0.1522   0.1528   0.1536
  0.1550   0.1554   0.1559   0.1562   0.1567   0.1572   0.1576   0.1584
  0.1589   0.1606   0.1607   0.1614   0.1619   0.1626   0.1633   0.1645
  0.1645   0.1658   0.1659   0.1667   0.1668   0.1679   0.1683   0.1687
  0.1695   0.1701   0.1703   0.1714   0.1718   0.1722   0.1729   0.1733
  0.1742   0.1746   0.1749   0.1755   0.1764   0.1769   0.1773   0.1784
  0.1789   0.1793   0.1801   0.1809   0.1812   0.1819   0.1826   0.1838
  0.1849   0.1856   0.1858   0.1863   0.1870   0.1879   0.1883   0.1885
  0.1896   0.1908   0.1910   0.1919   0.1920   0.1925   0.1937   0.1940
  0.1945   0.1955   0.1962   0.1965   0.1973   0.1978   0.1982   0.1990
  0.1992   0.2006   0.2013   0.2016   0.2021   0.2031   0.2037   0.2039
  0.2045   0.2055   0.2062   0.2066   0.2068   0.2072   0.2083   0.2089
  0.2091   0.2104   0.2108   0.2111   0.2125   0.2136   0.2147   0.2152
  0.2153   0.2158   0.2161   0.2164   0.2174   0.2176   0.2179   0.2190
  0.2205   0.2208   0.2210   0.2220   0.2229   0.2239   0.2243   0.2254
  0.2257   0.2264   0.2270   0.2275   0.2281   0.2289   0.2296   0.2308
  0.2309   0.2313   0.2319   0.2325   0.2330   0.2332   0.2338   0.2353
  0.2355   0.2363   0.2365   0.2373   0.2388   0.2389   0.2397   0.2405
  0.2408   0.2416   0.2422   0.2425   0.2435   0.2437   0.2451   0.2459
  0.2466   0.2474   0.2481   0.2492   0.2500   0.2501   0.2513   0.2515
  0.2520   0.2528   0.2534   0.2541   0.2553   0.2557   0.2560   0.2564
  0.2567   0.2572   0.2582   0.2589   0.2598   0.2606   0.2608   0.2618
  0.2629   0.2638   0.2645   0.2648   0.2654   0.2662   0.2669   0.2671
  0.2681   0.2698   0.2701   0.2707   0.2715   0.2725   0.2732   0.2740
  0.2747   0.2751   0.2758   0.2768   0.2774   0.2780   0.2786   0.2788
  0.2804   0.2809   0.2816   0.2822   0.2840   0.2850   0.2858   0.2866
  0.2869   0.2878   0.2883   0.2890   0.2902   0.2908   0.2919   0.2923
  0.2929   0.2941   0.2956   0.2957   0.2966   0.2974   0.2976   0.2983
  0.2990   0.2997   0.3017   0.3025   0.3034   0.3036   0.3046   0.3052
  0.3059   0.3073   0.3083   0.3094   0.3103   0.3116   0.3124   0.3125
  0.3135   0.3148   0.3162   0.3166   0.3169   0.3178   0.3189   0.3192
  0.3197   0.3219   0.3226   0.3233   0.3244   0.3252   0.3255   0.3258
  0.3273   0.3278   0.3290   0.3293   0.3304   0.3317   0.3325   0.3331
  0.3341   0.3348   0.3352   0.3366   0.3376   0.3381   0.3389   0.3395
  0.3400   0.3404   0.3415   0.3422   0.3432   0.3447   0.3453   0.3461
  0.3463   0.3477   0.3482   0.3496   0.3510   0.3523   0.3532   0.3537
  0.3550   0.3562   0.3567   0.3575   0.3579   0.3589   0.3602   0.3604
  0.3616   0.3621   0.3635   0.3642   0.3652   0.3664   0.3666   0.3672
  0.3677   0.3688   0.3699   0.3719   0.3723   0.3735   0.3743   0.3757
  0.3761   0.3769   0.3773   0.3781   0.3795   0.3797   0.3806   0.3813
  0.3829   0.3840   0.3850   0.3856   0.3880   0.3885   0.3894   0.3904
  0.3910   0.3920   0.3933   0.3938   0.3946   0.3954   0.3968   0.3968
  0.3972   0.3993   0.4002   0.4009   0.4017   0.4019   0.4037   0.4044
  0.4061   0.4062   0.4074   0.4084   0.4088   0.4096   0.4104   0.4110
  0.4116   0.4131   0.4144   0.4151   0.4164   0.4171   0.4176   0.4188
  0.4199   0.4212   0.4217   0.4229   0.4239   0.4257   0.4261   0.4268
  0.4277   0.4288   0.4302   0.4312   0.4325   0.4339   0.4348   0.4357
  0.4368   0.4385   0.4388   0.4404   0.4405   0.4413   0.4420   0.4438
  0.4455   0.4463   0.4473   0.4493   0.4494   0.4504   0.4512   0.4517
  0.4522   0.4551   0.4553   0.4567   0.4580   0.4583   0.4602   0.4605
  0.4614   0.4621   0.4634   0.4656   0.4662   0.4672   0.4684   0.4703
  0.4711   0.4719   0.4734   0.4754   0.4766   0.4776   0.4786   0.4807
  0.4822   0.4828   0.4844   0.4864   0.4876   0.4882   0.4889   0.4897
  0.4912   0.4915   0.4945   0.4974   0.4980   0.4992   0.5001   0.5019
  0.5039   0.5068   0.5082   0.5095   0.5098   0.5109   0.5125   0.5132
  0.5145   0.5149   0.5181   0.5188   0.5204   0.5214   0.5228   0.5241
  0.5257   0.5260   0.5276   0.5295   0.5305   0.5336   0.5344   0.5377
  0.5386   0.5404   0.5422   0.5441   0.5461   0.5469   0.5491   0.5503
  0.5517   0.5526   0.5545   0.5592   0.5600   0.5618   0.5629   0.5655
  0.5662   0.5672   0.5687   0.5699   0.5739   0.5759   0.5777   0.5779
  0.5785   0.5809   0.5839   0.5844   0.5847   0.5876   0.5887   0.5895
  0.5934   0.5941   0.5952   0.5979   0.5990   0.5991   0.6024   0.6029
  0.6040   0.6069   0.6070   0.6095   0.6099   0.6120   0.6136   0.6141
  0.6154   0.6185   0.6192   0.6203   0.6222   0.6231   0.6238   0.6256
  0.6263   0.6268   0.6295   0.6307   0.6314   0.6331   0.6343   0.6353
  0.6365   0.6375   0.6386   0.6396   0.6411   0.6425   0.6442   0.6454
  0.6465   0.6485   0.6487   0.6500   0.6506   0.6522   0.6533   0.6548
  0.6555   0.6572   0.6584   0.6603   0.6609   0.6615   0.6627   0.6632
  0.6655   0.6662   0.6668   0.6679   0.6702   0.6712   0.6722   0.6728
  0.6740   0.6747   0.6765   0.6773   0.6783   0.6790   0.6805   0.6813
  0.6824   0.6831   0.6854   0.6863   0.6873   0.6885   0.6894   0.6902
  0.6910   0.6925   0.6938   0.6953   0.6964   0.6976   0.6982   0.6989
  0.7001   0.7020   0.7023   0.7042   0.7053   0.7063   0.7074   0.7077
  0.7097   0.7103   0.7119   0.7125   0.7152   0.7157   0.7167   0.7176
  0.7195   0.7214   0.7218   0.7223   0.7237   0.7244   0.7269   0.7270
  0.7282   0.7297   0.7310   0.7326   0.7342   0.7352   0.7364   0.7376
  0.7387   0.7402   0.7414   0.7423   0.7445   0.7453   0.7469   0.7476
  0.7486   0.7517   0.7527   0.7530   0.7547   0.7566   0.7575   0.7585
  0.7598   0.7610   0.7620   0.7630   0.7639   0.7658   0.7691   0.7710
  0.7728   0.7732   0.7749   0.7763   0.7790   0.7801   0.7822   0.7851
  0.7862   0.7877   0.7886   0.7898   0.7914   0.7920   0.7935   0.7969
  0.7984   0.8000   0.8021   0.8029   0.8040   0.8048   0.8068   0.8075
  0.8098   0.8103   0.8116   0.8123   0.8148   0.8163   0.8182   0.8204
  0.8228   0.8248   0.8253   0.8255   0.8277   0.8283   0.8310   0.8323
  0.8331   0.8337   0.8351   0.8381   0.8393   0.8413   0.8415   0.8451
  0.8458   0.8476   0.8490   0.8495   0.8507   0.8521   0.8529   0.8541
  0.8570   0.8578   0.8587   0.8598   0.8606   0.8626   0.8637   0.8650
  0.8663   0.8677   0.8689   0.8693   0.8700   0.8720   0.8733   0.8745
  0.8765   0.8771   0.8781   0.8795   0.8805   0.8814   0.8830   0.8836
  0.8855   0.8865   0.8873   0.8885   0.8901   0.8921   0.8932   0.8954
  0.8961   0.8966   0.8987   0.9005   0.9013   0.9030   0.9039   0.9057
  0.9068   0.9078   0.9088   0.9096   0.9114   0.9125   0.9129   0.9139
  0.9155   0.9161   0.9176   0.9184   0.9203   0.9214   0.9229   0.9233
  0.9239   0.9256   0.9270   0.9285   0.9289   0.9306   0.9321   0.9328
  0.9346   0.9369   0.9375   0.9384   0.9406   0.9421   0.9428   0.9450
  0.9453   0.9473   0.9477   0.9486   0.9499   0.9521   0.9532   0.9543
  0.9557   0.9569   0.9575   0.9591   0.9600   0.9609   0.9616   0.9635
  0.9637   0.9640   0.9670   0.9678   0.9692   0.9694   0.9705   0.9714
  0.9742   0.9750   0.9755   0.9762   0.9780   0.9785   0.9796   0.9818
  0.9828   0.9840   0.9848   0.9856   0.9860   0.9871   0.9886   0.9902
  0.9908   0.9922   0.9927   0.9942   0.9953   0.9960   0.9972   0.9978
  0.9998   1.0008   1.0016   1.0020   1.0041   1.0046   1.0050   1.0062
  1.0063   1.0077   1.0106   1.0110   1.0112   1.0128   1.0137   1.0142
  1.0166   1.0178   1.0184   1.0200   1.0209   1.0219   1.0242   1.0258
  1.0264   1.0276   1.0288   1.0304   1.0313   1.0322   1.0350   1.0355
  1.0363   1.0375   1.0389   1.0404   1.0409   1.0414   1.0439   1.0446
  1.0462   1.0474   1.0491   1.0508   1.0518   1.0524   1.0529   1.0538
  1.0551   1.0570   1.0573   1.0593   1.0607   1.0614   1.0624   1.0645
  1.0654   1.0680   1.0688   1.0700   1.0732   1.0739   1.0746   1.0756
  1.0770   1.0780   1.0795   1.0809   1.0829   1.0842   1.0851   1.0872
  1.0884   1.0887   1.0901   1.0933   1.0936   1.0958   1.0973   1.0979
  1.0994   1.1009   1.1022   1.1035   1.1045   1.1051   1.1075   1.1080
  1.1097   1.1116   1.1130   1.1137   1.1150   1.1163   1.1173   1.1189
  1.1207   1.1211   1.1231   1.1253   1.1266   1.1268   1.1279   1.1285
  1.1300   1.1311   1.1340   1.1358   1.1367   1.1379   1.1412   1.1418
  1.1436   1.1446   1.1450   1.1458   1.1463   1.1480   1.1496   1.1515
  1.1522   1.1541   1.1549   1.1559   1.1585   1.1597   1.1608   1.1618
  1.1627   1.1637   1.1642   1.1661   1.1671   1.1683   1.1692   1.1718
  1.1722   1.1739   1.1742   1.1757   1.1769   1.1783   1.1799   1.1809
  1.1817   1.1830   1.1854   1.1860   1.1868   1.1878   1.1905   1.1934
  1.1938   1.1953   1.1986   1.2001   1.2016   1.2029   1.2049   1.2068
  1.2081   1.2091   1.2102   1.2112   1.2137   1.2139   1.2164   1.2177
  1.2191   1.2217   1.2232   1.2250   1.2269   1.2287   1.2292   1.2302
  1.2335   1.2347   1.2365   1.2384   1.2394   1.2430   1.2459   1.2473
  1.2508   1.2536   1.2548   1.2564   1.2585   1.2618   1.2641   1.2655
  1.2696   1.2729   1.2740   1.2752   1.2763   1.2789   1.2804   1.2838
  1.2873   1.2883   1.2936   1.2956   1.2961   1.3008   1.3028   1.3076
  1.3100   1.3109   1.3143   1.3177   1.3188   1.3210   1.3228   1.3256
  1.3277   1.3309   1.3331   1.3345   1.3373   1.3394   1.3412   1.3424
  1.3453   1.3484   1.3496   1.3512   1.3527   1.3546   1.3547   1.3577
  1.3589   1.3619   1.3645   1.3659   1.3662   1.3678   1.3697   1.3716
  1.3737   1.3751   1.3768   1.3780   1.3796   1.3797   1.3833   1.3837
  1.3840   1.3869   1.3885   1.3899   1.3937   1.3947   1.3958   1.3966
  1.3984   1.3998   1.4003   1.4025   1.4028   1.4044   1.4048   1.4076
  1.4087   1.4106   1.4112   1.4152   1.4157   1.4167   1.4169   1.4205
  1.4213   1.4235   1.4249   1.4263   1.4278   1.4301   1.4307   1.4313
  1.4325   1.4336   1.4342   1.4377   1.4392   1.4409   1.4416   1.4423
  1.4454   1.4461   1.4476   1.4500   1.4514   1.4533   1.4540   1.4554
  1.4566   1.4577   1.4610   1.4616   1.4626   1.4635   1.4655   1.4671
  1.4687   1.4701   1.4726   1.4740   1.4751   1.4758   1.4786   1.4804
  1.4838   1.4860   1.4888   1.4906   1.4939   1.4949   1.4953   1.4978
  1.5011   1.5014   1.5049   1.5054   1.5082   1.5099   1.5109   1.5132
  1.5146   1.5169   1.5183   1.5201   1.5221   1.5258   1.5271   1.5291
  1.5316   1.5332   1.5341   1.5369   1.5401   1.5430   1.5438   1.5487
  1.5509   1.5526   1.5566   1.5579   1.5613   1.5634   1.5652   1.5693
  1.5706   1.5795   1.5805   1.5816   1.5886   1.5899   1.5923   1.5951
  1.5963   1.6030   1.6052   1.6065   1.6098   1.6156   1.6180   1.6254
  1.6283   1.6330   1.6337   1.6365   1.6384   1.6428   1.6445   1.6482
  1.6535   1.6558   1.6582   1.6606   1.6608   1.6642   1.6669   1.6694
  1.6725   1.6757   1.6776   1.6794   1.6816   1.6842   1.6851   1.6868
  1.6886   1.6901   1.6909   1.6937   1.6950   1.6964   1.6989   1.6995
  1.7018   1.7035   1.7043   1.7052   1.7064   1.7077   1.7095   1.7106
  1.7111   1.7129   1.7150   1.7167   1.7174   1.7204   1.7210   1.7220
  1.7230   1.7239   1.7263   1.7267   1.7281   1.7290   1.7311   1.7315
  1.7331   1.7339   1.7356   1.7374   1.7389   1.7418   1.7424   1.7428
  1.7435   1.7447   1.7457   1.7474   1.7501   1.7514   1.7520   1.7526
  1.7546   1.7557   1.7566   1.7575   1.7592   1.7610   1.7630   1.7638
  1.7650   1.7678   1.7687   1.7699   1.7727   1.7745   1.7760   1.7768
  1.7792   1.7802   1.7810   1.7819   1.7841   1.7853   1.7855   1.7871
  1.7891   1.7897   1.7925   1.7951   1.7969   1.7977   1.7982   1.8004
  1.8021   1.8058   1.8071   1.8104   1.8137   1.8146   1.8180   1.8193
  1.8224   1.8250   1.8279   1.8316   1.8342   1.8361   1.8393   1.8400
  1.8443   1.8495   1.8510   1.8535   1.8587   1.8623   1.8639   1.8647
  1.8673   1.8699   1.8707   1.8722   1.8741   1.8753   1.8787   1.8798
  1.8812   1.8831   1.8855   1.8865   1.8881   1.8899   1.8901   1.8933
  1.8952   1.8964   1.8971   1.8980   1.9016   1.9024   1.9054   1.9067
  1.9092   1.9099   1.9114   1.9125   1.9127   1.9136   1.9149   1.9159
  1.9172   1.9189   1.9203   1.9209   1.9211   1.9225   1.9244   1.9256
  1.9261   1.9280   1.9288   1.9306   1.9327   1.9335   1.9350   1.9374
  1.9384   1.9399   1.9412   1.9424   1.9439   1.9455   1.9469   1.9493
  1.9527   1.9549   1.9560   1.9612   1.9647   1.9657   1.9675   1.9698
  1.9762   1.9775   1.9800   1.9842   1.9874   1.9945   2.0011   2.0029
  2.0090   2.0121   2.0265   2.0296   2.0305   2.0350   2.0362   2.0406
  2.0435   2.0471   2.0495   2.0548   2.0563   2.0616   2.0618   2.0648
  2.0666   2.0678   2.0718   2.0736   2.0749   2.0754   2.0763   2.0773
  2.0782   2.0801   2.0859   2.0868   2.0881   2.0885   2.0913   2.0929
  2.0947   2.0961   2.0980   2.0995   2.1011   2.1029   2.1031   2.1045
  2.1057   2.1072   2.1082   2.1102   2.1106   2.1117   2.1146   2.1158
  2.1183   2.1202   2.1210   2.1230   2.1257   2.1288   2.1295   2.1322
  2.1337   2.1350   2.1380   2.1384   2.1395   2.1460   2.1497   2.1500
  2.1532   2.1597   2.1669   2.1720   2.1815   2.1852   2.1879   2.1916
  2.1932   2.1961   2.1977   2.1992   2.2006   2.2039   2.2047   2.2105
  2.2129   2.2133   2.2135   2.2157   2.2169   2.2181   2.2191   2.2200
  2.2226   2.2232   2.2241   2.2242   2.2253   2.2272   2.2279   2.2313
  2.2320   2.2333   2.2342   2.2352   2.2362   2.2383   2.2387   2.2395
  2.2403   2.2416   2.2423   2.2442   2.2447   2.2457   2.2469   2.2493
  2.2507   2.2514   2.2535   2.2545   2.2549   2.2561   2.2567   2.2581
  2.2593   2.2612   2.2630   2.2643   2.2651   2.2654   2.2659   2.2676
  2.2691   2.2696   2.2712   2.2720   2.2727   2.2735   2.2744   2.2758
  2.2771   2.2773   2.2780   2.2801   2.2829   2.2840   2.2842   2.2855
  2.2868   2.2878   2.2882   2.2906   2.2919   2.2926   2.2938   2.2953
  2.2959   2.2968   2.2974   2.2979   2.2989   2.3000   2.3009   2.3018
  2.3036   2.3050   2.3059   2.3071   2.3075   2.3090   2.3097   2.3105
  2.3118   2.3129   2.3137   2.3147   2.3170   2.3172   2.3186   2.3205
  2.3215   2.3231   2.3234   2.3243   2.3259   2.3285   2.3296   2.3304
  2.3329   2.3352   2.3373   2.3385   2.3391   2.3403   2.3415   2.3444
  2.3446   2.3473   2.3490   2.3513   2.3517   2.3556   2.3586   2.3598
  2.3608   2.3622   2.3636   2.3647   2.3665   2.3680   2.3685   2.3703
  2.3733   2.3745   2.3757   2.3763   2.3783   2.3793   2.3853   2.3856
  2.3888   2.3912   2.3981   2.3994   2.4044   2.4067   2.4101   2.4137
  2.4182   2.4230   2.4356   2.4378   2.4643   2.4941   2.5111   2.5430
  2.6045   2.6799   2.7378   2.7655   2.7949   2.7985   2.8080   2.8117
  2.8159   2.8224   2.8272   2.8290   2.8394   2.8444   2.8455   2.8492
  2.8529   2.8561   2.8581   2.8603   2.8622   2.8648   2.8667   2.8686
  2.8743   2.8777   2.8785   2.8819   2.8847   2.8863   2.8973   2.8977
  2.9018   2.9040   2.9137   2.9502   3.1097   3.2607   3.9387   3.9401
  3.9499   3.9578   3.9627   3.9663   3.9712   3.9721   3.9796   3.9858
  3.9910   3.9917   3.9927   3.9955   3.9982   4.0024   4.0066   4.0078
  4.0096   4.0140   4.0166   4.0174   4.0244   4.0258   4.0378   4.0461
  4.2011   4.2176   4.2299   4.2305   4.2365   4.2373   4.2399   4.2454
  4.2500   4.2553   4.2568   4.2579   4.2605   4.2626   4.2651   4.2676
  4.2684   4.2713   4.2749   4.2777   4.2811   4.2837   4.2856   4.2871
  4.2895   4.2914   4.2952   4.2968   4.2994   4.3004   4.3027   4.3065
  4.3070   4.3094   4.3109   4.3135   4.3174   4.3200   4.3213   4.3239
  4.3267   4.3291   4.3344   4.3348   4.3366   4.3410   4.3429   4.3504
  4.3528   4.3541   4.3594   4.3644   4.3714   4.3725   4.3741   4.3753
  4.3805   4.3824   4.3886   4.3934   4.3967   4.4007   4.4048   4.4097
  4.4170   4.4279   4.4295   4.4321   4.4376   4.4548   4.4634   4.4672
  4.4741   4.4758   4.4935   4.4992   4.5073   4.5134   4.5266   4.5388
  4.5787   4.5968   4.6854   4.7047   4.7268   4.7669   4.9087
 --------------------------------------------------------------
 
          Ground-State Mulliken Net Atomic Charges

     Atom                 Charge (a.u.)
  ----------------------------------------
      1 C                     0.174622
      2 C                    -1.094202
      3 C                    -0.576746
      4 C                    -0.222624
      5 C                     0.070030
      6 C                    -1.063164
      7 H                     0.220863
      8 H                     0.236415
      9 H                     0.209302
     10 H                     0.227402
     11 H                     0.184562
     12 H                     0.222442
     13 H                     0.213710
     14 H                     0.189363
     15 H                     0.215124
     16 H                     0.168134
     17 H                     0.218435
     18 N                     0.544416
     19 H                     0.479048
     20 C                    -0.616906
     21 H                     0.149619
     22 O                    -0.236237
     23 C                    -0.830109
     24 H                     0.237421
     25 H                     0.273994
     26 H                     0.247387
     27 S                     0.948903
     28 C                    -0.946942
     29 H                     0.259454
     30 H                     0.262418
     31 H                     0.262216
     32 O                    -0.649838
     33 C                    -0.928163
     34 H                     0.276331
     35 H                     0.259769
     36 H                     0.292844
     37 S                     1.006216
     38 C                    -1.085636
     39 H                     0.261660
     40 H                     0.252523
     41 H                     0.253444
     42 O                    -0.646692
     43 C                    -0.951478
     44 H                     0.247062
     45 H                     0.256349
     46 H                     0.255172
     47 S                     1.059194
     48 C                    -0.952214
     49 H                     0.273396
     50 H                     0.290766
     51 H                     0.226150
     52 O                    -0.682366
     53 C                    -0.793813
     54 H                     0.233304
     55 H                     0.245800
     56 H                     0.236352
     57 S                     1.034445
     58 C                    -0.853470
     59 H                     0.235889
     60 H                     0.261813
     61 H                     0.254883
     62 O                    -0.744188
     63 C                    -0.818099
     64 H                     0.291990
     65 H                     0.278727
     66 H                     0.236009
     67 S                     0.965481
     68 C                    -0.881851
     69 H                     0.252200
     70 H                     0.249991
     71 H                     0.230172
     72 O                    -0.685141
     73 C                    -1.014864
     74 H                     0.282673
     75 H                     0.314234
     76 H                     0.255638
     77 S                     0.889576
     78 C                    -0.952648
     79 H                     0.245733
     80 H                     0.290892
     81 H                     0.266988
     82 O                    -0.699862
     83 C                    -1.099303
     84 H                     0.242804
     85 H                     0.223477
     86 H                     0.328351
     87 S                     1.118184
     88 C                    -1.088994
     89 H                     0.299665
     90 H                     0.240665
     91 H                     0.290007
     92 O                    -0.619093
     93 C                    -0.893568
     94 H                     0.234585
     95 H                     0.250416
     96 H                     0.283385
     97 S                     0.983736
     98 C                    -0.882457
     99 H                     0.227805
    100 H                     0.272406
    101 H                     0.288539
    102 O                    -0.766750
    103 C                    -1.059628
    104 H                     0.269563
    105 H                     0.233897
    106 H                     0.283217
    107 S                     1.309027
    108 C                    -1.090809
    109 H                     0.252165
    110 H                     0.278056
    111 H                     0.313150
    112 O                    -0.777718
    113 C                    -0.950965
    114 H                     0.250052
    115 H                     0.254002
    116 H                     0.270162
    117 S                     1.235942
    118 C                    -0.967825
    119 H                     0.258231
    120 H                     0.270121
    121 H                     0.235113
    122 O                    -0.767545
    123 C                    -0.858127
    124 H                     0.269697
    125 H                     0.241589
    126 H                     0.249611
    127 S                     0.962786
    128 C                    -0.822826
    129 H                     0.285058
    130 H                     0.235702
    131 H                     0.223070
    132 O                    -0.713516
    133 C                    -0.994291
    134 H                     0.237230
    135 H                     0.276607
    136 H                     0.260340
    137 S                     1.148563
    138 C                    -1.017559
    139 H                     0.265879
    140 H                     0.246034
    141 H                     0.245071
    142 O                    -0.689666
    143 C                    -0.798671
    144 H                     0.234177
    145 H                     0.243272
    146 H                     0.260388
    147 S                     0.854410
    148 C                    -0.762848
    149 H                     0.236646
    150 H                     0.252603
    151 H                     0.228438
    152 O                    -0.743317
    153 C                    -0.828831
    154 H                     0.240513
    155 H                     0.248564
    156 H                     0.305697
    157 S                     0.390398
    158 C                    -0.636280
    159 H                     0.297230
    160 H                     0.247420
    161 H                     0.244455
    162 O                    -0.583545
    163 C                    -0.813394
    164 H                     0.256497
    165 H                     0.249524
    166 H                     0.223449
    167 S                     0.828476
    168 C                    -0.847200
    169 H                     0.283119
    170 H                     0.248872
    171 H                     0.281823
    172 O                    -0.704632
    173 C                    -1.151363
    174 H                     0.271921
    175 H                     0.267588
    176 H                     0.269676
    177 S                     1.087441
    178 C                    -1.018948
    179 H                     0.298419
    180 H                     0.268109
    181 H                     0.271137
    182 O                    -0.641796
    183 C                    -0.794316
    184 H                     0.260609
    185 H                     0.265842
    186 H                     0.241776
    187 S                     0.788895
    188 C                    -0.914094
    189 H                     0.272892
    190 H                     0.242313
    191 H                     0.271899
    192 O                    -0.691630
    193 C                    -0.808110
    194 H                     0.238041
    195 H                     0.253789
    196 H                     0.258379
    197 S                     0.958241
    198 C                    -0.981018
    199 H                     0.306766
    200 H                     0.277965
    201 H                     0.292642
    202 O                    -0.766624
    203 C                    -0.915307
    204 H                     0.244015
    205 H                     0.240652
    206 H                     0.256750
    207 S                     0.900394
    208 C                    -0.820267
    209 H                     0.254516
    210 H                     0.229516
    211 H                     0.270101
    212 O                    -0.649995
    213 C                    -0.929463
    214 H                     0.328562
    215 H                     0.263807
    216 H                     0.239033
    217 S                     0.838987
    218 C                    -0.859324
    219 H                     0.261094
    220 H                     0.253339
    221 H                     0.246214
    222 O                    -0.696447
    223 C                    -0.877193
    224 H                     0.229086
    225 H                     0.270668
    226 H                     0.271049
    227 S                     0.783492
    228 C                    -0.833358
    229 H                     0.276817
    230 H                     0.301835
    231 H                     0.277422
    232 O                    -0.675615
    233 C                    -0.784144
    234 H                     0.255326
    235 H                     0.256760
    236 H                     0.247280
    237 S                     0.542344
    238 C                    -0.773024
    239 H                     0.294310
    240 H                     0.235539
    241 H                     0.242857
    242 O                    -0.555845
    243 C                    -0.950227
    244 H                     0.276919
    245 H                     0.266794
    246 H                     0.277431
    247 S                     0.952913
    248 C                    -0.939091
    249 H                     0.248418
    250 H                     0.222202
    251 H                     0.259080
    252 O                    -0.611272
    253 C                    -0.969304
    254 H                     0.279544
    255 H                     0.325206
    256 H                     0.243069
    257 S                     0.559938
    258 C                    -0.659524
    259 H                     0.304473
    260 H                     0.222914
    261 H                     0.251548
    262 O                    -0.513450
    263 C                    -0.789053
    264 H                     0.211209
    265 H                     0.312524
    266 H                     0.236888
    267 S                     0.804681
    268 C                    -0.842649
    269 H                     0.287541
    270 H                     0.248096
    271 H                     0.259104
    272 O                    -0.706320
    273 C                    -0.992725
    274 H                     0.228300
    275 H                     0.329883
    276 H                     0.273807
    277 S                     1.061191
    278 C                    -0.962022
    279 H                     0.212147
    280 H                     0.250945
    281 H                     0.288795
    282 O                    -0.670410
  ----------------------------------------
  Sum of atomic charges =     0.000000

 -----------------------------------------------------------------
                    Cartesian Multipole Moments
 -----------------------------------------------------------------
    Charge (ESU x 10^10)
                 0.0000
    Dipole Moment (Debye)
         X      26.4316      Y     -10.3317      Z      -6.5662
       Tot      29.1288
    Quadrupole Moments (Debye-Ang)
        XX     878.0855     XY     293.2939     YY   -1518.4978
        XZ     568.6415     YZ    -450.6288     ZZ   -1389.2690
    Octopole Moments (Debye-Ang^2)
       XXX    7697.1133    XXY    6769.1723    XYY  -32331.7099
       YYY -101939.8236    XXZ   19928.3197    XYZ    4000.2521
       YYZ  -46775.5641    XZZ  -18893.1191    YZZ  -46617.2847
       ZZZ -101833.8689
    Hexadecapole Moments (Debye-Ang^3)
      XXXX ************   XXXY -456035.5284   XXYY ************
      XYYY ************   YYYY ************   XXXZ   84101.1965
      XXYZ   77251.2150   XYYZ ************   YYYZ ************
      XXZZ -482973.8262   XYZZ -867291.1818   YYZZ ************
      XZZZ ************   YZZZ ************   ZZZZ ************
 -----------------------------------------------------------------
Archival summary:
[...]
    2   0.0084498   0.0311046   0.0251084  -0.0039868  -0.0163152  -0.0171654
    3  -0.0112810   0.0104454  -0.0343570   0.0081372  -0.0143979   0.0108400
          121         122         123         124         125         126
    1  -0.0178030   0.0698516  -0.0019954   0.0024676  -0.0161885  -0.0232916
    2   0.0150016  -0.0798249   0.0045325   0.0367775  -0.0222631   0.0205793
    3   0.0279963  -0.0276628  -0.0037838  -0.0195882  -0.0140186   0.0119473
          127         128         129         130         131         132
    1   0.0320916   0.0034603   0.0209782  -0.0121376   0.0241452  -0.0462972
    2   0.0391027   0.0002964  -0.0186651  -0.0297268   0.0187431  -0.0826396
    3   0.0211500  -0.0037430  -0.0009423  -0.0179792  -0.0264025   0.0549962
          133         134         135         136         137         138
    1  -0.0034837   0.0331094  -0.0319020   0.0015376  -0.0443017   0.0112672
    2  -0.0071128  -0.0017910   0.0004456  -0.0161817   0.0199180  -0.0004607
    3   0.0002878   0.0133640   0.0105718  -0.0271838  -0.0329040  -0.0014183
          139         140         141         142         143         144
    1   0.0086948   0.0158094  -0.0094088   0.0273937   0.0001523   0.0168989
    2   0.0327862  -0.0217318  -0.0059067   0.0455874   0.0023108   0.0203680
    3  -0.0044953   0.0226078  -0.0335753   0.0968927   0.0097766   0.0230062
          145         146         147         148         149         150
    1  -0.0224634   0.0082754  -0.0376523   0.0020594   0.0111724   0.0223756
    2   0.0116954  -0.0285076  -0.0288022   0.0029139  -0.0321579   0.0020049
    3   0.0237153   0.0114096  -0.0236801  -0.0014457  -0.0028964  -0.0312886
          151         152         153         154         155         156
    1   0.0249597   0.0072000   0.0007858   0.0269677  -0.0195565   0.0088054
    2   0.0121848   0.1097276   0.0057228  -0.0137020  -0.0161103   0.0282399
    3   0.0141976   0.0058508  -0.0037963  -0.0148173  -0.0232458   0.0084954
          157         158         159         160         161         162
    1   0.0390244  -0.0042475  -0.0107439  -0.0198996   0.0248640  -0.1033867
    2   0.0062143  -0.0081239  -0.0214339  -0.0044391  -0.0259040   0.0402461
    3   0.0405029  -0.0004621   0.0196851  -0.0261671   0.0056557   0.0068769
          163         164         165         166         167         168
    1  -0.0023674   0.0098579  -0.0242849  -0.0222388  -0.0197133   0.0099032
    2   0.0039302   0.0244574  -0.0071651   0.0229802  -0.0395709   0.0041698
    3  -0.0002874  -0.0148186  -0.0170354   0.0267653   0.0305845   0.0059239
          169         170         171         172         173         174
    1   0.0224435   0.0011587  -0.0027025   0.0282260   0.0106258   0.0188465
    2  -0.0194683   0.0261420  -0.0002454  -0.0069116   0.0020588   0.0264829
    3   0.0170155  -0.0255369   0.0325651  -0.1058078  -0.0005344   0.0087308
          175         176         177         178         179         180
    1  -0.0045166   0.0144555  -0.0237397   0.0048786  -0.0174109   0.0104488
    2  -0.0130639  -0.0277500  -0.0368584   0.0039125   0.0107456   0.0168662
    3   0.0275683  -0.0190193  -0.0414694  -0.0001330  -0.0058893   0.0249232
          181         182         183         184         185         186
    1   0.0205018  -0.0470659  -0.0072520  -0.0142931   0.0242629  -0.0318064
    2   0.0018641   0.0151065  -0.0070778   0.0187697  -0.0227649   0.0015029
    3  -0.0301249   0.0984268  -0.0035794  -0.0188625  -0.0163545   0.0185555
          187         188         189         190         191         192
    1   0.0470154   0.0021300   0.0124439  -0.0260049   0.0123103  -0.0576579
    2   0.0076865  -0.0069477   0.0187708  -0.0038244  -0.0303855   0.0786278
    3  -0.0259816   0.0048637   0.0222527   0.0079016  -0.0130249   0.0493892
          193         194         195         196         197         198
    1   0.0020375   0.0222424  -0.0212970  -0.0090538  -0.0318147   0.0109093
    2  -0.0042942  -0.0226573  -0.0163131   0.0027116   0.0433076   0.0005363
    3  -0.0013040  -0.0008059   0.0138027  -0.0299099  -0.0021489  -0.0015365
          199         200         201         202         203         204
    1   0.0084183   0.0223635  -0.0007761   0.0523600   0.0018089   0.0245368
    2   0.0260710  -0.0138277  -0.0037982  -0.0267463   0.0008372  -0.0207805
    3   0.0170400   0.0199219  -0.0303104   0.0982114   0.0067553   0.0090529
          205         206         207         208         209         210
    1   0.0171560   0.0055024   0.0046713  -0.0031434  -0.0013497   0.0131635
    2   0.0198276   0.0190087  -0.0284050   0.0033913   0.0236628   0.0286812
    3  -0.0158978   0.0327555  -0.0572108   0.0012026   0.0255175  -0.0157553
          211         212         213         214         215         216
    1  -0.0255414  -0.0503034  -0.0018524   0.0101488  -0.0243964  -0.0149738
    2   0.0035817  -0.0487277  -0.0018924   0.0028524   0.0170398  -0.0286342
    3  -0.0105063   0.0848107   0.0115932   0.0311444  -0.0100105   0.0074133
          217         218         219         220         221         222
    1  -0.0241775   0.0049669   0.0257584   0.0061650  -0.0145342   0.0385129
    2  -0.0117497  -0.0047385   0.0057855   0.0023191  -0.0302558   0.0995601
    3  -0.0546814   0.0054444  -0.0190605   0.0302324  -0.0019071   0.0226502
          223         224         225         226         227         228
    1  -0.0039278  -0.0328926  -0.0062057   0.0092039  -0.0209856   0.0026652
    2  -0.0027374   0.0124142  -0.0333392   0.0135847  -0.0175286  -0.0072808
    3   0.0057653  -0.0004826   0.0073254   0.0256361  -0.0510719   0.0074064
          229         230         231         232         233         234
    1   0.0045382   0.0051448  -0.0118597   0.0395593   0.0047273  -0.0015635
    2  -0.0000370   0.0179274  -0.0342053   0.0999423  -0.0021549  -0.0136371
    3  -0.0215602   0.0323340  -0.0068455   0.0207222  -0.0064065  -0.0307885
          235         236         237         238         239         240
    1   0.0095531   0.0211902   0.0086318  -0.0042513  -0.0300377  -0.0037127
    2   0.0272889  -0.0200685   0.0341425  -0.0103716  -0.0027563  -0.0270414
    3  -0.0040053   0.0160744   0.0632730   0.0005560  -0.0041712  -0.0279909
          241         242         243         244         245         246
    1   0.0143693  -0.0783634   0.0028422   0.0273670  -0.0206467  -0.0141744
    2  -0.0069392   0.0382662   0.0065095   0.0239913   0.0036883   0.0098899
    3   0.0299089  -0.0655383  -0.0004390  -0.0007708  -0.0249578   0.0192042
          247         248         249         250         251         252
    1   0.0346151  -0.0039247  -0.0167911  -0.0214447   0.0047934   0.0310443
    2  -0.0207592  -0.0041730   0.0211903  -0.0024911  -0.0309224  -0.0213879
    3  -0.0479732  -0.0013243   0.0172119  -0.0338009   0.0061502   0.0992593
          253         254         255         256         257         258
    1  -0.0098425   0.0102799  -0.0355263   0.0178598  -0.0118936   0.0082506
    2   0.0039014  -0.0024731   0.0008956   0.0275069   0.0007290   0.0026442
    3  -0.0065058  -0.0304912   0.0062716  -0.0069443   0.0498779  -0.0069702
          259         260         261         262         263         264
    1  -0.0097110   0.0221253   0.0202623  -0.0105885  -0.0000017   0.0354458
    2   0.0077889   0.0291709  -0.0103636  -0.0897121   0.0058981   0.0166019
    3  -0.0354875   0.0134926   0.0187940  -0.0661864  -0.0063542   0.0030424
          265         266         267         268         269         270
    1  -0.0075401  -0.0059979   0.0183822   0.0065554  -0.0123877  -0.0079045
    2   0.0132638   0.0245816  -0.0165765  -0.0040932  -0.0281495   0.0192025
    3  -0.0282269   0.0199938   0.0493948  -0.0029027   0.0016160  -0.0239142
          271         272         273         274         275         276
    1   0.0340415  -0.1084871  -0.0071832   0.0248841  -0.0067846  -0.0173679
    2  -0.0187029   0.0055894  -0.0097604  -0.0071117  -0.0213868   0.0103260
    3   0.0075752  -0.0198882  -0.0043942  -0.0152941   0.0294537  -0.0277309
          277         278         279         280         281         282
    1   0.0378503   0.0007320   0.0275576   0.0076892  -0.0230159  -0.0991678
    2   0.0339218  -0.0027117  -0.0128400   0.0205182  -0.0219075   0.0285479
    3  -0.0268843   0.0070506  -0.0072457   0.0234812   0.0046994   0.0342610
  --- DONE ESP SUMMARY ---
Archival summary:
1\1\node023\SP\ProcedureUnspecified\6-31+G*\262652h22\ymao90\SatDec403:03:252021SatDec403:03:252021\0\\#,ProcedureUnspecified,6-31+G*,\\0,1\S\O,1,1.49716\C,1,1.80696,2,104.469\H,3,1.09246,1,105.818,2,-94.0958,0\H,3,1.0926,1,114.289,2,22.9263,0\H,3,1.09354,1,110.571,2,157.167,0\C,1,1.80754,2,101.718,3,-103.876,0\H,7,1.09229,1,113.034,2,169.547,0\H,7,1.09302,1,101.471,2,50.6377,0\H,7,1.09303,1,104.108,2,-66.4438,0\H,10,2.21784,7,138.455,1,26.3376,0\C,11,1.09257,10,146.384,7,67.8528,0\H,12,1.09258,11,110.631,10,-57.0738,0\H,12,1.09265,11,108.465,10,59.2313,0\S,12,1.8075,11,111.661,10,-175.358,0\O,15,1.4967,12,104.84,11,163.967,0\C,15,1.80683,12,92.0669,11,53.5172,0\H,17,1.09246,15,114.632,12,-85.1097,0\H,17,1.09256,15,110.705,12,36.5856,0\H,17,1.09283,15,102.741,12,156.692,0\Gh,8,2.24686,7,107.417,1,48.1966,0\Gh,21,1.09609,8,166.486,7,76.0081,0\Gh,22,1.09673,21,112.164,8,-134.716,0\Gh,22,1.53759,21,102.923,8,-20.9903,0\Gh,24,1.09694,22,105.166,21,-55.1132,0\Gh,24,1.09746,22,111.764,21,-170.547,0\Gh,24,1.53754,22,109.048,21,65.8293,0\Gh,27,1.0975,24,103.095,22,-61.9092,0\Gh,27,1.46126,24,114.819,22,179.342,0\Gh,29,1.01341,27,122.124,24,-69.7421,0\Gh,29,1.37937,27,123.702,24,96.2035,0\Gh,31,1.1046,29,112.601,27,-173.739,0\Gh,31,1.21842,29,123.506,27,9.71949,0\Gh,27,1.53739,24,113.451,22,49.6931,0\Gh,34,1.09626,27,112.002,24,-172.879,0\Gh,34,1.09677,27,106.429,24,75.4455,0\Gh,34,1.53793,27,116.367,24,-48.5136,0\Gh,37,1.09668,34,112.545,27,170.121,0\Gh,37,1.09676,34,106.123,27,-72.4899,0\Gh,37,1.53814,34,110.598,27,47.2503,0\Gh,40,1.09595,37,102.125,34,-164.892,0\Gh,40,1.09671,37,109.376,34,72.8887,0\H,38,2.06894,37,109.4,34,116.935,0\C,43,1.09278,38,157.575,37,152.039,0\H,44,1.09227,43,112.639,38,-41.2604,0\H,44,1.09367,43,109.753,38,-159.479,0\S,44,1.80695,43,110.862,38,83.5219,0\O,47,1.49686,44,97.5239,43,56.4911,0\C,47,1.80736,44,95.2964,43,-48.0101,0\H,49,1.09206,47,106.677,44,42.2221,0\H,49,1.09277,47,114.059,44,-69.142,0\H,49,1.09313,47,112.165,44,166.27,0\O,30,2.16733,29,153.404,27,75.157,0\S,53,1.49602,30,113.18,29,-177.326,0\C,54,1.80695,53,98.3694,30,46.041,0\H,55,1.09266,54,113.554,53,-95.3148,0\H,55,1.09284,54,105.664,53,30.8784,0\H,55,1.09318,54,111.058,53,146.05,0\C,54,1.80702,53,102.745,30,144.981,0\H,59,1.09264,54,110.585,53,-170.837,0\H,59,1.09281,54,106.133,53,65.8802,0\H,59,1.09356,54,102,53,-50.6454,0\H,42,2.22745,40,161.589,37,-9.65307,0\C,63,1.09353,42,138.714,40,-143.837,0\H,64,1.09268,63,115.186,42,-45.8006,0\H,64,1.09311,63,110.229,42,76.5015,0\S,64,1.80659,63,99.158,42,-174.891,0\O,67,1.49744,64,98.2789,63,-37.9955,0\C,67,1.80621,64,91.7281,63,65.8306,0\H,69,1.09252,67,106.437,64,71.0394,0\H,69,1.09277,67,102.8,64,-52.5177,0\H,69,1.09372,67,98.0539,64,-167.349,0\H,68,2.40539,67,155.004,64,141.907,0\C,73,1.09326,68,146.715,67,-165.599,0\H,74,1.09277,73,107.229,68,37.1985,0\H,74,1.09285,73,107.853,68,152.422,0\S,74,1.80672,73,116.878,68,-87.6212,0\O,77,1.49746,74,99.5006,73,-94.8275,0\C,77,1.8068,74,90.5543,73,159.089,0\H,79,1.09244,77,110.449,74,34.5006,0\H,79,1.0936,77,112.557,74,160.523,0\H,79,1.09371,77,113.508,74,-80.3758,0\H,45,2.48372,44,142.289,43,-98.4172,0\C,83,1.09259,45,114.423,44,-109.931,0\H,84,1.09287,83,103.847,45,-79.7027,0\H,84,1.09339,83,103.146,45,157.958,0\S,84,1.80766,83,107.117,45,37.0857,0\O,87,1.49669,84,103.046,83,78.3064,0\C,87,1.80724,84,95.1813,83,-176.518,0\H,89,1.09245,87,121.138,84,75.1553,0\H,89,1.09327,87,108.098,84,-153.934,0\H,89,1.09373,87,109.038,84,-45.9591,0\H,86,2.2121,84,110.472,83,45.6433,0\C,93,1.09277,86,162.854,84,34.1262,0\H,94,1.09249,93,109.955,86,22.3401,0\H,94,1.09302,93,107.605,86,139.929,0\S,94,1.80669,93,110.375,86,-100.314,0\O,97,1.49702,94,111.196,93,77.2499,0\C,97,1.80781,94,102.384,93,-171.603,0\H,99,1.09225,97,115.884,94,82.5404,0\H,99,1.09301,97,108.872,94,-159.945,0\H,99,1.0932,97,104.897,94,-31.738,0\H,96,2.26714,94,106.702,93,71.2251,0\C,103,1.09359,96,155.896,94,-76.0447,0\H,104,1.09288,103,116.82,96,-78.5125,0\H,104,1.09321,103,112.585,96,34.4307,0\S,104,1.80708,103,112.233,96,157.734,0\O,107,1.49656,104,96.0131,103,-51.7224,0\C,107,1.80685,104,101.502,103,47.5846,0\H,109,1.09271,107,106.809,104,-62.5184,0\H,109,1.09312,107,107,104,177.697,0\H,109,1.09312,107,107.334,104,57.5808,0\H,106,1.98729,104,144.988,103,143.262,0\C,113,1.09353,106,126.343,104,-48.1106,0\H,114,1.09228,113,114.917,106,22.3069,0\H,114,1.09317,113,105.598,106,141.514,0\S,114,1.8069,113,107.237,106,-105.839,0\O,117,1.49645,114,105.928,113,173.424,0\C,117,1.80675,114,95.3904,113,69.3216,0\H,119,1.09305,117,115.396,114,-78.1506,0\H,119,1.09307,117,104.35,114,160.328,0\H,119,1.09342,117,116.002,114,51.7704,0\H,95,2.3509,94,120.315,93,-48.3757,0\C,123,1.0932,95,137.768,94,178.856,0\H,124,1.09261,123,110.051,95,-71.846,0\H,124,1.0928,123,110.126,95,45.0183,0\S,124,1.80741,123,107.685,95,164.022,0\O,127,1.49701,124,109.24,123,52.046,0\C,127,1.80737,124,95.9632,123,-52.8405,0\H,129,1.09243,127,114.482,124,-175.909,0\H,129,1.09307,127,106.596,124,-49.5947,0\H,129,1.09361,127,104.957,124,65.8731,0\H,131,2.32407,129,104.766,127,172.199,0\C,133,1.09341,131,101.596,129,179.903,0\H,134,1.09271,133,104.032,131,-78.0764,0\H,134,1.09279,133,106.115,131,51.3264,0\S,134,1.80729,133,107.442,131,164.527,0\O,137,1.49696,134,106.026,133,72.3978,0\C,137,1.80773,134,96.2053,133,178.856,0\H,139,1.09241,137,108.992,134,-48.1624,0\H,139,1.09249,137,105.777,134,68.9408,0\H,139,1.09339,137,106.472,134,-165.39,0\H,142,2.26653,139,142.175,137,-88.369,0\C,143,1.09253,142,144.765,139,173.233,0\H,144,1.09252,143,106.536,142,-116.387,0\H,144,1.09375,143,107.711,142,123.898,0\S,144,1.80702,143,113.25,142,10.7456,0\O,147,1.49693,144,96.8392,143,38.5616,0\C,147,1.80625,144,93.4862,143,-62.7584,0\H,149,1.09324,147,112.127,144,-68.4003,0\H,149,1.09327,147,107.103,144,172.252,0\H,149,1.09345,147,107.33,144,51.9715,0\H,150,2.31871,149,114.476,147,93.2864,0\C,153,1.09327,150,140.326,149,83.6862,0\H,154,1.09254,153,101.273,150,-27.0214,0\H,154,1.0937,153,114.202,150,92.5516,0\S,154,1.80717,153,112.71,150,-138.962,0\O,157,1.49722,154,101.177,153,30.5763,0\C,157,1.80669,154,98.5572,153,-69.3715,0\H,159,1.09256,157,113.02,154,169.936,0\H,159,1.09327,157,108.468,154,-65.934,0\H,159,1.09408,157,101.527,154,55.7925,0\O,145,2.36067,144,159.176,143,161.229,0\S,163,1.49665,145,126.089,144,-70.1125,0\C,164,1.80691,163,105.329,145,-141.817,0\H,165,1.09281,164,105.447,163,173.648,0\H,165,1.09294,164,110.004,163,56.3067,0\H,165,1.09329,164,107.296,163,-68.5927,0\C,164,1.80737,163,98.6812,145,122.124,0\H,169,1.09262,164,116.467,163,-85.8418,0\H,169,1.09302,164,106.352,163,34.6,0\H,169,1.09388,164,104.842,163,152.116,0\H,151,2.37028,149,99.8965,147,-144.746,0\C,173,1.09331,151,119.056,149,-165.006,0\H,174,1.09254,173,123.436,151,-57.281,0\H,174,1.09331,173,110.812,151,171.826,0\S,174,1.80696,173,109.421,151,61.9866,0\O,177,1.49709,174,102.74,173,-68.951,0\C,177,1.8071,174,95.1872,173,-175.856,0\H,179,1.09275,177,102.209,174,172.387,0\H,179,1.0933,177,110.62,174,54.7886,0\H,179,1.09332,177,104.329,174,-67.3919,0\H,33,2.50828,31,139.713,29,134.593,0\C,183,1.09218,33,130.189,31,-23.1179,0\H,184,1.09299,183,116.732,33,120.183,0\H,184,1.09366,183,107.81,33,3.02216,0\S,184,1.80689,183,106.169,33,-113.799,0\O,187,1.4971,184,96.45,183,-88.5094,0\C,187,1.80716,184,89.3892,183,171.472,0\H,189,1.09275,187,105.316,184,-145.818,0\H,189,1.09276,187,106.311,184,97.7919,0\H,189,1.09367,187,115.122,184,-19.4242,0\H,183,2.16735,33,67.4999,31,57.879,0\C,193,1.09333,183,141.485,33,135.15,0\H,194,1.09259,193,113.249,183,-111.881,0\H,194,1.09389,193,105.34,183,2.99091,0\S,194,1.80707,193,112.207,183,123.663,0\O,197,1.49721,194,101.929,193,-72.8155,0\C,197,1.80753,194,99.2921,193,177.27,0\H,199,1.09275,197,102.8,194,-164.565,0\H,199,1.09304,197,106.347,194,-51.1837,0\H,199,1.09348,197,112.503,194,73.2816,0\H,192,2.39229,189,105.939,187,-87.4017,0\C,203,1.09229,192,132.689,189,89.9245,0\H,204,1.09262,203,117.153,192,-49.904,0\H,204,1.09289,203,108.831,192,-167.546,0\S,204,1.80724,203,101.435,192,67.1703,0\O,207,1.49637,204,103.553,203,165.941,0\C,207,1.80788,204,96.5541,203,59.5933,0\H,209,1.09276,207,107.486,204,-157.297,0\H,209,1.09284,207,105.372,204,88.5376,0\H,209,1.09298,207,113.583,204,-41.4651,0\O,210,2.18933,209,173.139,207,-147.432,0\S,213,1.49735,210,119.56,209,-162.904,0\C,214,1.80653,213,97.9181,210,138.263,0\H,215,1.09265,214,100.612,213,-174.47,0\H,215,1.09306,214,107.053,213,-52.4233,0\H,215,1.09359,214,105.717,213,68.2287,0\C,214,1.80668,213,104.577,210,35.3284,0\H,219,1.09278,214,102.643,213,-72.7409,0\H,219,1.09318,214,115.286,213,167.55,0\H,219,1.09391,214,115.533,213,37.9069,0\O,206,2.30024,204,145.849,203,-44.212,0\S,223,1.49726,206,99.8362,204,159.983,0\C,224,1.80674,223,105.121,206,-138.294,0\H,225,1.09197,224,99.83,223,-70.2324,0\H,225,1.09299,224,116.053,223,50.2187,0\H,225,1.09306,224,105.022,223,179.868,0\C,224,1.80724,223,110.302,206,-34.4653,0\H,229,1.0924,224,109.12,223,-40.7282,0\H,229,1.09311,224,105.599,223,-156.931,0\H,229,1.09372,224,111.636,223,87.6877,0\H,211,2.38739,209,119.197,207,132.811,0\C,233,1.09271,211,101.801,209,-171.213,0\H,234,1.0928,233,107.618,211,-170.38,0\H,234,1.09297,233,113.744,211,-60.0315,0\S,234,1.80725,233,109.604,211,62.3015,0\O,237,1.49631,234,110.305,233,150.949,0\C,237,1.80738,234,94.1721,233,44.2341,0\H,239,1.09285,237,111.414,234,173.193,0\H,239,1.09293,237,105.547,234,52.9139,0\H,239,1.09329,237,104.655,234,-66.2943,0\H,205,2.39676,204,170.494,203,-5.04502,0\C,243,1.09297,205,103.671,204,-111.751,0\H,244,1.09249,243,123.293,205,-45.4785,0\H,244,1.0934,243,108.086,205,175.094,0\S,244,1.80787,243,110.262,205,71.4037,0\O,247,1.49662,244,108.66,243,-27.9282,0\C,247,1.8063,244,95.9897,243,78.6449,0\H,249,1.09294,247,103.121,244,-61.286,0\H,249,1.09322,247,115.056,244,-178.223,0\H,249,1.09375,247,114.403,244,57.8133,0\H,188,2.45695,187,136.779,184,36.1822,0\C,253,1.0929,188,143.259,187,130.385,0\H,254,1.09288,253,111.689,188,114.45,0\H,254,1.0935,253,109.575,188,-17.1113,0\S,254,1.80762,253,108.918,188,-129.33,0\O,257,1.49682,254,102.866,253,-50.9316,0\C,257,1.80645,254,97.477,253,58.1609,0\H,259,1.09237,257,112.83,254,-32.6975,0\H,259,1.09255,257,113.994,254,-163.137,0\H,259,1.09338,257,102.437,254,79.2529,0\H,260,2.30254,259,116.965,257,135.28,0\C,263,1.09265,260,128.748,259,-49.2187,0\H,264,1.09296,263,110.929,260,-144.379,0\H,264,1.09327,263,109.427,260,-9.16944,0\S,264,1.80643,263,106.579,260,101.51,0\O,267,1.49666,264,105.234,263,-74.1137,0\C,267,1.80771,264,93.3808,263,178.538,0\H,269,1.09249,267,104.576,264,174.333,0\H,269,1.09295,267,97.7093,264,64.1979,0\H,269,1.09345,267,114.399,264,-58.1506,0\O,195,2.60223,194,121.14,193,-73.5237,0\S,273,1.49756,195,137.465,194,8.81025,0\C,274,1.80683,273,109.603,195,-42.7789,0\H,275,1.09258,274,114.04,273,-31.4741,0\H,275,1.0931,274,98.8261,273,84.2971,0\H,275,1.09363,274,112.708,273,-169.089,0\C,274,1.80704,273,105.41,195,-143.047,0\H,279,1.09238,274,117.84,273,63.0336,0\H,279,1.09282,274,98.1751,273,-174.783,0\H,279,1.09296,274,111.201,273,-60.7166,0\\\@

 Total job time:  55.92s(wall), 160.33s(cpu) 
 Sat Dec  4 03:03:25 2021

        *************************************************************
        *                                                           *
        *  Thank you very much for using Q-Chem.  Have a nice day.  *
        *                                                           *
        *************************************************************


