                  Welcome to Q-Chem
     A Quantum Leap Into The Future Of Chemistry


 Q-Chem 5.2 (devel), Q-Chem, Inc., Pleasanton, CA (2019)

 Yihan Shao,  Zhengting Gan,  E. Epifanovsky,  A. T. B. Gilbert,  M. Wormit,  
 J. Kussmann,  A. W. Lange,  A. Behn,  Jia Deng,  Xintian Feng,  D. Ghosh,  
 M. Goldey,  P. R. Horn,  L. D. Jacobson,  I. Kaliman,  T. Kus,  A. Landau,  
 Jie Liu,  E. I. Proynov,  R. M. Richard,  R. P. Steele,  E. J. Sundstrom,  
 H. L. Woodcock III,  P. M. Zimmerman,  D. Zuev,  B. Alam,  B. Albrecht,  
 E. Alguire,  S. A. Baeppler,  D. Barton,  Z. Benda,  Y. A. Bernard,  
 E. J. Berquist,  K. B. Bravaya,  H. Burton,  K. Carter-Fenk,  D. Casanova,  
 Chun-Min Chang,  Yunqing Chen,  A. Chien,  K. D. Closser,  M. P. Coons,  
 S. Coriani,  S. Dasgupta,  A. L. Dempwolff,  M. Diedenhofen,  Hainam Do,  
 R. G. Edgar,  Po-Tung Fang,  S. Faraji,  S. Fatehi,  Qingguo Feng,  
 J. Fosso-Tande,  J. Gayvert,  Qinghui Ge,  A. Ghysels,  G. Gidofalvi,  
 J. Gomes,  J. Gonthier,  A. Gunina,  D. Hait,  M. W. D. Hanson-Heine,  
 P. H. P. Harbach,  A. W. Hauser,  M. F. Herbst,  J. E. Herr,  
 E. G. Hohenstein,  Z. C. Holden,  Kerwin Hui,  B. C. Huynh,  T.-C. Jagau,  
 Hyunjun Ji,  B. Kaduk,  K. Khistyaev,  Jaehoon Kim,  P. Klunzinger,  K. Koh,  
 D. Kosenkov,  L. Koulias,  T. Kowalczyk,  C. M. Krauter,  A. Kunitsa,  
 Ka Un Lao,  A. Laurent,  K. V. Lawler,  Joonho Lee,  D. Lefrancois,  
 S. Lehtola,  D. S. Levine,  Yi-Pei Li,  You-Sheng Lin,  Fenglai Liu,  
 Kuan-Yu Liu,  E. Livshits,  M. Loipersberger,  A. Luenser,  P. Manohar,  
 E. Mansoor,  S. F. Manzer,  Shan-Ping Mao,  Yuezhi Mao,  N. Mardirossian,  
 A. V. Marenich,  T. Markovich,  L. A. Martinez-Martinez,  S. A. Maurer,  
 N. J. Mayhall,  S. C. McKenzie,  J.-M. Mewes,  P. Morgante,  A. F. Morrison,  
 J. W. Mullinax,  K. Nanda,  T. S. Nguyen-Beck,  R. Olivares-Amaya,  
 J. A. Parkhill,  S. K. Paul,  F. Pavosevic,  Zheng Pei,  T. M. Perrine,  
 F. Plasser,  P. Pokhilko,  S. Prager,  A. Prociuk,  E. Ramos,  B. Rana,  
 D. R. Rehn,  F. Rob,  M. Scheurer,  M. Schneider,  N. Sergueev,  
 S. M. Sharada,  S. Sharma,  D. W. Small,  T. Stauch,  C. J. Stein,  
 T. Stein,  Yu-Chuan Su,  S. P. Veccham,  Zhen Tao,  A. J. W. Thom,  
 A. Tkatchenko,  T. Tsuchimochi,  N. M. Tubman,  L. Vogt,  M. L. Vidal,  
 O. Vydrov,  M. A. Watson,  J. Wenzel,  M. de Wergifosse,  T. A. Wesolowski,  
 A. White,  J. Witte,  A. Yamada,  Jun Yang,  K. Yao,  S. Yeganeh,  
 S. R. Yost,  Zhi-Qiang You,  A. Zech,  Igor Ying Zhang,  Xing Zhang,  
 Yan Zhao,  Ying Zhu,  B. R. Brooks,  G. K. L. Chan,  C. J. Cramer,  
 M. S. Gordon,  W. J. Hehre,  A. Klamt,  M. W. Schmidt,  C. D. Sherrill,  
 D. G. Truhlar,  A. Aspuru-Guzik,  R. Baer,  A. T. Bell,  N. A. Besley,  
 Jeng-Da Chai,  A. E. DePrince, III,  R. A. DiStasio Jr.,  A. Dreuw,  
 B. D. Dunietz,  T. R. Furlani,  Chao-Ping Hsu,  Yousung Jung,  Jing Kong,  
 D. S. Lambrecht,  WanZhen Liang,  C. Ochsenfeld,  V. A. Rassolov,  
 L. V. Slipchenko,  J. E. Subotnik,  T. Van Voorhis,  J. M. Herbert,  
 A. I. Krylov,  P. M. W. Gill,  M. Head-Gordon

 Contributors to earlier versions of Q-Chem not listed above: 
 R. D. Adamson,  B. Austin,  J. Baker,  G. J. O. Beran,  K. Brandhorst,  
 S. T. Brown,  E. F. C. Byrd,  A. K. Chakraborty,  C.-L. Cheng,  
 Siu Hung Chien,  D. M. Chipman,  D. L. Crittenden,  H. Dachsel,  
 R. J. Doerksen,  A. D. Dutoi,  L. Fusti-Molnar,  W. A. Goddard III,  
 A. Golubeva-Zadorozhnaya,  S. R. Gwaltney,  G. Hawkins,  A. Heyden,  
 S. Hirata,  G. Kedziora,  F. J. Keil,  C. Kelley,  Jihan Kim,  R. A. King,  
 R. Z. Khaliullin,  P. P. Korambath,  W. Kurlancheek,  A. M. Lee,  M. S. Lee,  
 S. V. Levchenko,  Ching Yeh Lin,  D. Liotard,  R. C. Lochan,  I. Lotan,  
 P. E. Maslen,  N. Nair,  D. P. O'Neill,  D. Neuhauser,  E. Neuscamman,  
 C. M. Oana,  R. Olson,  B. Peters,  R. Peverati,  P. A. Pieniazek,  
 Y. M. Rhee,  J. Ritchie,  M. A. Rohrdanz,  E. Rosta,  N. J. Russ,  
 H. F. Schaefer III,  N. E. Schultz,  N. Shenvi,  A. C. Simmonett,  A. Sodt,  
 D. Stuck,  K. S. Thanthiriwatte,  V. Vanovschi,  Tao Wang,  A. Warshel,  
 C. F. Williams,  Q. Wu,  X. Xu,  W. Zhang

 Please cite Q-Chem as follows:
 Y. Shao et al., Mol. Phys. 113, 184-215 (2015)
 DOI: 10.1080/00268976.2014.952696

 Q-Chem 5.2.2 for Intel X86 EM64T Linux

 Parts of Q-Chem use Armadillo 9.800.1 (Horizon Scraper).
 http://arma.sourceforge.net/

 Q-Chem begins on Sat Dec  4 01:04:36 2021  

Host: node025
0

     Scratch files written to /home/ymao90/scratch/r7.00_frame_0087_spade_B3LYP_dp20211203120855//

Checking the input file for inconsistencies... 	...done.

--------------------------------------------------------------
User input:
--------------------------------------------------------------
$molecule
0 1
--
0 1
C    29.54900   28.42700   24.91200  
C    28.29800   29.02700   25.57400  
C    27.08600   28.08300   25.50100  
C    27.51200   26.65900   25.89100  
C    28.60600   26.11300   24.95800  
C    29.88100   26.94700   25.16600  
H    26.25700   28.46600   26.11000  
H    28.42100   29.06900   26.66300  
H    29.37900   28.52200   23.83300  
H    30.32200   29.17400   25.13100  
H    27.85800   26.57600   26.92800  
H    26.66500   26.03700   25.57600  
H    28.73900   25.04800   25.18300  
H    28.27000   26.05800   23.91500  
H    30.19900   26.95300   26.21600  
H    30.65100   26.43400   24.57800  
H    26.76300   28.00000   24.45600  
N    27.91300   30.30500   24.97800  
H    27.31100   30.33100   24.16400  
C    28.44600   31.53200   25.31100  
H    28.03400   32.43700   24.82900  
O    29.23700   31.62600   26.23200  
--
0 1
C    25.74800   32.47200   22.54200  
H    26.13200   33.45600   22.26600  
H    24.69800   32.55200   22.24900  
H    25.92300   32.30200   23.60800  
S    26.42300   31.13400   21.53300  
C    25.44700   29.66400   21.92100  
H    24.39000   29.87700   21.73900  
H    25.72300   28.80900   21.29900  
H    25.72000   29.50000   22.96600  
O    27.76400   30.89300   22.15500  
C    35.06500   27.41500   24.47600  
H    34.94000   27.54900   23.39800  
H    35.74200   28.23100   24.74100  
H    35.46200   26.41900   24.68600  
S    33.46400   27.66200   25.27800  
C    33.65800   29.45600   25.17300  
H    34.50300   29.87500   25.72500  
H    33.62500   29.68500   24.10500  
H    32.78000   29.95400   25.59100  
O    33.85300   27.29400   26.67600  
C    26.27500   23.63800   32.64900  
H    25.44400   24.32500   32.47100  
H    26.26100   22.84000   31.90100  
H    26.18400   23.28700   33.68000  
S    27.82400   24.56800   32.66100  
C    28.80800   23.09500   33.01700  
H    28.56400   22.47500   32.15000  
H    29.89700   23.17500   33.05700  
H    28.31700   22.81100   33.95100  
O    27.91000   25.27300   33.97900  
C    29.64900   36.10700   22.78300  
H    30.12200   35.17800   22.45400  
H    28.98500   36.50400   22.01200  
H    30.41800   36.81300   23.10800  
S    28.59300   35.69800   24.19100  
C    29.87000   34.60500   24.85300  
H    30.76700   35.21800   24.97300  
H    29.49800   34.31700   25.84000  
H    30.14600   33.81800   24.14600  
O    27.54700   34.88900   23.48900  
C    33.15600   31.18200   21.50500  
H    33.53200   31.37000   22.51400  
H    33.81700   30.64600   20.81900  
H    32.96600   32.18600   21.11700  
S    31.60600   30.25500   21.57300  
C    30.93300   31.43700   22.76300  
H    31.61400   32.26500   22.97200  
H    29.97600   31.79500   22.37400  
H    30.72800   30.95800   23.72400  
O    32.05000   29.00600   22.26700  
C    32.02900   32.74400   26.88500  
H    31.45100   33.56000   27.32700  
H    31.98700   32.89400   25.80300  
H    31.65700   31.75100   27.14800  
S    33.66800   33.02300   27.59400  
C    33.17600   33.66900   29.20800  
H    32.56000   32.85900   29.61000  
H    33.92800   33.69300   30.00100  
H    32.59400   34.59400   29.19400  
O    34.30200   34.16700   26.86800  
C    28.69600   23.05700   27.28600  
H    29.20500   23.93000   27.70400  
H    29.35400   22.33400   26.79700  
H    27.96800   23.30200   26.50900  
S    28.00700   22.07600   28.63800  
C    29.63400   21.72500   29.34100  
H    29.45100   20.98000   30.12000  
H    30.35700   21.17300   28.73500  
H    30.04800   22.63900   29.77500  
O    27.72000   20.79000   27.92700  
C    24.29700   24.66500   27.47700  
H    23.25700   24.37800   27.30000  
H    24.55500   25.61600   27.00500  
H    24.99300   23.86000   27.22900  
S    24.48400   25.03500   29.23500  
C    26.14500   25.74600   29.19500  
H    26.83700   24.94400   28.92600  
H    26.20500   26.62300   28.54600  
H    26.44000   26.10500   30.18400  
O    24.44100   23.66500   29.83600  
C    28.62600   22.42100   22.49900  
H    27.99500   22.62700   21.63000  
H    29.00900   23.40100   22.79500  
H    29.44700   21.85300   22.05300  
S    27.84100   21.44800   23.80400  
C    29.17100   20.23700   23.98000  
H    29.07000   19.87700   25.00700  
H    29.06900   19.51400   23.16800  
H    30.14200   20.73000   23.88200  
O    26.74700   20.74500   23.06300  
C    24.35000   27.30800   32.14600  
H    24.32800   27.94200   31.25500  
H    24.10600   26.26000   31.95300  
H    23.65300   27.69900   32.89100  
S    26.00100   27.60400   32.81900  
C    25.64300   27.00800   34.48700  
H    24.99200   27.79600   34.87500  
H    25.11000   26.06200   34.36600  
H    26.53300   26.98500   35.12200  
O    26.07100   29.07400   33.09400  
C    22.09900   20.47100   25.57900  
H    22.37300   19.58100   25.00700  
H    21.15600   20.16600   26.04000  
H    21.80200   21.41000   25.10400  
S    23.33400   20.89600   26.82700  
C    24.75000   20.98300   25.70800  
H    25.60700   21.05500   26.38200  
H    24.87000   20.10000   25.07500  
H    24.88000   21.85100   25.05600  
O    23.46800   19.61700   27.59300  
C    28.63100   36.70100   29.53000  
H    28.22100   37.07800   28.59000  
H    27.86500   36.46800   30.27400  
H    29.43300   37.41000   29.75300  
S    29.18900   35.09400   28.92000  
C    29.90100   34.56100   30.49300  
H    30.69500   35.31000   30.55800  
H    29.01300   34.57400   31.12900  
H    30.30300   33.55100   30.38000  
O    30.39000   35.51200   28.13000  
C    21.17900   24.05300   24.37800  
H    22.15600   24.05400   24.86800  
H    20.87900   23.07100   24.00200  
H    21.14300   24.74800   23.53500  
S    19.80200   24.50200   25.45700  
C    20.63400   26.01000   26.00500  
H    19.89700   26.61700   26.53800  
H    21.46500   25.69600   26.64000  
H    20.91000   26.62700   25.14600  
O    19.94700   23.58600   26.63200  
C    24.03900   25.43700   21.10100  
H    23.63800   26.37600   20.71100  
H    24.70000   24.97200   20.36500  
H    23.26800   24.73900   21.43800  
S    24.92300   25.88500   22.61200  
C    25.17000   24.14000   23.01200  
H    25.93200   23.69200   22.36900  
H    25.48500   23.98100   24.04600  
H    24.18700   23.67900   22.88100  
O    23.78600   26.08900   23.56300  
C    25.73500   31.17400   29.49300  
H    25.81300   32.15100   29.97700  
H    25.78200   31.22600   28.40200  
H    24.85900   30.66100   29.90000  
S    27.05500   30.08400   30.07300  
C    28.39900   30.89100   29.17300  
H    28.33200   31.97400   29.30400  
H    29.34600   30.42900   29.46400  
H    28.10600   30.59000   28.16400  
O    26.88900   28.76600   29.38400  
C    35.98600   26.03200   18.53700  
H    35.66100   25.02600   18.26000  
H    35.58900   26.76800   17.83400  
H    37.07900   26.01800   18.54100  
S    35.59100   26.44400   20.25100  
C    33.79700   26.39300   20.03700  
H    33.50500   25.97400   19.07000  
H    33.40000   25.84300   20.89400  
H    33.37900   27.39500   19.90900  
O    35.88300   27.91200   20.24900  
C    30.16400   25.38400   20.50600  
H    30.40000   25.39500   21.57400  
H    29.97600   24.35200   20.20000  
H    31.06000   25.65800   19.94500  
S    28.62300   26.22800   20.08200  
C    29.23400   27.85900   20.56300  
H    29.63500   27.87000   21.58000  
H    29.89000   28.40600   19.88100  
H    28.42400   28.58900   20.64200  
O    27.79100   25.65700   21.18700  
C    33.92600   23.23100   25.59200  
H    34.34700   23.39100   24.59600  
H    34.38900   24.02900   26.17900  
H    34.18800   22.21200   25.88500  
S    32.16100   23.48900   25.88200  
C    32.47100   23.07600   27.61300  
H    31.47900   22.99200   28.06400  
H    32.95600   22.09800   27.55100  
H    33.00500   23.92000   28.05800  
O    31.81900   22.15100   25.30400  
C    22.78200   30.37200   27.61900  
H    22.68400   30.55900   28.69100  
H    23.41500   31.11800   27.13000  
H    21.76000   30.32500   27.23500  
S    23.66900   28.80600   27.45700  
C    23.53800   28.59700   25.66600  
H    24.15600   27.82100   25.20900  
H    22.45700   28.54100   25.51400  
H    23.92300   29.54900   25.29200  
O    22.76200   27.79700   28.08900  
C    25.74800   34.38900   28.42300  
H    26.44500   33.91500   29.11900  
H    25.70800   35.46300   28.62000  
H    24.77800   33.88800   28.47700  
S    26.20800   33.99300   26.72000  
C    25.13400   35.23200   25.96100  
H    24.26200   35.48300   26.57000  
H    25.60200   36.15200   25.59900  
H    24.89900   34.60100   25.10000  
O    25.72300   32.63200   26.32700  
C    34.74000   36.33200   21.85900  
H    35.33100   35.41500   21.93400  
H    34.39100   36.56000   20.84900  
H    35.40000   37.15100   22.15600  
S    33.29900   36.18300   22.93900  
C    34.02500   35.99600   24.58400  
H    34.66300   36.87800   24.67800  
H    33.31800   36.04300   25.41600  
H    34.66100   35.10900   24.63500  
O    32.80500   34.80100   22.64500  
C    29.76000   31.49900   32.59300  
H    29.29400   31.42700   33.57900  
H    29.85900   32.51900   32.21100  
H    29.05200   30.85600   32.06400  
S    31.42500   30.79600   32.60600  
C    32.21200   32.06300   33.62600  
H    31.83800   33.03600   33.29800  
H    31.89200   31.90300   34.65900  
H    33.29600   32.00800   33.49300  
O    31.97300   31.11900   31.25100  
C    31.36000   26.45400   28.71600  
H    32.21600   26.14900   29.32200  
H    31.22800   25.87300   27.80000  
H    31.56100   27.42300   28.25100  
S    29.70700   26.46400   29.44700  
C    30.35000   26.94700   31.06500  
H    30.90700   27.88700   31.03000  
H    29.46800   26.96100   31.71000  
H    30.93900   26.12500   31.48000  
O    29.41800   25.03300   29.77700  
C    34.69100   29.25900   28.83900  
H    33.62800   29.34900   28.60500  
H    34.97300   30.23200   29.24900  
H    35.09000   29.04600   27.84400  
S    35.04300   27.91000   29.99000  
C    34.04900   28.58300   31.34100  
H    32.97700   28.57700   31.12500  
H    34.15500   28.13600   32.33200  
H    34.41200   29.61300   31.39800  
O    36.47000   27.98600   30.43500  
$end

$rem
JOBTYPE  SP
METHOD  B3LYP
BASIS  6-31+G(D)
SYMMETRY  FALSE
SYM_IGNORE  TRUE
MEM_TOTAL  16000
MEM_STATIC  8000
MAX_SUB_FILE_NUM  16000
BASIS_LIN_DEP_THRESH  6
THRESH  14
SCF_CONVERGENCE  8
GEN_SCFMAN  TRUE
SCF_GUESS  SAD
FD_MAT_VEC_PROD  FALSE
XC_GRID  000075000302
NL_GRID  1
MAX_SCF_CYCLES  200
ENV_METHOD  B3LYP
GEN_SCFMAN_EMBED  TRUE
SPADE_PARTITION  TRUE
$end

$development
embedding_early_stop  1
$end

--------------------------------------------------------------
 ----------------------------------------------------------------
             Standard Nuclear Orientation (Angstroms)
    I     Atom           X                Y                Z
 ----------------------------------------------------------------
    1      C      29.5490000000    28.4270000000    24.9120000000
    2      C      28.2980000000    29.0270000000    25.5740000000
    3      C      27.0860000000    28.0830000000    25.5010000000
    4      C      27.5120000000    26.6590000000    25.8910000000
    5      C      28.6060000000    26.1130000000    24.9580000000
    6      C      29.8810000000    26.9470000000    25.1660000000
    7      H      26.2570000000    28.4660000000    26.1100000000
    8      H      28.4210000000    29.0690000000    26.6630000000
    9      H      29.3790000000    28.5220000000    23.8330000000
   10      H      30.3220000000    29.1740000000    25.1310000000
   11      H      27.8580000000    26.5760000000    26.9280000000
   12      H      26.6650000000    26.0370000000    25.5760000000
   13      H      28.7390000000    25.0480000000    25.1830000000
   14      H      28.2700000000    26.0580000000    23.9150000000
   15      H      30.1990000000    26.9530000000    26.2160000000
   16      H      30.6510000000    26.4340000000    24.5780000000
   17      H      26.7630000000    28.0000000000    24.4560000000
   18      N      27.9130000000    30.3050000000    24.9780000000
   19      H      27.3110000000    30.3310000000    24.1640000000
   20      C      28.4460000000    31.5320000000    25.3110000000
   21      H      28.0340000000    32.4370000000    24.8290000000
   22      O      29.2370000000    31.6260000000    26.2320000000
   23      C      25.7480000000    32.4720000000    22.5420000000
   24      H      26.1320000000    33.4560000000    22.2660000000
   25      H      24.6980000000    32.5520000000    22.2490000000
   26      H      25.9230000000    32.3020000000    23.6080000000
   27      S      26.4230000000    31.1340000000    21.5330000000
   28      C      25.4470000000    29.6640000000    21.9210000000
   29      H      24.3900000000    29.8770000000    21.7390000000
   30      H      25.7230000000    28.8090000000    21.2990000000
   31      H      25.7200000000    29.5000000000    22.9660000000
   32      O      27.7640000000    30.8930000000    22.1550000000
   33      C      35.0650000000    27.4150000000    24.4760000000
   34      H      34.9400000000    27.5490000000    23.3980000000
   35      H      35.7420000000    28.2310000000    24.7410000000
   36      H      35.4620000000    26.4190000000    24.6860000000
   37      S      33.4640000000    27.6620000000    25.2780000000
   38      C      33.6580000000    29.4560000000    25.1730000000
   39      H      34.5030000000    29.8750000000    25.7250000000
   40      H      33.6250000000    29.6850000000    24.1050000000
   41      H      32.7800000000    29.9540000000    25.5910000000
   42      O      33.8530000000    27.2940000000    26.6760000000
   43      C      26.2750000000    23.6380000000    32.6490000000
   44      H      25.4440000000    24.3250000000    32.4710000000
   45      H      26.2610000000    22.8400000000    31.9010000000
   46      H      26.1840000000    23.2870000000    33.6800000000
   47      S      27.8240000000    24.5680000000    32.6610000000
   48      C      28.8080000000    23.0950000000    33.0170000000
   49      H      28.5640000000    22.4750000000    32.1500000000
   50      H      29.8970000000    23.1750000000    33.0570000000
   51      H      28.3170000000    22.8110000000    33.9510000000
   52      O      27.9100000000    25.2730000000    33.9790000000
   53      C      29.6490000000    36.1070000000    22.7830000000
   54      H      30.1220000000    35.1780000000    22.4540000000
   55      H      28.9850000000    36.5040000000    22.0120000000
   56      H      30.4180000000    36.8130000000    23.1080000000
   57      S      28.5930000000    35.6980000000    24.1910000000
   58      C      29.8700000000    34.6050000000    24.8530000000
   59      H      30.7670000000    35.2180000000    24.9730000000
   60      H      29.4980000000    34.3170000000    25.8400000000
   61      H      30.1460000000    33.8180000000    24.1460000000
   62      O      27.5470000000    34.8890000000    23.4890000000
   63      C      33.1560000000    31.1820000000    21.5050000000
   64      H      33.5320000000    31.3700000000    22.5140000000
   65      H      33.8170000000    30.6460000000    20.8190000000
   66      H      32.9660000000    32.1860000000    21.1170000000
   67      S      31.6060000000    30.2550000000    21.5730000000
   68      C      30.9330000000    31.4370000000    22.7630000000
   69      H      31.6140000000    32.2650000000    22.9720000000
   70      H      29.9760000000    31.7950000000    22.3740000000
   71      H      30.7280000000    30.9580000000    23.7240000000
   72      O      32.0500000000    29.0060000000    22.2670000000
   73      C      32.0290000000    32.7440000000    26.8850000000
   74      H      31.4510000000    33.5600000000    27.3270000000
   75      H      31.9870000000    32.8940000000    25.8030000000
   76      H      31.6570000000    31.7510000000    27.1480000000
   77      S      33.6680000000    33.0230000000    27.5940000000
   78      C      33.1760000000    33.6690000000    29.2080000000
   79      H      32.5600000000    32.8590000000    29.6100000000
   80      H      33.9280000000    33.6930000000    30.0010000000
   81      H      32.5940000000    34.5940000000    29.1940000000
   82      O      34.3020000000    34.1670000000    26.8680000000
   83      C      28.6960000000    23.0570000000    27.2860000000
   84      H      29.2050000000    23.9300000000    27.7040000000
   85      H      29.3540000000    22.3340000000    26.7970000000
   86      H      27.9680000000    23.3020000000    26.5090000000
   87      S      28.0070000000    22.0760000000    28.6380000000
   88      C      29.6340000000    21.7250000000    29.3410000000
   89      H      29.4510000000    20.9800000000    30.1200000000
   90      H      30.3570000000    21.1730000000    28.7350000000
   91      H      30.0480000000    22.6390000000    29.7750000000
   92      O      27.7200000000    20.7900000000    27.9270000000
   93      C      24.2970000000    24.6650000000    27.4770000000
   94      H      23.2570000000    24.3780000000    27.3000000000
   95      H      24.5550000000    25.6160000000    27.0050000000
   96      H      24.9930000000    23.8600000000    27.2290000000
   97      S      24.4840000000    25.0350000000    29.2350000000
   98      C      26.1450000000    25.7460000000    29.1950000000
   99      H      26.8370000000    24.9440000000    28.9260000000
  100      H      26.2050000000    26.6230000000    28.5460000000
  101      H      26.4400000000    26.1050000000    30.1840000000
  102      O      24.4410000000    23.6650000000    29.8360000000
  103      C      28.6260000000    22.4210000000    22.4990000000
  104      H      27.9950000000    22.6270000000    21.6300000000
  105      H      29.0090000000    23.4010000000    22.7950000000
  106      H      29.4470000000    21.8530000000    22.0530000000
  107      S      27.8410000000    21.4480000000    23.8040000000
  108      C      29.1710000000    20.2370000000    23.9800000000
  109      H      29.0700000000    19.8770000000    25.0070000000
  110      H      29.0690000000    19.5140000000    23.1680000000
  111      H      30.1420000000    20.7300000000    23.8820000000
  112      O      26.7470000000    20.7450000000    23.0630000000
  113      C      24.3500000000    27.3080000000    32.1460000000
  114      H      24.3280000000    27.9420000000    31.2550000000
  115      H      24.1060000000    26.2600000000    31.9530000000
  116      H      23.6530000000    27.6990000000    32.8910000000
  117      S      26.0010000000    27.6040000000    32.8190000000
  118      C      25.6430000000    27.0080000000    34.4870000000
  119      H      24.9920000000    27.7960000000    34.8750000000
  120      H      25.1100000000    26.0620000000    34.3660000000
  121      H      26.5330000000    26.9850000000    35.1220000000
  122      O      26.0710000000    29.0740000000    33.0940000000
  123      C      22.0990000000    20.4710000000    25.5790000000
  124      H      22.3730000000    19.5810000000    25.0070000000
  125      H      21.1560000000    20.1660000000    26.0400000000
  126      H      21.8020000000    21.4100000000    25.1040000000
  127      S      23.3340000000    20.8960000000    26.8270000000
  128      C      24.7500000000    20.9830000000    25.7080000000
  129      H      25.6070000000    21.0550000000    26.3820000000
  130      H      24.8700000000    20.1000000000    25.0750000000
  131      H      24.8800000000    21.8510000000    25.0560000000
  132      O      23.4680000000    19.6170000000    27.5930000000
  133      C      28.6310000000    36.7010000000    29.5300000000
  134      H      28.2210000000    37.0780000000    28.5900000000
  135      H      27.8650000000    36.4680000000    30.2740000000
  136      H      29.4330000000    37.4100000000    29.7530000000
  137      S      29.1890000000    35.0940000000    28.9200000000
  138      C      29.9010000000    34.5610000000    30.4930000000
  139      H      30.6950000000    35.3100000000    30.5580000000
  140      H      29.0130000000    34.5740000000    31.1290000000
  141      H      30.3030000000    33.5510000000    30.3800000000
  142      O      30.3900000000    35.5120000000    28.1300000000
  143      C      21.1790000000    24.0530000000    24.3780000000
  144      H      22.1560000000    24.0540000000    24.8680000000
  145      H      20.8790000000    23.0710000000    24.0020000000
  146      H      21.1430000000    24.7480000000    23.5350000000
  147      S      19.8020000000    24.5020000000    25.4570000000
  148      C      20.6340000000    26.0100000000    26.0050000000
  149      H      19.8970000000    26.6170000000    26.5380000000
  150      H      21.4650000000    25.6960000000    26.6400000000
  151      H      20.9100000000    26.6270000000    25.1460000000
  152      O      19.9470000000    23.5860000000    26.6320000000
  153      C      24.0390000000    25.4370000000    21.1010000000
  154      H      23.6380000000    26.3760000000    20.7110000000
  155      H      24.7000000000    24.9720000000    20.3650000000
  156      H      23.2680000000    24.7390000000    21.4380000000
  157      S      24.9230000000    25.8850000000    22.6120000000
  158      C      25.1700000000    24.1400000000    23.0120000000
  159      H      25.9320000000    23.6920000000    22.3690000000
  160      H      25.4850000000    23.9810000000    24.0460000000
  161      H      24.1870000000    23.6790000000    22.8810000000
  162      O      23.7860000000    26.0890000000    23.5630000000
  163      C      25.7350000000    31.1740000000    29.4930000000
  164      H      25.8130000000    32.1510000000    29.9770000000
  165      H      25.7820000000    31.2260000000    28.4020000000
  166      H      24.8590000000    30.6610000000    29.9000000000
  167      S      27.0550000000    30.0840000000    30.0730000000
  168      C      28.3990000000    30.8910000000    29.1730000000
  169      H      28.3320000000    31.9740000000    29.3040000000
  170      H      29.3460000000    30.4290000000    29.4640000000
  171      H      28.1060000000    30.5900000000    28.1640000000
  172      O      26.8890000000    28.7660000000    29.3840000000
  173      C      35.9860000000    26.0320000000    18.5370000000
  174      H      35.6610000000    25.0260000000    18.2600000000
  175      H      35.5890000000    26.7680000000    17.8340000000
  176      H      37.0790000000    26.0180000000    18.5410000000
  177      S      35.5910000000    26.4440000000    20.2510000000
  178      C      33.7970000000    26.3930000000    20.0370000000
  179      H      33.5050000000    25.9740000000    19.0700000000
  180      H      33.4000000000    25.8430000000    20.8940000000
  181      H      33.3790000000    27.3950000000    19.9090000000
  182      O      35.8830000000    27.9120000000    20.2490000000
  183      C      30.1640000000    25.3840000000    20.5060000000
  184      H      30.4000000000    25.3950000000    21.5740000000
  185      H      29.9760000000    24.3520000000    20.2000000000
  186      H      31.0600000000    25.6580000000    19.9450000000
  187      S      28.6230000000    26.2280000000    20.0820000000
  188      C      29.2340000000    27.8590000000    20.5630000000
  189      H      29.6350000000    27.8700000000    21.5800000000
  190      H      29.8900000000    28.4060000000    19.8810000000
  191      H      28.4240000000    28.5890000000    20.6420000000
  192      O      27.7910000000    25.6570000000    21.1870000000
  193      C      33.9260000000    23.2310000000    25.5920000000
  194      H      34.3470000000    23.3910000000    24.5960000000
  195      H      34.3890000000    24.0290000000    26.1790000000
  196      H      34.1880000000    22.2120000000    25.8850000000
  197      S      32.1610000000    23.4890000000    25.8820000000
  198      C      32.4710000000    23.0760000000    27.6130000000
  199      H      31.4790000000    22.9920000000    28.0640000000
  200      H      32.9560000000    22.0980000000    27.5510000000
  201      H      33.0050000000    23.9200000000    28.0580000000
  202      O      31.8190000000    22.1510000000    25.3040000000
  203      C      22.7820000000    30.3720000000    27.6190000000
  204      H      22.6840000000    30.5590000000    28.6910000000
  205      H      23.4150000000    31.1180000000    27.1300000000
  206      H      21.7600000000    30.3250000000    27.2350000000
  207      S      23.6690000000    28.8060000000    27.4570000000
  208      C      23.5380000000    28.5970000000    25.6660000000
  209      H      24.1560000000    27.8210000000    25.2090000000
  210      H      22.4570000000    28.5410000000    25.5140000000
  211      H      23.9230000000    29.5490000000    25.2920000000
  212      O      22.7620000000    27.7970000000    28.0890000000
  213      C      25.7480000000    34.3890000000    28.4230000000
  214      H      26.4450000000    33.9150000000    29.1190000000
  215      H      25.7080000000    35.4630000000    28.6200000000
  216      H      24.7780000000    33.8880000000    28.4770000000
  217      S      26.2080000000    33.9930000000    26.7200000000
  218      C      25.1340000000    35.2320000000    25.9610000000
  219      H      24.2620000000    35.4830000000    26.5700000000
  220      H      25.6020000000    36.1520000000    25.5990000000
  221      H      24.8990000000    34.6010000000    25.1000000000
  222      O      25.7230000000    32.6320000000    26.3270000000
  223      C      34.7400000000    36.3320000000    21.8590000000
  224      H      35.3310000000    35.4150000000    21.9340000000
  225      H      34.3910000000    36.5600000000    20.8490000000
  226      H      35.4000000000    37.1510000000    22.1560000000
  227      S      33.2990000000    36.1830000000    22.9390000000
  228      C      34.0250000000    35.9960000000    24.5840000000
  229      H      34.6630000000    36.8780000000    24.6780000000
  230      H      33.3180000000    36.0430000000    25.4160000000
  231      H      34.6610000000    35.1090000000    24.6350000000
  232      O      32.8050000000    34.8010000000    22.6450000000
  233      C      29.7600000000    31.4990000000    32.5930000000
  234      H      29.2940000000    31.4270000000    33.5790000000
  235      H      29.8590000000    32.5190000000    32.2110000000
  236      H      29.0520000000    30.8560000000    32.0640000000
  237      S      31.4250000000    30.7960000000    32.6060000000
  238      C      32.2120000000    32.0630000000    33.6260000000
  239      H      31.8380000000    33.0360000000    33.2980000000
  240      H      31.8920000000    31.9030000000    34.6590000000
  241      H      33.2960000000    32.0080000000    33.4930000000
  242      O      31.9730000000    31.1190000000    31.2510000000
  243      C      31.3600000000    26.4540000000    28.7160000000
  244      H      32.2160000000    26.1490000000    29.3220000000
  245      H      31.2280000000    25.8730000000    27.8000000000
  246      H      31.5610000000    27.4230000000    28.2510000000
  247      S      29.7070000000    26.4640000000    29.4470000000
  248      C      30.3500000000    26.9470000000    31.0650000000
  249      H      30.9070000000    27.8870000000    31.0300000000
  250      H      29.4680000000    26.9610000000    31.7100000000
  251      H      30.9390000000    26.1250000000    31.4800000000
  252      O      29.4180000000    25.0330000000    29.7770000000
  253      C      34.6910000000    29.2590000000    28.8390000000
  254      H      33.6280000000    29.3490000000    28.6050000000
  255      H      34.9730000000    30.2320000000    29.2490000000
  256      H      35.0900000000    29.0460000000    27.8440000000
  257      S      35.0430000000    27.9100000000    29.9900000000
  258      C      34.0490000000    28.5830000000    31.3410000000
  259      H      32.9770000000    28.5770000000    31.1250000000
  260      H      34.1550000000    28.1360000000    32.3320000000
  261      H      34.4120000000    29.6130000000    31.3980000000
  262      O      36.4700000000    27.9860000000    30.4350000000
 ----------------------------------------------------------------
 Nuclear Repulsion Energy =       40436.57332446 hartrees
 There are      539 alpha and      539 beta electrons
 Requested basis set is 6-31+G(d)
 There are 863 shells and 2405 basis functions

 Total QAlloc Memory Limit  16000 MB
 Mega-Array Size      7821 MB
 MEM_STATIC part      8000 MB
 A cutoff of  1.0D-14 yielded 151984 shell pairs
 There are   1314925 function pairs
 Smallest overlap matrix eigenvalue = 4.87E-07
 Linear dependence detected in AO basis
 Tighter screening thresholds may be required for diffuse basis sets
 Use S2THRESH > 14 and THRESH = 14 in case of SCF convergence issues
 Number of orthogonalized atomic orbitals = 2403
 Maximum deviation from orthogonality = 9.201E-11

 Scale SEOQF with 1.000000e-03/1.000000e-03/1.000000e-03

 Standard Electronic Orientation quadrupole field applied
 Nucleus-field energy     =     0.0000001251 hartrees
 Guess from superposition of atomic densities
 Warning:  Energy on first SCF cycle will be non-variational
 SAD guess density has 1078.000002 electrons

 -----------------------------------------------------------------------
  General SCF calculation program by
  Eric Jon Sundstrom, Paul Horn, Yuezhi Mao, Dmitri Zuev, Alec White,
  David Stuck, Shaama M.S., Shane Yost, Joonho Lee, David Small,
  Daniel Levine, Susi Lehtola, Hugh Burton, Evgeny Epifanovsky,
  Bang C. Huynh
 -----------------------------------------------------------------------
=================================================
        Doing projection-based embedding         
      F. Manby et al. JCTC, 8, 2564 (2012)       
=================================================

****************************************************
   Low-level SCF calculation for the whole system   
****************************************************
----------------------------------------------
 Summary of the low-level theory: 
 Exchange:     0.2000 Hartree-Fock + 0.0800 Slater + 0.7200 B88
 Correlation:  0.1900 VWN1RPA + 0.8100 LYP
 Using Euler-Maclaurin-Lebedev (75,302) quadrature formula
----------------------------------------------
 using 16 threads for integral computing
 -------------------------------------------------------
 OpenMP Integral computing Module                
 Release: version 2.0, May 2017, Q-Chem Inc. Pleasanton 
 -------------------------------------------------------
 A restricted SCF calculation will be
 performed using DIIS
 SCF converges when DIIS error is below 1.0e-08
 ---------------------------------------
  Cycle       Energy         DIIS error
 ---------------------------------------
    1  -13698.4444710378      1.43e-02  
    2  -13676.7473867905      2.64e-03  
    3  -13659.9735694775      5.26e-03  
    4  -13667.2134688045      2.75e-03  
    5  -13680.4864729748      9.35e-04  
    6  -13681.0526670411      2.59e-04  
    7  -13681.0716563752      1.88e-04  
    8  -13681.0930399483      3.98e-05  
    9  -13681.0939780213      1.83e-05  
   10  -13681.0941874931      9.16e-06  
   11  -13681.0942334402      3.73e-06  
   12  -13681.0942412445      1.17e-06  
   13  -13681.0942421228      3.31e-07  
   14  -13681.0942421800      1.70e-07  
   15  -13681.0942421953      6.25e-08  
   16  -13681.0942421976      1.73e-08  
   17  -13681.0942421979      5.36e-09  Convergence criterion met
 ---------------------------------------
 SCF time:   CPU 167150.76s  wall 10563.00s 
 SCF   energy in the final basis set =   -13681.0942421979
 Total energy in the final basis set =   -13681.0942421979

****************************************************
             Start embedding calculation            
****************************************************
----------------------------------------------
 Summary of the high-level theory: 
 Exchange:     0.2000 Hartree-Fock + 0.0800 Slater + 0.7200 B88
 Correlation:  0.1900 VWN1RPA + 0.8100 LYP
 Using Euler-Maclaurin-Lebedev (75,302) quadrature formula
----------------------------------------------
Doing R-in-R Embedding Calculation
Number of fragments: 2
Embedded fragment(s): 1 
NOcc for each fragment
           35
          504
NBasis for each fragment
          197
         2208
Variational space of the embedded problem: 
NOcc (active)  = 35
NOcc (fixed)   = 504
NVir (total)   = 1864
Read converged orbitals from disk
=========================================================
       Doing SPADE partition for the orbital space       
     D. CLaudino and N. Mayhall JCTC 15, 1053 (2019)     
=========================================================
SPADE singular values:
 1.0000 1.0000 1.0000 1.0000 1.0000 1.0000 1.0000 1.0000 1.0000 0.9999
 0.9997 0.9997 0.9996 0.9995 0.9994 0.9993 0.9992 0.9991 0.9980 0.9970
 0.9967 0.9961 0.9956 0.9953 0.9948 0.9942 0.9940 0.9929 0.9919 0.9915
 0.9912 0.9890 0.9881 0.9831 0.9772 0.2272 0.1929 0.1759 0.1689 0.1618
 0.1579 0.1535 0.1369 0.1303 0.1116 0.1077 0.0920 0.0899 0.0801 0.0768
 0.0712 0.0612 0.0567 0.0540 0.0517 0.0473 0.0425 0.0410 0.0371 0.0363
 0.0346 0.0321 0.0301 0.0293 0.0273 0.0262 0.0254 0.0238 0.0229 0.0212
 0.0206 0.0197 0.0170 0.0164 0.0156 0.0152 0.0142 0.0131 0.0129 0.0116
 0.0113 0.0110 0.0105 0.0095 0.0089 0.0084 0.0081 0.0075 0.0074 0.0069
 0.0068 0.0066 0.0064 0.0060 0.0057 0.0055 0.0052 0.0051 0.0048 0.0044
 0.0042 0.0041 0.0038 0.0035 0.0035 0.0034 0.0032 0.0030 0.0029 0.0028
 0.0027 0.0026 0.0025 0.0024 0.0023 0.0022 0.0021 0.0020 0.0019 0.0018
 0.0017 0.0016 0.0016 0.0015 0.0014 0.0014 0.0013 0.0013 0.0012 0.0012
 0.0011 0.0011 0.0011 0.0010 0.0010 0.0009 0.0009 0.0009 0.0008 0.0008
 0.0008 0.0008 0.0007 0.0007 0.0007 0.0006 0.0006 0.0006 0.0005 0.0005
 0.0005 0.0005 0.0004 0.0004 0.0004 0.0004 0.0004 0.0004 0.0004 0.0003
 0.0003 0.0003 0.0003 0.0003 0.0003 0.0003 0.0003 0.0003 0.0002 0.0002
 0.0002 0.0002 0.0002 0.0002 0.0002 0.0002 0.0002 0.0002 0.0002 0.0001
 0.0001 0.0001 0.0001 0.0001 0.0001 0.0001 0.0001 0.0001 0.0001 0.0001
 0.0001 0.0001 0.0001 0.0001 0.0001 0.0001 0.0001
Early stop requested!
504 environment occs will be part of frozen-core in future post-HF calculations
 
 --------------------------------------------------------------
 
                    Orbital Energies (a.u.)
 --------------------------------------------------------------
 
 Alpha MOs
 -- Occupied --
 -0.5110  -0.5129  -0.4989  -0.4807  -0.4659  -0.5459  -0.5024  -0.4675
 -0.5070  -0.4506  -0.4751  -0.4931  -0.4819  -0.4144  -0.4961  -0.4884
 -0.4836  -0.5060  -0.5438  -0.5658  -0.4730  -0.4483  -0.4807  -0.5147
 -0.4841  -0.5732  -0.6138  -0.4335  -0.6339  -0.6144  -0.5592  -0.5275
 -0.6370  -0.6406  -0.5844  -0.5869  -0.6214  -0.5508  -0.5658  -0.6729
 -0.5973  -0.5491  -0.6037  -0.5328  -0.4846  -0.5944  -0.5248  -0.5739
 -0.5688  -0.6320  -0.6152  -0.5495  -0.6171  -0.6452  -0.6901  -0.6123
 -0.6520  -0.5876  -0.6111  -0.8746  -0.6990  -0.8053  -0.7810  -0.8937
 -0.8608  -0.7690  -0.8380  -0.9497  -0.7284  -1.1106  -0.9698  -1.1318
 -0.8027  -0.7564  -1.0480  -0.7251  -1.0248  -1.1047  -1.2066  -0.9825
 -1.1890  -0.8279  -0.9285  -0.9037  -0.9267  -0.8882  -1.1458  -0.9584
 -1.0436  -1.0058  -1.1557  -1.0635  -1.1576  -0.9190  -1.1638  -1.2042
 -1.3647  -1.0422  -1.1279  -1.4363  -1.0866  -1.3532  -0.9699  -1.1970
 -1.3484  -1.2265  -1.2260  -1.5139  -1.2959  -1.2337  -1.7916  -1.2550
 -1.6301  -1.6603  -1.3903  -1.4934  -1.4457  -1.6209  -1.6129  -1.5898
 -1.9971  -1.9263  -1.9372  -2.1032  -1.3539  -2.0828  -1.4398  -1.2967
 -1.8445  -1.5694  -1.9982  -2.1162  -1.4909  -1.5696  -1.6520  -1.7773
 -1.5832  -1.8225  -1.7302  -2.1248  -1.7975  -2.3782  -2.3180  -2.2884
 -2.2786  -2.4646  -1.9320  -2.3606  -2.7995  -1.6042  -2.4479  -1.8036
 -2.8622  -1.4202  -2.9233  -2.6851  -2.2982  -2.5151  -2.5312  -2.4437
 -2.5473  -2.2524  -5.9295  -5.9542  -5.9566  -5.9443  -6.5732  -3.5543
 -1.4995 -36.4664  -8.1737 -14.3465  -5.1155  -1.6127  -1.3072 -23.4967
 -7.5639 -11.3214  -9.9492  -8.5913  -5.2807  -3.9637  -6.2778  -2.0957
 -1.7056  -1.7370  -3.1744  -1.1539  -6.5811  -5.1544  -1.3007 -62.4494
 -2.4250  -5.1654 -72.6650  -1.3671  -8.7614  -4.4004 -10.1651  -2.3807
 -8.9650  -2.1482  -9.4976  -6.2612 -15.6355  -9.7399  -8.4650  -9.5716
 -4.0502  -2.0351  -1.6019  -1.3064  -5.0967  -1.2036  -6.5107  -2.4969
 -8.8864  -3.4230  -1.6020 -11.8279 -62.6479 -74.0738  -1.0986  -2.9493
 -8.0801  -0.9224  -8.5270  -9.9373 -10.1009  -5.7367 -13.1244  -4.5496
 -4.6798  -7.8572 -18.2538  -1.3287  -4.1584  -2.5710  -5.0382  -2.7119
 -1.3582  -7.9431  -1.1598  -2.6127  -5.0272  -3.5369 -45.6051 -11.7364
-17.6020  -1.2867 -61.4578  -3.5017  -9.3136  -5.8175  -5.8322 -12.4296
-10.4320  -7.2838  -9.6870  -4.7882 -13.2680  -1.2129  -3.9032  -5.2174
 -1.1680  -0.8358  -1.5065 -56.7245 -24.6536 -39.0144  -1.0545 -45.1054
 -2.9520  -2.1987  -5.1976  -3.0210  -4.5921  -4.9731 -15.1227  -2.7586
 -8.5621  -7.0428 -18.6545 -18.0971  -1.7161 -15.2950 -15.3460 -20.0657
 -2.2565  -6.7026  -5.4464 -16.2135  -2.7991 -22.3889  -6.8177  -5.7251
-10.5382  -2.6607 -14.4746  -5.2860  -6.8198 -22.9902  -6.1106 -18.4445
 -6.3919 -10.0849  -4.9878  -8.4685 -14.0591  -8.1456  -6.8119  -4.0444
-10.6358 -10.6414  -8.3512  -1.6158  -2.5289  -6.7520  -1.8474 -12.1628
 -5.4258 -15.0879  -6.9718  -3.4119  -1.8318  -2.6988  -9.5575 -14.5660
-11.3648 -21.3657 -10.1470  -5.6700 -13.9754 -18.3498 -16.8076  -4.9168
 -1.1513  -4.8228  -2.9046 -27.8766  -3.5125 -10.7474  -7.4636  -2.1886
 -4.6295  -8.1571 -10.5883 -16.0246  -5.2341  -5.3859  -3.7259 -10.0001
 -2.2248  -3.6456 -12.0566  -7.4390  -7.6792  -8.7866 -23.3085  -8.9843
 -3.0149  -8.5888 -10.3421  -9.7352 -12.3772 -15.0299  -4.7882  -8.3792
 -7.5668 -16.9966 -15.3941  -4.7916  -3.6289  -5.3343  -3.7385  -6.7384
-11.3585  -7.4019  -4.9873  -8.0544  -5.1554  -7.7019  -5.6306  -7.9946
 -8.0480 -10.8345  -3.8832 -10.0133  -8.5692  -5.0234 -19.1868  -2.3473
 -3.2253 -27.9116  -7.7949 -10.7985  -2.9001  -2.4914  -8.2351  -8.5456
-12.5605 -16.2964 -15.8127 -13.6617  -6.8113  -2.2211  -6.2149  -7.4774
 -9.1970  -4.1845  -4.9545 -22.9269 -16.1197  -4.8825  -1.4333  -1.9278
-39.2971 -14.9880 -14.1469  -4.4041  -7.7695  -7.9551  -2.3046  -1.8104
-19.6395 -24.7916  -8.4148  -2.2465 -18.3073 -11.4946 -16.0718 -16.9916
-19.3620  -7.4797 -15.9152  -2.0378 -13.9617 -49.9086  -5.1396 -10.6287
 -1.4475 -12.8114 -50.8078  -3.2030  -6.9635  -1.3883  -5.3156  -3.0462
 -2.7793 -66.3805 -11.3355 -14.0122 -79.0089  -2.2641  -3.6515  -2.1499
-16.7636 -57.7879 -26.7377  -7.8790  -9.7438  -8.8928 -25.0694 -18.5940
 -6.5996 -14.6093 -14.5915 -17.6052 -11.8280 -15.5950 -28.9216 -13.1979
 -4.4323 -16.4821  -7.7747  -2.9457  -4.2914 -26.6983 -35.6823  -4.9675
 -8.2557 -11.8368  -8.2591 -16.4308 -39.0745  -5.5004  -3.1387 -15.2871
-23.2676  -8.2492 -10.6214 -16.9542 -13.1636  -6.5103 -12.6036  -5.8109
 -4.6782  -5.4918  -8.8213  -2.9925  -2.7449 -10.3088 -16.0830  -4.0968
-12.2030 -10.3480 -10.2224 -13.0286 -11.2176 -11.7329 -14.3536 -10.3099
-10.7134  -0.7339  -0.7409  -0.6139  -0.7854  -0.8387  -0.6699  -0.6798
 -0.7993  -0.4155  -0.4480  -0.3882  -0.4744  -0.4436  -0.4239  -0.4358
 -0.4321  -0.4441  -0.4578  -0.4298  -0.4150  -0.4714  -0.4704  -0.4951
 -0.4542  -0.5216  -0.5967
 -- Virtual --
 -0.0460  -0.0362  -0.0316  -0.0283  -0.0266  -0.0247  -0.0225  -0.0213
 -0.0177  -0.0171  -0.0168  -0.0151  -0.0141  -0.0131  -0.0117  -0.0104
 -0.0085  -0.0076  -0.0070  -0.0060  -0.0051  -0.0042  -0.0036  -0.0023
 -0.0019  -0.0009  -0.0004   0.0003   0.0019   0.0024   0.0032   0.0044
  0.0058   0.0070   0.0084   0.0095   0.0103   0.0107   0.0116   0.0130
  0.0136   0.0142   0.0151   0.0163   0.0170   0.0175   0.0188   0.0193
  0.0201   0.0207   0.0211   0.0215   0.0224   0.0235   0.0248   0.0255
  0.0266   0.0268   0.0281   0.0288   0.0292   0.0297   0.0304   0.0308
  0.0319   0.0331   0.0337   0.0338   0.0350   0.0365   0.0367   0.0371
  0.0378   0.0383   0.0394   0.0398   0.0405   0.0407   0.0412   0.0420
  0.0429   0.0440   0.0446   0.0451   0.0457   0.0468   0.0479   0.0483
  0.0489   0.0494   0.0497   0.0516   0.0519   0.0525   0.0532   0.0539
  0.0546   0.0556   0.0562   0.0572   0.0577   0.0583   0.0595   0.0601
  0.0602   0.0607   0.0616   0.0628   0.0633   0.0640   0.0644   0.0655
  0.0661   0.0667   0.0671   0.0681   0.0693   0.0700   0.0703   0.0708
  0.0710   0.0715   0.0722   0.0724   0.0734   0.0751   0.0756   0.0757
  0.0761   0.0767   0.0778   0.0792   0.0798   0.0803   0.0811   0.0815
  0.0824   0.0827   0.0836   0.0847   0.0851   0.0863   0.0869   0.0874
  0.0890   0.0893   0.0895   0.0905   0.0910   0.0912   0.0922   0.0927
  0.0935   0.0940   0.0946   0.0953   0.0957   0.0968   0.0975   0.0980
  0.0990   0.0998   0.0999   0.1012   0.1017   0.1021   0.1027   0.1044
  0.1046   0.1052   0.1055   0.1060   0.1065   0.1077   0.1090   0.1091
  0.1101   0.1109   0.1114   0.1122   0.1128   0.1136   0.1145   0.1154
  0.1160   0.1170   0.1176   0.1179   0.1184   0.1196   0.1197   0.1204
  0.1219   0.1226   0.1232   0.1236   0.1247   0.1248   0.1258   0.1270
  0.1277   0.1284   0.1287   0.1288   0.1298   0.1302   0.1312   0.1314
  0.1321   0.1331   0.1341   0.1344   0.1355   0.1364   0.1365   0.1370
  0.1375   0.1389   0.1393   0.1398   0.1404   0.1407   0.1418   0.1421
  0.1435   0.1438   0.1442   0.1444   0.1455   0.1461   0.1472   0.1476
  0.1484   0.1491   0.1493   0.1504   0.1510   0.1517   0.1525   0.1529
  0.1542   0.1543   0.1547   0.1559   0.1561   0.1565   0.1571   0.1574
  0.1586   0.1589   0.1593   0.1603   0.1606   0.1615   0.1629   0.1632
  0.1635   0.1645   0.1650   0.1665   0.1669   0.1676   0.1678   0.1684
  0.1691   0.1695   0.1702   0.1706   0.1719   0.1726   0.1734   0.1739
  0.1751   0.1755   0.1761   0.1765   0.1778   0.1781   0.1787   0.1794
  0.1797   0.1806   0.1813   0.1831   0.1837   0.1841   0.1850   0.1857
  0.1866   0.1869   0.1874   0.1881   0.1885   0.1892   0.1897   0.1901
  0.1911   0.1916   0.1925   0.1928   0.1942   0.1950   0.1953   0.1956
  0.1975   0.1980   0.1986   0.1992   0.2002   0.2007   0.2018   0.2024
  0.2025   0.2040   0.2046   0.2049   0.2049   0.2057   0.2064   0.2069
  0.2070   0.2077   0.2081   0.2090   0.2106   0.2114   0.2118   0.2126
  0.2132   0.2137   0.2141   0.2152   0.2155   0.2167   0.2170   0.2179
  0.2191   0.2194   0.2200   0.2212   0.2214   0.2228   0.2229   0.2243
  0.2248   0.2258   0.2264   0.2264   0.2270   0.2276   0.2284   0.2299
  0.2302   0.2309   0.2318   0.2320   0.2328   0.2332   0.2341   0.2352
  0.2361   0.2372   0.2383   0.2388   0.2394   0.2397   0.2401   0.2411
  0.2430   0.2434   0.2440   0.2449   0.2454   0.2460   0.2480   0.2484
  0.2493   0.2497   0.2506   0.2512   0.2525   0.2532   0.2537   0.2544
  0.2552   0.2561   0.2566   0.2573   0.2582   0.2583   0.2594   0.2605
  0.2610   0.2615   0.2623   0.2630   0.2641   0.2648   0.2659   0.2671
  0.2677   0.2684   0.2690   0.2699   0.2705   0.2709   0.2725   0.2730
  0.2745   0.2748   0.2757   0.2771   0.2777   0.2779   0.2787   0.2793
  0.2795   0.2812   0.2816   0.2823   0.2836   0.2846   0.2857   0.2864
  0.2869   0.2879   0.2885   0.2891   0.2896   0.2901   0.2908   0.2923
  0.2933   0.2945   0.2955   0.2962   0.2969   0.2983   0.2990   0.3001
  0.3008   0.3019   0.3022   0.3031   0.3037   0.3037   0.3046   0.3070
  0.3072   0.3077   0.3089   0.3091   0.3113   0.3122   0.3128   0.3140
  0.3143   0.3155   0.3165   0.3171   0.3173   0.3191   0.3194   0.3204
  0.3208   0.3221   0.3236   0.3241   0.3254   0.3264   0.3269   0.3271
  0.3284   0.3299   0.3307   0.3321   0.3331   0.3336   0.3342   0.3353
  0.3363   0.3365   0.3370   0.3372   0.3390   0.3393   0.3421   0.3424
  0.3438   0.3447   0.3457   0.3460   0.3472   0.3483   0.3494   0.3509
  0.3510   0.3524   0.3529   0.3536   0.3541   0.3553   0.3556   0.3569
  0.3586   0.3589   0.3597   0.3603   0.3624   0.3629   0.3637   0.3650
  0.3661   0.3671   0.3683   0.3706   0.3713   0.3714   0.3719   0.3732
  0.3735   0.3737   0.3750   0.3766   0.3773   0.3777   0.3785   0.3801
  0.3807   0.3815   0.3830   0.3839   0.3853   0.3861   0.3865   0.3884
  0.3891   0.3901   0.3915   0.3918   0.3927   0.3933   0.3941   0.3942
  0.3954   0.3974   0.3985   0.3987   0.3999   0.4003   0.4008   0.4018
  0.4032   0.4045   0.4060   0.4074   0.4083   0.4094   0.4099   0.4114
  0.4122   0.4128   0.4136   0.4144   0.4158   0.4175   0.4182   0.4197
  0.4202   0.4210   0.4219   0.4227   0.4248   0.4258   0.4272   0.4277
  0.4281   0.4284   0.4292   0.4307   0.4327   0.4330   0.4337   0.4352
  0.4358   0.4369   0.4387   0.4398   0.4407   0.4411   0.4436   0.4443
  0.4446   0.4454   0.4469   0.4483   0.4496   0.4506   0.4508   0.4516
  0.4535   0.4550   0.4565   0.4579   0.4590   0.4608   0.4611   0.4644
  0.4650   0.4659   0.4673   0.4689   0.4712   0.4731   0.4737   0.4753
  0.4767   0.4786   0.4795   0.4816   0.4826   0.4855   0.4860   0.4873
  0.4881   0.4890   0.4916   0.4942   0.4950   0.4967   0.4975   0.4999
  0.5007   0.5024   0.5042   0.5061   0.5072   0.5091   0.5111   0.5151
  0.5168   0.5177   0.5197   0.5216   0.5221   0.5262   0.5269   0.5286
  0.5294   0.5307   0.5336   0.5362   0.5394   0.5404   0.5411   0.5444
  0.5455   0.5471   0.5494   0.5500   0.5527   0.5537   0.5561   0.5570
  0.5591   0.5607   0.5629   0.5651   0.5664   0.5690   0.5712   0.5720
  0.5749   0.5754   0.5769   0.5803   0.5810   0.5820   0.5837   0.5844
  0.5876   0.5889   0.5906   0.5915   0.5926   0.5948   0.5964   0.5984
  0.5998   0.6004   0.6033   0.6039   0.6049   0.6066   0.6077   0.6091
  0.6117   0.6143   0.6154   0.6169   0.6187   0.6206   0.6209   0.6235
  0.6246   0.6263   0.6274   0.6278   0.6301   0.6308   0.6315   0.6342
  0.6351   0.6355   0.6362   0.6371   0.6391   0.6398   0.6416   0.6445
  0.6457   0.6474   0.6489   0.6497   0.6511   0.6518   0.6534   0.6537
  0.6543   0.6558   0.6578   0.6584   0.6594   0.6610   0.6618   0.6633
  0.6651   0.6655   0.6675   0.6693   0.6705   0.6722   0.6726   0.6756
  0.6761   0.6767   0.6780   0.6792   0.6802   0.6821   0.6827   0.6841
  0.6845   0.6873   0.6877   0.6880   0.6895   0.6896   0.6926   0.6927
  0.6940   0.6949   0.6968   0.6979   0.6992   0.7000   0.7021   0.7025
  0.7055   0.7058   0.7076   0.7089   0.7111   0.7121   0.7126   0.7139
  0.7152   0.7158   0.7188   0.7212   0.7217   0.7235   0.7246   0.7259
  0.7273   0.7284   0.7315   0.7341   0.7357   0.7376   0.7377   0.7389
  0.7435   0.7462   0.7468   0.7477   0.7488   0.7511   0.7522   0.7530
  0.7552   0.7566   0.7572   0.7581   0.7597   0.7612   0.7625   0.7636
  0.7638   0.7658   0.7681   0.7687   0.7708   0.7719   0.7733   0.7748
  0.7754   0.7783   0.7792   0.7800   0.7809   0.7816   0.7859   0.7870
  0.7882   0.7891   0.7909   0.7915   0.7927   0.7953   0.7971   0.7984
  0.7998   0.8012   0.8022   0.8038   0.8071   0.8080   0.8094   0.8102
  0.8117   0.8127   0.8153   0.8169   0.8191   0.8205   0.8212   0.8219
  0.8240   0.8263   0.8283   0.8294   0.8324   0.8338   0.8358   0.8361
  0.8370   0.8376   0.8389   0.8399   0.8425   0.8431   0.8452   0.8478
  0.8483   0.8492   0.8514   0.8516   0.8543   0.8575   0.8589   0.8593
  0.8600   0.8618   0.8639   0.8641   0.8654   0.8663   0.8673   0.8686
  0.8698   0.8716   0.8742   0.8752   0.8769   0.8781   0.8793   0.8814
  0.8821   0.8832   0.8845   0.8853   0.8862   0.8890   0.8904   0.8910
  0.8925   0.8937   0.8954   0.8972   0.9002   0.9013   0.9035   0.9046
  0.9075   0.9080   0.9085   0.9097   0.9107   0.9113   0.9119   0.9130
  0.9137   0.9147   0.9159   0.9180   0.9188   0.9202   0.9210   0.9224
  0.9240   0.9246   0.9262   0.9280   0.9282   0.9300   0.9319   0.9335
  0.9347   0.9367   0.9372   0.9395   0.9408   0.9419   0.9424   0.9435
  0.9462   0.9475   0.9493   0.9497   0.9502   0.9524   0.9528   0.9544
  0.9556   0.9562   0.9582   0.9599   0.9607   0.9617   0.9626   0.9647
  0.9652   0.9658   0.9678   0.9690   0.9700   0.9712   0.9724   0.9746
  0.9754   0.9764   0.9778   0.9796   0.9798   0.9808   0.9818   0.9828
  0.9834   0.9857   0.9867   0.9894   0.9905   0.9918   0.9935   0.9942
  0.9957   0.9967   0.9973   0.9983   1.0009   1.0019   1.0028   1.0042
  1.0046   1.0066   1.0072   1.0078   1.0094   1.0127   1.0133   1.0147
  1.0149   1.0159   1.0181   1.0192   1.0201   1.0213   1.0230   1.0236
  1.0268   1.0282   1.0283   1.0300   1.0307   1.0328   1.0335   1.0350
  1.0358   1.0376   1.0396   1.0397   1.0405   1.0408   1.0426   1.0435
  1.0445   1.0461   1.0475   1.0496   1.0503   1.0513   1.0524   1.0527
  1.0548   1.0575   1.0581   1.0592   1.0603   1.0624   1.0628   1.0661
  1.0668   1.0682   1.0690   1.0703   1.0707   1.0717   1.0729   1.0751
  1.0758   1.0777   1.0781   1.0796   1.0797   1.0826   1.0831   1.0851
  1.0854   1.0861   1.0889   1.0909   1.0919   1.0937   1.0950   1.0962
  1.0983   1.0998   1.1021   1.1035   1.1048   1.1051   1.1071   1.1088
  1.1090   1.1104   1.1123   1.1131   1.1134   1.1172   1.1187   1.1235
  1.1238   1.1240   1.1249   1.1261   1.1277   1.1287   1.1295   1.1316
  1.1335   1.1340   1.1356   1.1375   1.1392   1.1402   1.1414   1.1431
  1.1444   1.1466   1.1481   1.1495   1.1518   1.1540   1.1544   1.1550
  1.1568   1.1591   1.1598   1.1611   1.1639   1.1650   1.1661   1.1672
  1.1694   1.1700   1.1716   1.1741   1.1747   1.1769   1.1784   1.1798
  1.1812   1.1822   1.1831   1.1843   1.1859   1.1890   1.1895   1.1917
  1.1937   1.1938   1.1962   1.1966   1.1988   1.1997   1.2025   1.2037
  1.2044   1.2083   1.2096   1.2104   1.2123   1.2143   1.2147   1.2181
  1.2199   1.2202   1.2240   1.2252   1.2298   1.2327   1.2336   1.2364
  1.2397   1.2405   1.2429   1.2441   1.2490   1.2503   1.2513   1.2528
  1.2538   1.2581   1.2614   1.2627   1.2663   1.2705   1.2726   1.2731
  1.2763   1.2780   1.2803   1.2840   1.2853   1.2873   1.2889   1.2947
  1.2975   1.2988   1.3002   1.3033   1.3042   1.3068   1.3093   1.3124
  1.3130   1.3157   1.3169   1.3206   1.3215   1.3228   1.3263   1.3288
  1.3301   1.3325   1.3337   1.3353   1.3389   1.3397   1.3410   1.3433
  1.3455   1.3478   1.3499   1.3521   1.3533   1.3570   1.3578   1.3606
  1.3612   1.3642   1.3658   1.3671   1.3687   1.3694   1.3714   1.3743
  1.3771   1.3790   1.3799   1.3827   1.3848   1.3863   1.3887   1.3919
  1.3923   1.3947   1.3957   1.3969   1.3978   1.4014   1.4017   1.4035
  1.4040   1.4061   1.4067   1.4091   1.4107   1.4119   1.4125   1.4158
  1.4171   1.4175   1.4189   1.4213   1.4233   1.4255   1.4266   1.4279
  1.4296   1.4317   1.4325   1.4346   1.4375   1.4383   1.4393   1.4404
  1.4419   1.4435   1.4457   1.4468   1.4484   1.4515   1.4535   1.4542
  1.4580   1.4598   1.4610   1.4630   1.4642   1.4655   1.4683   1.4685
  1.4707   1.4722   1.4742   1.4753   1.4774   1.4796   1.4816   1.4841
  1.4867   1.4870   1.4916   1.4939   1.4955   1.4973   1.4989   1.5006
  1.5046   1.5074   1.5105   1.5121   1.5127   1.5154   1.5164   1.5183
  1.5207   1.5248   1.5256   1.5272   1.5310   1.5329   1.5354   1.5377
  1.5397   1.5459   1.5486   1.5502   1.5519   1.5547   1.5610   1.5641
  1.5660   1.5705   1.5730   1.5771   1.5796   1.5830   1.5859   1.5934
  1.5946   1.5994   1.6063   1.6083   1.6098   1.6157   1.6191   1.6264
  1.6323   1.6342   1.6363   1.6410   1.6430   1.6521   1.6554   1.6594
  1.6607   1.6637   1.6644   1.6673   1.6689   1.6701   1.6716   1.6728
  1.6740   1.6776   1.6804   1.6809   1.6827   1.6832   1.6841   1.6876
  1.6889   1.6895   1.6907   1.6927   1.6929   1.6944   1.6955   1.6974
  1.6987   1.7011   1.7018   1.7042   1.7058   1.7059   1.7100   1.7113
  1.7129   1.7142   1.7150   1.7171   1.7187   1.7218   1.7245   1.7251
  1.7268   1.7285   1.7292   1.7299   1.7320   1.7326   1.7346   1.7379
  1.7391   1.7416   1.7439   1.7443   1.7458   1.7473   1.7485   1.7498
  1.7509   1.7515   1.7534   1.7560   1.7580   1.7602   1.7623   1.7630
  1.7644   1.7671   1.7701   1.7717   1.7735   1.7747   1.7759   1.7765
  1.7773   1.7793   1.7819   1.7849   1.7856   1.7879   1.7903   1.7912
  1.7928   1.7932   1.7947   1.7964   1.8007   1.8017   1.8051   1.8057
  1.8073   1.8089   1.8101   1.8120   1.8149   1.8163   1.8200   1.8242
  1.8246   1.8270   1.8293   1.8317   1.8374   1.8417   1.8460   1.8502
  1.8520   1.8554   1.8560   1.8588   1.8596   1.8608   1.8654   1.8689
  1.8721   1.8731   1.8757   1.8775   1.8796   1.8806   1.8822   1.8832
  1.8840   1.8848   1.8854   1.8870   1.8889   1.8917   1.8935   1.8939
  1.8955   1.8963   1.8986   1.9012   1.9019   1.9026   1.9036   1.9042
  1.9082   1.9094   1.9113   1.9131   1.9140   1.9164   1.9184   1.9190
  1.9208   1.9230   1.9240   1.9242   1.9257   1.9278   1.9293   1.9319
  1.9329   1.9333   1.9348   1.9392   1.9407   1.9427   1.9446   1.9484
  1.9494   1.9508   1.9531   1.9549   1.9556   1.9576   1.9589   1.9594
  1.9650   1.9661   1.9721   1.9746   1.9768   1.9783   1.9866   1.9928
  2.0002   2.0084   2.0104   2.0196   2.0289   2.0336   2.0360   2.0413
  2.0439   2.0453   2.0473   2.0496   2.0510   2.0544   2.0556   2.0631
  2.0661   2.0686   2.0712   2.0746   2.0750   2.0773   2.0781   2.0787
  2.0801   2.0812   2.0823   2.0829   2.0853   2.0856   2.0876   2.0887
  2.0911   2.0934   2.0944   2.0946   2.0962   2.0990   2.1004   2.1037
  2.1056   2.1075   2.1112   2.1124   2.1138   2.1147   2.1157   2.1173
  2.1194   2.1214   2.1230   2.1249   2.1286   2.1318   2.1360   2.1383
  2.1438   2.1463   2.1491   2.1509   2.1518   2.1521   2.1544   2.1571
  2.1597   2.1626   2.1686   2.1699   2.1743   2.1808   2.1864   2.1879
  2.1923   2.1943   2.1984   2.1992   2.2007   2.2081   2.2099   2.2110
  2.2125   2.2143   2.2153   2.2183   2.2192   2.2218   2.2225   2.2237
  2.2249   2.2251   2.2267   2.2292   2.2299   2.2325   2.2349   2.2369
  2.2378   2.2396   2.2419   2.2431   2.2443   2.2450   2.2478   2.2488
  2.2488   2.2503   2.2507   2.2518   2.2539   2.2548   2.2558   2.2567
  2.2571   2.2582   2.2604   2.2615   2.2631   2.2640   2.2648   2.2649
  2.2654   2.2664   2.2679   2.2691   2.2696   2.2710   2.2718   2.2727
  2.2748   2.2756   2.2769   2.2771   2.2787   2.2800   2.2803   2.2831
  2.2836   2.2843   2.2844   2.2861   2.2867   2.2881   2.2886   2.2893
  2.2903   2.2916   2.2935   2.2949   2.2960   2.2967   2.2992   2.2994
  2.3005   2.3024   2.3032   2.3040   2.3047   2.3070   2.3085   2.3118
  2.3130   2.3137   2.3170   2.3184   2.3195   2.3206   2.3223   2.3267
  2.3279   2.3286   2.3290   2.3305   2.3306   2.3322   2.3336   2.3344
  2.3357   2.3379   2.3383   2.3406   2.3417   2.3434   2.3460   2.3468
  2.3481   2.3489   2.3514   2.3533   2.3559   2.3566   2.3581   2.3587
  2.3612   2.3626   2.3654   2.3689   2.3697   2.3745   2.3753   2.3771
  2.3838   2.3856   2.3876   2.3895   2.3904   2.3935   2.3977   2.4064
  2.4099   2.4141   2.4235   2.4284   2.4299   2.4464   2.4589   2.4795
  2.4856   2.5257   2.5712   2.5951   2.6670   2.7206   2.7577   2.7732
  2.8213   2.8256   2.8258   2.8282   2.8298   2.8316   2.8339   2.8372
  2.8482   2.8552   2.8588   2.8599   2.8637   2.8640   2.8649   2.8686
  2.8703   2.8726   2.8745   2.8786   2.8855   2.8858   2.8871   2.8912
  2.8950   2.8963   2.9070   2.9122   2.9471   3.1030   3.2417   3.9328
  3.9425   3.9577   3.9627   3.9688   3.9705   3.9774   3.9809   3.9891
  3.9913   3.9952   3.9975   3.9995   4.0042   4.0046   4.0048   4.0068
  4.0110   4.0123   4.0158   4.0200   4.0370   4.0447   4.0566   4.1823
  4.2006   4.2227   4.2271   4.2297   4.2344   4.2372   4.2464   4.2482
  4.2525   4.2590   4.2597   4.2671   4.2691   4.2722   4.2746   4.2778
  4.2787   4.2801   4.2837   4.2844   4.2861   4.2932   4.2955   4.2997
  4.3014   4.3023   4.3067   4.3091   4.3129   4.3150   4.3192   4.3209
  4.3236   4.3254   4.3269   4.3316   4.3336   4.3370   4.3423   4.3449
  4.3470   4.3480   4.3532   4.3587   4.3658   4.3692   4.3704   4.3720
  4.3728   4.3798   4.3877   4.3901   4.3918   4.4009   4.4061   4.4113
  4.4123   4.4175   4.4254   4.4335   4.4420   4.4450   4.4605   4.4626
  4.4692   4.4910   4.4976   4.5060   4.5212   4.5252   4.5428   4.5502
  4.5720   4.6133   4.6528   4.6778   4.7234   4.7479   4.8107   4.9706
 --------------------------------------------------------------
 
          Ground-State Mulliken Net Atomic Charges

     Atom                 Charge (a.u.)
  ----------------------------------------
      1 C                    -0.144248
      2 C                    -0.221782
      3 C                    -0.403738
      4 C                    -0.450048
      5 C                    -0.536851
      6 C                    -0.796495
      7 H                     0.231482
      8 H                     0.226135
      9 H                     0.230365
     10 H                     0.220645
     11 H                     0.227837
     12 H                     0.207286
     13 H                     0.206182
     14 H                     0.259488
     15 H                     0.184143
     16 H                     0.219185
     17 H                     0.198615
     18 N                     0.230405
     19 H                     0.435021
     20 C                    -0.792272
     21 H                     0.200514
     22 O                    -0.102073
     23 C                    -0.885975
     24 H                     0.322463
     25 H                     0.223077
     26 H                     0.280217
     27 S                     0.808704
     28 C                    -0.725876
     29 H                     0.242976
     30 H                     0.270121
     31 H                     0.241809
     32 O                    -0.735297
     33 C                    -0.777928
     34 H                     0.264692
     35 H                     0.252884
     36 H                     0.249254
     37 S                     0.629465
     38 C                    -0.883405
     39 H                     0.269545
     40 H                     0.279140
     41 H                     0.255588
     42 O                    -0.609290
     43 C                    -0.816496
     44 H                     0.271843
     45 H                     0.291899
     46 H                     0.247347
     47 S                     1.040007
     48 C                    -1.016954
     49 H                     0.232726
     50 H                     0.245089
     51 H                     0.239727
     52 O                    -0.647094
     53 C                    -0.872085
     54 H                     0.291967
     55 H                     0.244807
     56 H                     0.237834
     57 S                     0.959963
     58 C                    -1.084949
     59 H                     0.280739
     60 H                     0.307187
     61 H                     0.292919
     62 O                    -0.651928
     63 C                    -0.869186
     64 H                     0.260061
     65 H                     0.258850
     66 H                     0.276373
     67 S                     0.853977
     68 C                    -0.898135
     69 H                     0.294079
     70 H                     0.310106
     71 H                     0.296972
     72 O                    -0.657824
     73 C                    -0.899390
     74 H                     0.305202
     75 H                     0.290757
     76 H                     0.269170
     77 S                     0.644481
     78 C                    -0.816160
     79 H                     0.281643
     80 H                     0.251802
     81 H                     0.274002
     82 O                    -0.638957
     83 C                    -1.223876
     84 H                     0.277067
     85 H                     0.294060
     86 H                     0.262527
     87 S                     1.186919
     88 C                    -1.060800
     89 H                     0.254469
     90 H                     0.263181
     91 H                     0.279286
     92 O                    -0.657509
     93 C                    -0.754775
     94 H                     0.270195
     95 H                     0.229493
     96 H                     0.260770
     97 S                     0.306556
     98 C                    -0.499602
     99 H                     0.276812
    100 H                     0.281988
    101 H                     0.281144
    102 O                    -0.504194
    103 C                    -1.153529
    104 H                     0.273340
    105 H                     0.259793
    106 H                     0.243677
    107 S                     1.516678
    108 C                    -1.145251
    109 H                     0.272367
    110 H                     0.261914
    111 H                     0.286017
    112 O                    -0.739915
    113 C                    -0.796308
    114 H                     0.276970
    115 H                     0.259321
    116 H                     0.245932
    117 S                     0.839181
    118 C                    -0.842444
    119 H                     0.245881
    120 H                     0.239876
    121 H                     0.284952
    122 O                    -0.708180
    123 C                    -0.908688
    124 H                     0.243668
    125 H                     0.263626
    126 H                     0.211958
    127 S                     1.042298
    128 C                    -0.892118
    129 H                     0.292957
    130 H                     0.269878
    131 H                     0.228156
    132 O                    -0.700451
    133 C                    -0.818225
    134 H                     0.254176
    135 H                     0.224963
    136 H                     0.276647
    137 S                     0.820516
    138 C                    -0.867138
    139 H                     0.265346
    140 H                     0.217773
    141 H                     0.289266
    142 O                    -0.694536
    143 C                    -0.852756
    144 H                     0.279429
    145 H                     0.234242
    146 H                     0.240295
    147 S                     0.727193
    148 C                    -0.707183
    149 H                     0.235320
    150 H                     0.288006
    151 H                     0.225032
    152 O                    -0.689204
    153 C                    -0.996068
    154 H                     0.231549
    155 H                     0.257003
    156 H                     0.245022
    157 S                     0.982174
    158 C                    -0.777469
    159 H                     0.267658
    160 H                     0.262339
    161 H                     0.238847
    162 O                    -0.670831
    163 C                    -0.667903
    164 H                     0.217547
    165 H                     0.307924
    166 H                     0.256040
    167 S                     0.277856
    168 C                    -0.881775
    169 H                     0.217762
    170 H                     0.276312
    171 H                     0.291830
    172 O                    -0.469780
    173 C                    -0.917869
    174 H                     0.232234
    175 H                     0.260944
    176 H                     0.245569
    177 S                     1.066492
    178 C                    -0.930553
    179 H                     0.237504
    180 H                     0.239622
    181 H                     0.294448
    182 O                    -0.754469
    183 C                    -0.870860
    184 H                     0.282608
    185 H                     0.253093
    186 H                     0.231843
    187 S                     0.711573
    188 C                    -0.828892
    189 H                     0.295138
    190 H                     0.259063
    191 H                     0.270788
    192 O                    -0.692399
    193 C                    -0.960504
    194 H                     0.241241
    195 H                     0.230931
    196 H                     0.256023
    197 S                     1.148996
    198 C                    -0.882511
    199 H                     0.272483
    200 H                     0.249032
    201 H                     0.255761
    202 O                    -0.720613
    203 C                    -0.864848
    204 H                     0.252432
    205 H                     0.264005
    206 H                     0.250297
    207 S                     0.678537
    208 C                    -0.781927
    209 H                     0.330877
    210 H                     0.248288
    211 H                     0.230694
    212 O                    -0.565129
    213 C                    -1.061623
    214 H                     0.239552
    215 H                     0.252545
    216 H                     0.273343
    217 S                     1.156272
    218 C                    -0.987091
    219 H                     0.236284
    220 H                     0.268634
    221 H                     0.270440
    222 O                    -0.615122
    223 C                    -0.794116
    224 H                     0.263184
    225 H                     0.250581
    226 H                     0.238434
    227 S                     0.708639
    228 C                    -0.737837
    229 H                     0.217372
    230 H                     0.282682
    231 H                     0.296691
    232 O                    -0.684315
    233 C                    -0.657896
    234 H                     0.261448
    235 H                     0.215321
    236 H                     0.288042
    237 S                     0.680030
    238 C                    -0.797345
    239 H                     0.241189
    240 H                     0.246628
    241 H                     0.266427
    242 O                    -0.691835
    243 C                    -0.945630
    244 H                     0.267450
    245 H                     0.258664
    246 H                     0.282421
    247 S                     0.854330
    248 C                    -1.081830
    249 H                     0.223072
    250 H                     0.300266
    251 H                     0.283061
    252 O                    -0.608219
    253 C                    -0.777361
    254 H                     0.262921
    255 H                     0.251819
    256 H                     0.274904
    257 S                     0.731765
    258 C                    -0.764555
    259 H                     0.231353
    260 H                     0.252962
    261 H                     0.244306
    262 O                    -0.682999
  ----------------------------------------
  Sum of atomic charges =     0.000000

 -----------------------------------------------------------------
                    Cartesian Multipole Moments
 -----------------------------------------------------------------
    Charge (ESU x 10^10)
                -0.0000
    Dipole Moment (Debye)
         X       6.2231      Y      31.1997      Z     -11.6368
       Tot      33.8756
    Quadrupole Moments (Debye-Ang)
        XX    -601.4975     XY     933.3019     YY     886.9223
        XZ    -162.9129     YZ     578.7184     ZZ   -1372.8078
    Octopole Moments (Debye-Ang^2)
       XXX  -67410.8168    XXY    1503.8305    XYY   23529.2669
       YYY    3180.3665    XXZ  -25913.6310    XYZ   17633.2506
       YYZ   18747.2721    XZZ  -34474.1606    YZZ  -12303.5688
       ZZZ  -84983.3557
    Hexadecapole Moments (Debye-Ang^3)
      XXXX ************   XXXY ************   XXYY -136102.1124
      XYYY  -40557.5580   YYYY ************   XXXZ ************
      XXYZ -182202.9603   XYYZ  484425.3495   YYYZ   14716.8984
      XXZZ ************   XYZZ -323155.0967   YYZZ -242076.5088
      XZZZ ************   YZZZ ************   ZZZZ ************
 -----------------------------------------------------------------
Archival summary:
[...]
    3   0.0193259   0.0106914  -0.0107910  -0.0527431  -0.0064674   0.0100850
           85          86          87          88          89          90
    1   0.0229884  -0.0264609  -0.0331576   0.0067909  -0.0081295   0.0121820
    2  -0.0173062   0.0101768   0.0259860  -0.0006193  -0.0178052  -0.0102729
    3  -0.0161826  -0.0168176   0.0328064   0.0041626   0.0287742  -0.0337354
           91          92          93          94          95          96
    1   0.0129260  -0.0232836   0.0002432  -0.0264183   0.0017755   0.0172198
    2   0.0266721  -0.0953940  -0.0002103  -0.0101720   0.0223246  -0.0245368
    3   0.0147388  -0.0502689  -0.0062416  -0.0036957  -0.0295910  -0.0079942
           97          98          99         100         101         102
    1  -0.0435536   0.0104581   0.0262682   0.0031660   0.0068954  -0.0088901
    2   0.0447674   0.0013365  -0.0181398   0.0262066   0.0096397  -0.1005744
    3   0.0160543  -0.0016622  -0.0083650  -0.0185767   0.0265957   0.0429249
          103         104         105         106         107         108
    1   0.0037259  -0.0322505   0.0095338   0.0260853  -0.0079426   0.0075302
    2   0.0052396   0.0022082   0.0282634  -0.0161588   0.0300194  -0.0042877
    3  -0.0081898  -0.0150244   0.0154002  -0.0092543   0.0488228   0.0014042
          109         110         111         112         113         114
    1   0.0004107  -0.0099159   0.0306629  -0.0815505  -0.0075261  -0.0097480
    2  -0.0226086  -0.0270209   0.0155436  -0.0510834   0.0015534   0.0091861
    3   0.0257607  -0.0178479   0.0060328  -0.0533783  -0.0026094  -0.0298584
          115         116         117         118         119         120
    1  -0.0075070  -0.0255817   0.0411153  -0.0013952  -0.0216970  -0.0108639
    2  -0.0284707   0.0140082  -0.0335201  -0.0006460   0.0214766  -0.0316507
    3  -0.0126440   0.0171391  -0.0255097   0.0083859   0.0131036   0.0123352
          121         122         123         124         125         126
    1   0.0273607   0.0069289  -0.0056842   0.0168033  -0.0229186  -0.0038268
    2  -0.0129333   0.1061635  -0.0016241  -0.0183317  -0.0072208   0.0213537
    3   0.0084774   0.0212434  -0.0022937  -0.0243671   0.0281770  -0.0278584
          127         128         129         130         131         132
    1  -0.0128526   0.0106322   0.0299473   0.0042306  -0.0083902   0.0087150
    2   0.0516007  -0.0037689  -0.0095261  -0.0271390   0.0263039  -0.0927224
    3   0.0250988  -0.0044370   0.0205166  -0.0154168  -0.0215485   0.0594764
          133         134         135         136         137         138
    1  -0.0013057  -0.0235381  -0.0256017   0.0271268  -0.0408834   0.0050833
    2   0.0064292   0.0245991   0.0140418   0.0129639  -0.0265781  -0.0008369
    3  -0.0006613  -0.0207654   0.0263404   0.0158724  -0.0140112   0.0034590
          139         140         141         142         143         144
    1   0.0245127  -0.0130189   0.0153425   0.0879957   0.0047645   0.0253783
    2   0.0191283   0.0024927  -0.0254476   0.0348948  -0.0010903   0.0022480
    3   0.0228259   0.0411821   0.0013469  -0.0580821  -0.0041192   0.0141823
          145         146         147         148         149         150
    1   0.0017964   0.0105382  -0.0418171   0.0046299  -0.0145885   0.0226388
    2  -0.0307448   0.0208423   0.0095942   0.0055352   0.0155208   0.0005001
    3  -0.0131864  -0.0260969  -0.0270976   0.0047970   0.0270023   0.0205513
          151         152         153         154         155         156
    1   0.0196752   0.0084142  -0.0027695  -0.0187111   0.0199589  -0.0267943
    2   0.0154973  -0.0679991  -0.0021829   0.0223528  -0.0133277  -0.0132817
    3  -0.0251162   0.0873574  -0.0038793  -0.0153149  -0.0217121   0.0035680
          157         158         159         160         161         162
    1   0.0456532   0.0036194   0.0192961   0.0085935  -0.0227176  -0.0810082
    2   0.0289661  -0.0093145  -0.0163561   0.0040021  -0.0169762   0.0145262
    3  -0.0045631   0.0002618  -0.0194553   0.0302111   0.0001889   0.0703993
          163         164         165         166         167         168
    1  -0.0070762  -0.0019140  -0.0099440  -0.0321721   0.0065905  -0.0033873
    2  -0.0005330   0.0247110   0.0013743  -0.0098818   0.0054978  -0.0059996
    3  -0.0052322   0.0155202  -0.0332235   0.0032805   0.0646645  -0.0032358
          169         170         171         172         173         174
    1   0.0027601   0.0278646  -0.0015791  -0.0129510   0.0030204  -0.0107119
    2   0.0304276  -0.0108990  -0.0089038  -0.0996369  -0.0017219  -0.0313639
    3   0.0051044   0.0098826  -0.0305201  -0.0483596  -0.0066486  -0.0095491
          175         176         177         178         179         180
    1  -0.0088051   0.0323679   0.0168631  -0.0086220  -0.0061470  -0.0234235
    2   0.0266531   0.0041487  -0.0340409   0.0030491  -0.0264771  -0.0104514
    3  -0.0156079  -0.0112326   0.0338407  -0.0009937  -0.0244553   0.0214525
          181         182         183         184         185         186
    1  -0.0031964   0.0222007   0.0077336  -0.0041128  -0.0045968   0.0240360
    2   0.0351667   0.1085158  -0.0057243   0.0068726  -0.0335332   0.0171711
    3   0.0172718   0.0007147   0.0027099   0.0314921  -0.0011330  -0.0169845
          187         188         189         190         191         192
    1  -0.0105158   0.0009394   0.0174110   0.0268537  -0.0322929  -0.0607741
    2  -0.0023979   0.0124857  -0.0046235   0.0033934   0.0184615  -0.0430368
    3  -0.0538761   0.0103494   0.0285781  -0.0220249   0.0069724   0.0815441
          193         194         195         196         197         198
    1   0.0101862  -0.0030012   0.0304149   0.0025066  -0.0166562  -0.0023992
    2   0.0013013   0.0025403   0.0155222  -0.0273473   0.0415392  -0.0028926
    3   0.0008170  -0.0365174   0.0228933   0.0096410  -0.0095002   0.0069908
          199         200         201         202         203         204
    1  -0.0221917   0.0135418   0.0207601  -0.0229262  -0.0030964  -0.0008195
    2  -0.0048101  -0.0259866   0.0159119  -0.0986224   0.0048894   0.0063310
    3   0.0193281   0.0086740   0.0213405  -0.0441867  -0.0016918   0.0299879
          205         206         207         208         209         210
    1   0.0124402  -0.0287642   0.0591371  -0.0005858   0.0064834  -0.0272515
    2   0.0299896  -0.0042148   0.0053017  -0.0017086  -0.0322521  -0.0110652
    3  -0.0134469  -0.0167880   0.0161354  -0.0086411  -0.0101014  -0.0177223
          211         212         213         214         215         216
    1   0.0093602  -0.0646371  -0.0064511   0.0152689  -0.0063467  -0.0338775
    2   0.0294925  -0.0749558  -0.0022425  -0.0119479   0.0312493  -0.0089929
    3  -0.0225858   0.0482684   0.0061513   0.0170988   0.0028268   0.0148851
          217         218         219         220         221         222
    1   0.0644707  -0.0075893  -0.0307859   0.0209850  -0.0214802  -0.0290862
    2   0.0204497   0.0018015   0.0024343   0.0205666  -0.0048169  -0.0999122
    3  -0.0138922  -0.0092279   0.0123248  -0.0112503  -0.0357643  -0.0363772
          223         224         225         226         227         228
    1   0.0089124   0.0123209  -0.0100336   0.0198038  -0.0337158   0.0084763
    2  -0.0011953  -0.0303791  -0.0009997   0.0271628   0.0451854  -0.0030771
    3  -0.0035277  -0.0048921  -0.0306790   0.0095957  -0.0008384   0.0089279
          229         230         231         232         233         234
    1   0.0260856  -0.0200082   0.0113731  -0.0363679  -0.0089152  -0.0103205
    2   0.0262839  -0.0077459  -0.0292249  -0.1009677   0.0021385   0.0077404
    3   0.0143100   0.0207208   0.0082193  -0.0224748   0.0015708   0.0368606
          235         236         237         238         239         240
    1  -0.0055885  -0.0159549   0.0024000   0.0022470  -0.0046232  -0.0014591
    2   0.0257541  -0.0170856  -0.0526388   0.0060244   0.0307797  -0.0019591
    3  -0.0084036  -0.0254895   0.0254641   0.0049859  -0.0093017   0.0353774
          241         242         243         244         245         246
    1   0.0298752   0.0434810   0.0051529   0.0203380   0.0055370   0.0123355
    2  -0.0029205   0.0203773  -0.0000251  -0.0139979  -0.0259744   0.0303716
    3  -0.0013554  -0.0968060  -0.0069793   0.0181077  -0.0238768  -0.0076937
          247         248         249         250         251         252
    1  -0.0321371  -0.0005945   0.0127110  -0.0240190   0.0197154  -0.0244251
    2   0.0369873  -0.0003236   0.0270836   0.0097360  -0.0258397  -0.1020151
    3  -0.0240555   0.0096823   0.0052485   0.0231944   0.0031321   0.0252656
          253         254         255         256         257         258
    1  -0.0000117  -0.0336462   0.0191879   0.0218146  -0.0236717  -0.0031533
    2   0.0073687  -0.0056133   0.0267060  -0.0115847  -0.0557543   0.0070873
    3  -0.0068431   0.0008024   0.0094708  -0.0207950  -0.0224688   0.0056531
          259         260         261         262
    1  -0.0273493   0.0148620   0.0018941   0.1062995
    2   0.0056129  -0.0220007   0.0323154   0.0007515
    3  -0.0117133   0.0240616   0.0101699   0.0320896
  --- DONE ESP SUMMARY ---
Archival summary:
1\1\node025\SP\ProcedureUnspecified\6-31+G*\242448h22\ymao90\SatDec404:09:342021SatDec404:09:342021\0\\#,ProcedureUnspecified,6-31+G*,\\0,1\S\O,1,1.49672\C,1,1.80684,2,97.2879\H,3,1.09277,1,104.167,2,-71.5242,0\H,3,1.09308,1,109.312,2,37.7073,0\H,3,1.09319,1,112.489,2,163.561,0\C,1,1.80745,2,105.098,3,94.2654,0\H,7,1.09224,1,119.597,2,-64.1054,0\H,7,1.09272,1,103.385,2,64.3113,0\H,7,1.09343,1,109.585,2,167.846,0\Gh,9,2.17584,7,113.795,1,74.7437,0\Gh,11,1.09711,9,146.211,7,172.825,0\Gh,12,1.09627,11,108.198,9,-34.8576,0\Gh,12,1.53768,11,111.886,9,80.1358,0\Gh,14,1.0966,12,113.48,11,-63.8775,0\Gh,14,1.09716,12,114.187,11,-178.361,0\Gh,12,1.5379,11,102.438,9,-163.606,0\Gh,17,1.09643,12,106.224,11,171.013,0\Gh,17,1.09704,12,118.047,11,54.5156,0\Gh,17,1.53728,12,118.696,11,-70.7924,0\Gh,20,1.09673,17,110.565,12,67.0666,0\Gh,20,1.46175,17,112.333,12,-164.832,0\Gh,22,1.01276,20,120.445,17,86.7707,0\Gh,22,1.37859,20,125.299,17,-83.7034,0\Gh,24,1.10503,22,118.647,20,-176.691,0\Gh,24,1.21769,22,120.169,20,-5.47394,0\Gh,20,1.53799,17,112.413,12,-42.7165,0\Gh,27,1.09692,20,108.887,17,-68.2881,0\Gh,27,1.09764,20,110.773,17,171.333,0\Gh,27,1.53667,20,109.772,17,45.7575,0\Gh,30,1.09635,27,113.435,20,63.7663,0\Gh,30,1.09705,27,103.798,20,-166.7,0\O,23,2.13474,22,129.57,20,-110.727,0\S,33,1.49775,23,104.075,22,-163.046,0\C,34,1.80664,33,102.812,23,60.6329,0\H,35,1.09174,34,113.26,33,80.2004,0\H,35,1.09305,34,105.272,33,-169.452,0\H,35,1.09356,34,111.685,33,-43.7023,0\C,34,1.80666,33,105.282,23,-50.5088,0\H,39,1.09245,34,101.103,33,42.6774,0\H,39,1.09274,34,112.206,33,-76.0521,0\H,39,1.0935,34,109.145,33,164.818,0\H,21,2.16002,20,134.476,17,131.956,0\C,43,1.09295,21,142.784,20,-157.724,0\H,44,1.09295,43,111.538,21,152.193,0\H,44,1.09313,43,111.199,21,20.8607,0\S,44,1.80765,43,97.8958,21,-92.9323,0\O,47,1.49646,44,104.267,43,40.386,0\C,47,1.80746,44,96.5457,43,-69.6876,0\H,49,1.0931,47,110.17,44,-73.1107,0\H,49,1.09325,47,108.513,44,51.5153,0\H,49,1.09371,47,100.525,44,172.942,0\H,50,2.06089,49,127.054,47,106.922,0\C,53,1.09312,50,116.148,49,73.3381,0\H,54,1.09265,53,109.558,50,135.907,0\H,54,1.09308,53,109.611,50,9.92812,0\S,54,1.80793,53,110.032,50,-98.9875,0\O,57,1.49733,54,111.341,53,80.4523,0\C,57,1.80684,54,95.4084,53,-167.051,0\H,59,1.09282,57,113.435,54,-26.7407,0\H,59,1.09303,57,93.6021,54,-144.394,0\H,59,1.09383,57,117.481,54,102.614,0\H,6,2.18404,3,138.866,1,-106.497,0\C,63,1.09356,6,159.955,3,-21.5681,0\H,64,1.0923,63,105.788,6,-39.7865,0\H,64,1.09358,63,109.929,6,-155.935,0\S,64,1.80725,63,112.921,6,90.9532,0\O,67,1.49671,64,106.453,63,-179.968,0\C,67,1.8079,64,95.2195,63,67.7065,0\H,69,1.09217,67,112.792,64,-61.2862,0\H,69,1.09286,67,112.039,64,56.8918,0\H,69,1.09298,67,111.29,64,-172.941,0\H,19,2.30806,17,121.909,12,138.144,0\C,73,1.09315,19,155.173,17,-50.9168,0\H,74,1.09226,73,106.313,19,-143.528,0\H,74,1.09331,73,106.985,19,97.2821,0\S,74,1.80725,73,111.23,19,-20.2163,0\O,77,1.49625,74,110.551,73,-14.505,0\C,77,1.80733,74,90.4974,73,-116.473,0\H,79,1.09301,77,109.598,74,-62.521,0\H,79,1.09307,77,110.395,74,50.575,0\H,79,1.09308,77,106.901,74,178.966,0\H,31,2.31356,30,115.752,27,75.1213,0\C,83,1.09267,31,115.996,30,120.823,0\H,84,1.09272,83,105.015,31,112.571,0\H,84,1.0929,83,114.081,31,-4.30541,0\S,84,1.80722,83,112.295,31,-126.775,0\O,87,1.49665,84,113.292,83,166.052,0\C,87,1.80622,84,98.8706,83,59.3162,0\H,89,1.09259,87,102.575,84,-51.3259,0\H,89,1.09268,87,107.811,84,68.3023,0\H,89,1.0933,87,108.049,84,-170.378,0\H,81,2.3193,79,121.471,77,46.924,0\C,93,1.09277,81,145.476,79,-157.437,0\H,94,1.09253,93,104.722,81,55.5207,0\H,94,1.09284,93,115.891,81,-59.2344,0\S,94,1.80751,93,105.161,81,171.601,0\O,97,1.49705,94,105.684,93,165.917,0\C,97,1.8076,94,90.8473,93,66.676,0\H,99,1.09258,97,111.169,94,159.195,0\H,99,1.09289,97,109.819,94,31.914,0\H,99,1.09346,97,108.627,94,-79.581,0\H,92,2.32034,89,129.168,87,93.4811,0\C,103,1.09196,92,156.416,89,121.861,0\H,104,1.09304,103,115.288,92,-83.2808,0\H,104,1.09348,103,112.898,92,157.538,0\S,104,1.80737,103,106.662,92,39.6906,0\O,107,1.4969,104,103.178,103,34.1971,0\C,107,1.80609,104,92.1545,103,-70.7855,0\H,109,1.09299,107,114.422,104,51.7165,0\H,109,1.09315,107,106.114,104,-72.2974,0\H,109,1.09348,107,102.68,104,175.269,0\H,112,2.19665,109,113.034,107,-97.8572,0\C,113,1.09341,112,168.943,109,157.715,0\H,114,1.09287,113,122.69,112,63.7041,0\H,114,1.09307,113,100.866,112,-48.4451,0\S,114,1.80648,113,106.486,112,-164.767,0\O,117,1.49685,114,102.34,113,169.08,0\C,117,1.80687,114,96.8485,113,-82.0693,0\H,119,1.09266,117,103.64,114,-169.839,0\H,119,1.09306,117,113.94,114,-51.6159,0\H,119,1.09336,117,120.047,114,76.295,0\H,15,2.32406,14,143.751,12,121.585,0\C,123,1.09258,15,110.681,14,-106.778,0\H,124,1.09308,123,103.372,15,-87.4997,0\H,124,1.09359,123,113.762,15,37.6027,0\S,124,1.80693,123,113.565,15,163.004,0\O,127,1.49723,124,100.608,123,67.3861,0\C,127,1.8068,124,93.0513,123,169.163,0\H,129,1.09301,127,118.557,124,-61.5134,0\H,129,1.09323,127,109.454,124,70.197,0\H,129,1.09332,127,105.003,124,-171.169,0\H,130,2.24006,129,95.0082,127,98.8757,0\C,133,1.09294,130,129.839,129,163.769,0\H,134,1.0934,133,109.552,130,-137.694,0\H,134,1.09341,133,110.932,130,-3.23715,0\S,134,1.80639,133,104.906,130,107.405,0\O,137,1.49709,134,101.82,133,-79.6823,0\C,137,1.80718,134,87.3362,133,-171.091,0\H,139,1.09218,137,108.932,134,58.3022,0\H,139,1.0931,137,120.098,134,-178.229,0\H,139,1.0935,137,102.897,134,-65.108,0\O,36,2.35615,35,128.917,34,-112.008,0\S,143,1.49713,36,172.581,35,85.0423,0\C,144,1.80655,143,109.801,36,-42.7806,0\H,145,1.09306,144,106.32,143,157.245,0\H,145,1.09334,144,112.147,143,42.4021,0\H,145,1.09339,144,104.457,143,-87.3993,0\C,144,1.8069,143,99.512,36,51.2586,0\H,149,1.09222,144,106.084,143,50.3168,0\H,149,1.09317,144,107.159,143,-68.4076,0\H,149,1.09335,144,109.001,143,173.174,0\H,18,2.35937,17,154.022,12,-24.4677,0\C,153,1.09326,18,148.352,17,153.778,0\H,154,1.09301,153,110.81,18,116.68,0\H,154,1.09327,153,101.409,18,12.4091,0\S,154,1.80689,153,112.38,18,-107.121,0\O,157,1.49643,154,109.625,153,45.8162,0\C,157,1.80743,154,94.0573,153,-53.1476,0\H,159,1.09207,157,117.507,154,-63.132,0\H,159,1.0927,157,103.217,154,-176.311,0\H,159,1.09382,157,114.099,154,65.9663,0\H,29,2.3753,27,111.274,20,149.801,0\C,163,1.09222,29,98.5597,27,-157.837,0\H,164,1.09289,163,106.044,29,61.0877,0\H,164,1.09307,163,117.709,29,-175.062,0\S,164,1.80791,163,117.106,29,-52.2361,0\O,167,1.49671,164,107.245,163,-83.6191,0\C,167,1.80703,164,98.8256,163,168.204,0\H,169,1.09259,167,106.279,164,173.4,0\H,169,1.09277,167,112.973,164,58.1024,0\H,169,1.09377,167,105.481,164,-67.5889,0\O,163,2.41786,29,126.023,27,15.7234,0\S,173,1.49626,163,114.461,29,-30.0028,0\C,174,1.80701,173,101.159,163,-146.14,0\H,175,1.09299,174,105.358,173,76.5287,0\H,175,1.09309,174,111.88,173,-163.593,0\H,175,1.09326,174,104.213,173,-43.288,0\C,174,1.80722,173,95.4414,163,122.047,0\H,179,1.09255,174,112.917,173,-64.1689,0\H,179,1.09307,174,111.151,173,175.284,0\H,179,1.0936,174,104.932,173,53.3725,0\H,181,2.43646,179,161.413,174,115.644,0\C,183,1.09351,181,109.263,179,2.09216,0\H,184,1.09303,183,104.389,181,-73.5241,0\H,184,1.09343,183,101.946,181,173.852,0\S,184,1.8072,183,115.127,181,54.8905,0\O,187,1.49671,184,102.291,183,22.5242,0\C,187,1.80732,184,96.3974,183,130.217,0\H,189,1.09201,187,107.607,184,-79.4386,0\H,189,1.09295,187,104.135,184,154.363,0\H,189,1.09339,187,110.04,184,38.4238,0\H,160,2.53188,159,125.737,157,142.613,0\C,193,1.09296,160,94.5067,159,-164.881,0\H,194,1.09321,193,114.466,160,66.4299,0\H,194,1.09358,193,113.801,160,-45.6231,0\S,194,1.80744,193,106.373,160,-169.892,0\O,197,1.49676,194,102.777,193,-122.527,0\C,197,1.80653,194,95.6387,193,135.491,0\H,199,1.09248,197,112.175,194,60.4172,0\H,199,1.09288,197,112.668,194,-64.9359,0\H,199,1.0931,197,102.596,194,-179.232,0\H,148,2.56874,145,109.969,144,-157.791,0\C,203,1.0933,148,112.822,145,-56.2986,0\H,204,1.09252,203,113.643,148,-89.5097,0\H,204,1.09316,203,106.107,148,32.0908,0\S,204,1.80744,203,101.865,148,151.31,0\O,207,1.49592,204,108.18,203,-76.6516,0\C,207,1.80676,204,99.13,203,33.6214,0\H,209,1.09295,207,115.86,204,-61.3142,0\H,209,1.09313,207,117.941,204,163.759,0\H,209,1.09415,207,102.523,204,57.6962,0\O,203,2.36238,148,67.1574,145,115.623,0\S,213,1.49707,203,107.997,148,83.3016,0\C,214,1.80703,213,103.039,203,77.8824,0\H,215,1.09234,214,100.545,213,162.772,0\H,215,1.09292,214,109.117,213,-79.642,0\H,215,1.09346,214,97.8056,213,36.7804,0\C,214,1.80718,213,100.227,203,175.686,0\H,219,1.09262,214,97.602,213,73.7613,0\H,219,1.09297,214,104.868,213,-169.56,0\H,219,1.09344,214,114.769,213,-34.5238,0\H,217,2.14819,215,106.249,214,-141.568,0\C,223,1.09367,217,139.859,215,159.196,0\H,224,1.09295,223,114.528,217,-166.954,0\H,224,1.09296,223,115.993,217,-55.1572,0\S,224,1.80737,223,106.373,217,69.8666,0\O,227,1.49688,224,104.289,223,-48.166,0\C,227,1.80695,224,97.6175,223,55.8697,0\H,229,1.09279,227,107.808,224,-41.7259,0\H,229,1.0932,227,107.655,224,74.8941,0\H,229,1.09351,227,109.137,224,-161.584,0\H,208,2.45001,207,142.985,204,-43.5699,0\C,233,1.09264,208,105.627,207,108.263,0\H,234,1.09261,233,108.144,208,104.791,0\H,234,1.09283,233,112.083,208,-11.8334,0\S,234,1.80778,233,111.113,208,-142.554,0\O,237,1.4968,234,102.461,233,46.5903,0\C,237,1.80695,234,103.423,233,-60.0528,0\H,239,1.09265,237,108.359,234,-173.852,0\H,239,1.09296,237,112.392,234,-56.1696,0\H,239,1.09352,237,108.715,234,61.4223,0\H,132,2.67258,129,102.449,127,-79.7521,0\C,243,1.09345,132,147.713,129,-85.4902,0\H,244,1.09267,243,107.034,132,3.70798,0\H,244,1.09275,243,115.473,132,-126.875,0\S,244,1.80685,243,100.632,132,129.106,0\O,247,1.49718,244,100.32,243,167.711,0\C,247,1.80678,244,92.7846,243,59.5567,0\H,249,1.0928,247,109.234,244,178.441,0\H,249,1.09291,247,103.322,244,64.8192,0\H,249,1.09385,247,113.018,244,-59.1045,0\H,250,2.4089,249,164.235,247,9.66383,0\C,253,1.0932,250,127.454,249,-32.9122,0\H,254,1.09257,253,108.728,250,-113.512,0\H,254,1.09376,253,114.04,250,123.887,0\S,254,1.8073,253,115.255,250,4.87551,0\O,257,1.49714,254,105.779,253,-175.911,0\C,257,1.8071,254,96.2418,253,-74.2646,0\H,259,1.09254,257,106.26,254,46.3132,0\H,259,1.09329,257,101.995,254,-71.014,0\H,259,1.09355,257,112.438,254,174.619,0\\\@

 Total job time:  44.24s(wall), 138.16s(cpu) 
 Sat Dec  4 04:09:34 2021

        *************************************************************
        *                                                           *
        *  Thank you very much for using Q-Chem.  Have a nice day.  *
        *                                                           *
        *************************************************************


