                  Welcome to Q-Chem
     A Quantum Leap Into The Future Of Chemistry


 Q-Chem 5.2 (devel), Q-Chem, Inc., Pleasanton, CA (2019)

 Yihan Shao,  Zhengting Gan,  E. Epifanovsky,  A. T. B. Gilbert,  M. Wormit,  
 J. Kussmann,  A. W. Lange,  A. Behn,  Jia Deng,  Xintian Feng,  D. Ghosh,  
 M. Goldey,  P. R. Horn,  L. D. Jacobson,  I. Kaliman,  T. Kus,  A. Landau,  
 Jie Liu,  E. I. Proynov,  R. M. Richard,  R. P. Steele,  E. J. Sundstrom,  
 H. L. Woodcock III,  P. M. Zimmerman,  D. Zuev,  B. Alam,  B. Albrecht,  
 E. Alguire,  S. A. Baeppler,  D. Barton,  Z. Benda,  Y. A. Bernard,  
 E. J. Berquist,  K. B. Bravaya,  H. Burton,  K. Carter-Fenk,  D. Casanova,  
 Chun-Min Chang,  Yunqing Chen,  A. Chien,  K. D. Closser,  M. P. Coons,  
 S. Coriani,  S. Dasgupta,  A. L. Dempwolff,  M. Diedenhofen,  Hainam Do,  
 R. G. Edgar,  Po-Tung Fang,  S. Faraji,  S. Fatehi,  Qingguo Feng,  
 J. Fosso-Tande,  J. Gayvert,  Qinghui Ge,  A. Ghysels,  G. Gidofalvi,  
 J. Gomes,  J. Gonthier,  A. Gunina,  D. Hait,  M. W. D. Hanson-Heine,  
 P. H. P. Harbach,  A. W. Hauser,  M. F. Herbst,  J. E. Herr,  
 E. G. Hohenstein,  Z. C. Holden,  Kerwin Hui,  B. C. Huynh,  T.-C. Jagau,  
 Hyunjun Ji,  B. Kaduk,  K. Khistyaev,  Jaehoon Kim,  P. Klunzinger,  K. Koh,  
 D. Kosenkov,  L. Koulias,  T. Kowalczyk,  C. M. Krauter,  A. Kunitsa,  
 Ka Un Lao,  A. Laurent,  K. V. Lawler,  Joonho Lee,  D. Lefrancois,  
 S. Lehtola,  D. S. Levine,  Yi-Pei Li,  You-Sheng Lin,  Fenglai Liu,  
 Kuan-Yu Liu,  E. Livshits,  M. Loipersberger,  A. Luenser,  P. Manohar,  
 E. Mansoor,  S. F. Manzer,  Shan-Ping Mao,  Yuezhi Mao,  N. Mardirossian,  
 A. V. Marenich,  T. Markovich,  L. A. Martinez-Martinez,  S. A. Maurer,  
 N. J. Mayhall,  S. C. McKenzie,  J.-M. Mewes,  P. Morgante,  A. F. Morrison,  
 J. W. Mullinax,  K. Nanda,  T. S. Nguyen-Beck,  R. Olivares-Amaya,  
 J. A. Parkhill,  S. K. Paul,  F. Pavosevic,  Zheng Pei,  T. M. Perrine,  
 F. Plasser,  P. Pokhilko,  S. Prager,  A. Prociuk,  E. Ramos,  B. Rana,  
 D. R. Rehn,  F. Rob,  M. Scheurer,  M. Schneider,  N. Sergueev,  
 S. M. Sharada,  S. Sharma,  D. W. Small,  T. Stauch,  C. J. Stein,  
 T. Stein,  Yu-Chuan Su,  S. P. Veccham,  Zhen Tao,  A. J. W. Thom,  
 A. Tkatchenko,  T. Tsuchimochi,  N. M. Tubman,  L. Vogt,  M. L. Vidal,  
 O. Vydrov,  M. A. Watson,  J. Wenzel,  M. de Wergifosse,  T. A. Wesolowski,  
 A. White,  J. Witte,  A. Yamada,  Jun Yang,  K. Yao,  S. Yeganeh,  
 S. R. Yost,  Zhi-Qiang You,  A. Zech,  Igor Ying Zhang,  Xing Zhang,  
 Yan Zhao,  Ying Zhu,  B. R. Brooks,  G. K. L. Chan,  C. J. Cramer,  
 M. S. Gordon,  W. J. Hehre,  A. Klamt,  M. W. Schmidt,  C. D. Sherrill,  
 D. G. Truhlar,  A. Aspuru-Guzik,  R. Baer,  A. T. Bell,  N. A. Besley,  
 Jeng-Da Chai,  A. E. DePrince, III,  R. A. DiStasio Jr.,  A. Dreuw,  
 B. D. Dunietz,  T. R. Furlani,  Chao-Ping Hsu,  Yousung Jung,  Jing Kong,  
 D. S. Lambrecht,  WanZhen Liang,  C. Ochsenfeld,  V. A. Rassolov,  
 L. V. Slipchenko,  J. E. Subotnik,  T. Van Voorhis,  J. M. Herbert,  
 A. I. Krylov,  P. M. W. Gill,  M. Head-Gordon

 Contributors to earlier versions of Q-Chem not listed above: 
 R. D. Adamson,  B. Austin,  J. Baker,  G. J. O. Beran,  K. Brandhorst,  
 S. T. Brown,  E. F. C. Byrd,  A. K. Chakraborty,  C.-L. Cheng,  
 Siu Hung Chien,  D. M. Chipman,  D. L. Crittenden,  H. Dachsel,  
 R. J. Doerksen,  A. D. Dutoi,  L. Fusti-Molnar,  W. A. Goddard III,  
 A. Golubeva-Zadorozhnaya,  S. R. Gwaltney,  G. Hawkins,  A. Heyden,  
 S. Hirata,  G. Kedziora,  F. J. Keil,  C. Kelley,  Jihan Kim,  R. A. King,  
 R. Z. Khaliullin,  P. P. Korambath,  W. Kurlancheek,  A. M. Lee,  M. S. Lee,  
 S. V. Levchenko,  Ching Yeh Lin,  D. Liotard,  R. C. Lochan,  I. Lotan,  
 P. E. Maslen,  N. Nair,  D. P. O'Neill,  D. Neuhauser,  E. Neuscamman,  
 C. M. Oana,  R. Olson,  B. Peters,  R. Peverati,  P. A. Pieniazek,  
 Y. M. Rhee,  J. Ritchie,  M. A. Rohrdanz,  E. Rosta,  N. J. Russ,  
 H. F. Schaefer III,  N. E. Schultz,  N. Shenvi,  A. C. Simmonett,  A. Sodt,  
 D. Stuck,  K. S. Thanthiriwatte,  V. Vanovschi,  Tao Wang,  A. Warshel,  
 C. F. Williams,  Q. Wu,  X. Xu,  W. Zhang

 Please cite Q-Chem as follows:
 Y. Shao et al., Mol. Phys. 113, 184-215 (2015)
 DOI: 10.1080/00268976.2014.952696

 Q-Chem 5.2.2 for Intel X86 EM64T Linux

 Parts of Q-Chem use Armadillo 9.800.1 (Horizon Scraper).
 http://arma.sourceforge.net/

 Q-Chem begins on Fri Dec  3 12:08:49 2021  

Host: node025
0

     Scratch files written to /home/ymao90/scratch/r7.00_frame_0019_spade_B3LYP_dp20211203120846//

Checking the input file for inconsistencies... 	...done.

--------------------------------------------------------------
User input:
--------------------------------------------------------------
$molecule
0 1
--
0 1
C    22.11700   13.61700   28.24900  
C    22.88500   14.84500   27.73300  
C    22.16900   16.13100   28.17600  
C    22.24200   16.17200   29.71100  
C    21.55500   14.91100   30.26000  
C    22.16500   13.58300   29.78500  
H    22.63900   16.97300   27.65300  
H    23.87100   14.94500   28.20400  
H    21.11100   13.71300   27.82200  
H    22.56000   12.69000   27.86500  
H    23.27600   16.28100   30.06000  
H    21.79500   17.06700   30.16300  
H    21.52400   14.90400   31.35700  
H    20.49200   15.07700   30.04600  
H    23.23700   13.52100   30.01200  
H    21.68400   12.65900   30.12900  
H    21.11600   16.18200   27.87100  
N    22.97600   14.91500   26.27500  
H    22.26200   15.44000   25.78400  
C    23.94400   14.31000   25.50100  
H    24.00700   14.70300   24.47000  
O    24.77200   13.51400   25.90600  
--
0 1
C    22.67000   22.08800   28.09700  
H    21.61100   21.83500   28.00300  
H    23.16000   21.66300   28.97700  
H    22.77500   23.17600   28.09900  
S    23.35800   21.35500   26.59500  
C    22.75400   19.69700   26.98700  
H    23.00600   19.42100   28.01500  
H    21.67600   19.77600   26.82500  
H    23.23400   19.00500   26.29100  
O    24.81000   21.25200   26.94500  
C    19.90500   20.19100   24.35300  
H    18.81600   20.27600   24.37800  
H    20.35300   20.30800   25.34300  
H    20.38800   20.84200   23.61900  
S    20.51600   18.59100   23.77600  
C    19.72200   17.66000   25.10500  
H    20.00300   16.63000   24.87200  
H    20.14700   18.06600   26.02700  
H    18.64300   17.81600   25.04100  
O    21.99200   18.53100   24.01800  
C    28.19600   12.32800   33.09800  
H    28.15500   12.10300   34.16700  
H    27.51400   11.73500   32.48300  
H    29.23000   12.21000   32.76500  
S    27.80600   14.07700   32.86100  
C    28.44200   14.25100   31.17900  
H    27.81100   13.72300   30.46000  
H    28.59000   15.30200   30.91800  
H    29.41400   13.77300   31.32900  
O    29.01100   14.74900   33.44000  
C    25.71600   6.87500    27.35300  
H    26.33100   6.21600    27.97100  
H    25.48700   7.81300    27.86600  
H    24.84200   6.28300    27.07200  
S    26.52200   7.43800    25.83700  
C    27.70200   8.49900    26.70300  
H    28.45000   9.03900    26.11700  
H    27.10100   9.18600    27.30300  
H    28.31000   7.91200    27.39500  
O    25.49600   8.37700    25.28300  
C    26.15100   18.91400   29.26700  
H    26.15800   19.48000   28.33200  
H    25.18100   19.00300   29.76300  
H    26.90300   19.44900   29.85300  
S    26.57600   17.17900   28.99300  
C    26.15300   16.74000   30.69400  
H    25.89700   15.68500   30.82200  
H    26.98700   16.97100   31.36100  
H    25.31400   17.31200   31.09800  
O    28.07000   17.18900   28.89300  
C    20.54600   10.41800   36.19200  
H    21.26100   11.03000   36.74900  
H    19.81900   9.90200    36.82400  
H    21.18000   9.68000    35.69400  
S    19.83700   11.39300   34.84500  
C    18.23100   10.57700   34.70000  
H    18.30800   9.48800    34.63400  
H    17.71200   10.81500   35.63200  
H    17.78900   10.92900   33.76500  
O    20.62500   10.97300   33.64400  
C    24.75600   5.89100    32.43500  
H    25.68300   6.47000    32.46600  
H    24.11600   6.13300    33.28800  
H    25.01100   4.82900    32.47100  
S    23.85600   6.01700    30.87400  
C    24.37000   7.71300    30.52000  
H    25.45100   7.71300    30.35900  
H    23.86600   8.34900    29.78700  
H    24.27700   8.20900    31.48900  
O    22.39200   6.00400    31.18700  
C    25.39100   8.84000    20.64200  
H    24.71800   8.71000    19.79000  
H    25.95800   9.76400    20.50000  
H    26.09400   8.00400    20.68200  
S    24.39300   8.89800    22.14700  
C    23.44800   7.37500    21.91300  
H    24.07700   6.52100    21.65000  
H    23.00300   7.19200    22.89400  
H    22.73000   7.58600    21.11500  
O    23.50800   10.10000   22.03600  
C    24.26500   20.48700   32.50300  
H    25.15500   20.75800   31.93000  
H    24.23300   21.02600   33.45400  
H    24.37300   19.41800   32.70300  
S    22.77700   20.70700   31.50200  
C    21.56700   19.99300   32.63900  
H    20.57100   19.92200   32.19500  
H    21.92500   18.99000   32.88700  
H    21.54200   20.63700   33.52100  
O    22.98600   19.57500   30.54600  
C    15.79500   10.76600   30.40000  
H    15.18300   10.68800   29.49800  
H    16.43200   11.64200   30.25900  
H    16.24700   9.79700    30.62700  
S    14.61700   11.00600   31.75000  
C    14.47200   12.80300   31.62900  
H    15.47000   13.23700   31.73500  
H    13.95100   12.98200   30.68400  
H    13.77400   13.09200   32.41900  
O    15.45600   11.07900   32.98700  
C    17.50900   20.34400   29.70400  
H    17.73000   20.03000   30.72800  
H    18.31600   21.07100   29.57900  
H    16.51300   20.75000   29.51000  
S    18.01400   19.00600   28.59900  
C    19.52900   18.67700   29.52700  
H    20.23200   18.25000   28.80800  
H    20.06400   19.57500   29.84600  
H    19.38300   17.99200   30.36500  
O    18.62900   19.70100   27.42500  
C    25.91400   12.50800   23.02800  
H    25.42400   13.22600   22.36500  
H    25.10600   11.77700   23.10900  
H    26.14500   12.94900   24.00100  
S    27.35800   11.75300   22.24700  
C    27.85000   10.76900   23.68000  
H    26.91600   10.43400   24.14000  
H    28.35400   9.83800    23.40800  
H    28.50800   11.26600   24.39600  
O    28.37100   12.79800   21.89500  
C    27.21800   11.86600   28.02000  
H    28.14900   12.24600   28.44800  
H    27.35900   11.20600   27.16000  
H    26.49700   12.64700   27.76700  
S    26.23000   11.19600   29.37600  
C    24.70900   11.05200   28.41200  
H    24.92100   10.53500   27.47300  
H    23.90700   10.55900   28.96800  
H    24.42200   12.07300   28.15000  
O    25.85500   12.43400   30.13000  
C    23.84300   11.13300   32.41100  
H    23.68400   10.25800   31.77500  
H    22.88600   11.41300   32.85800  
H    24.36800   11.96000   31.92700  
S    24.91600   10.76900   33.81900  
C    23.67900   9.86600    34.77800  
H    23.18500   10.56800   35.45500  
H    22.93500   9.45000    34.09300  
H    24.28500   9.17300    35.36500  
O    25.26800   12.03100   34.54400  
C    19.24100   17.31100   33.41200  
H    18.80800   18.28000   33.14800  
H    19.50000   17.16700   34.46400  
H    20.13600   16.98100   32.87800  
S    18.01300   16.07300   32.94000  
C    19.05300   14.69900   33.48400  
H    18.72400   13.80500   32.94800  
H    20.03300   15.10400   33.21900  
H    18.92600   14.52100   34.55500  
O    18.22100   16.10800   31.45700  
C    24.20100   13.80400   17.83800  
H    24.50200   12.93300   17.25000  
H    23.20100   14.17000   17.59000  
H    24.86000   14.61200   17.51000  
S    24.51100   13.68900   19.61400  
C    23.26900   12.42800   19.98100  
H    22.29900   12.72400   19.57500  
H    23.53100   11.47200   19.52200  
H    23.16300   12.45900   21.06900  
O    24.01500   14.95100   20.24800  
C    16.72800   15.00200   29.18200  
H    15.89000   15.16300   28.50000  
H    16.37600   14.34600   29.98300  
H    17.03400   15.98200   29.55600  
S    18.07000   14.07000   28.41100  
C    18.45000   15.07200   26.95600  
H    17.52100   15.58000   26.68400  
H    19.21900   15.81000   27.20100  
H    18.85600   14.38300   26.21100  
O    17.29700   12.92400   27.83600  
C    27.50000   15.77100   20.35800  
H    28.34200   15.24400   20.81300  
H    27.55700   16.81500   20.67800  
H    26.48900   15.43500   20.60200  
S    27.73000   15.99300   18.57900  
C    28.05200   14.24800   18.23600  
H    28.37700   14.18200   17.19500  
H    28.92800   13.93400   18.80900  
H    27.19700   13.61800   18.49400  
O    29.08100   16.63700   18.52900  
C    25.05800   16.30800   34.34800  
H    24.69400   17.12800   33.72500  
H    25.47300   16.62800   35.30700  
H    25.86700   15.73600   33.88600  
S    23.60700   15.25300   34.56600  
C    23.77000   14.51700   32.92400  
H    23.94500   15.36000   32.24900  
H    24.67000   13.90800   33.03600  
H    22.91200   13.89000   32.67000  
O    22.47100   16.21900   34.43300  
C    24.78900   17.55800   21.94000  
H    23.86300   17.07400   22.26000  
H    24.71100   18.64800   21.90800  
H    25.10200   17.13800   20.98100  
S    25.97500   17.04900   23.20400  
C    25.42100   17.97300   24.65500  
H    24.95100   18.88200   24.27300  
H    24.72000   17.40800   25.27500  
H    26.31700   18.30800   25.18500  
O    27.28300   17.68000   22.84200  
C    28.79200   15.11800   23.85700  
H    28.92800   16.19100   24.01500  
H    29.53200   14.81200   23.11400  
H    27.72800   14.93100   23.69000  
S    29.34500   14.19400   25.30800  
C    28.14600   14.81200   26.51000  
H    28.07700   15.90300   26.49100  
H    27.18700   14.35400   26.25300  
H    28.54800   14.40000   27.43900  
O    30.57100   14.96600   25.68700  
C    19.82400   8.23200    29.43700  
H    20.24500   7.22500    29.49600  
H    18.80900   8.03900    29.79400  
H    19.74400   8.68100    28.44300  
S    20.75800   9.28500    30.57000  
C    19.56700   10.61000   30.87400  
H    19.03400   10.47300   31.81900  
H    20.14700   11.53300   30.95200  
H    18.91800   10.65800   29.99600  
O    21.64400   9.81200    29.48400  
C    21.93500   10.50400   25.02700  
H    22.57600   10.95700   24.26700  
H    22.11200   10.85600   26.04700  
H    22.08900   9.42400    24.95300  
S    20.19800   10.71300   24.57500  
C    19.76700   11.02300   26.30200  
H    18.70200   11.23200   26.43000  
H    20.11400   10.23300   26.97300  
H    20.37500   11.90700   26.51000  
O    19.57300   9.36800    24.36800  
C    21.40600   14.98200   21.89300  
H    22.40700   15.04600   22.32800  
H    21.54000   14.62600   20.86800  
H    20.84600   15.91400   21.77700  
S    20.55200   13.69800   22.83400  
C    19.00900   13.99100   21.94000  
H    18.36400   13.13000   22.13400  
H    18.61100   14.95700   22.26100  
H    19.11600   14.02900   20.85300  
O    20.27800   14.27800   24.18600  
$end

$rem
JOBTYPE  SP
METHOD  B3LYP
BASIS  6-31+G(D)
SYMMETRY  FALSE
SYM_IGNORE  TRUE
MEM_TOTAL  16000
MEM_STATIC  8000
MAX_SUB_FILE_NUM  16000
BASIS_LIN_DEP_THRESH  6
THRESH  14
SCF_CONVERGENCE  8
GEN_SCFMAN  TRUE
SCF_GUESS  SAD
FD_MAT_VEC_PROD  FALSE
XC_GRID  000075000302
NL_GRID  1
MAX_SCF_CYCLES  200
ENV_METHOD  B3LYP
GEN_SCFMAN_EMBED  TRUE
SPADE_PARTITION  TRUE
$end

$development
embedding_early_stop  1
$end

--------------------------------------------------------------
 ----------------------------------------------------------------
             Standard Nuclear Orientation (Angstroms)
    I     Atom           X                Y                Z
 ----------------------------------------------------------------
    1      C      22.1170000000    13.6170000000    28.2490000000
    2      C      22.8850000000    14.8450000000    27.7330000000
    3      C      22.1690000000    16.1310000000    28.1760000000
    4      C      22.2420000000    16.1720000000    29.7110000000
    5      C      21.5550000000    14.9110000000    30.2600000000
    6      C      22.1650000000    13.5830000000    29.7850000000
    7      H      22.6390000000    16.9730000000    27.6530000000
    8      H      23.8710000000    14.9450000000    28.2040000000
    9      H      21.1110000000    13.7130000000    27.8220000000
   10      H      22.5600000000    12.6900000000    27.8650000000
   11      H      23.2760000000    16.2810000000    30.0600000000
   12      H      21.7950000000    17.0670000000    30.1630000000
   13      H      21.5240000000    14.9040000000    31.3570000000
   14      H      20.4920000000    15.0770000000    30.0460000000
   15      H      23.2370000000    13.5210000000    30.0120000000
   16      H      21.6840000000    12.6590000000    30.1290000000
   17      H      21.1160000000    16.1820000000    27.8710000000
   18      N      22.9760000000    14.9150000000    26.2750000000
   19      H      22.2620000000    15.4400000000    25.7840000000
   20      C      23.9440000000    14.3100000000    25.5010000000
   21      H      24.0070000000    14.7030000000    24.4700000000
   22      O      24.7720000000    13.5140000000    25.9060000000
   23      C      22.6700000000    22.0880000000    28.0970000000
   24      H      21.6110000000    21.8350000000    28.0030000000
   25      H      23.1600000000    21.6630000000    28.9770000000
   26      H      22.7750000000    23.1760000000    28.0990000000
   27      S      23.3580000000    21.3550000000    26.5950000000
   28      C      22.7540000000    19.6970000000    26.9870000000
   29      H      23.0060000000    19.4210000000    28.0150000000
   30      H      21.6760000000    19.7760000000    26.8250000000
   31      H      23.2340000000    19.0050000000    26.2910000000
   32      O      24.8100000000    21.2520000000    26.9450000000
   33      C      19.9050000000    20.1910000000    24.3530000000
   34      H      18.8160000000    20.2760000000    24.3780000000
   35      H      20.3530000000    20.3080000000    25.3430000000
   36      H      20.3880000000    20.8420000000    23.6190000000
   37      S      20.5160000000    18.5910000000    23.7760000000
   38      C      19.7220000000    17.6600000000    25.1050000000
   39      H      20.0030000000    16.6300000000    24.8720000000
   40      H      20.1470000000    18.0660000000    26.0270000000
   41      H      18.6430000000    17.8160000000    25.0410000000
   42      O      21.9920000000    18.5310000000    24.0180000000
   43      C      28.1960000000    12.3280000000    33.0980000000
   44      H      28.1550000000    12.1030000000    34.1670000000
   45      H      27.5140000000    11.7350000000    32.4830000000
   46      H      29.2300000000    12.2100000000    32.7650000000
   47      S      27.8060000000    14.0770000000    32.8610000000
   48      C      28.4420000000    14.2510000000    31.1790000000
   49      H      27.8110000000    13.7230000000    30.4600000000
   50      H      28.5900000000    15.3020000000    30.9180000000
   51      H      29.4140000000    13.7730000000    31.3290000000
   52      O      29.0110000000    14.7490000000    33.4400000000
   53      C      25.7160000000     6.8750000000    27.3530000000
   54      H      26.3310000000     6.2160000000    27.9710000000
   55      H      25.4870000000     7.8130000000    27.8660000000
   56      H      24.8420000000     6.2830000000    27.0720000000
   57      S      26.5220000000     7.4380000000    25.8370000000
   58      C      27.7020000000     8.4990000000    26.7030000000
   59      H      28.4500000000     9.0390000000    26.1170000000
   60      H      27.1010000000     9.1860000000    27.3030000000
   61      H      28.3100000000     7.9120000000    27.3950000000
   62      O      25.4960000000     8.3770000000    25.2830000000
   63      C      26.1510000000    18.9140000000    29.2670000000
   64      H      26.1580000000    19.4800000000    28.3320000000
   65      H      25.1810000000    19.0030000000    29.7630000000
   66      H      26.9030000000    19.4490000000    29.8530000000
   67      S      26.5760000000    17.1790000000    28.9930000000
   68      C      26.1530000000    16.7400000000    30.6940000000
   69      H      25.8970000000    15.6850000000    30.8220000000
   70      H      26.9870000000    16.9710000000    31.3610000000
   71      H      25.3140000000    17.3120000000    31.0980000000
   72      O      28.0700000000    17.1890000000    28.8930000000
   73      C      20.5460000000    10.4180000000    36.1920000000
   74      H      21.2610000000    11.0300000000    36.7490000000
   75      H      19.8190000000     9.9020000000    36.8240000000
   76      H      21.1800000000     9.6800000000    35.6940000000
   77      S      19.8370000000    11.3930000000    34.8450000000
   78      C      18.2310000000    10.5770000000    34.7000000000
   79      H      18.3080000000     9.4880000000    34.6340000000
   80      H      17.7120000000    10.8150000000    35.6320000000
   81      H      17.7890000000    10.9290000000    33.7650000000
   82      O      20.6250000000    10.9730000000    33.6440000000
   83      C      24.7560000000     5.8910000000    32.4350000000
   84      H      25.6830000000     6.4700000000    32.4660000000
   85      H      24.1160000000     6.1330000000    33.2880000000
   86      H      25.0110000000     4.8290000000    32.4710000000
   87      S      23.8560000000     6.0170000000    30.8740000000
   88      C      24.3700000000     7.7130000000    30.5200000000
   89      H      25.4510000000     7.7130000000    30.3590000000
   90      H      23.8660000000     8.3490000000    29.7870000000
   91      H      24.2770000000     8.2090000000    31.4890000000
   92      O      22.3920000000     6.0040000000    31.1870000000
   93      C      25.3910000000     8.8400000000    20.6420000000
   94      H      24.7180000000     8.7100000000    19.7900000000
   95      H      25.9580000000     9.7640000000    20.5000000000
   96      H      26.0940000000     8.0040000000    20.6820000000
   97      S      24.3930000000     8.8980000000    22.1470000000
   98      C      23.4480000000     7.3750000000    21.9130000000
   99      H      24.0770000000     6.5210000000    21.6500000000
  100      H      23.0030000000     7.1920000000    22.8940000000
  101      H      22.7300000000     7.5860000000    21.1150000000
  102      O      23.5080000000    10.1000000000    22.0360000000
  103      C      24.2650000000    20.4870000000    32.5030000000
  104      H      25.1550000000    20.7580000000    31.9300000000
  105      H      24.2330000000    21.0260000000    33.4540000000
  106      H      24.3730000000    19.4180000000    32.7030000000
  107      S      22.7770000000    20.7070000000    31.5020000000
  108      C      21.5670000000    19.9930000000    32.6390000000
  109      H      20.5710000000    19.9220000000    32.1950000000
  110      H      21.9250000000    18.9900000000    32.8870000000
  111      H      21.5420000000    20.6370000000    33.5210000000
  112      O      22.9860000000    19.5750000000    30.5460000000
  113      C      15.7950000000    10.7660000000    30.4000000000
  114      H      15.1830000000    10.6880000000    29.4980000000
  115      H      16.4320000000    11.6420000000    30.2590000000
  116      H      16.2470000000     9.7970000000    30.6270000000
  117      S      14.6170000000    11.0060000000    31.7500000000
  118      C      14.4720000000    12.8030000000    31.6290000000
  119      H      15.4700000000    13.2370000000    31.7350000000
  120      H      13.9510000000    12.9820000000    30.6840000000
  121      H      13.7740000000    13.0920000000    32.4190000000
  122      O      15.4560000000    11.0790000000    32.9870000000
  123      C      17.5090000000    20.3440000000    29.7040000000
  124      H      17.7300000000    20.0300000000    30.7280000000
  125      H      18.3160000000    21.0710000000    29.5790000000
  126      H      16.5130000000    20.7500000000    29.5100000000
  127      S      18.0140000000    19.0060000000    28.5990000000
  128      C      19.5290000000    18.6770000000    29.5270000000
  129      H      20.2320000000    18.2500000000    28.8080000000
  130      H      20.0640000000    19.5750000000    29.8460000000
  131      H      19.3830000000    17.9920000000    30.3650000000
  132      O      18.6290000000    19.7010000000    27.4250000000
  133      C      25.9140000000    12.5080000000    23.0280000000
  134      H      25.4240000000    13.2260000000    22.3650000000
  135      H      25.1060000000    11.7770000000    23.1090000000
  136      H      26.1450000000    12.9490000000    24.0010000000
  137      S      27.3580000000    11.7530000000    22.2470000000
  138      C      27.8500000000    10.7690000000    23.6800000000
  139      H      26.9160000000    10.4340000000    24.1400000000
  140      H      28.3540000000     9.8380000000    23.4080000000
  141      H      28.5080000000    11.2660000000    24.3960000000
  142      O      28.3710000000    12.7980000000    21.8950000000
  143      C      27.2180000000    11.8660000000    28.0200000000
  144      H      28.1490000000    12.2460000000    28.4480000000
  145      H      27.3590000000    11.2060000000    27.1600000000
  146      H      26.4970000000    12.6470000000    27.7670000000
  147      S      26.2300000000    11.1960000000    29.3760000000
  148      C      24.7090000000    11.0520000000    28.4120000000
  149      H      24.9210000000    10.5350000000    27.4730000000
  150      H      23.9070000000    10.5590000000    28.9680000000
  151      H      24.4220000000    12.0730000000    28.1500000000
  152      O      25.8550000000    12.4340000000    30.1300000000
  153      C      23.8430000000    11.1330000000    32.4110000000
  154      H      23.6840000000    10.2580000000    31.7750000000
  155      H      22.8860000000    11.4130000000    32.8580000000
  156      H      24.3680000000    11.9600000000    31.9270000000
  157      S      24.9160000000    10.7690000000    33.8190000000
  158      C      23.6790000000     9.8660000000    34.7780000000
  159      H      23.1850000000    10.5680000000    35.4550000000
  160      H      22.9350000000     9.4500000000    34.0930000000
  161      H      24.2850000000     9.1730000000    35.3650000000
  162      O      25.2680000000    12.0310000000    34.5440000000
  163      C      19.2410000000    17.3110000000    33.4120000000
  164      H      18.8080000000    18.2800000000    33.1480000000
  165      H      19.5000000000    17.1670000000    34.4640000000
  166      H      20.1360000000    16.9810000000    32.8780000000
  167      S      18.0130000000    16.0730000000    32.9400000000
  168      C      19.0530000000    14.6990000000    33.4840000000
  169      H      18.7240000000    13.8050000000    32.9480000000
  170      H      20.0330000000    15.1040000000    33.2190000000
  171      H      18.9260000000    14.5210000000    34.5550000000
  172      O      18.2210000000    16.1080000000    31.4570000000
  173      C      24.2010000000    13.8040000000    17.8380000000
  174      H      24.5020000000    12.9330000000    17.2500000000
  175      H      23.2010000000    14.1700000000    17.5900000000
  176      H      24.8600000000    14.6120000000    17.5100000000
  177      S      24.5110000000    13.6890000000    19.6140000000
  178      C      23.2690000000    12.4280000000    19.9810000000
  179      H      22.2990000000    12.7240000000    19.5750000000
  180      H      23.5310000000    11.4720000000    19.5220000000
  181      H      23.1630000000    12.4590000000    21.0690000000
  182      O      24.0150000000    14.9510000000    20.2480000000
  183      C      16.7280000000    15.0020000000    29.1820000000
  184      H      15.8900000000    15.1630000000    28.5000000000
  185      H      16.3760000000    14.3460000000    29.9830000000
  186      H      17.0340000000    15.9820000000    29.5560000000
  187      S      18.0700000000    14.0700000000    28.4110000000
  188      C      18.4500000000    15.0720000000    26.9560000000
  189      H      17.5210000000    15.5800000000    26.6840000000
  190      H      19.2190000000    15.8100000000    27.2010000000
  191      H      18.8560000000    14.3830000000    26.2110000000
  192      O      17.2970000000    12.9240000000    27.8360000000
  193      C      27.5000000000    15.7710000000    20.3580000000
  194      H      28.3420000000    15.2440000000    20.8130000000
  195      H      27.5570000000    16.8150000000    20.6780000000
  196      H      26.4890000000    15.4350000000    20.6020000000
  197      S      27.7300000000    15.9930000000    18.5790000000
  198      C      28.0520000000    14.2480000000    18.2360000000
  199      H      28.3770000000    14.1820000000    17.1950000000
  200      H      28.9280000000    13.9340000000    18.8090000000
  201      H      27.1970000000    13.6180000000    18.4940000000
  202      O      29.0810000000    16.6370000000    18.5290000000
  203      C      25.0580000000    16.3080000000    34.3480000000
  204      H      24.6940000000    17.1280000000    33.7250000000
  205      H      25.4730000000    16.6280000000    35.3070000000
  206      H      25.8670000000    15.7360000000    33.8860000000
  207      S      23.6070000000    15.2530000000    34.5660000000
  208      C      23.7700000000    14.5170000000    32.9240000000
  209      H      23.9450000000    15.3600000000    32.2490000000
  210      H      24.6700000000    13.9080000000    33.0360000000
  211      H      22.9120000000    13.8900000000    32.6700000000
  212      O      22.4710000000    16.2190000000    34.4330000000
  213      C      24.7890000000    17.5580000000    21.9400000000
  214      H      23.8630000000    17.0740000000    22.2600000000
  215      H      24.7110000000    18.6480000000    21.9080000000
  216      H      25.1020000000    17.1380000000    20.9810000000
  217      S      25.9750000000    17.0490000000    23.2040000000
  218      C      25.4210000000    17.9730000000    24.6550000000
  219      H      24.9510000000    18.8820000000    24.2730000000
  220      H      24.7200000000    17.4080000000    25.2750000000
  221      H      26.3170000000    18.3080000000    25.1850000000
  222      O      27.2830000000    17.6800000000    22.8420000000
  223      C      28.7920000000    15.1180000000    23.8570000000
  224      H      28.9280000000    16.1910000000    24.0150000000
  225      H      29.5320000000    14.8120000000    23.1140000000
  226      H      27.7280000000    14.9310000000    23.6900000000
  227      S      29.3450000000    14.1940000000    25.3080000000
  228      C      28.1460000000    14.8120000000    26.5100000000
  229      H      28.0770000000    15.9030000000    26.4910000000
  230      H      27.1870000000    14.3540000000    26.2530000000
  231      H      28.5480000000    14.4000000000    27.4390000000
  232      O      30.5710000000    14.9660000000    25.6870000000
  233      C      19.8240000000     8.2320000000    29.4370000000
  234      H      20.2450000000     7.2250000000    29.4960000000
  235      H      18.8090000000     8.0390000000    29.7940000000
  236      H      19.7440000000     8.6810000000    28.4430000000
  237      S      20.7580000000     9.2850000000    30.5700000000
  238      C      19.5670000000    10.6100000000    30.8740000000
  239      H      19.0340000000    10.4730000000    31.8190000000
  240      H      20.1470000000    11.5330000000    30.9520000000
  241      H      18.9180000000    10.6580000000    29.9960000000
  242      O      21.6440000000     9.8120000000    29.4840000000
  243      C      21.9350000000    10.5040000000    25.0270000000
  244      H      22.5760000000    10.9570000000    24.2670000000
  245      H      22.1120000000    10.8560000000    26.0470000000
  246      H      22.0890000000     9.4240000000    24.9530000000
  247      S      20.1980000000    10.7130000000    24.5750000000
  248      C      19.7670000000    11.0230000000    26.3020000000
  249      H      18.7020000000    11.2320000000    26.4300000000
  250      H      20.1140000000    10.2330000000    26.9730000000
  251      H      20.3750000000    11.9070000000    26.5100000000
  252      O      19.5730000000     9.3680000000    24.3680000000
  253      C      21.4060000000    14.9820000000    21.8930000000
  254      H      22.4070000000    15.0460000000    22.3280000000
  255      H      21.5400000000    14.6260000000    20.8680000000
  256      H      20.8460000000    15.9140000000    21.7770000000
  257      S      20.5520000000    13.6980000000    22.8340000000
  258      C      19.0090000000    13.9910000000    21.9400000000
  259      H      18.3640000000    13.1300000000    22.1340000000
  260      H      18.6110000000    14.9570000000    22.2610000000
  261      H      19.1160000000    14.0290000000    20.8530000000
  262      O      20.2780000000    14.2780000000    24.1860000000
 ----------------------------------------------------------------
 Nuclear Repulsion Energy =       40272.33770170 hartrees
 There are      539 alpha and      539 beta electrons
 Requested basis set is 6-31+G(d)
 There are 863 shells and 2405 basis functions

 Total QAlloc Memory Limit  16000 MB
 Mega-Array Size      7821 MB
 MEM_STATIC part      8000 MB
 A cutoff of  1.0D-14 yielded 153683 shell pairs
 There are   1316381 function pairs
 Smallest overlap matrix eigenvalue = 4.65E-07
 Linear dependence detected in AO basis
 Tighter screening thresholds may be required for diffuse basis sets
 Use S2THRESH > 14 and THRESH = 14 in case of SCF convergence issues
 Number of orthogonalized atomic orbitals = 2403
 Maximum deviation from orthogonality = 1.896E-10

 Scale SEOQF with 1.000000e-03/1.000000e-03/1.000000e-03

 Standard Electronic Orientation quadrupole field applied
 Nucleus-field energy     =    -0.0000005418 hartrees
 Guess from superposition of atomic densities
 Warning:  Energy on first SCF cycle will be non-variational
 SAD guess density has 1078.000002 electrons

 -----------------------------------------------------------------------
  General SCF calculation program by
  Eric Jon Sundstrom, Paul Horn, Yuezhi Mao, Dmitri Zuev, Alec White,
  David Stuck, Shaama M.S., Shane Yost, Joonho Lee, David Small,
  Daniel Levine, Susi Lehtola, Hugh Burton, Evgeny Epifanovsky,
  Bang C. Huynh
 -----------------------------------------------------------------------
=================================================
        Doing projection-based embedding         
      F. Manby et al. JCTC, 8, 2564 (2012)       
=================================================

****************************************************
   Low-level SCF calculation for the whole system   
****************************************************
----------------------------------------------
 Summary of the low-level theory: 
 Exchange:     0.2000 Hartree-Fock + 0.0800 Slater + 0.7200 B88
 Correlation:  0.1900 VWN1RPA + 0.8100 LYP
 Using Euler-Maclaurin-Lebedev (75,302) quadrature formula
----------------------------------------------
 using 16 threads for integral computing
 -------------------------------------------------------
 OpenMP Integral computing Module                
 Release: version 2.0, May 2017, Q-Chem Inc. Pleasanton 
 -------------------------------------------------------
 A restricted SCF calculation will be
 performed using DIIS
 SCF converges when DIIS error is below 1.0e-08
 ---------------------------------------
  Cycle       Energy         DIIS error
 ---------------------------------------
    1  -13698.4540302573      1.43e-02  
    2  -13676.8175235845      2.64e-03  
    3  -13660.6186622178      5.37e-03  
    4  -13677.5724606544      1.73e-03  
    5  -13680.9826438000      4.85e-04  
    6  -13681.0606861573      3.99e-04  
    7  -13681.1429494182      1.53e-04  
    8  -13681.1570805700      2.25e-05  
    9  -13681.1574072641      1.12e-05  
   10  -13681.1574711247      6.22e-06  
   11  -13681.1574926485      1.65e-06  
   12  -13681.1574945801      7.22e-07  
   13  -13681.1574948619      3.42e-07  
   14  -13681.1574949256      1.08e-07  
   15  -13681.1574949327      2.86e-08  
   16  -13681.1574949331      1.06e-08  
   17  -13681.1574949332      5.43e-09  Convergence criterion met
 ---------------------------------------
 SCF time:   CPU 163693.42s  wall 10344.00s 
 SCF   energy in the final basis set =   -13681.1574949332
 Total energy in the final basis set =   -13681.1574949332

****************************************************
             Start embedding calculation            
****************************************************
----------------------------------------------
 Summary of the high-level theory: 
 Exchange:     0.2000 Hartree-Fock + 0.0800 Slater + 0.7200 B88
 Correlation:  0.1900 VWN1RPA + 0.8100 LYP
 Using Euler-Maclaurin-Lebedev (75,302) quadrature formula
----------------------------------------------
Doing R-in-R Embedding Calculation
Number of fragments: 2
Embedded fragment(s): 1 
NOcc for each fragment
           35
          504
NBasis for each fragment
          197
         2208
Variational space of the embedded problem: 
NOcc (active)  = 35
NOcc (fixed)   = 504
NVir (total)   = 1864
Read converged orbitals from disk
=========================================================
       Doing SPADE partition for the orbital space       
     D. CLaudino and N. Mayhall JCTC 15, 1053 (2019)     
=========================================================
SPADE singular values:
 1.0000 1.0000 1.0000 1.0000 1.0000 1.0000 1.0000 1.0000 1.0000 0.9999
 0.9998 0.9998 0.9997 0.9996 0.9994 0.9992 0.9991 0.9990 0.9986 0.9983
 0.9975 0.9969 0.9958 0.9949 0.9945 0.9939 0.9935 0.9930 0.9928 0.9920
 0.9915 0.9903 0.9892 0.9865 0.9789 0.2196 0.1855 0.1738 0.1633 0.1581
 0.1446 0.1358 0.1263 0.1182 0.1120 0.1008 0.0971 0.0855 0.0733 0.0673
 0.0616 0.0580 0.0528 0.0477 0.0425 0.0413 0.0393 0.0359 0.0350 0.0308
 0.0300 0.0283 0.0274 0.0274 0.0258 0.0246 0.0234 0.0225 0.0203 0.0195
 0.0174 0.0171 0.0164 0.0147 0.0138 0.0134 0.0132 0.0126 0.0119 0.0107
 0.0102 0.0098 0.0094 0.0089 0.0085 0.0081 0.0078 0.0075 0.0074 0.0071
 0.0064 0.0064 0.0057 0.0056 0.0054 0.0048 0.0047 0.0043 0.0039 0.0038
 0.0037 0.0036 0.0033 0.0031 0.0030 0.0028 0.0027 0.0026 0.0025 0.0024
 0.0023 0.0023 0.0022 0.0021 0.0020 0.0019 0.0019 0.0018 0.0017 0.0016
 0.0016 0.0016 0.0015 0.0014 0.0013 0.0013 0.0013 0.0012 0.0012 0.0011
 0.0010 0.0010 0.0010 0.0009 0.0009 0.0008 0.0008 0.0008 0.0007 0.0007
 0.0007 0.0006 0.0006 0.0006 0.0005 0.0005 0.0005 0.0005 0.0005 0.0004
 0.0004 0.0004 0.0004 0.0004 0.0004 0.0003 0.0003 0.0003 0.0003 0.0003
 0.0003 0.0003 0.0003 0.0003 0.0002 0.0002 0.0002 0.0002 0.0002 0.0002
 0.0002 0.0002 0.0002 0.0002 0.0002 0.0002 0.0001 0.0001 0.0001 0.0001
 0.0001 0.0001 0.0001 0.0001 0.0001 0.0001 0.0001 0.0001 0.0001 0.0001
 0.0001 0.0001 0.0001 0.0001 0.0001 0.0001 0.0001
Early stop requested!
504 environment occs will be part of frozen-core in future post-HF calculations
 
 --------------------------------------------------------------
 
                    Orbital Energies (a.u.)
 --------------------------------------------------------------
 
 Alpha MOs
 -- Occupied --
 -0.4938  -0.4875  -0.4793  -0.4670  -0.4687  -0.4492  -0.4742  -0.4845
 -0.4431  -0.4676  -0.4502  -0.4206  -0.4532  -0.4441  -0.4395  -0.4321
 -0.4390  -0.4962  -0.5308  -0.4542  -0.4814  -0.4854  -0.5573  -0.4782
 -0.5536  -0.5696  -0.5354  -0.5926  -0.5513  -0.5349  -0.5352  -0.5537
 -0.5828  -0.6210  -0.5655  -0.5801  -0.5871  -0.5786  -0.6090  -0.5838
 -0.5206  -0.5419  -0.5316  -0.5261  -0.5372  -0.5350  -0.6212  -0.5343
 -0.5504  -0.6222  -0.5311  -0.5170  -0.5258  -0.5537  -0.5798  -0.5541
 -0.6121  -0.6073  -0.5514  -0.5996  -0.5699  -0.6001  -0.5566  -0.6951
 -0.7121  -0.6002  -0.6081  -0.6752  -0.8358  -0.8269  -0.9859  -0.8853
 -0.7947  -0.8109  -0.9151  -0.9933  -0.9235  -0.8268  -0.8969  -1.0380
 -0.8661  -0.9748  -1.0293  -1.0909  -1.0848  -1.0448  -0.8051  -1.1175
 -1.0891  -1.0099  -0.9232  -1.2550  -1.1159  -1.0663  -0.7514  -1.0293
 -1.2106  -0.8171  -0.7760  -1.0828  -1.2462  -0.8734  -0.9545  -1.3241
 -0.9661  -1.1455  -1.0069  -1.4380  -1.2063  -1.3410  -1.2031  -1.1815
 -1.0379  -1.4596  -0.9847  -1.2084  -1.2478  -1.4148  -1.2290  -1.1083
 -1.2355  -1.0753  -1.3099  -1.0590  -1.0767  -1.2163  -1.0661  -1.9354
 -1.3987  -1.4793  -2.4108  -1.2018  -1.3760  -1.3571  -1.3627  -1.3610
 -1.5708  -1.2920  -1.5056  -1.4291  -1.3977  -1.6905  -1.5557  -1.4633
 -1.3636  -1.7524  -1.6170  -2.0760  -2.1355  -1.7746  -1.7160  -1.3846
 -2.1118  -2.3538  -2.0395  -2.3748  -1.7657  -1.7642  -2.1971  -1.7645
 -1.8622  -1.5521  -5.9646  -5.9098  -5.9247  -5.8988 -38.3458  -9.4386
 -2.3623  -6.7009  -1.8782  -4.4776  -1.6639  -1.5619  -8.7284  -1.2706
-16.2712  -1.9484  -5.1418  -5.3318 -13.5145  -7.6494 -11.7018  -2.9021
 -4.1151  -7.4046  -1.9340  -4.6577  -4.5514  -1.1118  -2.7263 -59.8499
-70.2492  -2.4242  -1.3139  -6.8198  -1.9463  -6.7785  -7.2342  -1.2561
 -0.9989  -5.9584  -4.2744  -1.9220  -5.6572 -13.1803  -6.8082  -4.0970
-19.6239  -8.5686  -6.2077  -9.2420 -22.8157  -5.5422  -2.6749  -0.9801
-18.0967 -45.4973 -13.1601  -1.7197  -4.5165  -1.5312 -65.5215  -1.0425
 -9.2318 -14.3431  -1.6513  -1.3396 -12.4258 -14.2423  -4.6076  -8.7112
-20.0856  -6.5122  -8.2011  -5.2066  -8.6433  -6.2591  -5.2836  -5.8035
-12.3183  -1.2331  -4.1512  -2.5392 -37.2637 -18.4965  -8.6164  -2.1662
 -1.3423  -7.9398  -3.6615 -71.2041  -3.5653  -5.7500 -19.6059  -1.1093
-11.8424  -9.3352  -8.9770  -9.0070  -4.2119  -7.0087  -7.4018  -6.9240
-56.4095  -1.6671 -16.0615 -12.7784 -46.2059  -0.9128  -3.3593 -42.8313
 -8.1684  -2.3004 -11.6467  -5.3260  -2.1810 -33.6682  -1.9353 -22.1898
 -8.5642  -5.6711  -5.8270  -4.7178  -6.0373  -6.9666  -3.0445  -3.9635
 -3.0470  -3.7371  -5.4628  -6.3745  -4.2482  -4.9764  -4.7318  -2.1233
 -5.5503  -5.9573  -9.0852  -4.0089  -1.4399  -5.9083 -12.9475  -7.4721
 -7.5344  -8.6081  -4.1780  -8.8391  -6.1233 -10.6097  -6.3428 -10.1394
-30.8056  -5.1898  -6.9307  -9.7186  -8.7356  -8.0150  -7.1374  -6.5087
 -6.2187  -8.6917  -8.6909 -14.3418  -5.9224  -9.5836 -16.4024 -21.7911
 -6.0379 -10.0176  -7.7035  -8.3614  -7.8492 -24.2293 -16.1072  -9.0441
 -6.7641 -14.3471  -3.0627  -2.0264  -4.1831  -8.9058 -21.0958  -4.7127
 -3.5030  -7.9422  -9.3553  -4.4453 -10.9312  -6.0555  -3.6401  -7.9012
 -4.6501  -7.5891  -7.1540 -13.0485  -9.0143  -5.1862  -8.7801  -5.8809
 -8.5912  -6.0646 -12.1232  -5.9673  -7.3727  -5.2173  -5.4348  -4.6337
 -7.4604  -7.7131  -3.5635  -5.1261  -3.5192  -9.0503 -28.2731  -6.0189
-13.1830  -7.4670  -7.2557  -6.1320 -12.5001  -6.3835  -3.4020  -9.3973
-13.7745 -14.1441 -15.4547 -16.9478 -12.8384 -10.1925  -2.5885  -9.2090
-20.4184  -7.0229 -16.9790 -11.0300 -12.9686  -9.9126 -16.3206 -10.3698
 -7.7118  -9.1316 -20.9213 -16.0604 -16.7125  -2.8530 -20.0353  -7.6471
-24.0250  -3.1145  -6.9393 -28.2499  -7.9111 -12.3431 -10.1705  -7.0591
 -8.5622 -11.4134  -3.5289  -3.2595  -2.0773  -7.6872  -1.7448 -12.9081
-45.0708  -3.4594  -8.1458  -8.5374  -2.3685  -5.6446  -3.5749 -16.7411
-12.7460 -16.3954  -7.8690  -9.4629  -6.7280 -23.8497  -7.4252 -49.8060
 -4.3537 -66.4397  -7.2387  -2.1611  -3.1926  -9.9146  -3.2981 -14.4308
-71.6282  -4.1890  -1.7166 -63.2437  -5.0326 -74.6616  -3.9134  -2.0819
 -6.2768 -11.0137  -2.8809  -9.7034  -4.4457  -8.4186 -13.6006  -8.7195
 -8.5510 -13.6183  -2.3010 -14.2417 -27.3021 -14.4714 -23.2545 -14.4568
-15.6448  -5.3066 -10.7881 -56.6978 -15.8252 -10.6816 -14.2650 -12.1337
 -8.1795  -5.2223  -2.8841 -11.1543 -16.3172 -17.0712  -9.3311  -9.4017
-10.5834 -21.4562  -7.4876  -2.9772  -9.2373 -29.3863  -2.6658 -12.2028
 -5.9031 -16.8801 -20.2383  -8.0383  -6.9426  -2.5540 -10.9013  -7.6533
-13.6545 -10.4978 -11.5251 -14.4917 -12.0605 -11.2865 -10.1733 -10.1185
-10.3636  -0.7252  -0.7580  -0.9246  -0.5564  -0.9562  -0.6331  -0.7791
 -0.6093  -0.4266  -0.4835  -0.5212  -0.4325  -0.4613  -0.4048  -0.4817
 -0.4761  -0.4381  -0.4231  -0.3927  -0.4002  -0.4033  -0.4437  -0.4860
 -0.4937  -0.5486  -0.4992
 -- Virtual --
 -0.0355  -0.0288  -0.0275  -0.0237  -0.0228  -0.0200  -0.0194  -0.0191
 -0.0177  -0.0167  -0.0152  -0.0147  -0.0139  -0.0123  -0.0114  -0.0106
 -0.0103  -0.0083  -0.0075  -0.0062  -0.0044  -0.0038  -0.0030  -0.0020
  0.0003   0.0013   0.0016   0.0023   0.0026   0.0033   0.0045   0.0049
  0.0058   0.0062   0.0075   0.0080   0.0083   0.0091   0.0092   0.0107
  0.0132   0.0138   0.0148   0.0155   0.0157   0.0166   0.0171   0.0181
  0.0186   0.0198   0.0211   0.0215   0.0229   0.0237   0.0244   0.0248
  0.0255   0.0259   0.0265   0.0276   0.0281   0.0290   0.0296   0.0314
  0.0321   0.0328   0.0329   0.0336   0.0348   0.0354   0.0367   0.0369
  0.0373   0.0378   0.0390   0.0394   0.0399   0.0404   0.0405   0.0412
  0.0427   0.0433   0.0436   0.0440   0.0449   0.0459   0.0469   0.0477
  0.0478   0.0488   0.0492   0.0495   0.0506   0.0514   0.0521   0.0537
  0.0540   0.0545   0.0547   0.0554   0.0564   0.0573   0.0576   0.0583
  0.0594   0.0600   0.0606   0.0610   0.0620   0.0625   0.0632   0.0642
  0.0644   0.0651   0.0658   0.0668   0.0676   0.0679   0.0691   0.0701
  0.0702   0.0710   0.0721   0.0723   0.0734   0.0739   0.0744   0.0751
  0.0756   0.0761   0.0771   0.0786   0.0794   0.0798   0.0809   0.0822
  0.0829   0.0833   0.0835   0.0842   0.0846   0.0853   0.0855   0.0869
  0.0877   0.0886   0.0890   0.0901   0.0905   0.0909   0.0915   0.0926
  0.0929   0.0939   0.0949   0.0954   0.0964   0.0971   0.0973   0.0985
  0.0996   0.1000   0.1007   0.1019   0.1021   0.1037   0.1047   0.1053
  0.1055   0.1058   0.1067   0.1074   0.1081   0.1092   0.1098   0.1109
  0.1112   0.1118   0.1123   0.1133   0.1141   0.1147   0.1156   0.1165
  0.1170   0.1174   0.1177   0.1185   0.1190   0.1194   0.1206   0.1208
  0.1218   0.1224   0.1228   0.1245   0.1246   0.1251   0.1265   0.1276
  0.1280   0.1286   0.1290   0.1301   0.1302   0.1321   0.1324   0.1330
  0.1341   0.1342   0.1348   0.1358   0.1362   0.1372   0.1377   0.1381
  0.1386   0.1396   0.1400   0.1402   0.1409   0.1417   0.1420   0.1425
  0.1439   0.1443   0.1454   0.1459   0.1468   0.1474   0.1475   0.1484
  0.1487   0.1496   0.1501   0.1505   0.1514   0.1523   0.1532   0.1537
  0.1547   0.1554   0.1559   0.1568   0.1577   0.1583   0.1590   0.1591
  0.1599   0.1600   0.1609   0.1618   0.1621   0.1628   0.1633   0.1637
  0.1647   0.1653   0.1655   0.1665   0.1678   0.1684   0.1688   0.1693
  0.1696   0.1702   0.1713   0.1727   0.1731   0.1740   0.1745   0.1748
  0.1757   0.1776   0.1783   0.1786   0.1798   0.1804   0.1811   0.1814
  0.1819   0.1823   0.1832   0.1837   0.1843   0.1852   0.1856   0.1862
  0.1874   0.1878   0.1888   0.1894   0.1897   0.1903   0.1913   0.1916
  0.1922   0.1933   0.1935   0.1939   0.1952   0.1958   0.1966   0.1968
  0.1977   0.1980   0.1993   0.2002   0.2005   0.2010   0.2017   0.2021
  0.2032   0.2035   0.2046   0.2057   0.2061   0.2067   0.2072   0.2085
  0.2092   0.2102   0.2106   0.2110   0.2119   0.2120   0.2127   0.2141
  0.2145   0.2150   0.2153   0.2161   0.2165   0.2174   0.2180   0.2184
  0.2193   0.2194   0.2199   0.2203   0.2210   0.2219   0.2231   0.2233
  0.2245   0.2254   0.2261   0.2270   0.2273   0.2279   0.2287   0.2297
  0.2302   0.2306   0.2316   0.2322   0.2325   0.2336   0.2341   0.2359
  0.2369   0.2376   0.2379   0.2385   0.2392   0.2400   0.2404   0.2416
  0.2421   0.2426   0.2436   0.2449   0.2450   0.2456   0.2462   0.2473
  0.2480   0.2482   0.2492   0.2506   0.2507   0.2513   0.2527   0.2535
  0.2537   0.2547   0.2556   0.2559   0.2570   0.2570   0.2586   0.2598
  0.2605   0.2607   0.2610   0.2626   0.2628   0.2645   0.2646   0.2656
  0.2667   0.2677   0.2681   0.2692   0.2700   0.2705   0.2713   0.2725
  0.2732   0.2740   0.2744   0.2756   0.2760   0.2773   0.2783   0.2788
  0.2799   0.2813   0.2818   0.2822   0.2826   0.2835   0.2838   0.2852
  0.2855   0.2866   0.2872   0.2880   0.2883   0.2898   0.2908   0.2911
  0.2926   0.2939   0.2958   0.2965   0.2969   0.2979   0.2980   0.2994
  0.3003   0.3010   0.3016   0.3034   0.3041   0.3042   0.3050   0.3053
  0.3064   0.3075   0.3082   0.3097   0.3102   0.3110   0.3118   0.3121
  0.3126   0.3143   0.3150   0.3160   0.3171   0.3180   0.3187   0.3206
  0.3212   0.3221   0.3229   0.3237   0.3246   0.3255   0.3261   0.3266
  0.3275   0.3283   0.3291   0.3300   0.3322   0.3326   0.3339   0.3352
  0.3353   0.3360   0.3362   0.3369   0.3395   0.3400   0.3414   0.3423
  0.3434   0.3439   0.3447   0.3460   0.3463   0.3470   0.3480   0.3491
  0.3498   0.3506   0.3512   0.3520   0.3539   0.3546   0.3557   0.3564
  0.3574   0.3584   0.3603   0.3609   0.3623   0.3626   0.3633   0.3639
  0.3654   0.3674   0.3676   0.3683   0.3695   0.3703   0.3721   0.3730
  0.3734   0.3751   0.3760   0.3769   0.3775   0.3781   0.3798   0.3810
  0.3827   0.3833   0.3837   0.3843   0.3856   0.3868   0.3873   0.3886
  0.3892   0.3909   0.3915   0.3931   0.3940   0.3950   0.3964   0.3967
  0.3984   0.3989   0.4004   0.4009   0.4027   0.4034   0.4038   0.4049
  0.4068   0.4071   0.4081   0.4093   0.4104   0.4106   0.4120   0.4133
  0.4146   0.4148   0.4160   0.4172   0.4183   0.4199   0.4207   0.4210
  0.4226   0.4237   0.4244   0.4248   0.4271   0.4279   0.4284   0.4296
  0.4304   0.4315   0.4330   0.4340   0.4357   0.4365   0.4373   0.4386
  0.4397   0.4415   0.4420   0.4437   0.4454   0.4461   0.4480   0.4493
  0.4496   0.4508   0.4523   0.4549   0.4554   0.4562   0.4571   0.4585
  0.4601   0.4608   0.4628   0.4648   0.4656   0.4663   0.4673   0.4699
  0.4702   0.4712   0.4727   0.4735   0.4756   0.4773   0.4782   0.4794
  0.4803   0.4808   0.4829   0.4840   0.4860   0.4874   0.4884   0.4894
  0.4911   0.4934   0.4946   0.4959   0.4985   0.4993   0.5000   0.5022
  0.5042   0.5054   0.5074   0.5080   0.5099   0.5109   0.5120   0.5140
  0.5167   0.5170   0.5198   0.5213   0.5244   0.5250   0.5286   0.5300
  0.5305   0.5336   0.5349   0.5353   0.5365   0.5400   0.5419   0.5426
  0.5436   0.5449   0.5462   0.5494   0.5510   0.5526   0.5541   0.5558
  0.5571   0.5588   0.5604   0.5618   0.5625   0.5647   0.5663   0.5673
  0.5696   0.5705   0.5724   0.5737   0.5749   0.5755   0.5771   0.5818
  0.5834   0.5836   0.5854   0.5875   0.5889   0.5908   0.5912   0.5931
  0.5948   0.5961   0.5972   0.5978   0.5991   0.6020   0.6041   0.6054
  0.6062   0.6083   0.6087   0.6096   0.6132   0.6139   0.6158   0.6160
  0.6178   0.6199   0.6204   0.6223   0.6238   0.6252   0.6254   0.6278
  0.6284   0.6290   0.6307   0.6309   0.6336   0.6346   0.6374   0.6376
  0.6389   0.6408   0.6419   0.6430   0.6460   0.6461   0.6469   0.6476
  0.6497   0.6519   0.6530   0.6531   0.6544   0.6552   0.6561   0.6574
  0.6590   0.6601   0.6619   0.6635   0.6636   0.6648   0.6656   0.6686
  0.6703   0.6716   0.6729   0.6733   0.6742   0.6752   0.6770   0.6777
  0.6794   0.6802   0.6813   0.6824   0.6842   0.6852   0.6876   0.6889
  0.6901   0.6914   0.6923   0.6933   0.6943   0.6959   0.6965   0.6977
  0.6988   0.7010   0.7018   0.7030   0.7039   0.7052   0.7069   0.7078
  0.7096   0.7110   0.7127   0.7150   0.7157   0.7167   0.7208   0.7215
  0.7224   0.7230   0.7237   0.7254   0.7276   0.7295   0.7313   0.7330
  0.7360   0.7370   0.7378   0.7401   0.7407   0.7423   0.7433   0.7459
  0.7477   0.7483   0.7498   0.7507   0.7520   0.7538   0.7563   0.7577
  0.7594   0.7597   0.7615   0.7639   0.7668   0.7676   0.7689   0.7696
  0.7712   0.7744   0.7746   0.7771   0.7784   0.7808   0.7829   0.7851
  0.7865   0.7881   0.7891   0.7902   0.7914   0.7938   0.7948   0.7961
  0.7982   0.7990   0.8003   0.8020   0.8031   0.8059   0.8081   0.8091
  0.8096   0.8112   0.8134   0.8155   0.8170   0.8171   0.8189   0.8198
  0.8226   0.8230   0.8250   0.8256   0.8291   0.8304   0.8324   0.8327
  0.8335   0.8349   0.8365   0.8377   0.8401   0.8402   0.8428   0.8440
  0.8449   0.8467   0.8488   0.8495   0.8518   0.8539   0.8560   0.8571
  0.8580   0.8602   0.8620   0.8625   0.8641   0.8647   0.8656   0.8675
  0.8692   0.8704   0.8710   0.8745   0.8758   0.8775   0.8797   0.8800
  0.8817   0.8821   0.8837   0.8855   0.8884   0.8899   0.8907   0.8925
  0.8936   0.8949   0.8965   0.8989   0.8989   0.8999   0.9027   0.9045
  0.9056   0.9076   0.9087   0.9096   0.9121   0.9125   0.9147   0.9171
  0.9174   0.9195   0.9211   0.9224   0.9235   0.9241   0.9251   0.9260
  0.9279   0.9289   0.9319   0.9326   0.9336   0.9342   0.9347   0.9358
  0.9387   0.9388   0.9407   0.9422   0.9428   0.9440   0.9467   0.9474
  0.9502   0.9524   0.9528   0.9544   0.9553   0.9554   0.9572   0.9580
  0.9603   0.9610   0.9626   0.9639   0.9652   0.9660   0.9674   0.9681
  0.9684   0.9702   0.9709   0.9731   0.9748   0.9752   0.9761   0.9779
  0.9791   0.9796   0.9804   0.9822   0.9829   0.9840   0.9843   0.9866
  0.9878   0.9882   0.9900   0.9904   0.9915   0.9922   0.9931   0.9956
  0.9965   0.9974   0.9991   1.0007   1.0012   1.0026   1.0034   1.0042
  1.0057   1.0065   1.0070   1.0088   1.0096   1.0106   1.0114   1.0131
  1.0132   1.0152   1.0176   1.0183   1.0198   1.0201   1.0206   1.0210
  1.0217   1.0238   1.0253   1.0261   1.0288   1.0294   1.0310   1.0333
  1.0342   1.0348   1.0353   1.0367   1.0384   1.0406   1.0417   1.0420
  1.0433   1.0466   1.0474   1.0484   1.0499   1.0513   1.0528   1.0538
  1.0544   1.0566   1.0570   1.0603   1.0610   1.0620   1.0637   1.0669
  1.0677   1.0702   1.0705   1.0732   1.0754   1.0765   1.0770   1.0780
  1.0809   1.0815   1.0824   1.0844   1.0850   1.0866   1.0890   1.0917
  1.0921   1.0931   1.0936   1.0947   1.0952   1.0976   1.0999   1.1010
  1.1024   1.1045   1.1055   1.1068   1.1076   1.1086   1.1102   1.1115
  1.1144   1.1158   1.1160   1.1162   1.1194   1.1206   1.1226   1.1247
  1.1255   1.1270   1.1280   1.1291   1.1301   1.1315   1.1327   1.1340
  1.1364   1.1378   1.1385   1.1406   1.1413   1.1428   1.1456   1.1463
  1.1494   1.1500   1.1529   1.1535   1.1546   1.1553   1.1577   1.1590
  1.1601   1.1624   1.1636   1.1665   1.1677   1.1679   1.1697   1.1701
  1.1732   1.1741   1.1752   1.1766   1.1782   1.1793   1.1814   1.1826
  1.1843   1.1862   1.1878   1.1891   1.1899   1.1926   1.1954   1.1964
  1.1971   1.2003   1.2028   1.2041   1.2052   1.2081   1.2090   1.2096
  1.2113   1.2129   1.2156   1.2172   1.2204   1.2228   1.2250   1.2268
  1.2271   1.2289   1.2308   1.2330   1.2338   1.2372   1.2381   1.2397
  1.2419   1.2452   1.2503   1.2517   1.2535   1.2537   1.2556   1.2574
  1.2600   1.2612   1.2621   1.2674   1.2687   1.2709   1.2777   1.2790
  1.2820   1.2827   1.2852   1.2862   1.2902   1.2931   1.2954   1.2971
  1.3004   1.3018   1.3028   1.3073   1.3102   1.3118   1.3150   1.3186
  1.3214   1.3231   1.3254   1.3258   1.3275   1.3310   1.3317   1.3342
  1.3388   1.3401   1.3435   1.3468   1.3483   1.3494   1.3500   1.3530
  1.3549   1.3580   1.3592   1.3621   1.3632   1.3636   1.3660   1.3679
  1.3691   1.3726   1.3741   1.3761   1.3785   1.3795   1.3805   1.3816
  1.3819   1.3843   1.3869   1.3895   1.3901   1.3919   1.3927   1.3941
  1.3953   1.3979   1.3998   1.4010   1.4031   1.4047   1.4052   1.4067
  1.4094   1.4106   1.4116   1.4129   1.4143   1.4159   1.4180   1.4188
  1.4202   1.4228   1.4249   1.4284   1.4296   1.4311   1.4316   1.4326
  1.4336   1.4366   1.4367   1.4387   1.4411   1.4423   1.4438   1.4452
  1.4462   1.4483   1.4498   1.4501   1.4528   1.4532   1.4550   1.4573
  1.4591   1.4599   1.4620   1.4647   1.4654   1.4665   1.4687   1.4700
  1.4724   1.4729   1.4748   1.4793   1.4818   1.4828   1.4851   1.4866
  1.4893   1.4903   1.4950   1.4952   1.4962   1.4972   1.4994   1.4998
  1.5029   1.5059   1.5068   1.5126   1.5141   1.5153   1.5191   1.5203
  1.5212   1.5254   1.5298   1.5316   1.5353   1.5377   1.5407   1.5439
  1.5446   1.5486   1.5498   1.5515   1.5518   1.5567   1.5607   1.5629
  1.5657   1.5696   1.5722   1.5776   1.5791   1.5835   1.5872   1.5885
  1.5973   1.5986   1.6024   1.6056   1.6086   1.6146   1.6195   1.6207
  1.6234   1.6286   1.6295   1.6355   1.6389   1.6435   1.6445   1.6462
  1.6500   1.6526   1.6530   1.6560   1.6632   1.6647   1.6678   1.6708
  1.6734   1.6744   1.6761   1.6772   1.6789   1.6809   1.6823   1.6844
  1.6870   1.6881   1.6916   1.6920   1.6960   1.6969   1.6980   1.6997
  1.7006   1.7019   1.7029   1.7048   1.7057   1.7082   1.7089   1.7104
  1.7125   1.7144   1.7158   1.7187   1.7192   1.7196   1.7220   1.7225
  1.7230   1.7240   1.7244   1.7247   1.7270   1.7285   1.7306   1.7319
  1.7326   1.7337   1.7350   1.7356   1.7381   1.7392   1.7409   1.7435
  1.7438   1.7459   1.7468   1.7475   1.7487   1.7516   1.7521   1.7545
  1.7557   1.7581   1.7590   1.7596   1.7606   1.7626   1.7650   1.7677
  1.7681   1.7713   1.7732   1.7742   1.7753   1.7779   1.7799   1.7823
  1.7849   1.7867   1.7882   1.7909   1.7939   1.7946   1.7965   1.7988
  1.7994   1.8009   1.8031   1.8041   1.8048   1.8062   1.8102   1.8122
  1.8159   1.8185   1.8209   1.8253   1.8273   1.8296   1.8361   1.8384
  1.8439   1.8451   1.8471   1.8508   1.8530   1.8571   1.8582   1.8604
  1.8613   1.8663   1.8670   1.8693   1.8714   1.8723   1.8732   1.8746
  1.8769   1.8797   1.8808   1.8820   1.8850   1.8873   1.8885   1.8896
  1.8925   1.8932   1.8956   1.8966   1.8982   1.8995   1.9020   1.9037
  1.9048   1.9052   1.9094   1.9095   1.9124   1.9136   1.9163   1.9175
  1.9186   1.9191   1.9201   1.9213   1.9228   1.9259   1.9268   1.9270
  1.9298   1.9319   1.9340   1.9351   1.9386   1.9394   1.9410   1.9421
  1.9423   1.9442   1.9443   1.9466   1.9504   1.9568   1.9578   1.9623
  1.9632   1.9664   1.9677   1.9718   1.9739   1.9773   1.9782   1.9864
  1.9882   1.9933   1.9964   2.0003   2.0143   2.0196   2.0351   2.0371
  2.0385   2.0405   2.0434   2.0478   2.0519   2.0526   2.0530   2.0567
  2.0568   2.0580   2.0598   2.0629   2.0635   2.0649   2.0673   2.0708
  2.0714   2.0733   2.0758   2.0779   2.0794   2.0824   2.0848   2.0852
  2.0867   2.0882   2.0896   2.0917   2.0964   2.0974   2.0979   2.1005
  2.1014   2.1027   2.1057   2.1084   2.1106   2.1118   2.1130   2.1144
  2.1156   2.1167   2.1188   2.1192   2.1218   2.1264   2.1313   2.1361
  2.1370   2.1380   2.1448   2.1449   2.1493   2.1529   2.1538   2.1551
  2.1598   2.1608   2.1619   2.1658   2.1685   2.1723   2.1745   2.1856
  2.1878   2.1910   2.1937   2.1984   2.2047   2.2060   2.2081   2.2110
  2.2133   2.2144   2.2177   2.2190   2.2207   2.2217   2.2229   2.2238
  2.2251   2.2263   2.2276   2.2286   2.2299   2.2319   2.2322   2.2350
  2.2365   2.2375   2.2396   2.2414   2.2419   2.2426   2.2439   2.2448
  2.2465   2.2474   2.2517   2.2523   2.2543   2.2553   2.2581   2.2589
  2.2608   2.2625   2.2633   2.2649   2.2662   2.2666   2.2679   2.2701
  2.2726   2.2730   2.2743   2.2749   2.2757   2.2761   2.2774   2.2785
  2.2793   2.2809   2.2815   2.2836   2.2841   2.2844   2.2859   2.2867
  2.2876   2.2883   2.2898   2.2908   2.2928   2.2947   2.2958   2.2960
  2.2967   2.2971   2.2982   2.2984   2.2997   2.3007   2.3010   2.3041
  2.3047   2.3053   2.3055   2.3070   2.3086   2.3102   2.3108   2.3128
  2.3148   2.3156   2.3163   2.3177   2.3181   2.3221   2.3227   2.3243
  2.3252   2.3262   2.3281   2.3297   2.3313   2.3324   2.3334   2.3345
  2.3372   2.3384   2.3401   2.3440   2.3486   2.3492   2.3509   2.3512
  2.3529   2.3553   2.3558   2.3598   2.3608   2.3625   2.3633   2.3654
  2.3662   2.3673   2.3707   2.3716   2.3730   2.3741   2.3770   2.3781
  2.3792   2.3823   2.3862   2.3884   2.3933   2.4008   2.4025   2.4052
  2.4093   2.4243   2.4262   2.4331   2.4378   2.4438   2.4592   2.4850
  2.5003   2.5582   2.5717   2.5974   2.6806   2.7147   2.7458   2.7763
  2.7922   2.8205   2.8246   2.8260   2.8266   2.8285   2.8328   2.8381
  2.8418   2.8459   2.8473   2.8513   2.8531   2.8564   2.8627   2.8653
  2.8665   2.8669   2.8711   2.8718   2.8797   2.8833   2.8882   2.8938
  2.8955   2.8987   2.9047   2.9136   2.9492   3.0876   3.2475   3.9460
  3.9493   3.9623   3.9644   3.9656   3.9661   3.9710   3.9787   3.9798
  3.9860   3.9912   3.9964   3.9981   4.0020   4.0028   4.0061   4.0090
  4.0098   4.0137   4.0144   4.0183   4.0222   4.0247   4.0343   4.1994
  4.2138   4.2317   4.2332   4.2376   4.2419   4.2453   4.2475   4.2481
  4.2515   4.2524   4.2581   4.2628   4.2648   4.2659   4.2704   4.2729
  4.2752   4.2766   4.2835   4.2877   4.2902   4.2929   4.2968   4.3000
  4.3017   4.3051   4.3071   4.3128   4.3140   4.3174   4.3237   4.3243
  4.3278   4.3297   4.3306   4.3315   4.3359   4.3378   4.3403   4.3474
  4.3497   4.3560   4.3564   4.3584   4.3662   4.3677   4.3721   4.3725
  4.3770   4.3798   4.3833   4.3862   4.3926   4.3976   4.4034   4.4080
  4.4130   4.4147   4.4202   4.4285   4.4324   4.4354   4.4382   4.4418
  4.4466   4.4563   4.4661   4.4733   4.4891   4.4968   4.5136   4.5231
  4.5436   4.5661   4.5842   4.6128   4.7248   4.7660   4.7898   4.8607
 --------------------------------------------------------------
 
          Ground-State Mulliken Net Atomic Charges

     Atom                 Charge (a.u.)
  ----------------------------------------
      1 C                    -0.444161
      2 C                    -0.522741
      3 C                    -0.554505
      4 C                    -0.572528
      5 C                    -0.072199
      6 C                    -0.351771
      7 H                     0.235513
      8 H                     0.241582
      9 H                     0.216199
     10 H                     0.210600
     11 H                     0.218288
     12 H                     0.239207
     13 H                     0.185734
     14 H                     0.245092
     15 H                     0.254335
     16 H                     0.205444
     17 H                     0.198432
     18 N                     0.271396
     19 H                     0.455705
     20 C                    -0.385945
     21 H                     0.163463
     22 O                    -0.242171
     23 C                    -0.842630
     24 H                     0.220023
     25 H                     0.258861
     26 H                     0.240310
     27 S                     0.931264
     28 C                    -0.955824
     29 H                     0.310528
     30 H                     0.206247
     31 H                     0.298187
     32 O                    -0.717222
     33 C                    -0.809016
     34 H                     0.255155
     35 H                     0.250690
     36 H                     0.243671
     37 S                     0.586374
     38 C                    -0.788671
     39 H                     0.296140
     40 H                     0.281318
     41 H                     0.254911
     42 O                    -0.598177
     43 C                    -0.947728
     44 H                     0.271187
     45 H                     0.241043
     46 H                     0.239436
     47 S                     1.109905
     48 C                    -0.885344
     49 H                     0.255642
     50 H                     0.296187
     51 H                     0.235929
     52 O                    -0.743358
     53 C                    -0.745329
     54 H                     0.241166
     55 H                     0.239468
     56 H                     0.263382
     57 S                     0.794871
     58 C                    -0.837953
     59 H                     0.268334
     60 H                     0.225111
     61 H                     0.249168
     62 O                    -0.687276
     63 C                    -1.075963
     64 H                     0.304830
     65 H                     0.258504
     66 H                     0.263785
     67 S                     1.297500
     68 C                    -1.175857
     69 H                     0.290092
     70 H                     0.288859
     71 H                     0.245334
     72 O                    -0.678023
     73 C                    -0.901485
     74 H                     0.259573
     75 H                     0.243591
     76 H                     0.273769
     77 S                     0.887576
     78 C                    -0.820343
     79 H                     0.261113
     80 H                     0.240658
     81 H                     0.290222
     82 O                    -0.759819
     83 C                    -0.848643
     84 H                     0.249083
     85 H                     0.272851
     86 H                     0.250189
     87 S                     0.788284
     88 C                    -0.917602
     89 H                     0.242616
     90 H                     0.308680
     91 H                     0.253271
     92 O                    -0.676070
     93 C                    -0.928851
     94 H                     0.241472
     95 H                     0.279504
     96 H                     0.243576
     97 S                     0.812508
     98 C                    -0.822494
     99 H                     0.240478
    100 H                     0.269657
    101 H                     0.254846
    102 O                    -0.576485
    103 C                    -0.814463
    104 H                     0.276800
    105 H                     0.238772
    106 H                     0.261597
    107 S                     0.755359
    108 C                    -0.653560
    109 H                     0.247464
    110 H                     0.294702
    111 H                     0.232392
    112 O                    -0.746615
    113 C                    -0.781555
    114 H                     0.256388
    115 H                     0.266986
    116 H                     0.244373
    117 S                     0.896553
    118 C                    -0.825105
    119 H                     0.240748
    120 H                     0.230269
    121 H                     0.252503
    122 O                    -0.761649
    123 C                    -0.983986
    124 H                     0.250853
    125 H                     0.274139
    126 H                     0.248122
    127 S                     1.266242
    128 C                    -1.250015
    129 H                     0.286671
    130 H                     0.259141
    131 H                     0.302940
    132 O                    -0.716754
    133 C                    -0.950458
    134 H                     0.268044
    135 H                     0.295864
    136 H                     0.298422
    137 S                     0.523110
    138 C                    -0.848086
    139 H                     0.288278
    140 H                     0.248041
    141 H                     0.276889
    142 O                    -0.574969
    143 C                    -0.552739
    144 H                     0.263713
    145 H                     0.235737
    146 H                     0.281888
    147 S                     0.716500
    148 C                    -1.178760
    149 H                     0.276100
    150 H                     0.323760
    151 H                     0.300136
    152 O                    -0.680752
    153 C                    -1.310024
    154 H                     0.254125
    155 H                     0.324620
    156 H                     0.310505
    157 S                     1.049813
    158 C                    -1.045172
    159 H                     0.254970
    160 H                     0.282147
    161 H                     0.243706
    162 O                    -0.658534
    163 C                    -0.751914
    164 H                     0.229205
    165 H                     0.280973
    166 H                     0.290227
    167 S                     0.745667
    168 C                    -0.699611
    169 H                     0.256789
    170 H                     0.250037
    171 H                     0.245674
    172 O                    -0.751502
    173 C                    -0.889960
    174 H                     0.248667
    175 H                     0.254839
    176 H                     0.271847
    177 S                     0.732165
    178 C                    -0.869016
    179 H                     0.244460
    180 H                     0.251616
    181 H                     0.294968
    182 O                    -0.609402
    183 C                    -1.116793
    184 H                     0.248559
    185 H                     0.226305
    186 H                     0.283977
    187 S                     1.510347
    188 C                    -1.190987
    189 H                     0.245166
    190 H                     0.236842
    191 H                     0.323626
    192 O                    -0.683618
    193 C                    -0.822440
    194 H                     0.288924
    195 H                     0.292998
    196 H                     0.217671
    197 S                     0.815559
    198 C                    -0.804983
    199 H                     0.235407
    200 H                     0.282121
    201 H                     0.221828
    202 O                    -0.715926
    203 C                    -0.849380
    204 H                     0.239530
    205 H                     0.254573
    206 H                     0.268168
    207 S                     0.992137
    208 C                    -1.039344
    209 H                     0.260048
    210 H                     0.283853
    211 H                     0.259459
    212 O                    -0.701574
    213 C                    -0.877976
    214 H                     0.248835
    215 H                     0.251826
    216 H                     0.278029
    217 S                     1.161382
    218 C                    -1.132984
    219 H                     0.271176
    220 H                     0.237136
    221 H                     0.291969
    222 O                    -0.664327
    223 C                    -0.956194
    224 H                     0.315843
    225 H                     0.264614
    226 H                     0.230130
    227 S                     0.952559
    228 C                    -0.806501
    229 H                     0.283839
    230 H                     0.242313
    231 H                     0.240955
    232 O                    -0.711252
    233 C                    -0.977082
    234 H                     0.277589
    235 H                     0.227635
    236 H                     0.273824
    237 S                     0.925582
    238 C                    -0.803049
    239 H                     0.251320
    240 H                     0.278724
    241 H                     0.262641
    242 O                    -0.658649
    243 C                    -1.006474
    244 H                     0.279366
    245 H                     0.257848
    246 H                     0.268110
    247 S                     1.291674
    248 C                    -1.087317
    249 H                     0.289104
    250 H                     0.265671
    251 H                     0.227612
    252 O                    -0.710286
    253 C                    -0.848365
    254 H                     0.265245
    255 H                     0.267164
    256 H                     0.258394
    257 S                     0.762830
    258 C                    -0.881022
    259 H                     0.256925
    260 H                     0.265622
    261 H                     0.240941
    262 O                    -0.628649
  ----------------------------------------
  Sum of atomic charges =     0.000000

 -----------------------------------------------------------------
                    Cartesian Multipole Moments
 -----------------------------------------------------------------
    Charge (ESU x 10^10)
                -0.0000
    Dipole Moment (Debye)
         X     -26.2805      Y     -12.2527      Z      11.5073
       Tot      31.1963
    Quadrupole Moments (Debye-Ang)
        XX   -2197.7834     XY    -836.9474     YY   -1108.0252
        XZ    -436.1072     YZ    -101.2086     ZZ    -153.1628
    Octopole Moments (Debye-Ang^2)
       XXX -112026.4701    XXY  -46284.6118    XYY  -35917.5368
       YYY  -39235.1534    XXZ  -52971.0679    XYZ  -16965.2769
       YYZ  -25747.8822    XZZ  -23320.7051    YZZ   -7854.0798
       ZZZ  -39264.5209
    Hexadecapole Moments (Debye-Ang^3)
      XXXX ************   XXXY ************   XXYY ************
      XYYY ************   YYYY ************   XXXZ ************
      XXYZ ************   XYYZ -860877.9825   YYYZ -981870.1357
      XXZZ ************   XYZZ -585039.2780   YYZZ -775400.8567
      XZZZ ************   YZZZ -674457.5451   ZZZZ ************
 -----------------------------------------------------------------
Archival summary:
[...]
    2  -0.0322384   0.0095752   0.0121434  -0.0285964  -0.0018925   0.0173425
    3  -0.0042410   0.0183848  -0.0183543  -0.0882318   0.0080985   0.0015644
           85          86          87          88          89          90
    1  -0.0227539   0.0098884   0.0232067   0.0008204   0.0320978  -0.0260574
    2   0.0080250  -0.0310155  -0.0391948   0.0111154   0.0003320   0.0054178
    3   0.0212853   0.0112822  -0.0417621   0.0021413  -0.0097107  -0.0229892
           91          92          93          94          95          96
    1  -0.0080522  -0.1085258   0.0026875  -0.0177537   0.0151495   0.0213788
    2   0.0215353  -0.0045865   0.0010738  -0.0036197   0.0267346  -0.0250274
    3   0.0258892   0.0211807  -0.0087100  -0.0295835   0.0008472   0.0000899
           97          98          99         100         101         102
    1   0.0426588  -0.0076247   0.0197259  -0.0229708  -0.0296497  -0.0645180
    2  -0.0090892  -0.0048306  -0.0248838  -0.0086835   0.0003871   0.0883252
    3   0.0533258  -0.0018755  -0.0084018   0.0228858  -0.0181314  -0.0064805
          103         104         105         106         107         108
    1   0.0075830   0.0223091   0.0028277  -0.0012345  -0.0108393  -0.0020191
    2  -0.0042879   0.0129768   0.0174064  -0.0318468   0.0506374  -0.0069671
    3   0.0060855  -0.0187374   0.0280258   0.0047135  -0.0145404   0.0065147
          109         110         111         112         113         114
    1  -0.0248127   0.0080416  -0.0072195   0.0147223   0.0036996  -0.0104282
    2  -0.0006849  -0.0305123   0.0134986  -0.0839532   0.0015321  -0.0059192
    3  -0.0159884   0.0086120   0.0322836  -0.0708968  -0.0069390  -0.0347200
          115         116         117         118         119         120
    1   0.0279918   0.0238488  -0.0423386  -0.0024534   0.0243998  -0.0096128
    2   0.0171770  -0.0229259  -0.0232873   0.0055034   0.0119257   0.0221125
    3  -0.0044870  -0.0005020  -0.0063225  -0.0024022   0.0056446  -0.0317506
          121         122         123         124         125         126
    1  -0.0127106   0.0590183   0.0026739  -0.0113626   0.0148607  -0.0264295
    2   0.0124816   0.0065569   0.0069038  -0.0123522   0.0309372   0.0110777
    3   0.0263838   0.0931265   0.0033219   0.0338306  -0.0165704  -0.0032352
          127         128         129         130         131         132
    1  -0.0314856   0.0108347   0.0186581   0.0116831  -0.0037744   0.0449114
    2  -0.0435012  -0.0066399  -0.0186066   0.0287623  -0.0266969   0.0488938
    3  -0.0014558   0.0050751  -0.0189458   0.0056480   0.0224060  -0.0869668
          133         134         135         136         137         138
    1  -0.0094007  -0.0023769  -0.0219177   0.0056707  -0.0204425   0.0035693
    2   0.0049075   0.0329760  -0.0307998   0.0141191  -0.0392299  -0.0057187
    3   0.0000886  -0.0224030   0.0040090   0.0115231  -0.0471751   0.0074193
          139         140         141         142         143         144
    1  -0.0246094   0.0186560   0.0193722   0.0751549   0.0037062   0.0290603
    2  -0.0128075  -0.0245004   0.0240395   0.0761603   0.0059062   0.0138864
    3   0.0178135  -0.0197631   0.0164318  -0.0307230  -0.0023189   0.0087661
          145         146         147         148         149         150
    1   0.0104229   0.0036648   0.0152460  -0.0135609  -0.0054931  -0.0299453
    2  -0.0184928   0.0326679  -0.0492066  -0.0011464  -0.0235699  -0.0112206
    3  -0.0213363  -0.0101658   0.0226383  -0.0009068  -0.0274273   0.0179252
          151         152         153         154         155         156
    1  -0.0143481  -0.0307159  -0.0076760  -0.0035664  -0.0338110   0.0065949
    2   0.0245054   0.0901562   0.0082638  -0.0196602   0.0144820   0.0207135
    3   0.0077782   0.0571553  -0.0054117  -0.0213749   0.0022348  -0.0292545
          157         158         159         160         161         162
    1   0.0420646  -0.0052134  -0.0091394  -0.0220942   0.0064983   0.0298627
    2  -0.0417791   0.0001033   0.0231654  -0.0176583  -0.0279359   0.0899656
    3  -0.0202659   0.0044498   0.0169181  -0.0144024   0.0195701   0.0543147
          163         164         165         166         167         168
    1   0.0078618  -0.0021786   0.0096123   0.0275013  -0.0458087   0.0069793
    2   0.0001724   0.0295043   0.0078623   0.0060134   0.0044307  -0.0043569
    3   0.0016123  -0.0044029   0.0335511  -0.0215377   0.0273804   0.0004345
          169         170         171         172         173         174
    1  -0.0005753   0.0379158   0.0036676   0.0138941  -0.0017572   0.0049101
    2  -0.0247285  -0.0130862  -0.0048519   0.0017769   0.0056588  -0.0290354
    3  -0.0196694  -0.0033492   0.0322328  -0.1087622  -0.0089123  -0.0140176
          175         176         177         178         179         180
    1  -0.0327626   0.0194595   0.0539987  -0.0079693  -0.0295026   0.0078490
    2   0.0060499   0.0255041  -0.0244563  -0.0042187   0.0110124  -0.0320808
    3  -0.0030323  -0.0130313   0.0097648   0.0040955  -0.0138134   0.0001974
          181         182         183         184         185         186
    1  -0.0024794  -0.0343089  -0.0047043  -0.0219789  -0.0079007   0.0134209
    2  -0.0182332   0.0940505   0.0088000  -0.0029037  -0.0095375   0.0217799
    3   0.0289409   0.0480352   0.0037046  -0.0272531   0.0248502   0.0224985
          187         188         189         190         191         192
    1   0.0471932   0.0045738  -0.0222259   0.0258552   0.0099548  -0.0553581
    2  -0.0043312   0.0029519   0.0121499   0.0228908  -0.0144647  -0.0837067
    3   0.0352437  -0.0078061  -0.0198081   0.0042236  -0.0279821  -0.0427042
          193         194         195         196         197         198
    1   0.0014878   0.0189240   0.0068782  -0.0260799  -0.0443708   0.0060300
    2   0.0047324  -0.0195048   0.0277307  -0.0165838   0.0175798  -0.0048966
    3   0.0101563   0.0119245   0.0239288   0.0105191  -0.0212090   0.0004867
          199         200         201         202         203         204
    1   0.0040048   0.0233502  -0.0217413   0.0988268   0.0072929  -0.0070738
    2  -0.0056184  -0.0059862  -0.0211209   0.0501570   0.0033285   0.0262686
    3  -0.0331876   0.0226221   0.0053193  -0.0037909  -0.0026249  -0.0155914
          205         206         207         208         209         210
    1   0.0059840   0.0235009   0.0059429   0.0042004  -0.0014524   0.0251284
    2   0.0152931  -0.0127133  -0.0404942  -0.0032362   0.0177629  -0.0222902
    3   0.0282050  -0.0173611   0.0403113  -0.0070725  -0.0266659  -0.0059028
          211         212         213         214         215         216
    1  -0.0238496  -0.0829383  -0.0071010  -0.0372211  -0.0051232   0.0034045
    2  -0.0131013   0.0695816   0.0024441  -0.0059571   0.0308040  -0.0119252
    3  -0.0081035  -0.0070091  -0.0048750   0.0021128  -0.0020791  -0.0247904
          217         218         219         220         221         222
    1  -0.0069881  -0.0040130  -0.0193466  -0.0217805   0.0246142   0.0968019
    2  -0.0574089   0.0086129   0.0280151  -0.0150387   0.0059321   0.0456752
    3   0.0074188   0.0046495  -0.0042157   0.0171938   0.0153067  -0.0266218
          223         224         225         226         227         228
    1   0.0011524   0.0057840   0.0070196  -0.0238557  -0.0018250   0.0000243
    2   0.0101673   0.0322905  -0.0086088  -0.0054357  -0.0459540   0.0072867
    3  -0.0073152   0.0066870  -0.0352624  -0.0246810  -0.0078316   0.0038887
          229         230         231         232         233         234
    1   0.0092524  -0.0237882   0.0077956   0.0920577  -0.0064727   0.0230255
    2   0.0335277  -0.0020743   0.0051672   0.0585099  -0.0059221  -0.0258630
    3   0.0073020   0.0025067   0.0353680   0.0276577  -0.0050459  -0.0079219
          235         236         237         238         239         240
    1  -0.0362014   0.0085333   0.0161839  -0.0050536  -0.0121534   0.0176910
    2  -0.0018823   0.0123916  -0.0261840   0.0082934  -0.0049914   0.0263704
    3   0.0108600  -0.0252487   0.0474327   0.0001356   0.0246294   0.0024543
          241         242         243         244         245         246
    1  -0.0210483   0.0616797   0.0060062   0.0178784   0.0080848   0.0052368
    2   0.0087118   0.0378350  -0.0036144   0.0119552   0.0071927  -0.0320082
    3  -0.0233775  -0.0804149  -0.0005256  -0.0216193   0.0249813   0.0021791
          247         248         249         250         251         252
    1  -0.0109766  -0.0039523  -0.0300745   0.0090521   0.0052869  -0.0490043
    2   0.0455086   0.0046176   0.0096568  -0.0250219   0.0340026  -0.0963356
    3  -0.0291168   0.0077460   0.0059738   0.0137364   0.0200603  -0.0158758
          253         254         255         256         257         258
    1   0.0068673   0.0284674   0.0126111  -0.0108087   0.0249484  -0.0077663
    2   0.0063649   0.0171665  -0.0075728   0.0312831  -0.0483698   0.0014957
    3  -0.0026963   0.0089128  -0.0272380   0.0115436  -0.0129944  -0.0017677
          259         260         261         262
    1  -0.0266680  -0.0147986   0.0081093  -0.0171559
    2  -0.0172443   0.0235075   0.0011468   0.0430499
    3   0.0114589   0.0173997  -0.0322251   0.1013172
  --- DONE ESP SUMMARY ---
Archival summary:
1\1\node025\SP\ProcedureUnspecified\6-31+G*\242448h22\ymao90\FriDec315:11:032021FriDec315:11:032021\0\\#,ProcedureUnspecified,6-31+G*,\\0,1\S\O,1,1.49726\C,1,1.80651,2,97.1093\H,3,1.09245,1,105.942,2,38.0093,0\H,3,1.09268,1,109.447,2,152.685,0\H,3,1.09334,1,112.469,2,-82.8412,0\C,1,1.80659,2,102.023,3,96.8208,0\H,7,1.09262,1,94.4743,2,-47.7238,0\H,7,1.09286,1,107.511,2,69.0148,0\H,7,1.0932,1,115.919,2,-161.996,0\Gh,4,1.98216,3,124.903,1,-150.4,0\Gh,11,1.09683,4,126.31,3,135.728,0\Gh,12,1.09708,11,107.942,4,173.817,0\Gh,12,1.53713,11,108.574,4,-61.1547,0\Gh,14,1.09703,12,108.559,11,-54.1432,0\Gh,14,1.09752,12,103.794,11,61.0372,0\Gh,14,1.53666,12,106.104,11,179.087,0\Gh,17,1.09696,14,117.075,12,65.4972,0\Gh,17,1.09746,14,108.342,12,177.148,0\Gh,17,1.53736,14,114.903,12,-56.7478,0\Gh,20,1.09674,17,112.904,14,-64.941,0\Gh,20,1.09779,17,109.86,14,-175.487,0\Gh,20,1.53728,17,108.269,14,58.9031,0\Gh,23,1.09699,20,115.8,17,-179.171,0\Gh,23,1.09747,20,108.773,17,64.1306,0\Gh,23,1.53711,20,106.736,17,-59.2147,0\Gh,26,1.09729,23,102.628,20,-54.9502,0\Gh,26,1.46251,23,106.037,20,-172.106,0\Gh,28,1.01316,26,117.651,23,-28.1925,0\Gh,28,1.37918,26,125.602,23,152.774,0\Gh,30,1.10516,28,114.052,26,-163.888,0\Gh,30,1.21788,28,125.258,26,8.54694,0\H,10,2.04142,7,121.735,1,-20.0501,0\C,33,1.09232,10,120.952,7,-147.08,0\H,34,1.09229,33,107.233,10,115.561,0\H,34,1.09293,33,111.12,10,3.75238,0\S,34,1.80778,33,105.85,10,-126.37,0\O,37,1.4971,34,104.862,33,46.6442,0\C,37,1.80689,34,94.1356,33,-56.468,0\H,39,1.09238,37,108.055,34,172.984,0\H,39,1.0929,37,114.287,34,-69.7975,0\H,39,1.09337,37,102.696,34,51.3724,0\H,25,2.04595,23,166.456,20,-106.506,0\C,43,1.09363,25,147.998,23,16.6902,0\H,44,1.09297,43,108.476,25,-56.7859,0\H,44,1.0932,43,109.859,25,175.421,0\S,44,1.80705,43,109.979,25,58.8512,0\O,47,1.49715,44,102.931,43,-166.102,0\C,47,1.80666,44,102.343,43,90.3467,0\H,49,1.09238,47,112.298,44,56.0922,0\H,49,1.09266,47,113.624,44,-65.843,0\H,49,1.09355,47,104.018,44,171.893,0\H,15,2.07547,14,154.959,12,-103.953,0\C,53,1.09289,15,145.377,14,137.074,0\H,54,1.09288,53,109.597,15,-70.5058,0\H,54,1.09356,53,107.625,15,164.737,0\S,54,1.80735,53,106.346,15,44.5462,0\O,57,1.49737,54,104.708,53,-47.1719,0\C,57,1.80689,54,101.074,53,-143.52,0\H,59,1.09306,57,107.695,54,-157.177,0\H,59,1.09313,57,112.214,54,-47.8247,0\H,59,1.09363,57,111.621,54,72.9771,0\H,19,2.16303,17,126.273,14,30.6418,0\C,63,1.09262,19,112.086,17,88.7787,0\H,64,1.09244,63,110.541,19,-146.11,0\H,64,1.09403,63,115.11,19,-19.1412,0\S,64,1.80677,63,111.974,19,100.874,0\O,67,1.49711,64,104.511,63,-67.7462,0\C,67,1.80719,64,93.1955,63,-171.867,0\H,69,1.09226,67,103.857,64,78.3453,0\H,69,1.09284,67,111.714,64,-158.306,0\H,69,1.09321,67,109.858,64,-43.3468,0\H,62,2.16945,59,153.779,57,0.507633,0\C,73,1.09305,62,151.506,59,-115.12,0\H,74,1.09284,73,112.067,62,6.87474,0\H,74,1.09288,73,106.928,62,129.237,0\S,74,1.80676,73,112.771,62,-120.833,0\O,77,1.4975,74,100.759,73,56.1906,0\C,77,1.80697,74,90.5762,73,-53.6716,0\H,79,1.09256,77,110,74,-141.004,0\H,79,1.09343,77,103.456,74,105.838,0\H,79,1.09345,77,110.592,74,-13.0727,0\O,51,2.24469,49,119.23,47,-75.6539,0\S,83,1.49792,51,139.792,49,-80.4055,0\C,84,1.80649,83,98.5268,51,-142.422,0\H,85,1.09294,84,108.801,83,-159.23,0\H,85,1.0932,84,102.828,83,-49.7402,0\H,85,1.09368,84,105.961,83,75.0382,0\C,84,1.80705,83,103.644,51,122.433,0\H,89,1.093,84,99.282,83,64.6084,0\H,89,1.09306,84,107.52,83,-57.6703,0\H,89,1.09309,84,110.604,83,-175.611,0\H,65,2.26181,64,108.654,63,21.5352,0\C,93,1.09262,65,119.924,64,-83.8445,0\H,94,1.09273,93,114.084,65,50.0675,0\H,94,1.09334,93,114.705,65,175.957,0\S,94,1.80729,93,102.256,65,-62.3002,0\O,97,1.49739,94,110.306,93,48.2677,0\C,97,1.807,94,96.1817,93,161.146,0\H,99,1.09181,97,102.859,94,151.558,0\H,99,1.09324,97,108.487,94,-93.082,0\H,99,1.09353,97,108.869,94,25.3519,0\H,96,2.15217,94,143.05,93,110.96,0\C,103,1.09253,96,124.998,94,-146.06,0\H,104,1.09292,103,102.407,96,102.186,0\H,104,1.09353,103,106.932,96,-14.5065,0\S,104,1.80719,103,103.186,96,-145.621,0\O,107,1.49714,104,109.1,103,68.3544,0\C,107,1.80627,104,95.3382,103,-42.5951,0\H,109,1.09278,107,102.271,104,-148.818,0\H,109,1.0934,107,114.205,104,-31.935,0\H,109,1.09351,107,111.535,104,94.7953,0\H,101,2.20583,99,102.669,97,151.266,0\C,113,1.09298,101,107.746,99,-168.633,0\H,114,1.0928,113,109.304,101,-147.332,0\H,114,1.09363,113,103.337,101,-25.7548,0\S,114,1.80768,113,104.607,101,88.8668,0\O,117,1.49658,114,103.893,113,-11.3154,0\C,117,1.80724,114,99.4853,113,97.9789,0\H,119,1.09247,117,106.423,114,-167.49,0\H,119,1.09299,117,104.788,114,66.9252,0\H,119,1.09371,117,113.07,114,-49.9204,0\H,52,2.26279,49,171.898,47,171.399,0\C,123,1.09343,52,119.007,49,81.0444,0\H,124,1.09308,123,114.068,52,-127.664,0\H,124,1.09385,123,116.97,52,-3.0771,0\S,124,1.8069,123,108.361,52,115.274,0\O,127,1.49647,124,92.9711,123,48.5401,0\C,127,1.8077,124,97.7194,123,-57.0165,0\H,129,1.09226,127,111.714,124,28.4876,0\H,129,1.09281,127,105.126,124,-86.1471,0\H,129,1.09307,127,103.419,124,158.621,0\H,2,2.36566,1,108.282,3,-145.36,0\C,133,1.09266,2,146.364,1,-128.181,0\H,134,1.09299,133,112.689,2,-123.417,0\H,134,1.09351,133,113.101,2,111.804,0\S,134,1.80663,133,111.272,2,2.35145,0\O,137,1.49628,134,91.92,133,173.084,0\C,137,1.80756,134,98.0078,133,70.5526,0\H,139,1.09269,137,105.587,134,47.5413,0\H,139,1.09316,137,108.452,134,-71.6323,0\H,139,1.09319,137,108.619,134,163.326,0\H,135,2.35614,134,122.965,133,79.824,0\C,143,1.09261,135,104.76,134,-68.3359,0\H,144,1.09285,143,104.458,135,163.75,0\H,144,1.09314,143,108.139,135,50.7341,0\S,144,1.80695,143,110.158,135,-73.885,0\O,147,1.49738,144,107.341,143,22.983,0\C,147,1.80719,144,92.0325,143,-82.1431,0\H,149,1.09299,147,111.466,144,-171.414,0\H,149,1.09309,147,110.834,144,-47.7736,0\H,149,1.09322,147,112.913,144,74.9846,0\H,22,2.38296,20,115.957,17,-101.49,0\C,153,1.09247,22,103.997,20,148.742,0\H,154,1.09215,153,110.235,22,-35.233,0\H,154,1.09288,153,101.435,22,82.32,0\S,154,1.80683,153,105.825,22,-158.147,0\O,157,1.4965,154,98.2159,153,-47.9154,0\C,157,1.80729,154,93.157,153,-153.081,0\H,159,1.09293,157,114.906,154,-173.465,0\H,159,1.09334,157,102.482,154,62.4441,0\H,159,1.09362,157,107.665,154,-40.8795,0\H,8,2.38373,7,117.9,1,168.736,0\C,163,1.09339,8,113.864,7,-49.6675,0\H,164,1.09288,163,111.378,8,-2.38259,0\H,164,1.09334,163,111.011,8,-131.196,0\S,164,1.80675,163,106.404,8,106.929,0\O,167,1.49757,164,101.454,163,175.57,0\C,167,1.80693,164,98.9879,163,72.3622,0\H,169,1.09238,167,101.281,164,177.005,0\H,169,1.09306,167,110.354,164,64.1543,0\H,169,1.09314,167,109.456,164,-54.7263,0\O,151,2.39965,149,168.29,147,-139.939,0\S,173,1.49634,151,121.102,149,-79.9379,0\C,174,1.80681,173,98.4423,151,-36.8893,0\H,175,1.09264,174,110.492,173,70.2844,0\H,175,1.0929,174,107.57,173,-43.7527,0\H,175,1.09359,174,113.432,173,-164.4,0\C,174,1.80739,173,101.336,151,-137.8,0\H,179,1.09238,174,106.879,173,165.403,0\H,179,1.09279,174,112.349,173,-73.5911,0\H,179,1.09347,174,106.61,173,46.148,0\H,32,2.41524,30,106.087,28,-178.467,0\C,183,1.09296,32,132.564,30,-59.098,0\H,184,1.09261,183,111.116,32,-34.5288,0\H,184,1.09325,183,111.692,32,74.7412,0\S,184,1.80696,183,112.611,32,-158.563,0\O,187,1.49736,184,110.526,183,-66.1108,0\C,187,1.8066,184,95.8759,183,50.5658,0\H,189,1.09208,187,115.865,184,-87.6505,0\H,189,1.09305,187,113.086,184,149.91,0\H,189,1.0937,187,105.538,184,37.1719,0\O,45,2.47664,44,142.877,43,-39.0371,0\S,193,1.49646,45,149.347,44,-141.932,0\C,194,1.8065,193,106.361,45,150.287,0\H,195,1.09331,194,108.352,193,-174.814,0\H,195,1.09331,194,105.496,193,71.7358,0\H,195,1.09347,194,114.769,193,-59.1859,0\C,194,1.80719,193,103.166,45,54.4595,0\H,199,1.09291,194,114.46,193,155.845,0\H,199,1.09298,194,107.994,193,36.4493,0\H,199,1.09315,194,106.756,193,-88.2322,0\H,196,2.42189,195,142.623,194,-48.453,0\C,203,1.09241,196,107.017,195,-48.5927,0\H,204,1.09236,203,107.094,196,170.25,0\H,204,1.09359,203,106.022,196,43.6906,0\S,204,1.80759,203,110.22,196,-68.7451,0\O,207,1.49687,204,105.931,203,59.3407,0\C,207,1.80652,204,97.2446,203,-51.5709,0\H,209,1.09304,207,103.805,204,175.812,0\H,209,1.09315,207,115.521,204,-69.6192,0\H,209,1.09337,207,113.656,204,63.9213,0\H,193,2.46539,45,70.6097,44,-4.18554,0\C,213,1.09277,193,170.83,45,-76.8566,0\H,214,1.0921,213,112.099,193,16.9763,0\H,214,1.09341,213,115.457,193,147.368,0\S,214,1.8065,213,102.467,193,-99.1752,0\O,217,1.49691,214,107.085,213,-69.9303,0\C,217,1.80728,214,94.174,213,179.265,0\H,219,1.0926,217,114.402,214,-60.6707,0\H,219,1.09293,217,104.205,214,62.3344,0\H,219,1.09355,217,99.4053,214,177.277,0\H,221,2.05662,219,152.715,217,12.1107,0\C,223,1.09296,221,139.463,219,60.9649,0\H,224,1.09256,223,112.624,221,-59.4494,0\H,224,1.09383,223,112.629,221,175.797,0\S,224,1.80761,223,103.363,221,55.9299,0\O,227,1.49713,224,102.138,223,175.032,0\C,227,1.80738,224,93.7026,223,72.2177,0\H,229,1.09285,227,101.742,224,-57.1051,0\H,229,1.09306,227,111.632,224,-173.086,0\H,229,1.09322,227,109.918,224,64.5361,0\H,225,2.40642,224,163.861,223,-151.242,0\C,233,1.09317,225,107.004,224,-97.5127,0\H,234,1.09229,233,110.643,225,-30.2,0\H,234,1.09359,233,114.132,225,88.5862,0\S,234,1.80723,233,112.81,225,-148.826,0\O,237,1.49669,234,104.273,233,-156.607,0\C,237,1.80648,234,102.502,233,92.3914,0\H,239,1.09273,237,108.525,234,173.735,0\H,239,1.09276,237,103.099,234,-70.4953,0\H,239,1.09326,237,110.38,234,50.3875,0\H,240,2.22882,239,128.402,237,19.0848,0\C,243,1.09296,240,112.254,239,-98.5223,0\H,244,1.09257,243,118.139,240,137.19,0\H,244,1.09343,243,106.046,240,16.7889,0\S,244,1.80749,243,112.036,240,-90.7091,0\O,247,1.49748,244,101.565,243,171.86,0\C,247,1.80731,244,95.2141,243,-82.2961,0\H,249,1.09255,247,106.987,244,-171.391,0\H,249,1.09284,247,108.707,244,-59.5172,0\H,249,1.09293,247,111.863,244,61.8156,0\O,185,2.55289,184,150.603,183,178.152,0\S,253,1.49678,185,97.253,184,89.4739,0\C,254,1.80676,253,106.894,185,-89.3208,0\H,255,1.09303,254,110.447,253,177.489,0\H,255,1.09336,254,111.562,253,56.7072,0\H,255,1.0935,254,108.233,253,-62.6779,0\C,254,1.80757,253,110.972,185,163.901,0\H,259,1.09265,254,103.757,253,-82.0884,0\H,259,1.09276,254,112.874,253,160.497,0\H,259,1.09401,254,105.964,253,39.2231,0\\\@

 Total job time:  45.24s(wall), 151.20s(cpu) 
 Fri Dec  3 15:11:03 2021

        *************************************************************
        *                                                           *
        *  Thank you very much for using Q-Chem.  Have a nice day.  *
        *                                                           *
        *************************************************************


