                  Welcome to Q-Chem
     A Quantum Leap Into The Future Of Chemistry


 Q-Chem 5.2 (devel), Q-Chem, Inc., Pleasanton, CA (2019)

 Yihan Shao,  Zhengting Gan,  E. Epifanovsky,  A. T. B. Gilbert,  M. Wormit,  
 J. Kussmann,  A. W. Lange,  A. Behn,  Jia Deng,  Xintian Feng,  D. Ghosh,  
 M. Goldey,  P. R. Horn,  L. D. Jacobson,  I. Kaliman,  T. Kus,  A. Landau,  
 Jie Liu,  E. I. Proynov,  R. M. Richard,  R. P. Steele,  E. J. Sundstrom,  
 H. L. Woodcock III,  P. M. Zimmerman,  D. Zuev,  B. Alam,  B. Albrecht,  
 E. Alguire,  S. A. Baeppler,  D. Barton,  Z. Benda,  Y. A. Bernard,  
 E. J. Berquist,  K. B. Bravaya,  H. Burton,  K. Carter-Fenk,  D. Casanova,  
 Chun-Min Chang,  Yunqing Chen,  A. Chien,  K. D. Closser,  M. P. Coons,  
 S. Coriani,  S. Dasgupta,  A. L. Dempwolff,  M. Diedenhofen,  Hainam Do,  
 R. G. Edgar,  Po-Tung Fang,  S. Faraji,  S. Fatehi,  Qingguo Feng,  
 J. Fosso-Tande,  J. Gayvert,  Qinghui Ge,  A. Ghysels,  G. Gidofalvi,  
 J. Gomes,  J. Gonthier,  A. Gunina,  D. Hait,  M. W. D. Hanson-Heine,  
 P. H. P. Harbach,  A. W. Hauser,  M. F. Herbst,  J. E. Herr,  
 E. G. Hohenstein,  Z. C. Holden,  Kerwin Hui,  B. C. Huynh,  T.-C. Jagau,  
 Hyunjun Ji,  B. Kaduk,  K. Khistyaev,  Jaehoon Kim,  P. Klunzinger,  K. Koh,  
 D. Kosenkov,  L. Koulias,  T. Kowalczyk,  C. M. Krauter,  A. Kunitsa,  
 Ka Un Lao,  A. Laurent,  K. V. Lawler,  Joonho Lee,  D. Lefrancois,  
 S. Lehtola,  D. S. Levine,  Yi-Pei Li,  You-Sheng Lin,  Fenglai Liu,  
 Kuan-Yu Liu,  E. Livshits,  M. Loipersberger,  A. Luenser,  P. Manohar,  
 E. Mansoor,  S. F. Manzer,  Shan-Ping Mao,  Yuezhi Mao,  N. Mardirossian,  
 A. V. Marenich,  T. Markovich,  L. A. Martinez-Martinez,  S. A. Maurer,  
 N. J. Mayhall,  S. C. McKenzie,  J.-M. Mewes,  P. Morgante,  A. F. Morrison,  
 J. W. Mullinax,  K. Nanda,  T. S. Nguyen-Beck,  R. Olivares-Amaya,  
 J. A. Parkhill,  S. K. Paul,  F. Pavosevic,  Zheng Pei,  T. M. Perrine,  
 F. Plasser,  P. Pokhilko,  S. Prager,  A. Prociuk,  E. Ramos,  B. Rana,  
 D. R. Rehn,  F. Rob,  M. Scheurer,  M. Schneider,  N. Sergueev,  
 S. M. Sharada,  S. Sharma,  D. W. Small,  T. Stauch,  C. J. Stein,  
 T. Stein,  Yu-Chuan Su,  S. P. Veccham,  Zhen Tao,  A. J. W. Thom,  
 A. Tkatchenko,  T. Tsuchimochi,  N. M. Tubman,  L. Vogt,  M. L. Vidal,  
 O. Vydrov,  M. A. Watson,  J. Wenzel,  M. de Wergifosse,  T. A. Wesolowski,  
 A. White,  J. Witte,  A. Yamada,  Jun Yang,  K. Yao,  S. Yeganeh,  
 S. R. Yost,  Zhi-Qiang You,  A. Zech,  Igor Ying Zhang,  Xing Zhang,  
 Yan Zhao,  Ying Zhu,  B. R. Brooks,  G. K. L. Chan,  C. J. Cramer,  
 M. S. Gordon,  W. J. Hehre,  A. Klamt,  M. W. Schmidt,  C. D. Sherrill,  
 D. G. Truhlar,  A. Aspuru-Guzik,  R. Baer,  A. T. Bell,  N. A. Besley,  
 Jeng-Da Chai,  A. E. DePrince, III,  R. A. DiStasio Jr.,  A. Dreuw,  
 B. D. Dunietz,  T. R. Furlani,  Chao-Ping Hsu,  Yousung Jung,  Jing Kong,  
 D. S. Lambrecht,  WanZhen Liang,  C. Ochsenfeld,  V. A. Rassolov,  
 L. V. Slipchenko,  J. E. Subotnik,  T. Van Voorhis,  J. M. Herbert,  
 A. I. Krylov,  P. M. W. Gill,  M. Head-Gordon

 Contributors to earlier versions of Q-Chem not listed above: 
 R. D. Adamson,  B. Austin,  J. Baker,  G. J. O. Beran,  K. Brandhorst,  
 S. T. Brown,  E. F. C. Byrd,  A. K. Chakraborty,  C.-L. Cheng,  
 Siu Hung Chien,  D. M. Chipman,  D. L. Crittenden,  H. Dachsel,  
 R. J. Doerksen,  A. D. Dutoi,  L. Fusti-Molnar,  W. A. Goddard III,  
 A. Golubeva-Zadorozhnaya,  S. R. Gwaltney,  G. Hawkins,  A. Heyden,  
 S. Hirata,  G. Kedziora,  F. J. Keil,  C. Kelley,  Jihan Kim,  R. A. King,  
 R. Z. Khaliullin,  P. P. Korambath,  W. Kurlancheek,  A. M. Lee,  M. S. Lee,  
 S. V. Levchenko,  Ching Yeh Lin,  D. Liotard,  R. C. Lochan,  I. Lotan,  
 P. E. Maslen,  N. Nair,  D. P. O'Neill,  D. Neuhauser,  E. Neuscamman,  
 C. M. Oana,  R. Olson,  B. Peters,  R. Peverati,  P. A. Pieniazek,  
 Y. M. Rhee,  J. Ritchie,  M. A. Rohrdanz,  E. Rosta,  N. J. Russ,  
 H. F. Schaefer III,  N. E. Schultz,  N. Shenvi,  A. C. Simmonett,  A. Sodt,  
 D. Stuck,  K. S. Thanthiriwatte,  V. Vanovschi,  Tao Wang,  A. Warshel,  
 C. F. Williams,  Q. Wu,  X. Xu,  W. Zhang

 Please cite Q-Chem as follows:
 Y. Shao et al., Mol. Phys. 113, 184-215 (2015)
 DOI: 10.1080/00268976.2014.952696

 Q-Chem 5.2.2 for Intel X86 EM64T Linux

 Parts of Q-Chem use Armadillo 9.800.1 (Horizon Scraper).
 http://arma.sourceforge.net/

 Q-Chem begins on Fri Dec  3 15:22:33 2021  

Host: node023
0

     Scratch files written to /home/ymao90/scratch/r7.00_frame_0033_spade_B3LYP_dp20211203120848//

Checking the input file for inconsistencies... 	...done.

--------------------------------------------------------------
User input:
--------------------------------------------------------------
$molecule
0 1
--
0 1
C    21.95500   15.40300   29.13700  
C    22.53000   14.45300   28.07300  
C    23.35500   15.06000   26.92700  
C    24.38100   16.05600   27.49200  
C    23.74600   17.07800   28.45000  
C    22.95000   16.47200   29.61700  
H    23.77600   14.25600   26.31100  
H    23.24000   13.80800   28.60500  
H    21.06900   15.99000   28.86500  
H    21.63500   14.87100   30.04100  
H    25.08800   15.47500   28.09700  
H    25.00100   16.50500   26.70800  
H    24.54800   17.67800   28.89700  
H    23.19100   17.74000   27.77400  
H    23.70700   16.00300   30.25700  
H    22.41500   17.19900   30.24000  
H    22.65200   15.64700   26.32300  
N    21.50900   13.49600   27.65000  
H    21.07000   13.57700   26.74100  
C    21.15900   12.36000   28.34900  
H    20.72000   11.52800   27.76800  
O    21.21000   12.37000   29.56600  
--
0 1
C    23.18300   20.46600   23.07600  
H    22.50700   20.49800   22.21800  
H    23.79300   21.37300   23.10200  
H    23.74500   19.52800   23.08000  
S    22.02600   20.44000   24.46400  
C    21.44400   22.14500   24.32800  
H    21.98600   22.72700   23.57800  
H    20.36100   22.13800   24.18000  
H    21.63300   22.55800   25.32200  
O    22.99200   20.41600   25.60700  
C    20.53900   22.49500   28.45200  
H    20.91600   22.34500   27.43700  
H    19.59200   22.00700   28.69700  
H    20.41300   23.57900   28.50400  
S    21.81500   22.05400   29.65400  
C    22.08100   20.37800   29.03400  
H    21.06900   19.96900   29.09600  
H    22.43400   20.21900   28.01200  
H    22.72600   19.80600   29.70600  
O    21.20700   21.80100   30.99800  
C    25.77900   22.05500   31.53000  
H    26.30600   22.19600   30.58300  
H    25.61600   21.00400   31.78100  
H    24.79100   22.50500   31.40400  
S    26.52400   22.85300   32.97000  
C    28.04100   21.87200   33.02400  
H    27.94900   20.78700   32.92700  
H    28.59600   22.16500   32.13000  
H    28.49600   22.16000   33.97600  
O    25.68500   22.41600   34.13000  
C    30.04800   12.79500   25.44900  
H    29.09300   13.32100   25.52700  
H    30.37200   12.85800   24.40700  
H    29.89400   11.75300   25.74200  
S    31.32700   13.60600   26.43400  
C    32.57800   12.30300   26.42000  
H    32.04200   11.37300   26.62700  
H    32.97300   12.39100   25.40400  
H    33.25200   12.56000   27.24100  
O    30.63700   13.59900   27.76300  
C    23.97300   21.01900   36.51000  
H    24.71800   21.78800   36.29200  
H    23.54000   21.27400   37.48100  
H    24.36000   19.99800   36.54300  
S    22.56000   21.05900   35.38400  
C    21.71700   22.39600   36.25900  
H    21.40400   21.99800   37.22800  
H    22.36900   23.26800   36.17200  
H    20.83400   22.64500   35.66500  
O    21.65900   19.97900   35.89700  
C    15.89500   14.09000   24.94200  
H    16.79700   13.59600   25.31300  
H    16.03300   15.12100   24.60900  
H    15.11300   14.05400   25.70500  
S    15.20900   13.31300   23.46200  
C    15.15300   11.78500   24.42600  
H    16.12300   11.57400   24.88400  
H    14.38200   11.86600   25.19600  
H    14.82200   10.99800   23.74400  
O    16.36800   13.14000   22.53200  
C    20.17100   17.20000   26.31500  
H    20.51300   16.28500   25.82500  
H    20.97000   17.93800   26.42600  
H    19.73000   17.00200   27.29500  
S    18.96000   17.93300   25.19200  
C    18.78200   19.45200   26.15500  
H    18.32400   19.14200   27.09700  
H    19.78400   19.85700   26.31600  
H    18.15900   20.09400   25.52700  
O    17.73200   17.12800   25.48100  
C    23.35000   9.67400    29.06600  
H    22.32800   9.69000    29.45400  
H    24.04800   9.74200    29.90500  
H    23.68900   10.50100   28.43600  
S    23.84600   8.11700    28.29600  
C    22.51700   8.03600    27.07500  
H    22.52100   7.20100    26.37000  
H    21.67400   7.95800    27.76700  
H    22.56300   9.00500    26.57100  
O    23.56900   7.11100    29.36900  
C    28.04000   18.48500   30.88000  
H    28.95000   18.52600   31.48400  
H    27.82900   19.53100   30.64200  
H    27.33100   17.94200   31.51000  
S    28.49600   17.56800   29.39100  
C    29.98000   18.52400   29.00900  
H    30.33300   18.43600   27.97800  
H    29.80700   19.59700   29.12900  
H    30.75700   18.23800   29.72300  
O    27.47800   18.19200   28.48800  
C    16.39200   13.50300   30.18900  
H    17.09500   14.19100   30.66500  
H    15.60700   14.09300   29.71000  
H    15.95300   12.76400   30.86400  
S    17.31200   12.56700   28.94700  
C    17.78000   14.10000   28.11200  
H    16.87000   14.49300   27.65000  
H    18.21500   14.73600   28.88800  
H    18.44100   13.90000   27.26500  
O    16.22000   12.06700   28.05300  
C    18.02300   6.20900    26.63000  
H    18.13800   7.27500    26.41600  
H    17.49000   5.80500    25.76500  
H    17.49800   6.13000    27.58600  
S    19.59600   5.36800    26.91500  
C    20.30500   5.76600    25.30100  
H    20.41500   6.84000    25.13200  
H    21.26400   5.24900    25.21700  
H    19.62500   5.39200    24.53100  
O    19.35200   3.89400    27.02100  
C    23.85400   12.97300   31.59900  
H    24.85100   13.37200   31.80200  
H    23.83400   12.37600   30.68400  
H    23.06500   13.71800   31.46300  
S    23.39300   12.06400   33.09200  
C    21.99000   11.18300   32.37200  
H    22.28500   10.38900   31.68100  
H    21.42800   10.63800   33.13400  
H    21.32300   11.94100   31.95200  
O    22.67100   13.09900   33.89700  
C    29.00300   12.84700   32.40900  
H    28.81700   13.29900   33.38700  
H    28.10300   12.61500   31.83500  
H    29.57700   11.92900   32.55800  
S    30.09300   13.87600   31.39900  
C    31.64300   13.29800   32.12600  
H    31.76900   12.27200   31.76900  
H    32.41700   14.05800   31.99300  
H    31.34200   13.34600   33.17600  
O    29.91300   15.26600   31.92500  
C    22.94100   18.09300   33.35100  
H    21.91600   18.39500   33.58200  
H    23.66600   18.52800   34.04400  
H    23.11400   18.34500   32.30200  
S    22.97900   16.30100   33.57300  
C    21.91200   16.26200   35.03100  
H    20.86800   16.46300   34.77900  
H    21.83700   15.25700   35.45600  
H    22.33900   16.96700   35.74800  
O    24.40300   16.09000   33.98300  
C    17.24900   13.94100   34.53200  
H    16.80500   14.66200   33.84000  
H    16.63300   13.04200   34.62000  
H    17.44300   14.27200   35.55500  
S    18.86600   13.47400   33.87500  
C    19.28600   15.13900   33.31100  
H    18.64600   15.31000   32.44100  
H    19.14000   15.76700   34.19300  
H    20.32800   15.05400   32.99200  
O    18.59500   12.80200   32.56500  
C    29.08500   17.08900   25.78500  
H    29.13500   17.24300   26.86500  
H    28.04400   16.89900   25.51300  
H    29.79900   16.32700   25.45900  
S    29.66900   18.61100   25.00600  
C    28.44100   19.71200   25.74400  
H    27.42600   19.37800   25.51500  
H    28.66600   19.80300   26.81000  
H    28.63400   20.70100   25.32000  
O    29.30300   18.56500   23.55500  
C    27.65700   16.08000   22.36700  
H    27.05400   16.73600   21.73300  
H    28.02700   16.70600   23.18300  
H    28.52800   15.65400   21.86200  
S    26.71500   14.88400   23.34000  
C    25.36500   16.05200   23.61900  
H    24.59500   15.45600   24.11500  
H    25.74500   16.90400   24.18800  
H    24.97600   16.32800   22.63500  
O    27.37800   14.66200   24.66300  
C    18.89300   10.49800   25.46700  
H    18.00900   11.13500   25.38000  
H    18.88900   10.06200   26.46900  
H    19.74000   11.16400   25.28300  
S    18.72500   9.29000    24.13400  
C    18.13600   10.41500   22.84900  
H    19.05300   10.72300   22.34000  
H    17.59800   9.72200    22.19800  
H    17.60000   11.27200   23.26600  
O    17.43500   8.64300    24.53200  
C    19.19500   9.74300    30.92500  
H    19.25300   9.52200    31.99400  
H    20.12700   10.28900   30.75500  
H    18.39800   10.47500   30.77100  
S    18.91500   8.24000    29.96300  
C    20.23600   7.26100    30.71100  
H    21.06500   7.94700    30.90200  
H    19.99100   6.74500    31.64300  
H    20.41300   6.61900    29.84400  
O    19.39300   8.70200    28.62100  
C    23.00000   8.29100    23.20100  
H    23.00000   8.22300    22.11000  
H    23.97300   8.05300    23.64000  
H    22.21900   7.75400    23.74400  
S    22.63900   10.00600   23.63700  
C    23.54300   10.84200   22.31500  
H    22.90600   10.79000   21.42800  
H    23.65500   11.89500   22.58500  
H    24.49800   10.31100   22.30900  
O    23.50200   10.38500   24.80000  
C    14.27300   9.88000    28.98900  
H    14.69200   10.74800   29.50500  
H    13.55900   10.07700   28.18500  
H    13.61400   9.38000    29.70300  
S    15.46200   8.57800    28.59300  
C    15.88900   9.32900    27.00500  
H    15.16500   10.13000   26.83600  
H    16.91000   9.69700    27.13100  
H    15.84100   8.62700    26.16900  
O    14.60100   7.41800    28.20200  
C    15.18400   17.05100   31.31500  
H    14.33900   16.67800   30.73000  
H    15.88700   16.21500   31.34300  
H    14.82300   17.34000   32.30600  
S    15.92100   18.46500   30.46500  
C    16.19600   17.49200   28.96700  
H    17.17800   17.03100   29.10500  
H    15.36000   16.82900   28.73400  
H    16.20100   18.22300   28.15400  
O    17.34700   18.61600   30.89400  
C    22.98500   15.75800   20.24800  
H    22.90100   16.82500   20.02700  
H    22.28900   15.15600   19.65800  
H    22.82000   15.60000   21.31700  
S    24.66800   15.16300   19.96400  
C    24.67300   15.32700   18.16400  
H    24.69300   16.37600   17.85700  
H    25.52100   14.71200   17.85300  
H    23.77100   14.82800   17.80100  
O    24.67800   13.70000   20.28200  
C    24.60300   23.16500   26.15600  
H    24.77100   22.55500   25.26500  
H    23.64900   22.84700   26.58300  
H    24.63500   24.23500   25.93300  
S    25.94600   22.72000   27.28000  
C    25.31800   21.16200   27.94700  
H    24.30800   21.30600   28.34000  
H    25.31100   20.38600   27.17600  
H    26.00600   20.83600   28.73000  
O    25.66300   23.72000   28.35800  
C    26.75700   12.81800   27.36100  
H    27.82900   12.70400   27.54100  
H    26.33400   11.93200   26.88200  
H    26.47300   13.69700   26.77700  
S    25.89100   12.96900   28.94000  
C    26.89500   14.28700   29.66000  
H    26.47300   14.33100   30.66800  
H    27.94700   13.99200   29.70300  
H    26.77100   15.17400   29.03300  
O    26.18600   11.77200   29.79000  
C    28.64200   8.75200    26.01100  
H    28.40600   8.58800    27.06500  
H    28.53300   7.86700    25.37900  
H    29.69800   8.98100    25.84900  
S    27.62100   10.06200   25.29800  
C    26.33200   8.82400    25.03400  
H    26.66400   8.01100    24.38300  
H    26.04800   8.51000    26.04200  
H    25.51500   9.35100    24.53600  
O    28.19300   10.35700   23.94600  
C    21.72900   14.31300   23.61300  
H    22.45900   13.87400   24.29900  
H    22.10900   14.13700   22.60400  
H    21.58200   15.39300   23.69900  
S    20.10000   13.57500   23.86800  
C    19.11300   14.97000   23.28100  
H    19.01200   14.85400   22.19900  
H    18.18100   14.80200   23.82700  
H    19.52500   15.93400   23.58800  
O    19.91100   13.60500   25.35300  
$end

$rem
JOBTYPE  SP
METHOD  B3LYP
BASIS  6-31+G(D)
SYMMETRY  FALSE
SYM_IGNORE  TRUE
MEM_TOTAL  16000
MEM_STATIC  8000
MAX_SUB_FILE_NUM  16000
BASIS_LIN_DEP_THRESH  6
THRESH  14
SCF_CONVERGENCE  8
GEN_SCFMAN  TRUE
SCF_GUESS  SAD
FD_MAT_VEC_PROD  FALSE
XC_GRID  000075000302
NL_GRID  1
MAX_SCF_CYCLES  200
ENV_METHOD  B3LYP
GEN_SCFMAN_EMBED  TRUE
SPADE_PARTITION  TRUE
$end

$development
embedding_early_stop  1
$end

--------------------------------------------------------------
 ----------------------------------------------------------------
             Standard Nuclear Orientation (Angstroms)
    I     Atom           X                Y                Z
 ----------------------------------------------------------------
    1      C      21.9550000000    15.4030000000    29.1370000000
    2      C      22.5300000000    14.4530000000    28.0730000000
    3      C      23.3550000000    15.0600000000    26.9270000000
    4      C      24.3810000000    16.0560000000    27.4920000000
    5      C      23.7460000000    17.0780000000    28.4500000000
    6      C      22.9500000000    16.4720000000    29.6170000000
    7      H      23.7760000000    14.2560000000    26.3110000000
    8      H      23.2400000000    13.8080000000    28.6050000000
    9      H      21.0690000000    15.9900000000    28.8650000000
   10      H      21.6350000000    14.8710000000    30.0410000000
   11      H      25.0880000000    15.4750000000    28.0970000000
   12      H      25.0010000000    16.5050000000    26.7080000000
   13      H      24.5480000000    17.6780000000    28.8970000000
   14      H      23.1910000000    17.7400000000    27.7740000000
   15      H      23.7070000000    16.0030000000    30.2570000000
   16      H      22.4150000000    17.1990000000    30.2400000000
   17      H      22.6520000000    15.6470000000    26.3230000000
   18      N      21.5090000000    13.4960000000    27.6500000000
   19      H      21.0700000000    13.5770000000    26.7410000000
   20      C      21.1590000000    12.3600000000    28.3490000000
   21      H      20.7200000000    11.5280000000    27.7680000000
   22      O      21.2100000000    12.3700000000    29.5660000000
   23      C      23.1830000000    20.4660000000    23.0760000000
   24      H      22.5070000000    20.4980000000    22.2180000000
   25      H      23.7930000000    21.3730000000    23.1020000000
   26      H      23.7450000000    19.5280000000    23.0800000000
   27      S      22.0260000000    20.4400000000    24.4640000000
   28      C      21.4440000000    22.1450000000    24.3280000000
   29      H      21.9860000000    22.7270000000    23.5780000000
   30      H      20.3610000000    22.1380000000    24.1800000000
   31      H      21.6330000000    22.5580000000    25.3220000000
   32      O      22.9920000000    20.4160000000    25.6070000000
   33      C      20.5390000000    22.4950000000    28.4520000000
   34      H      20.9160000000    22.3450000000    27.4370000000
   35      H      19.5920000000    22.0070000000    28.6970000000
   36      H      20.4130000000    23.5790000000    28.5040000000
   37      S      21.8150000000    22.0540000000    29.6540000000
   38      C      22.0810000000    20.3780000000    29.0340000000
   39      H      21.0690000000    19.9690000000    29.0960000000
   40      H      22.4340000000    20.2190000000    28.0120000000
   41      H      22.7260000000    19.8060000000    29.7060000000
   42      O      21.2070000000    21.8010000000    30.9980000000
   43      C      25.7790000000    22.0550000000    31.5300000000
   44      H      26.3060000000    22.1960000000    30.5830000000
   45      H      25.6160000000    21.0040000000    31.7810000000
   46      H      24.7910000000    22.5050000000    31.4040000000
   47      S      26.5240000000    22.8530000000    32.9700000000
   48      C      28.0410000000    21.8720000000    33.0240000000
   49      H      27.9490000000    20.7870000000    32.9270000000
   50      H      28.5960000000    22.1650000000    32.1300000000
   51      H      28.4960000000    22.1600000000    33.9760000000
   52      O      25.6850000000    22.4160000000    34.1300000000
   53      C      30.0480000000    12.7950000000    25.4490000000
   54      H      29.0930000000    13.3210000000    25.5270000000
   55      H      30.3720000000    12.8580000000    24.4070000000
   56      H      29.8940000000    11.7530000000    25.7420000000
   57      S      31.3270000000    13.6060000000    26.4340000000
   58      C      32.5780000000    12.3030000000    26.4200000000
   59      H      32.0420000000    11.3730000000    26.6270000000
   60      H      32.9730000000    12.3910000000    25.4040000000
   61      H      33.2520000000    12.5600000000    27.2410000000
   62      O      30.6370000000    13.5990000000    27.7630000000
   63      C      23.9730000000    21.0190000000    36.5100000000
   64      H      24.7180000000    21.7880000000    36.2920000000
   65      H      23.5400000000    21.2740000000    37.4810000000
   66      H      24.3600000000    19.9980000000    36.5430000000
   67      S      22.5600000000    21.0590000000    35.3840000000
   68      C      21.7170000000    22.3960000000    36.2590000000
   69      H      21.4040000000    21.9980000000    37.2280000000
   70      H      22.3690000000    23.2680000000    36.1720000000
   71      H      20.8340000000    22.6450000000    35.6650000000
   72      O      21.6590000000    19.9790000000    35.8970000000
   73      C      15.8950000000    14.0900000000    24.9420000000
   74      H      16.7970000000    13.5960000000    25.3130000000
   75      H      16.0330000000    15.1210000000    24.6090000000
   76      H      15.1130000000    14.0540000000    25.7050000000
   77      S      15.2090000000    13.3130000000    23.4620000000
   78      C      15.1530000000    11.7850000000    24.4260000000
   79      H      16.1230000000    11.5740000000    24.8840000000
   80      H      14.3820000000    11.8660000000    25.1960000000
   81      H      14.8220000000    10.9980000000    23.7440000000
   82      O      16.3680000000    13.1400000000    22.5320000000
   83      C      20.1710000000    17.2000000000    26.3150000000
   84      H      20.5130000000    16.2850000000    25.8250000000
   85      H      20.9700000000    17.9380000000    26.4260000000
   86      H      19.7300000000    17.0020000000    27.2950000000
   87      S      18.9600000000    17.9330000000    25.1920000000
   88      C      18.7820000000    19.4520000000    26.1550000000
   89      H      18.3240000000    19.1420000000    27.0970000000
   90      H      19.7840000000    19.8570000000    26.3160000000
   91      H      18.1590000000    20.0940000000    25.5270000000
   92      O      17.7320000000    17.1280000000    25.4810000000
   93      C      23.3500000000     9.6740000000    29.0660000000
   94      H      22.3280000000     9.6900000000    29.4540000000
   95      H      24.0480000000     9.7420000000    29.9050000000
   96      H      23.6890000000    10.5010000000    28.4360000000
   97      S      23.8460000000     8.1170000000    28.2960000000
   98      C      22.5170000000     8.0360000000    27.0750000000
   99      H      22.5210000000     7.2010000000    26.3700000000
  100      H      21.6740000000     7.9580000000    27.7670000000
  101      H      22.5630000000     9.0050000000    26.5710000000
  102      O      23.5690000000     7.1110000000    29.3690000000
  103      C      28.0400000000    18.4850000000    30.8800000000
  104      H      28.9500000000    18.5260000000    31.4840000000
  105      H      27.8290000000    19.5310000000    30.6420000000
  106      H      27.3310000000    17.9420000000    31.5100000000
  107      S      28.4960000000    17.5680000000    29.3910000000
  108      C      29.9800000000    18.5240000000    29.0090000000
  109      H      30.3330000000    18.4360000000    27.9780000000
  110      H      29.8070000000    19.5970000000    29.1290000000
  111      H      30.7570000000    18.2380000000    29.7230000000
  112      O      27.4780000000    18.1920000000    28.4880000000
  113      C      16.3920000000    13.5030000000    30.1890000000
  114      H      17.0950000000    14.1910000000    30.6650000000
  115      H      15.6070000000    14.0930000000    29.7100000000
  116      H      15.9530000000    12.7640000000    30.8640000000
  117      S      17.3120000000    12.5670000000    28.9470000000
  118      C      17.7800000000    14.1000000000    28.1120000000
  119      H      16.8700000000    14.4930000000    27.6500000000
  120      H      18.2150000000    14.7360000000    28.8880000000
  121      H      18.4410000000    13.9000000000    27.2650000000
  122      O      16.2200000000    12.0670000000    28.0530000000
  123      C      18.0230000000     6.2090000000    26.6300000000
  124      H      18.1380000000     7.2750000000    26.4160000000
  125      H      17.4900000000     5.8050000000    25.7650000000
  126      H      17.4980000000     6.1300000000    27.5860000000
  127      S      19.5960000000     5.3680000000    26.9150000000
  128      C      20.3050000000     5.7660000000    25.3010000000
  129      H      20.4150000000     6.8400000000    25.1320000000
  130      H      21.2640000000     5.2490000000    25.2170000000
  131      H      19.6250000000     5.3920000000    24.5310000000
  132      O      19.3520000000     3.8940000000    27.0210000000
  133      C      23.8540000000    12.9730000000    31.5990000000
  134      H      24.8510000000    13.3720000000    31.8020000000
  135      H      23.8340000000    12.3760000000    30.6840000000
  136      H      23.0650000000    13.7180000000    31.4630000000
  137      S      23.3930000000    12.0640000000    33.0920000000
  138      C      21.9900000000    11.1830000000    32.3720000000
  139      H      22.2850000000    10.3890000000    31.6810000000
  140      H      21.4280000000    10.6380000000    33.1340000000
  141      H      21.3230000000    11.9410000000    31.9520000000
  142      O      22.6710000000    13.0990000000    33.8970000000
  143      C      29.0030000000    12.8470000000    32.4090000000
  144      H      28.8170000000    13.2990000000    33.3870000000
  145      H      28.1030000000    12.6150000000    31.8350000000
  146      H      29.5770000000    11.9290000000    32.5580000000
  147      S      30.0930000000    13.8760000000    31.3990000000
  148      C      31.6430000000    13.2980000000    32.1260000000
  149      H      31.7690000000    12.2720000000    31.7690000000
  150      H      32.4170000000    14.0580000000    31.9930000000
  151      H      31.3420000000    13.3460000000    33.1760000000
  152      O      29.9130000000    15.2660000000    31.9250000000
  153      C      22.9410000000    18.0930000000    33.3510000000
  154      H      21.9160000000    18.3950000000    33.5820000000
  155      H      23.6660000000    18.5280000000    34.0440000000
  156      H      23.1140000000    18.3450000000    32.3020000000
  157      S      22.9790000000    16.3010000000    33.5730000000
  158      C      21.9120000000    16.2620000000    35.0310000000
  159      H      20.8680000000    16.4630000000    34.7790000000
  160      H      21.8370000000    15.2570000000    35.4560000000
  161      H      22.3390000000    16.9670000000    35.7480000000
  162      O      24.4030000000    16.0900000000    33.9830000000
  163      C      17.2490000000    13.9410000000    34.5320000000
  164      H      16.8050000000    14.6620000000    33.8400000000
  165      H      16.6330000000    13.0420000000    34.6200000000
  166      H      17.4430000000    14.2720000000    35.5550000000
  167      S      18.8660000000    13.4740000000    33.8750000000
  168      C      19.2860000000    15.1390000000    33.3110000000
  169      H      18.6460000000    15.3100000000    32.4410000000
  170      H      19.1400000000    15.7670000000    34.1930000000
  171      H      20.3280000000    15.0540000000    32.9920000000
  172      O      18.5950000000    12.8020000000    32.5650000000
  173      C      29.0850000000    17.0890000000    25.7850000000
  174      H      29.1350000000    17.2430000000    26.8650000000
  175      H      28.0440000000    16.8990000000    25.5130000000
  176      H      29.7990000000    16.3270000000    25.4590000000
  177      S      29.6690000000    18.6110000000    25.0060000000
  178      C      28.4410000000    19.7120000000    25.7440000000
  179      H      27.4260000000    19.3780000000    25.5150000000
  180      H      28.6660000000    19.8030000000    26.8100000000
  181      H      28.6340000000    20.7010000000    25.3200000000
  182      O      29.3030000000    18.5650000000    23.5550000000
  183      C      27.6570000000    16.0800000000    22.3670000000
  184      H      27.0540000000    16.7360000000    21.7330000000
  185      H      28.0270000000    16.7060000000    23.1830000000
  186      H      28.5280000000    15.6540000000    21.8620000000
  187      S      26.7150000000    14.8840000000    23.3400000000
  188      C      25.3650000000    16.0520000000    23.6190000000
  189      H      24.5950000000    15.4560000000    24.1150000000
  190      H      25.7450000000    16.9040000000    24.1880000000
  191      H      24.9760000000    16.3280000000    22.6350000000
  192      O      27.3780000000    14.6620000000    24.6630000000
  193      C      18.8930000000    10.4980000000    25.4670000000
  194      H      18.0090000000    11.1350000000    25.3800000000
  195      H      18.8890000000    10.0620000000    26.4690000000
  196      H      19.7400000000    11.1640000000    25.2830000000
  197      S      18.7250000000     9.2900000000    24.1340000000
  198      C      18.1360000000    10.4150000000    22.8490000000
  199      H      19.0530000000    10.7230000000    22.3400000000
  200      H      17.5980000000     9.7220000000    22.1980000000
  201      H      17.6000000000    11.2720000000    23.2660000000
  202      O      17.4350000000     8.6430000000    24.5320000000
  203      C      19.1950000000     9.7430000000    30.9250000000
  204      H      19.2530000000     9.5220000000    31.9940000000
  205      H      20.1270000000    10.2890000000    30.7550000000
  206      H      18.3980000000    10.4750000000    30.7710000000
  207      S      18.9150000000     8.2400000000    29.9630000000
  208      C      20.2360000000     7.2610000000    30.7110000000
  209      H      21.0650000000     7.9470000000    30.9020000000
  210      H      19.9910000000     6.7450000000    31.6430000000
  211      H      20.4130000000     6.6190000000    29.8440000000
  212      O      19.3930000000     8.7020000000    28.6210000000
  213      C      23.0000000000     8.2910000000    23.2010000000
  214      H      23.0000000000     8.2230000000    22.1100000000
  215      H      23.9730000000     8.0530000000    23.6400000000
  216      H      22.2190000000     7.7540000000    23.7440000000
  217      S      22.6390000000    10.0060000000    23.6370000000
  218      C      23.5430000000    10.8420000000    22.3150000000
  219      H      22.9060000000    10.7900000000    21.4280000000
  220      H      23.6550000000    11.8950000000    22.5850000000
  221      H      24.4980000000    10.3110000000    22.3090000000
  222      O      23.5020000000    10.3850000000    24.8000000000
  223      C      14.2730000000     9.8800000000    28.9890000000
  224      H      14.6920000000    10.7480000000    29.5050000000
  225      H      13.5590000000    10.0770000000    28.1850000000
  226      H      13.6140000000     9.3800000000    29.7030000000
  227      S      15.4620000000     8.5780000000    28.5930000000
  228      C      15.8890000000     9.3290000000    27.0050000000
  229      H      15.1650000000    10.1300000000    26.8360000000
  230      H      16.9100000000     9.6970000000    27.1310000000
  231      H      15.8410000000     8.6270000000    26.1690000000
  232      O      14.6010000000     7.4180000000    28.2020000000
  233      C      15.1840000000    17.0510000000    31.3150000000
  234      H      14.3390000000    16.6780000000    30.7300000000
  235      H      15.8870000000    16.2150000000    31.3430000000
  236      H      14.8230000000    17.3400000000    32.3060000000
  237      S      15.9210000000    18.4650000000    30.4650000000
  238      C      16.1960000000    17.4920000000    28.9670000000
  239      H      17.1780000000    17.0310000000    29.1050000000
  240      H      15.3600000000    16.8290000000    28.7340000000
  241      H      16.2010000000    18.2230000000    28.1540000000
  242      O      17.3470000000    18.6160000000    30.8940000000
  243      C      22.9850000000    15.7580000000    20.2480000000
  244      H      22.9010000000    16.8250000000    20.0270000000
  245      H      22.2890000000    15.1560000000    19.6580000000
  246      H      22.8200000000    15.6000000000    21.3170000000
  247      S      24.6680000000    15.1630000000    19.9640000000
  248      C      24.6730000000    15.3270000000    18.1640000000
  249      H      24.6930000000    16.3760000000    17.8570000000
  250      H      25.5210000000    14.7120000000    17.8530000000
  251      H      23.7710000000    14.8280000000    17.8010000000
  252      O      24.6780000000    13.7000000000    20.2820000000
  253      C      24.6030000000    23.1650000000    26.1560000000
  254      H      24.7710000000    22.5550000000    25.2650000000
  255      H      23.6490000000    22.8470000000    26.5830000000
  256      H      24.6350000000    24.2350000000    25.9330000000
  257      S      25.9460000000    22.7200000000    27.2800000000
  258      C      25.3180000000    21.1620000000    27.9470000000
  259      H      24.3080000000    21.3060000000    28.3400000000
  260      H      25.3110000000    20.3860000000    27.1760000000
  261      H      26.0060000000    20.8360000000    28.7300000000
  262      O      25.6630000000    23.7200000000    28.3580000000
  263      C      26.7570000000    12.8180000000    27.3610000000
  264      H      27.8290000000    12.7040000000    27.5410000000
  265      H      26.3340000000    11.9320000000    26.8820000000
  266      H      26.4730000000    13.6970000000    26.7770000000
  267      S      25.8910000000    12.9690000000    28.9400000000
  268      C      26.8950000000    14.2870000000    29.6600000000
  269      H      26.4730000000    14.3310000000    30.6680000000
  270      H      27.9470000000    13.9920000000    29.7030000000
  271      H      26.7710000000    15.1740000000    29.0330000000
  272      O      26.1860000000    11.7720000000    29.7900000000
  273      C      28.6420000000     8.7520000000    26.0110000000
  274      H      28.4060000000     8.5880000000    27.0650000000
  275      H      28.5330000000     7.8670000000    25.3790000000
  276      H      29.6980000000     8.9810000000    25.8490000000
  277      S      27.6210000000    10.0620000000    25.2980000000
  278      C      26.3320000000     8.8240000000    25.0340000000
  279      H      26.6640000000     8.0110000000    24.3830000000
  280      H      26.0480000000     8.5100000000    26.0420000000
  281      H      25.5150000000     9.3510000000    24.5360000000
  282      O      28.1930000000    10.3570000000    23.9460000000
  283      C      21.7290000000    14.3130000000    23.6130000000
  284      H      22.4590000000    13.8740000000    24.2990000000
  285      H      22.1090000000    14.1370000000    22.6040000000
  286      H      21.5820000000    15.3930000000    23.6990000000
  287      S      20.1000000000    13.5750000000    23.8680000000
  288      C      19.1130000000    14.9700000000    23.2810000000
  289      H      19.0120000000    14.8540000000    22.1990000000
  290      H      18.1810000000    14.8020000000    23.8270000000
  291      H      19.5250000000    15.9340000000    23.5880000000
  292      O      19.9110000000    13.6050000000    25.3530000000
 ----------------------------------------------------------------
 Nuclear Repulsion Energy =       47435.76305287 hartrees
 There are      602 alpha and      602 beta electrons
 Requested basis set is 6-31+G(d)
 There are 962 shells and 2681 basis functions

 Total QAlloc Memory Limit  16000 MB
 Mega-Array Size      7821 MB
 MEM_STATIC part      8000 MB
 A cutoff of  1.0D-14 yielded 172707 shell pairs
 There are   1498059 function pairs
 Smallest overlap matrix eigenvalue = 6.37E-07
 Linear dependence detected in AO basis
 Tighter screening thresholds may be required for diffuse basis sets
 Use S2THRESH > 14 and THRESH = 14 in case of SCF convergence issues
 Number of orthogonalized atomic orbitals = 2679
 Maximum deviation from orthogonality = 1.415E-10

 Scale SEOQF with 1.000000e-03/1.000000e-03/1.000000e-03

 Standard Electronic Orientation quadrupole field applied
 Nucleus-field energy     =    -0.0000005944 hartrees
 Guess from superposition of atomic densities
 Warning:  Energy on first SCF cycle will be non-variational
 SAD guess density has 1204.000002 electrons

 -----------------------------------------------------------------------
  General SCF calculation program by
  Eric Jon Sundstrom, Paul Horn, Yuezhi Mao, Dmitri Zuev, Alec White,
  David Stuck, Shaama M.S., Shane Yost, Joonho Lee, David Small,
  Daniel Levine, Susi Lehtola, Hugh Burton, Evgeny Epifanovsky,
  Bang C. Huynh
 -----------------------------------------------------------------------
=================================================
        Doing projection-based embedding         
      F. Manby et al. JCTC, 8, 2564 (2012)       
=================================================

****************************************************
   Low-level SCF calculation for the whole system   
****************************************************
----------------------------------------------
 Summary of the low-level theory: 
 Exchange:     0.2000 Hartree-Fock + 0.0800 Slater + 0.7200 B88
 Correlation:  0.1900 VWN1RPA + 0.8100 LYP
 Using Euler-Maclaurin-Lebedev (75,302) quadrature formula
----------------------------------------------
 using 16 threads for integral computing
 -------------------------------------------------------
 OpenMP Integral computing Module                
 Release: version 2.0, May 2017, Q-Chem Inc. Pleasanton 
 -------------------------------------------------------
 A restricted SCF calculation will be
 performed using DIIS
 SCF converges when DIIS error is below 1.0e-08
 ---------------------------------------
  Cycle       Energy         DIIS error
 ---------------------------------------
    1  -15359.9926022774      1.35e-02  
    2  -15335.8535967826      2.50e-03  
    3  -15315.6915553800      5.17e-03  
    4  -15332.4910771822      2.07e-03  
    5  -15338.5420125393      1.13e-03  
    6  -15340.5803124460      3.71e-04  
    7  -15340.6272855947      3.37e-04  
    8  -15340.7013031361      1.01e-04  
    9  -15340.7082232071      5.02e-05  
   10  -15340.7104922298      2.79e-05  
   11  -15340.7110847474      1.48e-05  
   12  -15340.7112785132      5.43e-06  
   13  -15340.7113040256      1.54e-06  
   14  -15340.7113057695      5.45e-07  
   15  -15340.7113059838      2.00e-07  
   16  -15340.7113060114      7.08e-08  
   17  -15340.7113060146      2.72e-08  
   18  -15340.7113060153      7.28e-09  Convergence criterion met
 ---------------------------------------
 SCF time:   CPU 216531.54s  wall 13690.00s 
 SCF   energy in the final basis set =   -15340.7113060153
 Total energy in the final basis set =   -15340.7113060153

****************************************************
             Start embedding calculation            
****************************************************
----------------------------------------------
 Summary of the high-level theory: 
 Exchange:     0.2000 Hartree-Fock + 0.0800 Slater + 0.7200 B88
 Correlation:  0.1900 VWN1RPA + 0.8100 LYP
 Using Euler-Maclaurin-Lebedev (75,302) quadrature formula
----------------------------------------------
Doing R-in-R Embedding Calculation
Number of fragments: 2
Embedded fragment(s): 1 
NOcc for each fragment
           35
          567
NBasis for each fragment
          197
         2484
Variational space of the embedded problem: 
NOcc (active)  = 35
NOcc (fixed)   = 567
NVir (total)   = 2077
Read converged orbitals from disk
=========================================================
       Doing SPADE partition for the orbital space       
     D. CLaudino and N. Mayhall JCTC 15, 1053 (2019)     
=========================================================
SPADE singular values:
 1.0000 1.0000 1.0000 1.0000 1.0000 1.0000 1.0000 1.0000 1.0000 0.9999
 0.9998 0.9997 0.9996 0.9996 0.9995 0.9995 0.9993 0.9991 0.9986 0.9978
 0.9974 0.9971 0.9967 0.9960 0.9957 0.9951 0.9945 0.9941 0.9937 0.9927
 0.9921 0.9915 0.9888 0.9851 0.9761 0.2462 0.1880 0.1660 0.1577 0.1466
 0.1440 0.1388 0.1272 0.1217 0.1049 0.0968 0.0940 0.0872 0.0786 0.0673
 0.0637 0.0548 0.0509 0.0469 0.0453 0.0419 0.0381 0.0340 0.0316 0.0290
 0.0284 0.0276 0.0249 0.0233 0.0206 0.0203 0.0192 0.0187 0.0182 0.0173
 0.0169 0.0156 0.0152 0.0147 0.0134 0.0130 0.0121 0.0118 0.0111 0.0101
 0.0093 0.0093 0.0087 0.0081 0.0078 0.0072 0.0067 0.0066 0.0064 0.0061
 0.0059 0.0055 0.0052 0.0050 0.0049 0.0046 0.0044 0.0043 0.0041 0.0036
 0.0036 0.0034 0.0032 0.0031 0.0029 0.0028 0.0027 0.0026 0.0024 0.0023
 0.0023 0.0022 0.0021 0.0020 0.0019 0.0018 0.0018 0.0017 0.0015 0.0015
 0.0014 0.0014 0.0014 0.0013 0.0013 0.0012 0.0011 0.0011 0.0010 0.0009
 0.0009 0.0009 0.0009 0.0009 0.0008 0.0008 0.0007 0.0007 0.0007 0.0007
 0.0006 0.0006 0.0006 0.0006 0.0006 0.0005 0.0005 0.0005 0.0005 0.0004
 0.0004 0.0004 0.0003 0.0003 0.0003 0.0003 0.0003 0.0003 0.0003 0.0003
 0.0003 0.0003 0.0002 0.0002 0.0002 0.0002 0.0002 0.0002 0.0002 0.0002
 0.0002 0.0002 0.0002 0.0002 0.0001 0.0001 0.0001 0.0001 0.0001 0.0001
 0.0001 0.0001 0.0001 0.0001 0.0001 0.0001 0.0001 0.0001 0.0001 0.0001
 0.0001 0.0001 0.0001 0.0001 0.0001 0.0000 0.0000
Early stop requested!
567 environment occs will be part of frozen-core in future post-HF calculations
 
 --------------------------------------------------------------
 
                    Orbital Energies (a.u.)
 --------------------------------------------------------------
 
 Alpha MOs
 -- Occupied --
 -0.5084  -0.5375  -0.4760  -0.4735  -0.4551  -0.5045  -0.4864  -0.4787
 -0.4527  -0.4860  -0.4683  -0.4720  -0.4787  -0.4515  -0.4411  -0.4881
 -0.4908  -0.5149  -0.5100  -0.4613  -0.5214  -0.5260  -0.4874  -0.6363
 -0.5622  -0.5168  -0.4854  -0.5464  -0.5496  -0.6648  -0.5370  -0.5760
 -0.5593  -0.5450  -0.5611  -0.5690  -0.5541  -0.6457  -0.6157  -0.4973
 -0.5643  -0.5377  -0.5046  -0.5167  -0.5467  -0.5483  -0.5799  -0.6276
 -0.5910  -0.5613  -0.5180  -0.6477  -0.5916  -0.6029  -0.5799  -0.7204
 -0.6468  -0.6455  -0.8654  -0.8570  -0.8568  -0.7206  -0.6754  -0.6933
 -0.6255  -1.1864  -0.6536  -0.9828  -0.6513  -0.9219  -1.0801  -0.8626
 -0.9707  -1.0393  -0.8833  -1.0123  -0.8025  -0.7974  -0.9876  -1.0820
 -0.9734  -1.3232  -1.0546  -1.2174  -0.9166  -1.0278  -0.8231  -0.7704
 -1.7463  -1.2113  -1.3346  -2.2438  -1.5138  -1.6458  -2.3279  -1.3659
 -1.4796  -1.5916  -0.9773  -5.2583  -1.6632  -1.7203  -0.9838  -1.2816
 -1.7230  -2.9414  -1.2688  -2.2034  -1.5420  -1.8452  -1.6047  -1.1471
 -1.6129  -1.3228  -1.1828  -1.3748  -1.2827  -1.4417  -1.1626  -1.1411
 -1.3474  -1.4063  -1.3197  -1.6333  -1.6771  -1.8813  -1.3898  -1.5314
 -1.2804  -1.7574  -1.5092  -1.6058  -1.3361  -1.5751  -1.4543  -1.2815
 -1.7185  -1.6868  -1.6985  -1.2955  -1.9246  -1.7063  -2.2937  -2.1924
 -1.9878  -1.4059  -1.8026  -1.9750  -1.7286  -1.5711  -1.6690  -1.8609
 -2.3093  -1.9873  -1.8216  -2.0474  -1.5942  -1.9762  -1.7498  -1.7997
 -1.6927  -2.6307  -5.9565  -5.9865  -6.4746  -5.9723  -5.9800  -5.9496
 -5.9757  -5.9396  -6.6837  -5.8866  -5.8520  -5.9207  -5.9922  -5.9980
 -5.9830  -5.9317  -5.8890  -5.9671  -6.0369  -5.9983  -5.9634  -5.9252
 -5.7973  -5.9617  -5.9571  -6.3852  -5.9517  -5.9560  -5.5237 -13.7187
 -1.6172  -7.1169  -3.0932  -9.1826 -45.4028  -1.7318  -1.7201  -7.9268
 -1.8433  -4.0294  -6.9703  -6.5138  -2.0851  -1.4841  -1.6083  -3.8571
 -3.3744 -15.0430  -2.2716  -4.8372  -3.5816  -1.9384  -6.3476  -1.3093
 -8.0770  -1.3086 -74.9656  -3.9421  -1.7101 -13.1298 -13.4778 -77.8175
 -8.3853  -2.9224  -1.8256  -1.3388  -6.0581  -7.1529  -1.7701  -4.5271
 -4.0222 -12.2147  -1.0876  -5.7679  -1.2391  -1.7394  -3.3807 -16.7599
 -2.2980  -5.4964  -3.3362  -1.4756  -1.4458  -1.4190 -11.0523 -11.8315
-15.4420  -1.4908 -23.9910 -76.1055  -2.2300 -68.4207 -13.9608  -9.1864
 -1.7165 -10.7641  -4.8233  -2.4206  -1.2449  -1.5970  -9.8277  -5.4886
 -5.6587  -5.4753  -5.9785  -1.1965  -7.8855  -7.4080  -5.9810  -1.2636
 -1.3053 -16.2674 -10.9169  -0.9886  -5.1161 -10.6871  -4.2423 -19.8231
-64.4432  -2.9413 -10.5100 -53.1614 -12.9870  -2.4679  -9.1836  -5.0585
 -2.5925  -7.9680  -1.7074  -1.5044  -3.3334  -1.4092  -3.5979  -5.8340
 -1.6162 -16.2861  -7.8413  -1.1398 -19.5315 -20.1903 -29.6826  -1.2301
-14.0663  -0.9633 -63.4278  -3.1677 -48.7260  -9.6341  -2.6297  -4.0053
 -4.5317  -4.3978  -4.3067  -5.3903 -10.0086  -3.2136  -8.6513 -11.6406
-15.5258  -4.7373  -7.4069 -19.7252  -6.2854  -3.7073 -23.4495  -7.1605
 -9.9827 -25.1226  -5.5287  -5.5647  -8.0316  -3.4942  -5.2695  -3.8202
 -7.8672  -3.2779  -6.0561  -9.1130  -4.3281  -4.8374  -2.3859 -17.6984
 -5.2404  -4.9389 -10.2764 -10.4848 -14.1896  -4.9642  -7.4742  -5.8910
 -4.3485  -9.2212  -6.1347 -11.9367  -9.4150 -16.3159  -9.9284  -4.5274
 -1.4403  -8.8714  -9.9132  -3.3934 -11.9964 -10.2966  -8.5547 -14.0830
 -7.3687  -1.9157  -1.5876  -8.5177  -2.5611  -4.2523  -3.1494  -3.9775
-23.4698 -13.0766 -12.4522 -38.8281  -9.0358  -7.9801 -13.5654  -3.6370
 -3.8726  -7.1450  -8.4673  -4.9866  -6.2089  -7.4886  -3.6401  -8.5726
-32.9934  -2.3452 -12.1324  -6.3342 -10.3711  -6.3337  -4.4145  -6.1855
 -9.8957  -8.0465  -2.0375  -3.9741  -4.7660  -4.9934  -5.8467  -5.0481
-10.8007 -14.7417  -4.0945  -3.7977  -4.4562  -7.7575  -4.2242  -2.6262
 -2.8991  -8.4776  -4.7983 -11.5286  -7.4892 -11.3000 -10.2361  -4.4002
 -7.5606  -9.4602  -5.2542 -34.9668 -13.3388  -9.9945  -5.4680 -12.9671
 -6.6474  -7.4983 -12.6082  -8.9573 -14.3725  -2.8594  -9.6176  -5.7573
 -7.2310  -5.0128 -32.2729 -11.3522  -4.1579  -3.3917 -28.1434 -15.0725
-12.0909 -13.0833  -7.6611  -6.7276 -21.9951  -2.6644  -2.0108 -17.9643
-28.0300  -9.6701 -11.2310  -8.0551  -5.1851 -10.9630 -18.9118 -16.4543
 -1.0609  -5.6525  -8.5632  -1.5506  -6.4621  -2.3829 -28.8228  -2.1997
 -3.1564 -28.7392  -5.0290  -8.7829  -4.1372  -3.5426 -14.1145  -9.8230
 -5.6410  -6.7538 -13.3747  -6.6073  -1.0728  -6.3473  -5.5072 -10.6639
 -7.3935  -1.5172  -2.8498  -2.1365 -10.7308  -7.5466  -8.4691  -2.5511
-21.2675 -20.9552 -71.1408 -48.5174  -7.0128  -4.1904  -5.9024  -1.3830
-27.6674 -59.2195  -0.9879 -10.8608  -2.7889 -19.6686 -58.8457  -8.3562
-41.7995 -76.7207 -17.8753 -12.1406 -12.1528  -7.3121  -3.3331  -9.8143
-16.0067  -5.1210  -3.1980 -11.0911  -5.1874  -6.8513 -19.2729  -7.1859
 -6.2104 -15.0757  -2.8825 -10.0271 -11.7003  -6.7656  -9.4275  -7.8064
-13.0607 -37.7083 -19.9940  -7.9111 -10.5986 -12.7698 -17.5608  -2.8901
-10.6562 -12.6986 -45.4125 -42.1169  -7.9331  -6.6856  -4.4063  -8.7830
-15.3577  -3.9571  -5.2740  -7.1499  -5.8880  -4.1144 -29.8613  -8.5101
-16.2245 -20.0140  -5.6100  -7.7398  -3.0879  -2.5091 -32.0055 -11.1075
-11.3112 -11.8971 -14.1708 -13.8556 -10.5490 -10.3653 -10.5868 -10.3371
 -0.7127  -0.6092  -0.6022  -0.7256  -0.7396  -0.7918  -0.6578  -0.5894
 -0.6987  -0.5567  -0.4103  -0.4399  -0.4002  -0.4304  -0.4042  -0.4224
 -0.4188  -0.3999  -0.4211  -0.4718  -0.4772  -0.4908  -0.4957  -0.5355
 -0.5715  -0.5017
 -- Virtual --
 -0.0652  -0.0528  -0.0486  -0.0350  -0.0345  -0.0313  -0.0279  -0.0264
 -0.0247  -0.0206  -0.0198  -0.0190  -0.0181  -0.0171  -0.0164  -0.0149
 -0.0139  -0.0125  -0.0108  -0.0099  -0.0087  -0.0081  -0.0063  -0.0056
 -0.0043  -0.0038  -0.0030  -0.0011  -0.0005   0.0007   0.0016   0.0018
  0.0023   0.0030   0.0047   0.0047   0.0059   0.0060   0.0066   0.0075
  0.0080   0.0085   0.0100   0.0106   0.0111   0.0128   0.0136   0.0142
  0.0147   0.0152   0.0158   0.0165   0.0169   0.0178   0.0183   0.0190
  0.0198   0.0201   0.0210   0.0217   0.0222   0.0223   0.0231   0.0243
  0.0246   0.0252   0.0258   0.0270   0.0277   0.0284   0.0291   0.0308
  0.0311   0.0321   0.0325   0.0332   0.0341   0.0343   0.0348   0.0349
  0.0351   0.0358   0.0369   0.0376   0.0378   0.0387   0.0395   0.0398
  0.0408   0.0410   0.0421   0.0428   0.0432   0.0444   0.0446   0.0453
  0.0456   0.0460   0.0465   0.0472   0.0475   0.0492   0.0494   0.0499
  0.0504   0.0509   0.0518   0.0527   0.0528   0.0534   0.0540   0.0550
  0.0550   0.0558   0.0568   0.0578   0.0579   0.0589   0.0594   0.0596
  0.0602   0.0608   0.0612   0.0618   0.0624   0.0631   0.0635   0.0644
  0.0651   0.0655   0.0661   0.0670   0.0680   0.0680   0.0682   0.0689
  0.0697   0.0702   0.0704   0.0712   0.0718   0.0723   0.0730   0.0733
  0.0741   0.0744   0.0754   0.0758   0.0763   0.0774   0.0780   0.0787
  0.0791   0.0792   0.0798   0.0802   0.0807   0.0813   0.0828   0.0833
  0.0843   0.0845   0.0852   0.0859   0.0866   0.0874   0.0879   0.0881
  0.0889   0.0892   0.0900   0.0906   0.0913   0.0921   0.0924   0.0926
  0.0937   0.0940   0.0950   0.0955   0.0961   0.0968   0.0976   0.0981
  0.0986   0.1005   0.1009   0.1015   0.1019   0.1026   0.1034   0.1037
  0.1038   0.1053   0.1057   0.1059   0.1071   0.1082   0.1088   0.1097
  0.1102   0.1106   0.1115   0.1123   0.1130   0.1132   0.1137   0.1146
  0.1153   0.1154   0.1157   0.1166   0.1172   0.1176   0.1179   0.1195
  0.1196   0.1207   0.1215   0.1225   0.1229   0.1235   0.1236   0.1246
  0.1251   0.1256   0.1266   0.1269   0.1272   0.1277   0.1284   0.1290
  0.1299   0.1305   0.1311   0.1312   0.1318   0.1331   0.1338   0.1344
  0.1347   0.1351   0.1358   0.1364   0.1364   0.1372   0.1379   0.1381
  0.1390   0.1394   0.1401   0.1408   0.1415   0.1419   0.1428   0.1429
  0.1438   0.1444   0.1451   0.1458   0.1471   0.1480   0.1482   0.1491
  0.1496   0.1505   0.1507   0.1510   0.1512   0.1524   0.1526   0.1543
  0.1550   0.1552   0.1563   0.1569   0.1570   0.1578   0.1590   0.1593
  0.1599   0.1606   0.1612   0.1614   0.1619   0.1620   0.1628   0.1630
  0.1635   0.1635   0.1646   0.1651   0.1658   0.1668   0.1675   0.1680
  0.1688   0.1695   0.1703   0.1709   0.1714   0.1716   0.1723   0.1731
  0.1744   0.1749   0.1753   0.1754   0.1764   0.1772   0.1773   0.1775
  0.1782   0.1792   0.1794   0.1801   0.1803   0.1813   0.1817   0.1826
  0.1830   0.1832   0.1837   0.1840   0.1845   0.1858   0.1863   0.1868
  0.1873   0.1877   0.1885   0.1895   0.1900   0.1905   0.1909   0.1916
  0.1918   0.1922   0.1927   0.1933   0.1934   0.1946   0.1953   0.1962
  0.1967   0.1968   0.1979   0.1984   0.1989   0.1992   0.2007   0.2008
  0.2014   0.2019   0.2023   0.2026   0.2031   0.2041   0.2047   0.2055
  0.2059   0.2063   0.2069   0.2073   0.2080   0.2086   0.2091   0.2098
  0.2102   0.2115   0.2117   0.2126   0.2136   0.2142   0.2150   0.2155
  0.2159   0.2164   0.2170   0.2172   0.2185   0.2193   0.2198   0.2201
  0.2205   0.2209   0.2216   0.2228   0.2231   0.2237   0.2240   0.2246
  0.2249   0.2267   0.2268   0.2272   0.2279   0.2287   0.2295   0.2299
  0.2311   0.2316   0.2322   0.2325   0.2334   0.2338   0.2344   0.2348
  0.2360   0.2366   0.2371   0.2376   0.2377   0.2385   0.2391   0.2400
  0.2408   0.2415   0.2417   0.2423   0.2428   0.2434   0.2447   0.2452
  0.2457   0.2463   0.2470   0.2475   0.2488   0.2492   0.2499   0.2500
  0.2512   0.2519   0.2527   0.2531   0.2537   0.2545   0.2553   0.2554
  0.2564   0.2576   0.2580   0.2581   0.2596   0.2606   0.2611   0.2626
  0.2627   0.2632   0.2641   0.2656   0.2657   0.2663   0.2668   0.2677
  0.2686   0.2689   0.2698   0.2707   0.2708   0.2715   0.2724   0.2726
  0.2742   0.2748   0.2762   0.2770   0.2776   0.2780   0.2786   0.2793
  0.2803   0.2806   0.2821   0.2827   0.2831   0.2844   0.2851   0.2853
  0.2859   0.2878   0.2883   0.2889   0.2895   0.2897   0.2914   0.2917
  0.2919   0.2930   0.2936   0.2944   0.2953   0.2962   0.2967   0.2977
  0.2986   0.2989   0.2993   0.3014   0.3021   0.3023   0.3034   0.3041
  0.3050   0.3063   0.3078   0.3084   0.3093   0.3103   0.3109   0.3113
  0.3120   0.3127   0.3139   0.3142   0.3158   0.3164   0.3169   0.3188
  0.3194   0.3201   0.3203   0.3209   0.3223   0.3236   0.3242   0.3245
  0.3255   0.3260   0.3270   0.3271   0.3286   0.3295   0.3300   0.3301
  0.3317   0.3321   0.3323   0.3344   0.3352   0.3360   0.3363   0.3381
  0.3387   0.3391   0.3397   0.3411   0.3416   0.3420   0.3435   0.3453
  0.3456   0.3463   0.3473   0.3488   0.3495   0.3513   0.3517   0.3522
  0.3531   0.3538   0.3551   0.3564   0.3566   0.3580   0.3591   0.3605
  0.3613   0.3620   0.3624   0.3628   0.3639   0.3655   0.3657   0.3671
  0.3673   0.3685   0.3692   0.3705   0.3710   0.3718   0.3722   0.3729
  0.3742   0.3754   0.3761   0.3763   0.3771   0.3780   0.3788   0.3797
  0.3808   0.3815   0.3821   0.3837   0.3849   0.3855   0.3877   0.3881
  0.3889   0.3899   0.3902   0.3908   0.3918   0.3937   0.3943   0.3952
  0.3952   0.3956   0.3964   0.3975   0.3989   0.3999   0.4008   0.4015
  0.4032   0.4040   0.4047   0.4053   0.4062   0.4071   0.4079   0.4091
  0.4097   0.4107   0.4114   0.4114   0.4128   0.4139   0.4145   0.4157
  0.4169   0.4173   0.4178   0.4189   0.4198   0.4212   0.4220   0.4229
  0.4238   0.4243   0.4255   0.4264   0.4271   0.4274   0.4306   0.4306
  0.4317   0.4326   0.4327   0.4338   0.4341   0.4356   0.4366   0.4377
  0.4393   0.4402   0.4407   0.4410   0.4427   0.4445   0.4469   0.4474
  0.4481   0.4496   0.4517   0.4525   0.4536   0.4545   0.4549   0.4551
  0.4561   0.4579   0.4597   0.4602   0.4610   0.4626   0.4639   0.4663
  0.4665   0.4688   0.4693   0.4701   0.4720   0.4729   0.4738   0.4749
  0.4750   0.4781   0.4787   0.4805   0.4818   0.4842   0.4844   0.4866
  0.4885   0.4897   0.4902   0.4918   0.4928   0.4935   0.4948   0.4958
  0.4980   0.5006   0.5015   0.5023   0.5028   0.5057   0.5070   0.5084
  0.5099   0.5115   0.5135   0.5143   0.5177   0.5182   0.5200   0.5212
  0.5226   0.5255   0.5269   0.5280   0.5304   0.5317   0.5329   0.5348
  0.5361   0.5372   0.5394   0.5408   0.5424   0.5428   0.5438   0.5452
  0.5478   0.5487   0.5510   0.5525   0.5537   0.5553   0.5554   0.5583
  0.5606   0.5607   0.5625   0.5644   0.5649   0.5656   0.5659   0.5688
  0.5709   0.5723   0.5739   0.5750   0.5772   0.5785   0.5804   0.5823
  0.5825   0.5829   0.5850   0.5869   0.5881   0.5904   0.5911   0.5928
  0.5942   0.5963   0.5975   0.5986   0.6011   0.6025   0.6032   0.6043
  0.6050   0.6065   0.6078   0.6086   0.6101   0.6113   0.6126   0.6135
  0.6142   0.6153   0.6166   0.6185   0.6203   0.6205   0.6215   0.6225
  0.6245   0.6255   0.6268   0.6271   0.6292   0.6301   0.6313   0.6322
  0.6331   0.6344   0.6360   0.6377   0.6385   0.6389   0.6404   0.6404
  0.6414   0.6439   0.6446   0.6461   0.6466   0.6470   0.6484   0.6499
  0.6517   0.6519   0.6525   0.6544   0.6567   0.6576   0.6583   0.6593
  0.6605   0.6611   0.6621   0.6638   0.6646   0.6654   0.6662   0.6680
  0.6685   0.6700   0.6713   0.6719   0.6726   0.6745   0.6748   0.6768
  0.6774   0.6779   0.6783   0.6811   0.6824   0.6834   0.6839   0.6842
  0.6866   0.6869   0.6895   0.6897   0.6904   0.6923   0.6929   0.6941
  0.6953   0.6961   0.6972   0.6987   0.6999   0.7009   0.7009   0.7043
  0.7049   0.7054   0.7071   0.7083   0.7090   0.7105   0.7121   0.7134
  0.7148   0.7158   0.7178   0.7190   0.7196   0.7204   0.7220   0.7238
  0.7241   0.7250   0.7270   0.7287   0.7296   0.7319   0.7329   0.7340
  0.7355   0.7367   0.7375   0.7381   0.7401   0.7410   0.7420   0.7433
  0.7444   0.7462   0.7481   0.7487   0.7496   0.7515   0.7526   0.7550
  0.7561   0.7565   0.7580   0.7603   0.7624   0.7631   0.7640   0.7651
  0.7668   0.7673   0.7683   0.7705   0.7712   0.7723   0.7749   0.7773
  0.7789   0.7804   0.7807   0.7824   0.7835   0.7856   0.7870   0.7880
  0.7883   0.7903   0.7911   0.7928   0.7969   0.7977   0.7988   0.7990
  0.8010   0.8017   0.8030   0.8055   0.8061   0.8073   0.8081   0.8095
  0.8128   0.8137   0.8152   0.8159   0.8183   0.8200   0.8205   0.8215
  0.8232   0.8233   0.8252   0.8264   0.8287   0.8293   0.8313   0.8315
  0.8337   0.8354   0.8359   0.8370   0.8385   0.8395   0.8402   0.8425
  0.8427   0.8439   0.8468   0.8487   0.8494   0.8520   0.8532   0.8540
  0.8559   0.8567   0.8571   0.8582   0.8590   0.8607   0.8608   0.8639
  0.8650   0.8665   0.8674   0.8685   0.8716   0.8720   0.8729   0.8743
  0.8748   0.8772   0.8791   0.8805   0.8813   0.8821   0.8828   0.8846
  0.8862   0.8874   0.8881   0.8893   0.8909   0.8922   0.8937   0.8944
  0.8955   0.8972   0.8979   0.8992   0.9004   0.9012   0.9025   0.9043
  0.9051   0.9059   0.9071   0.9095   0.9114   0.9123   0.9127   0.9138
  0.9150   0.9155   0.9172   0.9185   0.9200   0.9221   0.9227   0.9228
  0.9232   0.9253   0.9259   0.9268   0.9287   0.9302   0.9305   0.9321
  0.9330   0.9339   0.9348   0.9363   0.9377   0.9405   0.9420   0.9434
  0.9439   0.9452   0.9458   0.9479   0.9482   0.9501   0.9510   0.9517
  0.9522   0.9535   0.9545   0.9559   0.9580   0.9587   0.9594   0.9609
  0.9618   0.9628   0.9635   0.9642   0.9654   0.9665   0.9667   0.9683
  0.9703   0.9707   0.9715   0.9723   0.9730   0.9753   0.9755   0.9767
  0.9774   0.9785   0.9802   0.9807   0.9811   0.9834   0.9841   0.9848
  0.9855   0.9889   0.9906   0.9921   0.9923   0.9928   0.9942   0.9953
  0.9963   0.9983   0.9985   0.9994   1.0003   1.0012   1.0026   1.0039
  1.0055   1.0056   1.0064   1.0076   1.0090   1.0109   1.0112   1.0121
  1.0132   1.0139   1.0153   1.0159   1.0189   1.0195   1.0201   1.0213
  1.0226   1.0237   1.0240   1.0255   1.0272   1.0282   1.0288   1.0297
  1.0311   1.0321   1.0348   1.0351   1.0359   1.0371   1.0381   1.0387
  1.0393   1.0404   1.0421   1.0431   1.0461   1.0473   1.0489   1.0494
  1.0505   1.0520   1.0527   1.0538   1.0557   1.0569   1.0578   1.0596
  1.0609   1.0614   1.0629   1.0634   1.0644   1.0659   1.0680   1.0687
  1.0700   1.0713   1.0722   1.0745   1.0753   1.0779   1.0790   1.0795
  1.0811   1.0818   1.0832   1.0844   1.0863   1.0876   1.0879   1.0895
  1.0913   1.0921   1.0940   1.0953   1.0971   1.0972   1.0986   1.0996
  1.1008   1.1021   1.1033   1.1046   1.1064   1.1085   1.1100   1.1108
  1.1121   1.1133   1.1156   1.1172   1.1183   1.1196   1.1201   1.1215
  1.1232   1.1239   1.1256   1.1273   1.1277   1.1285   1.1297   1.1315
  1.1325   1.1339   1.1343   1.1361   1.1378   1.1388   1.1408   1.1422
  1.1435   1.1455   1.1461   1.1479   1.1486   1.1510   1.1525   1.1538
  1.1540   1.1557   1.1567   1.1577   1.1588   1.1610   1.1620   1.1635
  1.1647   1.1670   1.1682   1.1691   1.1706   1.1713   1.1737   1.1745
  1.1766   1.1787   1.1810   1.1817   1.1840   1.1855   1.1864   1.1868
  1.1893   1.1904   1.1926   1.1934   1.1954   1.1964   1.1993   1.2009
  1.2017   1.2030   1.2037   1.2053   1.2072   1.2082   1.2105   1.2133
  1.2145   1.2169   1.2174   1.2190   1.2217   1.2227   1.2241   1.2250
  1.2260   1.2289   1.2300   1.2324   1.2343   1.2350   1.2389   1.2419
  1.2438   1.2447   1.2455   1.2462   1.2488   1.2508   1.2539   1.2555
  1.2571   1.2580   1.2609   1.2625   1.2644   1.2657   1.2695   1.2719
  1.2727   1.2759   1.2762   1.2778   1.2802   1.2847   1.2854   1.2864
  1.2900   1.2906   1.2938   1.2953   1.2990   1.3002   1.3025   1.3058
  1.3060   1.3079   1.3125   1.3152   1.3165   1.3175   1.3187   1.3204
  1.3215   1.3241   1.3262   1.3287   1.3295   1.3308   1.3314   1.3360
  1.3373   1.3389   1.3392   1.3419   1.3450   1.3465   1.3491   1.3499
  1.3516   1.3529   1.3548   1.3560   1.3573   1.3586   1.3604   1.3611
  1.3631   1.3649   1.3659   1.3676   1.3690   1.3726   1.3735   1.3743
  1.3773   1.3792   1.3802   1.3822   1.3839   1.3848   1.3853   1.3874
  1.3887   1.3899   1.3921   1.3936   1.3951   1.3962   1.3974   1.3997
  1.4002   1.4012   1.4018   1.4036   1.4060   1.4069   1.4087   1.4104
  1.4133   1.4148   1.4172   1.4185   1.4199   1.4208   1.4224   1.4236
  1.4245   1.4256   1.4271   1.4279   1.4285   1.4311   1.4338   1.4364
  1.4365   1.4367   1.4389   1.4409   1.4416   1.4438   1.4463   1.4469
  1.4484   1.4488   1.4516   1.4531   1.4540   1.4555   1.4562   1.4579
  1.4633   1.4655   1.4668   1.4676   1.4693   1.4706   1.4725   1.4751
  1.4759   1.4766   1.4787   1.4830   1.4834   1.4839   1.4859   1.4897
  1.4920   1.4937   1.4948   1.4974   1.4978   1.4993   1.5037   1.5048
  1.5073   1.5092   1.5118   1.5138   1.5174   1.5183   1.5195   1.5239
  1.5263   1.5279   1.5304   1.5328   1.5358   1.5385   1.5396   1.5411
  1.5418   1.5470   1.5481   1.5513   1.5540   1.5586   1.5599   1.5631
  1.5682   1.5694   1.5732   1.5739   1.5770   1.5809   1.5855   1.5881
  1.5951   1.5999   1.6023   1.6061   1.6090   1.6139   1.6163   1.6183
  1.6216   1.6252   1.6265   1.6333   1.6358   1.6397   1.6431   1.6477
  1.6508   1.6516   1.6534   1.6559   1.6591   1.6613   1.6631   1.6650
  1.6662   1.6677   1.6688   1.6707   1.6729   1.6741   1.6752   1.6766
  1.6783   1.6788   1.6814   1.6825   1.6839   1.6854   1.6858   1.6867
  1.6881   1.6890   1.6894   1.6916   1.6938   1.6943   1.6945   1.6969
  1.6985   1.6990   1.7012   1.7018   1.7032   1.7047   1.7055   1.7071
  1.7087   1.7100   1.7107   1.7128   1.7154   1.7163   1.7176   1.7195
  1.7214   1.7220   1.7228   1.7238   1.7255   1.7264   1.7276   1.7301
  1.7304   1.7321   1.7350   1.7365   1.7381   1.7394   1.7401   1.7408
  1.7428   1.7436   1.7440   1.7457   1.7468   1.7474   1.7487   1.7519
  1.7537   1.7543   1.7576   1.7581   1.7586   1.7598   1.7604   1.7618
  1.7639   1.7654   1.7662   1.7682   1.7692   1.7699   1.7723   1.7730
  1.7749   1.7762   1.7767   1.7805   1.7828   1.7855   1.7860   1.7877
  1.7896   1.7914   1.7941   1.7986   1.8000   1.8029   1.8036   1.8054
  1.8078   1.8101   1.8123   1.8138   1.8147   1.8179   1.8183   1.8221
  1.8257   1.8260   1.8284   1.8347   1.8380   1.8389   1.8412   1.8433
  1.8466   1.8479   1.8507   1.8524   1.8532   1.8544   1.8558   1.8573
  1.8588   1.8610   1.8623   1.8633   1.8648   1.8670   1.8676   1.8688
  1.8724   1.8730   1.8764   1.8802   1.8821   1.8841   1.8867   1.8886
  1.8905   1.8909   1.8926   1.8935   1.8945   1.8948   1.8978   1.8988
  1.9001   1.9021   1.9034   1.9039   1.9043   1.9052   1.9062   1.9064
  1.9074   1.9085   1.9112   1.9133   1.9152   1.9162   1.9194   1.9202
  1.9212   1.9223   1.9238   1.9261   1.9271   1.9283   1.9322   1.9334
  1.9350   1.9353   1.9393   1.9413   1.9430   1.9450   1.9463   1.9492
  1.9510   1.9537   1.9551   1.9605   1.9611   1.9648   1.9680   1.9712
  1.9765   1.9800   1.9818   1.9853   1.9879   1.9944   2.0005   2.0027
  2.0059   2.0124   2.0231   2.0262   2.0283   2.0325   2.0372   2.0398
  2.0451   2.0479   2.0489   2.0557   2.0566   2.0586   2.0595   2.0599
  2.0606   2.0626   2.0664   2.0673   2.0702   2.0744   2.0768   2.0771
  2.0786   2.0795   2.0800   2.0840   2.0842   2.0852   2.0866   2.0870
  2.0891   2.0907   2.0944   2.0952   2.0957   2.0966   2.0990   2.1005
  2.1011   2.1029   2.1040   2.1055   2.1060   2.1068   2.1076   2.1094
  2.1101   2.1127   2.1134   2.1165   2.1197   2.1240   2.1269   2.1286
  2.1329   2.1354   2.1363   2.1376   2.1406   2.1424   2.1449   2.1502
  2.1570   2.1592   2.1723   2.1748   2.1767   2.1769   2.1786   2.1798
  2.1821   2.1826   2.1839   2.1844   2.1890   2.1917   2.1922   2.1944
  2.1964   2.1980   2.1991   2.1996   2.2051   2.2082   2.2091   2.2128
  2.2136   2.2145   2.2153   2.2164   2.2169   2.2180   2.2192   2.2206
  2.2234   2.2242   2.2268   2.2278   2.2288   2.2303   2.2311   2.2321
  2.2341   2.2347   2.2355   2.2359   2.2372   2.2376   2.2398   2.2412
  2.2418   2.2429   2.2435   2.2436   2.2456   2.2459   2.2473   2.2488
  2.2493   2.2511   2.2515   2.2515   2.2532   2.2535   2.2562   2.2569
  2.2579   2.2588   2.2589   2.2606   2.2614   2.2623   2.2634   2.2641
  2.2657   2.2665   2.2670   2.2681   2.2695   2.2702   2.2712   2.2722
  2.2743   2.2751   2.2760   2.2763   2.2777   2.2792   2.2796   2.2814
  2.2821   2.2836   2.2836   2.2855   2.2861   2.2864   2.2880   2.2895
  2.2917   2.2930   2.2936   2.2944   2.2965   2.2974   2.2976   2.2995
  2.3006   2.3031   2.3037   2.3056   2.3063   2.3068   2.3093   2.3100
  2.3114   2.3133   2.3137   2.3160   2.3172   2.3206   2.3208   2.3230
  2.3236   2.3243   2.3246   2.3251   2.3264   2.3273   2.3277   2.3301
  2.3305   2.3315   2.3319   2.3336   2.3343   2.3359   2.3391   2.3409
  2.3422   2.3434   2.3441   2.3447   2.3470   2.3491   2.3500   2.3521
  2.3537   2.3554   2.3557   2.3564   2.3627   2.3630   2.3640   2.3651
  2.3660   2.3674   2.3713   2.3754   2.3780   2.3786   2.3810   2.3832
  2.3858   2.3878   2.3941   2.3951   2.3981   2.4030   2.4052   2.4102
  2.4120   2.4260   2.4309   2.4344   2.4531   2.4794   2.4930   2.5127
  2.5606   2.6046   2.6226   2.7542   2.7775   2.7861   2.8001   2.8038
  2.8145   2.8245   2.8304   2.8326   2.8331   2.8337   2.8369   2.8404
  2.8424   2.8432   2.8450   2.8492   2.8525   2.8553   2.8594   2.8637
  2.8644   2.8686   2.8696   2.8708   2.8758   2.8765   2.8787   2.8817
  2.8831   2.8942   2.8965   2.9027   2.9032   2.9555   3.1167   3.2146
  3.9251   3.9314   3.9480   3.9561   3.9609   3.9637   3.9697   3.9722
  3.9743   3.9758   3.9776   3.9790   3.9846   3.9861   3.9885   3.9901
  3.9907   3.9939   4.0041   4.0066   4.0087   4.0106   4.0177   4.0226
  4.0281   4.0333   4.0425   4.2012   4.2045   4.2169   4.2201   4.2250
  4.2300   4.2363   4.2389   4.2391   4.2409   4.2430   4.2444   4.2487
  4.2523   4.2544   4.2575   4.2624   4.2644   4.2666   4.2691   4.2715
  4.2745   4.2787   4.2796   4.2810   4.2823   4.2867   4.2877   4.2934
  4.2947   4.3005   4.3008   4.3037   4.3049   4.3071   4.3082   4.3114
  4.3157   4.3179   4.3202   4.3239   4.3266   4.3289   4.3310   4.3339
  4.3354   4.3384   4.3396   4.3413   4.3447   4.3455   4.3467   4.3479
  4.3517   4.3537   4.3563   4.3611   4.3639   4.3658   4.3699   4.3731
  4.3780   4.3847   4.3929   4.3986   4.4034   4.4082   4.4123   4.4222
  4.4352   4.4396   4.4433   4.4494   4.4607   4.4652   4.4778   4.4853
  4.4974   4.5147   4.5276   4.5484   4.5598   4.5756   4.5990   4.6115
  4.6705   4.6940   4.7295   4.7815   4.9243
 --------------------------------------------------------------
 
          Ground-State Mulliken Net Atomic Charges

     Atom                 Charge (a.u.)
  ----------------------------------------
      1 C                     0.345597
      2 C                    -0.397597
      3 C                    -0.275114
      4 C                    -0.595685
      5 C                    -1.020619
      6 C                    -0.708594
      7 H                     0.221627
      8 H                     0.239082
      9 H                     0.186784
     10 H                     0.254557
     11 H                     0.163015
     12 H                     0.216376
     13 H                     0.235327
     14 H                     0.194847
     15 H                     0.236503
     16 H                     0.204940
     17 H                     0.202934
     18 N                     0.261770
     19 H                     0.509502
     20 C                    -0.451610
     21 H                     0.192307
     22 O                    -0.117430
     23 C                    -0.714470
     24 H                     0.236637
     25 H                     0.261100
     26 H                     0.258246
     27 S                     0.706490
     28 C                    -0.858951
     29 H                     0.259284
     30 H                     0.254425
     31 H                     0.266146
     32 O                    -0.685652
     33 C                    -1.008630
     34 H                     0.209107
     35 H                     0.270398
     36 H                     0.258442
     37 S                     1.045841
     38 C                    -1.028260
     39 H                     0.252103
     40 H                     0.299936
     41 H                     0.284500
     42 O                    -0.620860
     43 C                    -0.828345
     44 H                     0.248587
     45 H                     0.254968
     46 H                     0.276532
     47 S                     0.848480
     48 C                    -0.808034
     49 H                     0.252946
     50 H                     0.231727
     51 H                     0.247648
     52 O                    -0.700779
     53 C                    -0.829683
     54 H                     0.324533
     55 H                     0.232967
     56 H                     0.241096
     57 S                     0.758765
     58 C                    -0.783324
     59 H                     0.243381
     60 H                     0.232089
     61 H                     0.250942
     62 O                    -0.703097
     63 C                    -0.830136
     64 H                     0.280677
     65 H                     0.224529
     66 H                     0.252593
     67 S                     1.060858
     68 C                    -0.920656
     69 H                     0.255415
     70 H                     0.224186
     71 H                     0.250370
     72 O                    -0.758805
     73 C                    -0.912171
     74 H                     0.282382
     75 H                     0.269226
     76 H                     0.256418
     77 S                     0.837516
     78 C                    -0.927249
     79 H                     0.263741
     80 H                     0.260558
     81 H                     0.263275
     82 O                    -0.692120
     83 C                    -0.881133
     84 H                     0.268956
     85 H                     0.235852
     86 H                     0.284952
     87 S                     0.905175
     88 C                    -0.932199
     89 H                     0.276758
     90 H                     0.234066
     91 H                     0.248322
     92 O                    -0.667539
     93 C                    -0.907860
     94 H                     0.284350
     95 H                     0.287304
     96 H                     0.251549
     97 S                     0.422709
     98 C                    -0.587882
     99 H                     0.230117
    100 H                     0.305512
    101 H                     0.263148
    102 O                    -0.608574
    103 C                    -0.798832
    104 H                     0.261571
    105 H                     0.253011
    106 H                     0.284117
    107 S                     0.673935
    108 C                    -0.832212
    109 H                     0.253168
    110 H                     0.259656
    111 H                     0.263899
    112 O                    -0.630844
    113 C                    -1.088888
    114 H                     0.242304
    115 H                     0.250082
    116 H                     0.258960
    117 S                     1.313569
    118 C                    -1.168350
    119 H                     0.280859
    120 H                     0.227941
    121 H                     0.324824
    122 O                    -0.620275
    123 C                    -0.868101
    124 H                     0.293323
    125 H                     0.258831
    126 H                     0.259274
    127 S                     0.846704
    128 C                    -0.899628
    129 H                     0.229311
    130 H                     0.244520
    131 H                     0.257035
    132 O                    -0.643381
    133 C                    -0.846797
    134 H                     0.238411
    135 H                     0.285275
    136 H                     0.283166
    137 S                     0.671631
    138 C                    -0.770264
    139 H                     0.240284
    140 H                     0.257188
    141 H                     0.323198
    142 O                    -0.696736
    143 C                    -0.897640
    144 H                     0.274879
    145 H                     0.292711
    146 H                     0.230849
    147 S                     1.116232
    148 C                    -0.941281
    149 H                     0.232682
    150 H                     0.255817
    151 H                     0.252333
    152 O                    -0.746710
    153 C                    -1.017213
    154 H                     0.276056
    155 H                     0.265884
    156 H                     0.225895
    157 S                     1.226155
    158 C                    -1.005596
    159 H                     0.209432
    160 H                     0.284608
    161 H                     0.274233
    162 O                    -0.714072
    163 C                    -0.877790
    164 H                     0.236578
    165 H                     0.258120
    166 H                     0.237968
    167 S                     1.053036
    168 C                    -0.810359
    169 H                     0.251978
    170 H                     0.226381
    171 H                     0.285202
    172 O                    -0.758067
    173 C                    -0.851704
    174 H                     0.191903
    175 H                     0.286403
    176 H                     0.255873
    177 S                     0.639829
    178 C                    -0.656208
    179 H                     0.241794
    180 H                     0.258886
    181 H                     0.246875
    182 O                    -0.692996
    183 C                    -0.739966
    184 H                     0.229654
    185 H                     0.299897
    186 H                     0.255612
    187 S                     0.845416
    188 C                    -0.911478
    189 H                     0.254772
    190 H                     0.267064
    191 H                     0.213992
    192 O                    -0.649190
    193 C                    -1.270225
    194 H                     0.252518
    195 H                     0.329852
    196 H                     0.257409
    197 S                     1.211016
    198 C                    -0.882554
    199 H                     0.222769
    200 H                     0.262411
    201 H                     0.272934
    202 O                    -0.708551
    203 C                    -0.526907
    204 H                     0.243440
    205 H                     0.313446
    206 H                     0.262352
    207 S                     0.376602
    208 C                    -0.739386
    209 H                     0.269799
    210 H                     0.244325
    211 H                     0.263964
    212 O                    -0.655018
    213 C                    -0.779829
    214 H                     0.249836
    215 H                     0.274291
    216 H                     0.266964
    217 S                     0.399742
    218 C                    -0.640910
    219 H                     0.235112
    220 H                     0.276484
    221 H                     0.264115
    222 O                    -0.572996
    223 C                    -0.994243
    224 H                     0.242169
    225 H                     0.245605
    226 H                     0.240338
    227 S                     1.225030
    228 C                    -0.849416
    229 H                     0.240428
    230 H                     0.248959
    231 H                     0.313856
    232 O                    -0.724813
    233 C                    -0.850842
    234 H                     0.243084
    235 H                     0.253536
    236 H                     0.247895
    237 S                     0.944699
    238 C                    -0.895292
    239 H                     0.272794
    240 H                     0.226961
    241 H                     0.246309
    242 O                    -0.689135
    243 C                    -0.740431
    244 H                     0.239627
    245 H                     0.256699
    246 H                     0.229071
    247 S                     0.752181
    248 C                    -0.881238
    249 H                     0.238122
    250 H                     0.268004
    251 H                     0.245880
    252 O                    -0.630472
    253 C                    -0.796253
    254 H                     0.221344
    255 H                     0.241254
    256 H                     0.254754
    257 S                     0.882484
    258 C                    -0.855530
    259 H                     0.257709
    260 H                     0.280112
    261 H                     0.269071
    262 O                    -0.698715
    263 C                    -1.064885
    264 H                     0.280879
    265 H                     0.251354
    266 H                     0.284113
    267 S                     0.911140
    268 C                    -1.010594
    269 H                     0.263520
    270 H                     0.292057
    271 H                     0.245171
    272 O                    -0.551834
    273 C                    -0.974454
    274 H                     0.258416
    275 H                     0.241456
    276 H                     0.241964
    277 S                     1.165882
    278 C                    -0.958903
    279 H                     0.239532
    280 H                     0.252931
    281 H                     0.269610
    282 O                    -0.676327
    283 C                    -0.627998
    284 H                     0.296666
    285 H                     0.259037
    286 H                     0.242941
    287 S                     0.218672
    288 C                    -0.710192
    289 H                     0.260717
    290 H                     0.305918
    291 H                     0.222999
    292 O                    -0.670799
  ----------------------------------------
  Sum of atomic charges =     0.000000

 -----------------------------------------------------------------
                    Cartesian Multipole Moments
 -----------------------------------------------------------------
    Charge (ESU x 10^10)
                -0.0000
    Dipole Moment (Debye)
         X       4.8506      Y      23.6323      Z     -22.0872
       Tot      32.7087
    Quadrupole Moments (Debye-Ang)
        XX    -696.0336     XY     468.2580     YY    -438.1836
        XZ    -381.3549     YZ     261.4712     ZZ   -2124.6641
    Octopole Moments (Debye-Ang^2)
       XXX  -54089.7565    XXY   -3655.9287    XYY  -12049.0645
       YYY  -32292.1465    XXZ  -30932.7641    XYZ    4061.0522
       YYZ  -19828.2916    XZZ  -45517.2214    YZZ  -16846.1077
       ZZZ -127438.6329
    Hexadecapole Moments (Debye-Ang^3)
      XXXX ************   XXXY -706741.5683   XXYY -543273.4186
      XYYY -792906.6481   YYYY ************   XXXZ ************
      XXYZ -300945.2961   XYYZ -503913.2222   YYYZ ************
      XXZZ ************   XYZZ -441159.3553   YYZZ -988930.0423
      XZZZ ************   YZZZ ************   ZZZZ ************
 -----------------------------------------------------------------
Archival summary:
[...]
    2   0.0071989   0.0187882  -0.0202146   0.0333069  -0.0335564  -0.0042699
    3  -0.0078191   0.0021930  -0.0221167   0.0041602   0.0204897   0.0022473
          139         140         141         142         143         144
    1   0.0156933  -0.0136923  -0.0176953  -0.0488982  -0.0049843  -0.0083278
    2  -0.0212234  -0.0101741   0.0150689   0.0756281  -0.0037044   0.0197129
    3  -0.0228620   0.0352399  -0.0032456   0.0637328   0.0040131   0.0244024
          145         146         147         148         149         150
    1  -0.0283493   0.0055968  -0.0060570   0.0017250   0.0195566   0.0251020
    2  -0.0078844  -0.0349994  -0.0139008   0.0006470  -0.0276540   0.0152581
    3  -0.0113706   0.0091424  -0.0602092   0.0057953  -0.0078490  -0.0118143
          151         152         153         154         155         156
    1   0.0077073  -0.0144008  -0.0026510  -0.0258883   0.0206602   0.0117707
    2  -0.0050808   0.1021479   0.0069280   0.0232920   0.0114703   0.0089638
    3   0.0372565   0.0377851   0.0020114   0.0116785   0.0168521  -0.0286168
          157         158         159         160         161         162
    1  -0.0242218  -0.0025827  -0.0229731   0.0148095   0.0043129   0.1053540
    2  -0.0254837   0.0005835   0.0236563  -0.0315391   0.0221966  -0.0163854
    3  -0.0472560   0.0107949  -0.0064574   0.0101050   0.0253051   0.0286143
          163         164         165         166         167         168
    1  -0.0053282  -0.0193612  -0.0190952  -0.0034469   0.0345343   0.0030400
    2   0.0002851   0.0226192  -0.0257444   0.0205070  -0.0173730   0.0050363
    3   0.0017184  -0.0117471  -0.0014767   0.0310346   0.0417575  -0.0024204
          169         170         171         172         173         174
    1  -0.0183764  -0.0036100   0.0300888  -0.0201883  -0.0057245  -0.0047754
    2   0.0140097   0.0339931   0.0073483  -0.0497583  -0.0075941  -0.0052328
    3  -0.0208734   0.0148982  -0.0075969  -0.0923749   0.0039638   0.0266129
          175         176         177         178         179         180
    1  -0.0255556   0.0093554   0.0507114  -0.0042321  -0.0288894  -0.0091173
    2  -0.0169272  -0.0303421   0.0121515   0.0043388  -0.0104527  -0.0022075
    3  -0.0056455  -0.0056712   0.0218126   0.0041426  -0.0014325   0.0333087
          181         182         183         184         185         186
    1   0.0005885  -0.0231095   0.0089823  -0.0146171   0.0246112   0.0216644
    2   0.0285070  -0.0013105   0.0105223   0.0139215   0.0299183  -0.0129004
    3  -0.0159317  -0.1073700   0.0027111  -0.0219090   0.0101410  -0.0153628
          187         188         189         190         191         192
    1  -0.0233569  -0.0030408  -0.0224857   0.0046395  -0.0110184   0.0468252
    2  -0.0498055   0.0016926  -0.0079275   0.0243732   0.0137264  -0.0208098
    3  -0.0388759   0.0027197   0.0234701   0.0205449  -0.0258105   0.0948295
          193         194         195         196         197         198
    1   0.0025595  -0.0215901   0.0100334   0.0301100   0.0438031  -0.0013231
    2   0.0111302   0.0171119  -0.0164201   0.0228412  -0.0226641   0.0062256
    3   0.0084878   0.0065300   0.0259383   0.0076146  -0.0119132  -0.0028811
          199         200         201         202         203         204
    1   0.0218704  -0.0253624  -0.0198535  -0.0938530  -0.0015555  -0.0095786
    2   0.0202732  -0.0092150   0.0217845  -0.0475098   0.0065367  -0.0084373
    3  -0.0226203  -0.0198716  -0.0020439   0.0287185   0.0056963   0.0361447
          205         206         207         208         209         210
    1   0.0189392  -0.0261104  -0.0545673   0.0094539   0.0324684  -0.0124503
    2  -0.0002113   0.0168029  -0.0231305  -0.0045514   0.0060282  -0.0207199
    3  -0.0201263  -0.0032744   0.0127579  -0.0018552  -0.0011032   0.0224174
          211         212         213         214         215         216
    1   0.0254167   0.0317467   0.0033196  -0.0030331   0.0269380  -0.0205137
    2  -0.0324451   0.0343681  -0.0057586  -0.0145606  -0.0094796  -0.0275359
    3  -0.0138725  -0.1003200   0.0020055  -0.0301284   0.0095075   0.0046809
          217         218         219         220         221         222
    1  -0.0571290   0.0037717  -0.0057726   0.0099223   0.0329143   0.0604884
    2   0.0130692   0.0037102  -0.0012332   0.0273441  -0.0029644   0.0310730
    3  -0.0033371  -0.0035041  -0.0362356   0.0081486  -0.0136518   0.0855680
          223         224         225         226         227         228
    1  -0.0063130   0.0133277  -0.0109053  -0.0196143   0.0428886   0.0036220
    2   0.0028068   0.0281896   0.0100986  -0.0157382  -0.0008659   0.0034499
    3   0.0032928  -0.0002326  -0.0304397   0.0271183   0.0305164  -0.0111246
          229         230         231         232         233         234
    1  -0.0079889   0.0235356   0.0037959  -0.0614218  -0.0019140  -0.0299119
    2   0.0256605   0.0168895  -0.0247357  -0.0869553  -0.0058252  -0.0075566
    3  -0.0075017  -0.0058524  -0.0181239  -0.0292816   0.0041221  -0.0142311
          235         236         237         238         239         240
    1   0.0243159  -0.0067570  -0.0349590   0.0020850   0.0243491  -0.0190735
    2  -0.0195653   0.0051776   0.0406302  -0.0020760  -0.0136917  -0.0260151
    3   0.0082175   0.0300967  -0.0082459  -0.0064307   0.0011976  -0.0089093
          241         242         243         244         245         246
    1   0.0089357   0.1053533  -0.0062049  -0.0050768  -0.0235789  -0.0108284
    2   0.0147228   0.0154761  -0.0009668   0.0313641  -0.0171399  -0.0027672
    3  -0.0301644   0.0313792   0.0010983  -0.0081453  -0.0142929   0.0284433
          247         248         249         250         251         252
    1   0.0397120  -0.0012220   0.0063118   0.0267698  -0.0254246   0.0053411
    2   0.0380609  -0.0036945   0.0287624  -0.0111893  -0.0151082  -0.1080659
    3   0.0248084  -0.0076211  -0.0133365  -0.0167493  -0.0169730   0.0258306
          253         254         255         256         257         258
    1  -0.0057776  -0.0019353  -0.0244191   0.0039285   0.0475123  -0.0054546
    2  -0.0019865  -0.0154994  -0.0060779   0.0295598  -0.0049518  -0.0087599
    3  -0.0043409  -0.0318467   0.0149086  -0.0008352  -0.0242164   0.0026844
          259         260         261         262         263         264
    1  -0.0223240  -0.0034017   0.0177184  -0.0205685   0.0035225   0.0314141
    2   0.0058398  -0.0257184  -0.0140022   0.0757882  -0.0007980  -0.0003386
    3   0.0124058  -0.0204652   0.0215646   0.0782075  -0.0072966   0.0006837
          265         266         267         268         269         270
    1  -0.0080400   0.0021780  -0.0541557   0.0046475  -0.0054758   0.0293663
    2  -0.0231681   0.0252077   0.0235391   0.0040518   0.0188576  -0.0075797
    3  -0.0174044  -0.0256992  -0.0133602   0.0016680   0.0284919  -0.0028978
          271         272         273         274         275         276
    1  -0.0044538   0.0198691   0.0061631  -0.0047969  -0.0069892   0.0319372
    2   0.0323529  -0.0867863  -0.0055366  -0.0082546  -0.0293736   0.0141143
    3  -0.0102588   0.0616256  -0.0003783   0.0303269  -0.0117509   0.0030659
          277         278         279         280         281         282
    1  -0.0175571  -0.0095772   0.0143825  -0.0199411  -0.0297922   0.0409005
    2   0.0374426  -0.0007982  -0.0224183  -0.0163678   0.0156531   0.0250140
    3   0.0378077  -0.0034093  -0.0166193   0.0246446  -0.0029821  -0.0990659
          283         284         285         286         287         288
    1   0.0051419   0.0127477   0.0073089   0.0062794  -0.0076010  -0.0085518
    2   0.0021257  -0.0103883  -0.0120775   0.0284740  -0.0470860   0.0039584
    3   0.0033998   0.0279616  -0.0291390   0.0143947  -0.0313918   0.0014757
          289         290         291         292
    1  -0.0143184  -0.0296597   0.0099443  -0.0024291
    2   0.0013838   0.0028503   0.0253008  -0.0022376
    3  -0.0299741   0.0046567   0.0063498   0.1226802
  --- DONE ESP SUMMARY ---
Archival summary:
1\1\node023\SP\ProcedureUnspecified\6-31+G*\272754h22\ymao90\FriDec319:21:312021FriDec319:21:312021\0\\#,ProcedureUnspecified,6-31+G*,\\0,1\S\O,1,1.49744\C,1,1.80653,2,104.328\H,3,1.09329,1,107.476,2,176.162,0\H,3,1.09342,1,110.704,2,55.3715,0\H,3,1.09366,1,100.501,2,-61.121,0\C,1,1.80721,2,109.558,3,104.313,0\H,7,1.09241,1,105.386,2,63.0353,0\H,7,1.09286,1,105.972,2,177.944,0\H,7,1.09297,1,109.562,2,-57.1095,0\Gh,4,1.94915,3,119.909,1,31.0501,0\Gh,11,1.09701,4,154.568,3,172.165,0\Gh,12,1.09574,11,104.297,4,42.9232,0\Gh,12,1.5375,11,106.837,4,162.063,0\Gh,14,1.09687,12,115.156,11,-58.7859,0\Gh,14,1.09708,12,106.458,11,-179.963,0\Gh,14,1.53701,12,109.878,11,65.5245,0\Gh,17,1.09688,14,104.266,12,-69.9121,0\Gh,17,1.46192,14,114.687,12,179.449,0\Gh,19,1.0127,17,120.671,14,-29.3469,0\Gh,19,1.37898,17,124.741,14,143.67,0\Gh,21,1.10567,19,117.02,17,-154.922,0\Gh,21,1.21811,19,119.278,17,32.8161,0\Gh,17,1.53793,14,118.201,12,46.9662,0\Gh,24,1.09665,17,112.318,14,-163.919,0\Gh,24,1.09706,17,117.447,14,76.6559,0\Gh,24,1.53727,17,113.802,14,-44.0074,0\Gh,27,1.09664,24,109.367,17,-73.0018,0\Gh,27,1.09676,24,108.819,17,170.696,0\Gh,27,1.53712,24,111.856,17,42.55,0\Gh,30,1.09682,27,106.553,24,-169.538,0\Gh,30,1.09693,27,116.346,24,71.3878,0\O,20,1.80848,19,165.456,17,-140.12,0\S,33,1.49728,20,132.843,19,-162.609,0\C,34,1.80646,33,104.22,20,-27.5281,0\H,35,1.09245,34,112.224,33,165.886,0\H,35,1.09335,34,105.736,33,-78.7895,0\H,35,1.09372,34,110.448,33,47.3306,0\C,34,1.80687,33,103.756,20,-129.153,0\H,39,1.09238,34,112.582,33,67.7138,0\H,39,1.09288,34,106.868,33,-166.381,0\H,39,1.09314,34,100.65,33,-47.5849,0\H,36,2.07419,35,125.358,34,128.113,0\C,43,1.09314,36,139.506,35,-158.386,0\H,44,1.09288,43,109.103,36,151.428,0\H,44,1.09312,43,110.617,36,27.4067,0\S,44,1.80753,43,104.277,36,-89.7209,0\O,47,1.4972,44,107.128,43,62.9923,0\C,47,1.80746,44,97.4222,43,173.902,0\H,49,1.09273,47,103.563,44,-163.085,0\H,49,1.09287,47,106.683,44,-50.5877,0\H,49,1.09318,47,111.518,44,70.8846,0\H,6,2.19921,3,137.928,1,-3.21944,0\C,53,1.09289,6,137.413,3,-32.9756,0\H,54,1.09272,53,111.82,6,43.7652,0\H,54,1.09364,53,115.629,6,-76.0063,0\S,54,1.80772,53,105.237,6,168.462,0\O,57,1.49684,54,102.679,53,91.8268,0\C,57,1.80637,54,96.5529,53,-166.144,0\H,59,1.09248,57,111.398,54,-172.217,0\H,59,1.09313,57,113.366,54,72.7188,0\H,59,1.09355,57,106.784,54,-55.1759,0\H,16,2.287,14,150.281,12,-125.693,0\C,63,1.09284,16,115.381,14,93.7652,0\H,64,1.09274,63,112.13,16,-87.9564,0\H,64,1.09333,63,112.456,16,35.3489,0\S,64,1.80691,63,105.707,16,150.81,0\O,67,1.49651,64,102.223,63,79.9418,0\C,67,1.80732,64,94.3471,63,-173.088,0\H,69,1.09235,67,105.205,64,-66.0918,0\H,69,1.09268,67,107.44,64,52.5446,0\H,69,1.09301,67,104.103,64,172.546,0\H,42,2.30807,39,160.296,34,177.398,0\C,73,1.0922,42,95.1879,39,162.338,0\H,74,1.09316,73,109.529,42,157.546,0\H,74,1.09329,73,115.198,42,33.2288,0\S,74,1.80686,73,101.781,42,-89.8776,0\O,77,1.49603,74,105.354,73,75.7529,0\C,77,1.80754,74,86.4707,73,-179.716,0\H,79,1.09266,77,109.574,74,70.0689,0\H,79,1.09273,77,106.58,74,-175.39,0\H,79,1.09325,77,111.045,74,-51.8902,0\H,82,1.99893,79,169.57,77,-67.5925,0\C,83,1.09307,82,155.613,79,-64.3573,0\H,84,1.09276,83,107.61,82,-95.2704,0\H,84,1.09308,83,104.963,82,143.428,0\S,84,1.80676,83,104.816,82,26.6179,0\O,87,1.49703,84,99.9587,83,-60.5546,0\C,87,1.80659,84,97.9749,83,41.3546,0\H,89,1.09247,87,100.917,84,-155.278,0\H,89,1.09308,87,103.484,84,92.6667,0\H,89,1.09345,87,112.125,84,-27.7284,0\H,85,2.11847,84,111.02,83,33.8694,0\C,93,1.09258,85,153.503,84,46.0658,0\H,94,1.0927,93,110.222,85,18.6348,0\H,94,1.09286,93,112.957,85,-103.398,0\S,94,1.80778,93,105.031,85,140.949,0\O,97,1.4966,94,103.202,93,-144.932,0\C,97,1.80714,94,92.7853,93,110.276,0\H,99,1.09274,97,102.14,94,156.616,0\H,99,1.09317,97,113.479,94,50.2334,0\H,99,1.09327,97,115.042,94,-88.3331,0\H,61,2.33452,59,145.636,57,-110.867,0\C,103,1.09329,61,111.109,59,111.145,0\H,104,1.0935,103,108.874,61,14.3255,0\H,104,1.0935,103,118.894,61,-100.928,0\S,104,1.80642,103,114.87,61,127.761,0\O,107,1.49669,104,102.881,103,-54.6779,0\C,107,1.80656,104,97.1662,103,56.2868,0\H,109,1.09282,107,117.877,104,177.539,0\H,109,1.0932,107,103.94,104,52.518,0\H,109,1.09343,107,98.1997,104,-63.5278,0\H,61,2.35041,59,91.8435,57,-163.154,0\C,113,1.09345,61,137.95,59,-90.8994,0\H,114,1.09305,113,105.378,61,140.674,0\H,114,1.09315,113,101.991,61,27.7778,0\S,114,1.80634,113,117.698,61,-94.0992,0\O,117,1.49763,114,99.8499,113,-42.3307,0\C,117,1.80637,114,96.7229,113,67.0601,0\H,119,1.09285,117,106.673,114,-36.3183,0\H,119,1.09312,117,116.422,114,84.9266,0\H,119,1.09324,117,96.2158,114,-152.185,0\H,33,2.42975,20,77.6229,19,22.3396,0\C,123,1.09285,33,176.405,20,98.9656,0\H,124,1.09357,123,114.57,33,-62.1478,0\H,124,1.09361,123,103.983,33,64.1355,0\S,124,1.8073,123,111.068,33,178.349,0\O,127,1.49723,124,101.318,123,-80.3551,0\C,127,1.80695,124,90.5745,123,177.037,0\H,129,1.0926,127,110.132,124,59.3945,0\H,129,1.09276,127,107.337,124,-58.2441,0\H,129,1.09292,127,106.187,124,178.839,0\H,88,2.4321,87,101.535,84,-74.5611,0\C,133,1.09333,88,132.039,87,-126.237,0\H,134,1.0934,133,104.873,88,0.499931,0\H,134,1.09353,133,106.981,88,-122.678,0\S,134,1.80633,133,113.156,88,123.058,0\O,137,1.49781,134,109.116,133,-172.706,0\C,137,1.80723,134,95.6352,133,-59.1355,0\H,139,1.09271,137,107.985,134,-174.446,0\H,139,1.09277,137,113.207,134,61.7426,0\H,139,1.09324,137,108.039,134,-56.3807,0\O,111,2.43363,109,148.69,107,87.3586,0\S,143,1.49699,111,101.5,109,83.1402,0\C,144,1.806,143,108.224,111,-68.0434,0\H,145,1.09233,144,101.766,143,95.3486,0\H,145,1.09312,144,107.459,143,-140.317,0\H,145,1.09366,144,106.713,143,-19.1106,0\C,144,1.8066,143,99.3738,111,-171.224,0\H,149,1.09271,144,102.502,143,64.6904,0\H,149,1.09282,144,108.444,143,-54.2749,0\H,149,1.09327,144,106.268,143,-169.955,0\H,148,2.20576,145,131.067,144,-12.0944,0\C,153,1.09235,148,115.097,145,171.219,0\H,154,1.09316,153,108.328,148,45.6793,0\H,154,1.09331,153,111.383,148,-81.0811,0\S,154,1.80662,153,105.644,148,166.239,0\O,157,1.49737,154,105.999,153,-71.3967,0\C,157,1.80746,154,87.9382,153,-177.923,0\H,159,1.09248,157,111.553,154,-83.6501,0\H,159,1.09262,157,109.606,154,151.028,0\H,159,1.09295,157,107.604,154,42.7345,0\H,131,2.45266,129,108.852,127,148.708,0\C,163,1.09265,131,160.253,129,-39.2874,0\H,164,1.09333,163,104.474,131,29.75,0\H,164,1.09358,163,113.039,131,147.706,0\S,164,1.80695,163,110.387,131,-87.6421,0\O,167,1.49677,164,109.433,163,-41.7946,0\C,167,1.80731,164,91.7574,163,57.8006,0\H,169,1.09213,167,112.779,164,40.6895,0\H,169,1.09332,167,104.897,164,153.839,0\H,169,1.09357,167,105.01,164,-88.1642,0\H,10,2.45654,7,110.088,1,-159.132,0\C,173,1.09306,10,112.78,7,-151.696,0\H,174,1.09303,173,107.414,10,161.179,0\H,174,1.09331,173,108.448,10,41.5943,0\S,174,1.8066,173,111.322,10,-82.5906,0\O,177,1.49746,174,98.9501,173,55.5741,0\C,177,1.80638,174,99.3379,173,166.483,0\H,179,1.09287,177,104.576,174,-162.53,0\H,179,1.09318,177,105.821,174,-45.1099,0\H,179,1.09363,177,101.496,174,75.1982,0\O,173,2.34222,10,93.9837,7,22.9888,0\S,183,1.49639,173,137.349,10,-135.616,0\C,184,1.8068,183,110.08,173,-84.8945,0\H,185,1.09299,184,98.8338,183,-33.0612,0\H,185,1.09323,184,113.967,183,80.4855,0\H,185,1.09357,184,114.949,183,-145.412,0\C,184,1.80681,183,106.884,173,175.853,0\H,189,1.09273,184,108.942,183,49.0613,0\H,189,1.09276,184,104.123,183,-74.9551,0\H,189,1.0935,184,106.858,183,171.806,0\O,186,2.28527,185,140.937,184,-179.572,0\S,193,1.49715,186,108.618,185,-164.698,0\C,194,1.80676,193,108.238,186,5.78824,0\H,195,1.09207,194,107.026,193,-166.312,0\H,195,1.0926,194,110.311,193,-48.674,0\H,195,1.09395,194,104.319,193,75.651,0\C,194,1.80688,193,104.384,186,-96.4663,0\H,199,1.0928,194,111.064,193,54.1945,0\H,199,1.09323,194,105.834,193,-66.4247,0\H,199,1.09328,194,108.005,193,-178.975,0\H,196,2.02416,195,130.843,194,-27.3984,0\C,203,1.0933,196,112.016,195,167.233,0\H,204,1.09331,203,111.428,196,124.482,0\H,204,1.09346,203,103.507,196,-120.499,0\S,204,1.80613,203,114.969,196,1.32354,0\O,207,1.49703,204,102.153,203,-62.837,0\C,207,1.80719,204,96.4885,203,-160.986,0\H,209,1.0929,207,112.739,204,-162.562,0\H,209,1.09298,207,105.324,204,-49.9244,0\H,209,1.09329,207,110.781,204,62.1494,0\H,29,2.46044,27,130.256,24,140.952,0\C,213,1.09263,29,130.707,27,-94.785,0\H,214,1.09321,213,114.32,29,157.116,0\H,214,1.09325,213,106.714,29,-78.2229,0\S,214,1.8061,213,110.091,29,35.8319,0\O,217,1.4968,214,101.16,213,94.8794,0\C,217,1.80715,214,96.2092,213,-153.548,0\H,219,1.09245,217,106.548,214,-52.3418,0\H,219,1.09263,217,111.969,214,72.8772,0\H,219,1.09374,217,111.951,214,-174.347,0\H,221,1.95289,219,148.114,217,86.5336,0\C,223,1.09253,221,109.2,219,-49.1219,0\H,224,1.09305,223,114.06,221,0.410879,0\H,224,1.0935,223,118.307,221,-130.951,0\S,224,1.80741,223,104.274,221,113.109,0\O,227,1.49704,224,100.517,223,159.979,0\C,227,1.80677,224,94.7802,223,52.9205,0\H,229,1.09258,227,105.062,224,-87.0321,0\H,229,1.09334,227,108.722,224,159.978,0\H,229,1.09355,227,107.679,224,39.1981,0\H,5,2.54281,3,103.774,1,-82.982,0\C,233,1.09238,5,112.092,3,-137.783,0\H,234,1.09289,233,109.024,5,-123.134,0\H,234,1.09334,233,114.687,5,115.21,0\S,234,1.8075,233,108.913,5,-10.561,0\O,237,1.49706,234,105.055,233,102.554,0\C,237,1.80696,234,96.3365,233,-150.019,0\H,239,1.09287,237,109.64,234,-155.813,0\H,239,1.09335,237,97.8273,234,-45.2915,0\H,239,1.09362,237,105.521,234,71.0024,0\H,32,2.60291,30,131.726,27,77.9235,0\C,243,1.09287,32,108.542,30,-40.6648,0\H,244,1.09307,243,107.95,32,37.8914,0\H,244,1.09328,243,107.313,32,-78.7529,0\S,244,1.80669,243,120.227,32,166.821,0\O,247,1.49667,244,102.19,243,174.099,0\C,247,1.80761,244,95.8575,243,61.5312,0\H,249,1.09254,247,106.967,244,-166.183,0\H,249,1.09309,247,109.909,244,-55.3732,0\H,249,1.09315,247,110.707,244,74.6865,0\H,243,2.19113,32,103.735,30,58.0533,0\C,253,1.09329,243,132.141,32,35.5156,0\H,254,1.09211,253,111.32,243,-111.583,0\H,254,1.09392,253,109.93,243,7.1887,0\S,254,1.80738,253,109.884,243,129.27,0\O,257,1.49739,254,104.142,253,48.4822,0\C,257,1.80694,254,100.58,253,-52.8771,0\H,259,1.09251,257,109.525,254,34.8922,0\H,259,1.0928,257,104.8,254,-79.4648,0\H,259,1.09346,257,110.249,254,159.78,0\H,251,2.24336,249,166.563,247,-115.271,0\C,263,1.09285,251,140.027,249,-127.757,0\H,264,1.09309,263,107.272,251,47.1552,0\H,264,1.09316,263,109.699,251,171.087,0\S,264,1.80672,263,103.442,251,-67.8326,0\O,267,1.49672,264,106.291,263,-22.0353,0\C,267,1.80717,264,97.7496,263,-124.877,0\H,269,1.09278,267,101.971,264,-71.1002,0\H,269,1.09335,267,110.54,264,45.6473,0\H,269,1.09348,267,108.294,264,172.634,0\H,255,2.31802,254,118.654,253,-59.1323,0\C,273,1.09289,255,123.681,254,97.0838,0\H,274,1.09278,273,113.268,255,35.9247,0\H,274,1.09294,273,106.433,255,-81.0282,0\S,274,1.80705,273,115.768,255,160.957,0\O,277,1.49683,274,104.924,273,-175.506,0\C,277,1.80736,274,97.4786,273,-65.8435,0\H,279,1.0923,277,104.858,274,68.0869,0\H,279,1.09321,277,117.737,274,-46.4825,0\H,279,1.09374,277,103.43,274,-170.504,0\H,278,2.45025,277,168.477,274,154.962,0\C,283,1.09266,278,128.719,277,-146.097,0\H,284,1.09238,283,114.978,278,78.7694,0\H,284,1.09332,283,106.444,278,-159.982,0\S,284,1.80722,283,113.154,278,-46.6086,0\O,287,1.49712,284,103.95,283,-177.689,0\C,287,1.80661,284,94.5568,283,-81.3845,0\H,289,1.09227,287,105.885,284,63.9428,0\H,289,1.09294,287,106.401,284,175.19,0\H,289,1.09331,287,107.064,284,-67.8207,0\\\@

 Total job time:  55.03s(wall), 175.09s(cpu) 
 Fri Dec  3 19:21:31 2021

        *************************************************************
        *                                                           *
        *  Thank you very much for using Q-Chem.  Have a nice day.  *
        *                                                           *
        *************************************************************


