                  Welcome to Q-Chem
     A Quantum Leap Into The Future Of Chemistry


 Q-Chem 5.2 (devel), Q-Chem, Inc., Pleasanton, CA (2019)

 Yihan Shao,  Zhengting Gan,  E. Epifanovsky,  A. T. B. Gilbert,  M. Wormit,  
 J. Kussmann,  A. W. Lange,  A. Behn,  Jia Deng,  Xintian Feng,  D. Ghosh,  
 M. Goldey,  P. R. Horn,  L. D. Jacobson,  I. Kaliman,  T. Kus,  A. Landau,  
 Jie Liu,  E. I. Proynov,  R. M. Richard,  R. P. Steele,  E. J. Sundstrom,  
 H. L. Woodcock III,  P. M. Zimmerman,  D. Zuev,  B. Alam,  B. Albrecht,  
 E. Alguire,  S. A. Baeppler,  D. Barton,  Z. Benda,  Y. A. Bernard,  
 E. J. Berquist,  K. B. Bravaya,  H. Burton,  K. Carter-Fenk,  D. Casanova,  
 Chun-Min Chang,  Yunqing Chen,  A. Chien,  K. D. Closser,  M. P. Coons,  
 S. Coriani,  S. Dasgupta,  A. L. Dempwolff,  M. Diedenhofen,  Hainam Do,  
 R. G. Edgar,  Po-Tung Fang,  S. Faraji,  S. Fatehi,  Qingguo Feng,  
 J. Fosso-Tande,  J. Gayvert,  Qinghui Ge,  A. Ghysels,  G. Gidofalvi,  
 J. Gomes,  J. Gonthier,  A. Gunina,  D. Hait,  M. W. D. Hanson-Heine,  
 P. H. P. Harbach,  A. W. Hauser,  M. F. Herbst,  J. E. Herr,  
 E. G. Hohenstein,  Z. C. Holden,  Kerwin Hui,  B. C. Huynh,  T.-C. Jagau,  
 Hyunjun Ji,  B. Kaduk,  K. Khistyaev,  Jaehoon Kim,  P. Klunzinger,  K. Koh,  
 D. Kosenkov,  L. Koulias,  T. Kowalczyk,  C. M. Krauter,  A. Kunitsa,  
 Ka Un Lao,  A. Laurent,  K. V. Lawler,  Joonho Lee,  D. Lefrancois,  
 S. Lehtola,  D. S. Levine,  Yi-Pei Li,  You-Sheng Lin,  Fenglai Liu,  
 Kuan-Yu Liu,  E. Livshits,  M. Loipersberger,  A. Luenser,  P. Manohar,  
 E. Mansoor,  S. F. Manzer,  Shan-Ping Mao,  Yuezhi Mao,  N. Mardirossian,  
 A. V. Marenich,  T. Markovich,  L. A. Martinez-Martinez,  S. A. Maurer,  
 N. J. Mayhall,  S. C. McKenzie,  J.-M. Mewes,  P. Morgante,  A. F. Morrison,  
 J. W. Mullinax,  K. Nanda,  T. S. Nguyen-Beck,  R. Olivares-Amaya,  
 J. A. Parkhill,  S. K. Paul,  F. Pavosevic,  Zheng Pei,  T. M. Perrine,  
 F. Plasser,  P. Pokhilko,  S. Prager,  A. Prociuk,  E. Ramos,  B. Rana,  
 D. R. Rehn,  F. Rob,  M. Scheurer,  M. Schneider,  N. Sergueev,  
 S. M. Sharada,  S. Sharma,  D. W. Small,  T. Stauch,  C. J. Stein,  
 T. Stein,  Yu-Chuan Su,  S. P. Veccham,  Zhen Tao,  A. J. W. Thom,  
 A. Tkatchenko,  T. Tsuchimochi,  N. M. Tubman,  L. Vogt,  M. L. Vidal,  
 O. Vydrov,  M. A. Watson,  J. Wenzel,  M. de Wergifosse,  T. A. Wesolowski,  
 A. White,  J. Witte,  A. Yamada,  Jun Yang,  K. Yao,  S. Yeganeh,  
 S. R. Yost,  Zhi-Qiang You,  A. Zech,  Igor Ying Zhang,  Xing Zhang,  
 Yan Zhao,  Ying Zhu,  B. R. Brooks,  G. K. L. Chan,  C. J. Cramer,  
 M. S. Gordon,  W. J. Hehre,  A. Klamt,  M. W. Schmidt,  C. D. Sherrill,  
 D. G. Truhlar,  A. Aspuru-Guzik,  R. Baer,  A. T. Bell,  N. A. Besley,  
 Jeng-Da Chai,  A. E. DePrince, III,  R. A. DiStasio Jr.,  A. Dreuw,  
 B. D. Dunietz,  T. R. Furlani,  Chao-Ping Hsu,  Yousung Jung,  Jing Kong,  
 D. S. Lambrecht,  WanZhen Liang,  C. Ochsenfeld,  V. A. Rassolov,  
 L. V. Slipchenko,  J. E. Subotnik,  T. Van Voorhis,  J. M. Herbert,  
 A. I. Krylov,  P. M. W. Gill,  M. Head-Gordon

 Contributors to earlier versions of Q-Chem not listed above: 
 R. D. Adamson,  B. Austin,  J. Baker,  G. J. O. Beran,  K. Brandhorst,  
 S. T. Brown,  E. F. C. Byrd,  A. K. Chakraborty,  C.-L. Cheng,  
 Siu Hung Chien,  D. M. Chipman,  D. L. Crittenden,  H. Dachsel,  
 R. J. Doerksen,  A. D. Dutoi,  L. Fusti-Molnar,  W. A. Goddard III,  
 A. Golubeva-Zadorozhnaya,  S. R. Gwaltney,  G. Hawkins,  A. Heyden,  
 S. Hirata,  G. Kedziora,  F. J. Keil,  C. Kelley,  Jihan Kim,  R. A. King,  
 R. Z. Khaliullin,  P. P. Korambath,  W. Kurlancheek,  A. M. Lee,  M. S. Lee,  
 S. V. Levchenko,  Ching Yeh Lin,  D. Liotard,  R. C. Lochan,  I. Lotan,  
 P. E. Maslen,  N. Nair,  D. P. O'Neill,  D. Neuhauser,  E. Neuscamman,  
 C. M. Oana,  R. Olson,  B. Peters,  R. Peverati,  P. A. Pieniazek,  
 Y. M. Rhee,  J. Ritchie,  M. A. Rohrdanz,  E. Rosta,  N. J. Russ,  
 H. F. Schaefer III,  N. E. Schultz,  N. Shenvi,  A. C. Simmonett,  A. Sodt,  
 D. Stuck,  K. S. Thanthiriwatte,  V. Vanovschi,  Tao Wang,  A. Warshel,  
 C. F. Williams,  Q. Wu,  X. Xu,  W. Zhang

 Please cite Q-Chem as follows:
 Y. Shao et al., Mol. Phys. 113, 184-215 (2015)
 DOI: 10.1080/00268976.2014.952696

 Q-Chem 5.2.2 for Intel X86 EM64T Linux

 Parts of Q-Chem use Armadillo 9.800.1 (Horizon Scraper).
 http://arma.sourceforge.net/

 Q-Chem begins on Sat Dec  4 00:25:19 2021  

Host: node029
0

     Scratch files written to /home/ymao90/scratch/r7.00_frame_0084_spade_B3LYP_dp20211203120854//

Checking the input file for inconsistencies... 	...done.

--------------------------------------------------------------
User input:
--------------------------------------------------------------
$molecule
0 1
--
0 1
C    29.12800   28.75000   24.35800  
C    27.72800   28.69800   24.99200  
C    27.14000   27.27800   24.96500  
C    28.10700   26.23200   25.54400  
C    29.43200   26.22900   24.76400  
C    30.06700   27.62700   24.82900  
H    26.15100   27.05700   25.38600  
H    27.83700   28.98100   26.04600  
H    29.02800   28.66600   23.26900  
H    29.63200   29.69000   24.61200  
H    28.44300   26.43500   26.56800  
H    27.77300   25.18700   25.55500  
H    30.12300   25.50600   25.21400  
H    29.25500   25.81200   23.76500  
H    30.42800   27.80000   25.85000  
H    31.00900   27.63000   24.26700  
H    26.98800   26.96500   23.92500  
N    26.79500   29.62700   24.35700  
H    26.02700   29.24200   23.81900  
C    26.90500   30.99900   24.42600  
H    26.13900   31.42900   23.75500  
O    27.74800   31.62100   25.04800  
--
0 1
C    22.01300   33.43500   24.20500  
H    20.96100   33.36600   23.91800  
H    22.24500   32.65400   24.93400  
H    22.22900   34.46400   24.50300  
S    22.88200   32.82200   22.74400  
C    22.30300   31.11100   22.69600  
H    22.97500   30.53800   22.05300  
H    22.32800   30.67000   23.69600  
H    21.27000   31.08400   22.34100  
O    24.31600   32.66100   23.14100  
C    35.74700   33.07000   26.38700  
H    34.95200   33.50600   25.77700  
H    36.14300   33.85100   27.04100  
H    36.52400   32.62600   25.76000  
S    34.93200   31.80600   27.39000  
C    34.14100   30.66600   26.23200  
H    33.35000   30.12700   26.75900  
H    33.60800   31.23800   25.46900  
H    34.71900   29.88200   25.73700  
O    33.77400   32.60000   27.90900  
C    31.81300   34.42900   25.37500  
H    32.67000   34.00400   24.84700  
H    31.79200   35.51600   25.48900  
H    31.85700   33.95400   26.35900  
S    30.28300   33.80600   24.64400  
C    30.82200   32.08600   24.50800  
H    30.03300   31.55200   23.97300  
H    31.73100   32.00100   23.90600  
H    30.99800   31.74300   25.53100  
O    30.21700   34.22900   23.20900  
C    32.09400   31.90600   20.76200  
H    32.33600   32.10800   19.71500  
H    31.51000   32.75200   21.13300  
H    32.99700   31.56100   21.27000  
S    31.10200   30.39900   20.67000  
C    29.35500   30.86100   20.66400  
H    28.85200   29.89400   20.75300  
H    29.18900   31.47900   21.55000  
H    29.14100   31.48800   19.79500  
O    31.32100   29.84000   22.04200  
C    29.70300   32.52900   28.75300  
H    29.28200   32.57400   29.76100  
H    30.79500   32.57000   28.78000  
H    29.16700   33.33600   28.24700  
S    29.35100   30.91700   28.01600  
C    27.63000   30.86200   28.56300  
H    26.90900   31.42100   27.96100  
H    27.42500   29.79200   28.47900  
H    27.50700   31.08300   29.62600  
O    30.03200   30.11000   29.07600  
C    22.95600   25.40900   28.65900  
H    22.53500   24.53800   28.14900  
H    22.37600   25.42400   29.58500  
H    22.76100   26.31100   28.07400  
S    24.74300   25.27800   28.89100  
C    24.68100   23.67100   29.71500  
H    25.69000   23.35700   29.99300  
H    23.98900   23.59200   30.55800  
H    24.36300   22.95700   28.95200  
O    25.10600   26.28300   29.94000  
C    29.12900   22.70400   21.28000  
H    28.56900   22.95100   22.18600  
H    28.53800   22.69600   20.36100  
H    29.62500   21.73700   21.39400  
S    30.47800   23.90200   21.19000  
C    31.22000   23.02500   19.79500  
H    32.12000   23.58900   19.53800  
H    31.45800   22.02900   20.17600  
H    30.41900   23.09500   19.05500  
O    31.32600   23.69300   22.40600  
C    29.50200   22.34100   26.25600  
H    30.48200   21.90900   26.03500  
H    28.83600   22.32800   25.38900  
H    29.62400   23.34700   26.66600  
S    28.67200   21.32700   27.50000  
C    28.18600   19.98200   26.39600  
H    27.56700   19.23300   26.89700  
H    27.58100   20.33100   25.55500  
H    29.11000   19.51300   26.05000  
O    27.34100   21.99000   27.68000  
C    21.97200   25.39900   25.44100  
H    22.98200   25.10300   25.73500  
H    22.02400   26.28600   24.80500  
H    21.33700   25.53300   26.32100  
S    21.21500   23.92100   24.72700  
C    19.48300   24.38100   24.96300  
H    18.82400   24.03000   24.16400  
H    19.22500   24.18200   26.00600  
H    19.55500   25.46600   24.85500  
O    21.28300   22.94700   25.86100  
C    25.49200   26.40800   21.47000  
H    26.08100   25.94100   22.26300  
H    25.14500   25.68100   20.73200  
H    26.14500   27.19000   21.07500  
S    24.05500   27.14600   22.28100  
C    23.15700   27.76700   20.84200  
H    23.11300   27.18000   19.92100  
H    22.12000   27.97300   21.12000  
H    23.53000   28.74900   20.54200  
O    24.66600   28.39900   22.82600  
C    26.80200   34.84200   24.64900  
H    26.72900   35.42500   25.57100  
H    26.57800   33.77500   24.73400  
H    27.83500   35.00800   24.33200  
S    25.78000   35.55000   23.33800  
C    26.77700   34.84600   22.00500  
H    26.71200   33.75500   21.99400  
H    26.38200   35.23500   21.06300  
H    27.81200   35.14600   22.18800  
O    26.29500   36.94500   23.16300  
C    36.00900   22.13900   20.74500  
H    35.99700   21.65500   19.76500  
H    36.34600   23.17700   20.68000  
H    36.59700   21.52200   21.42900  
S    34.31600   22.21600   21.37100  
C    34.64500   22.67100   23.08800  
H    35.11200   23.66000   23.08800  
H    33.66200   22.76900   23.55700  
H    35.25600   21.90700   23.57400  
O    33.84100   20.80000   21.46800  
C    34.96800   28.18200   23.31500  
H    34.50600   27.87000   24.25500  
H    35.87500   27.61100   23.10300  
H    35.25700   29.23100   23.42000  
S    33.92800   28.10500   21.84000  
C    33.35100   26.39800   21.97300  
H    32.68000   26.35900   21.11100  
H    34.22200   25.78300   21.73400  
H    32.87400   26.14300   22.92300  
O    34.81900   27.99800   20.64200  
C    28.45200   31.39400   32.46500  
H    27.73300   31.78900   33.18700  
H    29.41700   31.43700   32.97800  
H    28.45000   31.90200   31.49800  
S    27.91900   29.69300   32.17100  
C    26.21700   30.01600   31.65800  
H    25.69400   30.10300   32.61300  
H    26.16600   31.01000   31.20500  
H    25.78300   29.19300   31.08400  
O    27.69400   29.23800   33.57900  
C    26.66200   26.55500   18.27500  
H    26.19600   27.43600   18.72500  
H    27.04700   26.72900   17.26700  
H    25.83900   25.84500   18.39200  
S    28.01100   26.04700   19.36400  
C    29.02800   27.53600   19.23800  
H    28.26600   28.26200   19.53200  
H    29.90400   27.41800   19.88100  
H    29.29000   27.69800   18.18900  
O    28.85800   25.16000   18.50600  
C    33.60500   18.31500   24.64300  
H    34.01400   17.60300   25.36500  
H    33.79800   18.01700   23.61000  
H    34.06800   19.29200   24.80500  
S    31.84500   18.57900   24.95600  
C    31.62400   19.90000   23.74200  
H    31.74000   19.60200   22.69700  
H    30.62200   20.21600   24.04200  
H    32.35200   20.68300   23.97000  
O    31.81600   19.17500   26.32900  
C    33.37900   26.41900   26.77700  
H    32.37300   26.84000   26.70600  
H    33.46100   25.91500   27.74400  
H    34.23500   27.09600   26.72900  
S    33.53800   25.06300   25.59300  
C    33.24300   23.67300   26.71000  
H    33.96500   23.95500   27.48200  
H    32.28500   23.87500   27.19600  
H    33.39000   22.70600   26.22300  
O    35.00100   24.93700   25.30000  
C    23.24000   30.78100   26.30000  
H    24.06600   31.40800   25.95500  
H    23.04200   29.93900   25.63100  
H    22.34900   31.38800   26.48200  
S    23.52200   30.04000   27.92400  
C    24.61600   28.68200   27.45100  
H    24.51200   27.88900   28.19600  
H    24.31800   28.35000   26.45300  
H    25.67300   28.96100   27.47100  
O    22.16900   29.44600   28.16100  
C    25.57200   35.66100   29.81600  
H    26.53500   36.16600   29.71000  
H    24.72400   36.15700   29.33700  
H    25.46300   35.63800   30.90300  
S    25.89300   33.98500   29.22200  
C    25.23200   34.07000   27.54200  
H    25.54700   35.02900   27.12400  
H    25.75200   33.32000   26.94000  
H    24.14300   33.98400   27.58000  
O    24.97600   32.92700   29.75300  
C    25.21800   31.05900   20.07800  
H    26.26300   30.79400   19.90100  
H    25.22500   32.09800   20.41800  
H    24.72300   30.42500   20.81800  
S    24.37300   31.11100   18.48200  
C    22.78500   31.65900   19.14900  
H    22.46700   31.00400   19.96400  
H    22.87900   32.65500   19.58900  
H    22.00500   31.61200   18.38600  
O    24.09100   29.65000   18.32100  
C    24.41500   21.15400   24.23800  
H    24.80000   20.40500   24.93400  
H    23.37100   21.32800   24.51000  
H    24.49600   20.70500   23.24500  
S    25.35400   22.69700   24.30800  
C    25.00100   23.08600   26.03700  
H    23.95400   23.39500   25.96500  
H    25.24000   22.26300   26.71400  
H    25.53000   24.02900   26.19800  
O    24.41300   23.67500   23.67500  
C    28.83300   26.97300   29.15300  
H    27.96200   26.33100   29.00000  
H    28.62700   27.81000   29.82600  
H    29.21100   27.33900   28.19500  
S    30.24300   25.96500   29.66200  
C    31.28000   27.35900   30.16000  
H    32.33700   27.20200   30.39300  
H    31.12400   28.05700   29.33400  
H    30.77100   27.93600   30.93600  
O    30.75900   25.51600   28.33100  
C    22.04700   23.75600   20.85900  
H    21.56800   24.52400   20.24600  
H    21.36300   23.01300   21.27700  
H    22.58700   24.07800   21.75200  
S    23.15100   23.12100   19.57700  
C    24.19600   22.23500   20.75500  
H    23.60700   21.75600   21.54200  
H    24.83100   21.49200   20.26400  
H    24.83200   23.04000   21.13200  
O    23.90800   24.30000   19.04900  
$end

$rem
JOBTYPE  SP
METHOD  B3LYP
BASIS  6-31+G(D)
SYMMETRY  FALSE
SYM_IGNORE  TRUE
MEM_TOTAL  16000
MEM_STATIC  8000
MAX_SUB_FILE_NUM  16000
BASIS_LIN_DEP_THRESH  6
THRESH  14
SCF_CONVERGENCE  8
GEN_SCFMAN  TRUE
SCF_GUESS  SAD
FD_MAT_VEC_PROD  FALSE
XC_GRID  000075000302
NL_GRID  1
MAX_SCF_CYCLES  200
ENV_METHOD  B3LYP
GEN_SCFMAN_EMBED  TRUE
SPADE_PARTITION  TRUE
$end

$development
embedding_early_stop  1
$end

--------------------------------------------------------------
 ----------------------------------------------------------------
             Standard Nuclear Orientation (Angstroms)
    I     Atom           X                Y                Z
 ----------------------------------------------------------------
    1      C      29.1280000000    28.7500000000    24.3580000000
    2      C      27.7280000000    28.6980000000    24.9920000000
    3      C      27.1400000000    27.2780000000    24.9650000000
    4      C      28.1070000000    26.2320000000    25.5440000000
    5      C      29.4320000000    26.2290000000    24.7640000000
    6      C      30.0670000000    27.6270000000    24.8290000000
    7      H      26.1510000000    27.0570000000    25.3860000000
    8      H      27.8370000000    28.9810000000    26.0460000000
    9      H      29.0280000000    28.6660000000    23.2690000000
   10      H      29.6320000000    29.6900000000    24.6120000000
   11      H      28.4430000000    26.4350000000    26.5680000000
   12      H      27.7730000000    25.1870000000    25.5550000000
   13      H      30.1230000000    25.5060000000    25.2140000000
   14      H      29.2550000000    25.8120000000    23.7650000000
   15      H      30.4280000000    27.8000000000    25.8500000000
   16      H      31.0090000000    27.6300000000    24.2670000000
   17      H      26.9880000000    26.9650000000    23.9250000000
   18      N      26.7950000000    29.6270000000    24.3570000000
   19      H      26.0270000000    29.2420000000    23.8190000000
   20      C      26.9050000000    30.9990000000    24.4260000000
   21      H      26.1390000000    31.4290000000    23.7550000000
   22      O      27.7480000000    31.6210000000    25.0480000000
   23      C      22.0130000000    33.4350000000    24.2050000000
   24      H      20.9610000000    33.3660000000    23.9180000000
   25      H      22.2450000000    32.6540000000    24.9340000000
   26      H      22.2290000000    34.4640000000    24.5030000000
   27      S      22.8820000000    32.8220000000    22.7440000000
   28      C      22.3030000000    31.1110000000    22.6960000000
   29      H      22.9750000000    30.5380000000    22.0530000000
   30      H      22.3280000000    30.6700000000    23.6960000000
   31      H      21.2700000000    31.0840000000    22.3410000000
   32      O      24.3160000000    32.6610000000    23.1410000000
   33      C      35.7470000000    33.0700000000    26.3870000000
   34      H      34.9520000000    33.5060000000    25.7770000000
   35      H      36.1430000000    33.8510000000    27.0410000000
   36      H      36.5240000000    32.6260000000    25.7600000000
   37      S      34.9320000000    31.8060000000    27.3900000000
   38      C      34.1410000000    30.6660000000    26.2320000000
   39      H      33.3500000000    30.1270000000    26.7590000000
   40      H      33.6080000000    31.2380000000    25.4690000000
   41      H      34.7190000000    29.8820000000    25.7370000000
   42      O      33.7740000000    32.6000000000    27.9090000000
   43      C      31.8130000000    34.4290000000    25.3750000000
   44      H      32.6700000000    34.0040000000    24.8470000000
   45      H      31.7920000000    35.5160000000    25.4890000000
   46      H      31.8570000000    33.9540000000    26.3590000000
   47      S      30.2830000000    33.8060000000    24.6440000000
   48      C      30.8220000000    32.0860000000    24.5080000000
   49      H      30.0330000000    31.5520000000    23.9730000000
   50      H      31.7310000000    32.0010000000    23.9060000000
   51      H      30.9980000000    31.7430000000    25.5310000000
   52      O      30.2170000000    34.2290000000    23.2090000000
   53      C      32.0940000000    31.9060000000    20.7620000000
   54      H      32.3360000000    32.1080000000    19.7150000000
   55      H      31.5100000000    32.7520000000    21.1330000000
   56      H      32.9970000000    31.5610000000    21.2700000000
   57      S      31.1020000000    30.3990000000    20.6700000000
   58      C      29.3550000000    30.8610000000    20.6640000000
   59      H      28.8520000000    29.8940000000    20.7530000000
   60      H      29.1890000000    31.4790000000    21.5500000000
   61      H      29.1410000000    31.4880000000    19.7950000000
   62      O      31.3210000000    29.8400000000    22.0420000000
   63      C      29.7030000000    32.5290000000    28.7530000000
   64      H      29.2820000000    32.5740000000    29.7610000000
   65      H      30.7950000000    32.5700000000    28.7800000000
   66      H      29.1670000000    33.3360000000    28.2470000000
   67      S      29.3510000000    30.9170000000    28.0160000000
   68      C      27.6300000000    30.8620000000    28.5630000000
   69      H      26.9090000000    31.4210000000    27.9610000000
   70      H      27.4250000000    29.7920000000    28.4790000000
   71      H      27.5070000000    31.0830000000    29.6260000000
   72      O      30.0320000000    30.1100000000    29.0760000000
   73      C      22.9560000000    25.4090000000    28.6590000000
   74      H      22.5350000000    24.5380000000    28.1490000000
   75      H      22.3760000000    25.4240000000    29.5850000000
   76      H      22.7610000000    26.3110000000    28.0740000000
   77      S      24.7430000000    25.2780000000    28.8910000000
   78      C      24.6810000000    23.6710000000    29.7150000000
   79      H      25.6900000000    23.3570000000    29.9930000000
   80      H      23.9890000000    23.5920000000    30.5580000000
   81      H      24.3630000000    22.9570000000    28.9520000000
   82      O      25.1060000000    26.2830000000    29.9400000000
   83      C      29.1290000000    22.7040000000    21.2800000000
   84      H      28.5690000000    22.9510000000    22.1860000000
   85      H      28.5380000000    22.6960000000    20.3610000000
   86      H      29.6250000000    21.7370000000    21.3940000000
   87      S      30.4780000000    23.9020000000    21.1900000000
   88      C      31.2200000000    23.0250000000    19.7950000000
   89      H      32.1200000000    23.5890000000    19.5380000000
   90      H      31.4580000000    22.0290000000    20.1760000000
   91      H      30.4190000000    23.0950000000    19.0550000000
   92      O      31.3260000000    23.6930000000    22.4060000000
   93      C      29.5020000000    22.3410000000    26.2560000000
   94      H      30.4820000000    21.9090000000    26.0350000000
   95      H      28.8360000000    22.3280000000    25.3890000000
   96      H      29.6240000000    23.3470000000    26.6660000000
   97      S      28.6720000000    21.3270000000    27.5000000000
   98      C      28.1860000000    19.9820000000    26.3960000000
   99      H      27.5670000000    19.2330000000    26.8970000000
  100      H      27.5810000000    20.3310000000    25.5550000000
  101      H      29.1100000000    19.5130000000    26.0500000000
  102      O      27.3410000000    21.9900000000    27.6800000000
  103      C      21.9720000000    25.3990000000    25.4410000000
  104      H      22.9820000000    25.1030000000    25.7350000000
  105      H      22.0240000000    26.2860000000    24.8050000000
  106      H      21.3370000000    25.5330000000    26.3210000000
  107      S      21.2150000000    23.9210000000    24.7270000000
  108      C      19.4830000000    24.3810000000    24.9630000000
  109      H      18.8240000000    24.0300000000    24.1640000000
  110      H      19.2250000000    24.1820000000    26.0060000000
  111      H      19.5550000000    25.4660000000    24.8550000000
  112      O      21.2830000000    22.9470000000    25.8610000000
  113      C      25.4920000000    26.4080000000    21.4700000000
  114      H      26.0810000000    25.9410000000    22.2630000000
  115      H      25.1450000000    25.6810000000    20.7320000000
  116      H      26.1450000000    27.1900000000    21.0750000000
  117      S      24.0550000000    27.1460000000    22.2810000000
  118      C      23.1570000000    27.7670000000    20.8420000000
  119      H      23.1130000000    27.1800000000    19.9210000000
  120      H      22.1200000000    27.9730000000    21.1200000000
  121      H      23.5300000000    28.7490000000    20.5420000000
  122      O      24.6660000000    28.3990000000    22.8260000000
  123      C      26.8020000000    34.8420000000    24.6490000000
  124      H      26.7290000000    35.4250000000    25.5710000000
  125      H      26.5780000000    33.7750000000    24.7340000000
  126      H      27.8350000000    35.0080000000    24.3320000000
  127      S      25.7800000000    35.5500000000    23.3380000000
  128      C      26.7770000000    34.8460000000    22.0050000000
  129      H      26.7120000000    33.7550000000    21.9940000000
  130      H      26.3820000000    35.2350000000    21.0630000000
  131      H      27.8120000000    35.1460000000    22.1880000000
  132      O      26.2950000000    36.9450000000    23.1630000000
  133      C      36.0090000000    22.1390000000    20.7450000000
  134      H      35.9970000000    21.6550000000    19.7650000000
  135      H      36.3460000000    23.1770000000    20.6800000000
  136      H      36.5970000000    21.5220000000    21.4290000000
  137      S      34.3160000000    22.2160000000    21.3710000000
  138      C      34.6450000000    22.6710000000    23.0880000000
  139      H      35.1120000000    23.6600000000    23.0880000000
  140      H      33.6620000000    22.7690000000    23.5570000000
  141      H      35.2560000000    21.9070000000    23.5740000000
  142      O      33.8410000000    20.8000000000    21.4680000000
  143      C      34.9680000000    28.1820000000    23.3150000000
  144      H      34.5060000000    27.8700000000    24.2550000000
  145      H      35.8750000000    27.6110000000    23.1030000000
  146      H      35.2570000000    29.2310000000    23.4200000000
  147      S      33.9280000000    28.1050000000    21.8400000000
  148      C      33.3510000000    26.3980000000    21.9730000000
  149      H      32.6800000000    26.3590000000    21.1110000000
  150      H      34.2220000000    25.7830000000    21.7340000000
  151      H      32.8740000000    26.1430000000    22.9230000000
  152      O      34.8190000000    27.9980000000    20.6420000000
  153      C      28.4520000000    31.3940000000    32.4650000000
  154      H      27.7330000000    31.7890000000    33.1870000000
  155      H      29.4170000000    31.4370000000    32.9780000000
  156      H      28.4500000000    31.9020000000    31.4980000000
  157      S      27.9190000000    29.6930000000    32.1710000000
  158      C      26.2170000000    30.0160000000    31.6580000000
  159      H      25.6940000000    30.1030000000    32.6130000000
  160      H      26.1660000000    31.0100000000    31.2050000000
  161      H      25.7830000000    29.1930000000    31.0840000000
  162      O      27.6940000000    29.2380000000    33.5790000000
  163      C      26.6620000000    26.5550000000    18.2750000000
  164      H      26.1960000000    27.4360000000    18.7250000000
  165      H      27.0470000000    26.7290000000    17.2670000000
  166      H      25.8390000000    25.8450000000    18.3920000000
  167      S      28.0110000000    26.0470000000    19.3640000000
  168      C      29.0280000000    27.5360000000    19.2380000000
  169      H      28.2660000000    28.2620000000    19.5320000000
  170      H      29.9040000000    27.4180000000    19.8810000000
  171      H      29.2900000000    27.6980000000    18.1890000000
  172      O      28.8580000000    25.1600000000    18.5060000000
  173      C      33.6050000000    18.3150000000    24.6430000000
  174      H      34.0140000000    17.6030000000    25.3650000000
  175      H      33.7980000000    18.0170000000    23.6100000000
  176      H      34.0680000000    19.2920000000    24.8050000000
  177      S      31.8450000000    18.5790000000    24.9560000000
  178      C      31.6240000000    19.9000000000    23.7420000000
  179      H      31.7400000000    19.6020000000    22.6970000000
  180      H      30.6220000000    20.2160000000    24.0420000000
  181      H      32.3520000000    20.6830000000    23.9700000000
  182      O      31.8160000000    19.1750000000    26.3290000000
  183      C      33.3790000000    26.4190000000    26.7770000000
  184      H      32.3730000000    26.8400000000    26.7060000000
  185      H      33.4610000000    25.9150000000    27.7440000000
  186      H      34.2350000000    27.0960000000    26.7290000000
  187      S      33.5380000000    25.0630000000    25.5930000000
  188      C      33.2430000000    23.6730000000    26.7100000000
  189      H      33.9650000000    23.9550000000    27.4820000000
  190      H      32.2850000000    23.8750000000    27.1960000000
  191      H      33.3900000000    22.7060000000    26.2230000000
  192      O      35.0010000000    24.9370000000    25.3000000000
  193      C      23.2400000000    30.7810000000    26.3000000000
  194      H      24.0660000000    31.4080000000    25.9550000000
  195      H      23.0420000000    29.9390000000    25.6310000000
  196      H      22.3490000000    31.3880000000    26.4820000000
  197      S      23.5220000000    30.0400000000    27.9240000000
  198      C      24.6160000000    28.6820000000    27.4510000000
  199      H      24.5120000000    27.8890000000    28.1960000000
  200      H      24.3180000000    28.3500000000    26.4530000000
  201      H      25.6730000000    28.9610000000    27.4710000000
  202      O      22.1690000000    29.4460000000    28.1610000000
  203      C      25.5720000000    35.6610000000    29.8160000000
  204      H      26.5350000000    36.1660000000    29.7100000000
  205      H      24.7240000000    36.1570000000    29.3370000000
  206      H      25.4630000000    35.6380000000    30.9030000000
  207      S      25.8930000000    33.9850000000    29.2220000000
  208      C      25.2320000000    34.0700000000    27.5420000000
  209      H      25.5470000000    35.0290000000    27.1240000000
  210      H      25.7520000000    33.3200000000    26.9400000000
  211      H      24.1430000000    33.9840000000    27.5800000000
  212      O      24.9760000000    32.9270000000    29.7530000000
  213      C      25.2180000000    31.0590000000    20.0780000000
  214      H      26.2630000000    30.7940000000    19.9010000000
  215      H      25.2250000000    32.0980000000    20.4180000000
  216      H      24.7230000000    30.4250000000    20.8180000000
  217      S      24.3730000000    31.1110000000    18.4820000000
  218      C      22.7850000000    31.6590000000    19.1490000000
  219      H      22.4670000000    31.0040000000    19.9640000000
  220      H      22.8790000000    32.6550000000    19.5890000000
  221      H      22.0050000000    31.6120000000    18.3860000000
  222      O      24.0910000000    29.6500000000    18.3210000000
  223      C      24.4150000000    21.1540000000    24.2380000000
  224      H      24.8000000000    20.4050000000    24.9340000000
  225      H      23.3710000000    21.3280000000    24.5100000000
  226      H      24.4960000000    20.7050000000    23.2450000000
  227      S      25.3540000000    22.6970000000    24.3080000000
  228      C      25.0010000000    23.0860000000    26.0370000000
  229      H      23.9540000000    23.3950000000    25.9650000000
  230      H      25.2400000000    22.2630000000    26.7140000000
  231      H      25.5300000000    24.0290000000    26.1980000000
  232      O      24.4130000000    23.6750000000    23.6750000000
  233      C      28.8330000000    26.9730000000    29.1530000000
  234      H      27.9620000000    26.3310000000    29.0000000000
  235      H      28.6270000000    27.8100000000    29.8260000000
  236      H      29.2110000000    27.3390000000    28.1950000000
  237      S      30.2430000000    25.9650000000    29.6620000000
  238      C      31.2800000000    27.3590000000    30.1600000000
  239      H      32.3370000000    27.2020000000    30.3930000000
  240      H      31.1240000000    28.0570000000    29.3340000000
  241      H      30.7710000000    27.9360000000    30.9360000000
  242      O      30.7590000000    25.5160000000    28.3310000000
  243      C      22.0470000000    23.7560000000    20.8590000000
  244      H      21.5680000000    24.5240000000    20.2460000000
  245      H      21.3630000000    23.0130000000    21.2770000000
  246      H      22.5870000000    24.0780000000    21.7520000000
  247      S      23.1510000000    23.1210000000    19.5770000000
  248      C      24.1960000000    22.2350000000    20.7550000000
  249      H      23.6070000000    21.7560000000    21.5420000000
  250      H      24.8310000000    21.4920000000    20.2640000000
  251      H      24.8320000000    23.0400000000    21.1320000000
  252      O      23.9080000000    24.3000000000    19.0490000000
 ----------------------------------------------------------------
 Nuclear Repulsion Energy =       37322.42406568 hartrees
 There are      518 alpha and      518 beta electrons
 Requested basis set is 6-31+G(d)
 There are 830 shells and 2313 basis functions

 Total QAlloc Memory Limit  16000 MB
 Mega-Array Size      7821 MB
 MEM_STATIC part      8000 MB
 A cutoff of  1.0D-14 yielded 142139 shell pairs
 There are   1221288 function pairs
 Smallest overlap matrix eigenvalue = 5.65E-07
 Linear dependence detected in AO basis
 Tighter screening thresholds may be required for diffuse basis sets
 Use S2THRESH > 14 and THRESH = 14 in case of SCF convergence issues
 Number of orthogonalized atomic orbitals = 2311
 Maximum deviation from orthogonality = 1.285E-10

 Scale SEOQF with 1.000000e-03/1.000000e-03/1.000000e-03

 Standard Electronic Orientation quadrupole field applied
 Nucleus-field energy     =     0.0000001878 hartrees
 Guess from superposition of atomic densities
 Warning:  Energy on first SCF cycle will be non-variational
 SAD guess density has 1036.000002 electrons

 -----------------------------------------------------------------------
  General SCF calculation program by
  Eric Jon Sundstrom, Paul Horn, Yuezhi Mao, Dmitri Zuev, Alec White,
  David Stuck, Shaama M.S., Shane Yost, Joonho Lee, David Small,
  Daniel Levine, Susi Lehtola, Hugh Burton, Evgeny Epifanovsky,
  Bang C. Huynh
 -----------------------------------------------------------------------
=================================================
        Doing projection-based embedding         
      F. Manby et al. JCTC, 8, 2564 (2012)       
=================================================

****************************************************
   Low-level SCF calculation for the whole system   
****************************************************
----------------------------------------------
 Summary of the low-level theory: 
 Exchange:     0.2000 Hartree-Fock + 0.0800 Slater + 0.7200 B88
 Correlation:  0.1900 VWN1RPA + 0.8100 LYP
 Using Euler-Maclaurin-Lebedev (75,302) quadrature formula
----------------------------------------------
 using 16 threads for integral computing
 -------------------------------------------------------
 OpenMP Integral computing Module                
 Release: version 2.0, May 2017, Q-Chem Inc. Pleasanton 
 -------------------------------------------------------
 A restricted SCF calculation will be
 performed using DIIS
 SCF converges when DIIS error is below 1.0e-08
 ---------------------------------------
  Cycle       Energy         DIIS error
 ---------------------------------------
    1  -13144.5508398064      1.45e-02  
    2  -13123.8451505120      2.68e-03  
    3  -13113.9503620829      5.02e-03  
    4  -13127.3271408987      1.02e-03  
    5  -13127.9541394859      1.96e-04  
    6  -13127.9712842113      1.07e-04  
    7  -13127.9766585476      4.06e-05  
    8  -13127.9775541878      6.95e-06  
    9  -13127.9775794038      3.28e-06  
   10  -13127.9775850900      1.11e-06  
   11  -13127.9775856836      4.07e-07  
   12  -13127.9775857712      1.11e-07  
   13  -13127.9775857774      4.64e-08  
   14  -13127.9775857787      1.93e-08  
   15  -13127.9775857789      5.38e-09  Convergence criterion met
 ---------------------------------------
 SCF time:   CPU 127121.55s  wall 8029.00s 
 SCF   energy in the final basis set =   -13127.9775857789
 Total energy in the final basis set =   -13127.9775857789

****************************************************
             Start embedding calculation            
****************************************************
----------------------------------------------
 Summary of the high-level theory: 
 Exchange:     0.2000 Hartree-Fock + 0.0800 Slater + 0.7200 B88
 Correlation:  0.1900 VWN1RPA + 0.8100 LYP
 Using Euler-Maclaurin-Lebedev (75,302) quadrature formula
----------------------------------------------
Doing R-in-R Embedding Calculation
Number of fragments: 2
Embedded fragment(s): 1 
NOcc for each fragment
           35
          483
NBasis for each fragment
          197
         2116
Variational space of the embedded problem: 
NOcc (active)  = 35
NOcc (fixed)   = 483
NVir (total)   = 1793
Read converged orbitals from disk
=========================================================
       Doing SPADE partition for the orbital space       
     D. CLaudino and N. Mayhall JCTC 15, 1053 (2019)     
=========================================================
SPADE singular values:
 1.0000 1.0000 1.0000 1.0000 1.0000 1.0000 1.0000 1.0000 1.0000 0.9999
 0.9999 0.9998 0.9997 0.9996 0.9995 0.9994 0.9994 0.9991 0.9979 0.9974
 0.9970 0.9969 0.9961 0.9960 0.9957 0.9950 0.9941 0.9936 0.9933 0.9922
 0.9916 0.9911 0.9893 0.9855 0.9793 0.2060 0.1876 0.1743 0.1564 0.1498
 0.1329 0.1255 0.1195 0.1094 0.0979 0.0957 0.0784 0.0750 0.0722 0.0661
 0.0631 0.0525 0.0493 0.0445 0.0417 0.0391 0.0365 0.0352 0.0313 0.0302
 0.0281 0.0271 0.0255 0.0239 0.0212 0.0202 0.0195 0.0186 0.0174 0.0170
 0.0166 0.0166 0.0154 0.0152 0.0141 0.0132 0.0121 0.0117 0.0108 0.0103
 0.0093 0.0091 0.0087 0.0083 0.0076 0.0075 0.0074 0.0073 0.0069 0.0066
 0.0060 0.0058 0.0056 0.0051 0.0050 0.0048 0.0047 0.0046 0.0040 0.0038
 0.0037 0.0033 0.0033 0.0032 0.0031 0.0029 0.0028 0.0027 0.0026 0.0024
 0.0021 0.0020 0.0019 0.0019 0.0018 0.0017 0.0016 0.0016 0.0015 0.0014
 0.0014 0.0014 0.0013 0.0013 0.0013 0.0012 0.0012 0.0011 0.0010 0.0010
 0.0010 0.0009 0.0009 0.0009 0.0009 0.0008 0.0008 0.0008 0.0007 0.0007
 0.0007 0.0006 0.0006 0.0006 0.0006 0.0005 0.0005 0.0005 0.0005 0.0004
 0.0004 0.0004 0.0004 0.0004 0.0003 0.0003 0.0003 0.0003 0.0003 0.0003
 0.0003 0.0003 0.0002 0.0002 0.0002 0.0002 0.0002 0.0002 0.0002 0.0002
 0.0002 0.0002 0.0002 0.0002 0.0001 0.0001 0.0001 0.0001 0.0001 0.0001
 0.0001 0.0001 0.0001 0.0001 0.0001 0.0001 0.0001 0.0001 0.0001 0.0001
 0.0001 0.0001 0.0001 0.0001 0.0001 0.0000 0.0000
Early stop requested!
483 environment occs will be part of frozen-core in future post-HF calculations
 
 --------------------------------------------------------------
 
                    Orbital Energies (a.u.)
 --------------------------------------------------------------
 
 Alpha MOs
 -- Occupied --
 -0.5341  -0.5044  -0.5072  -0.4889  -0.4961  -0.4488  -0.4992  -0.4674
 -0.4830  -0.5029  -0.4784  -0.4710  -0.4530  -0.4440  -0.4828  -0.4502
 -0.4667  -0.5324  -0.4960  -0.5492  -0.4555  -0.5210  -0.5036  -0.6328
 -0.5009  -0.5442  -0.5967  -0.5780  -0.5911  -0.5572  -0.5743  -0.6141
 -0.5256  -0.5573  -0.5463  -0.5883  -0.6301  -0.5307  -0.5305  -0.5475
 -0.5776  -0.5119  -0.5073  -0.5750  -0.5897  -0.5406  -0.5495  -0.6699
 -0.5370  -0.4971  -0.6162  -0.6090  -0.5601  -0.6223  -0.6135  -0.6504
 -0.6008  -0.7547  -0.6772  -0.5694  -0.6503  -0.6784  -0.7489  -0.6827
 -0.7338  -0.8928  -0.7056  -1.1093  -1.2761  -0.9743  -0.8504  -0.6561
 -1.0304  -0.7645  -0.9011  -0.6657  -0.8289  -0.7955  -1.0244  -1.2511
 -1.0487  -1.3851  -0.9393  -0.9961  -1.0459  -1.0438  -1.6851  -1.0903
 -1.0078  -1.0070  -1.2472  -1.3528  -1.1387  -0.9843  -1.6299  -2.7522
 -1.5542  -2.8129  -1.8971  -1.2384  -1.2271  -1.3285  -1.5229  -1.6963
 -3.0868  -1.2181  -1.2716  -2.4840  -1.3027  -1.2668  -2.4621  -1.8722
 -1.2271  -1.8135  -1.2761  -2.1325  -1.7093  -1.8416  -1.6608  -1.4367
 -1.4888  -1.1077  -1.5490  -1.4579  -2.0635  -1.3809  -1.2495  -1.1867
 -1.3815  -1.2757  -2.0509  -1.7120  -2.2259  -1.4577  -2.0862  -2.0935
 -1.8543  -1.8608  -1.3813  -2.1364  -1.4968  -2.2952  -2.2552  -1.7170
 -2.5498  -1.6000  -1.8247  -2.2575  -2.1270  -2.3729  -1.4896  -1.6064
 -2.1388  -1.7011  -1.8436  -2.2879  -1.9117  -1.9103  -2.6448  -1.6777
 -2.5244  -1.8989  -6.0837  -2.3206  -1.7602  -2.5088  -2.1356 -11.0479
 -3.4639  -1.8470  -4.1362  -6.0253 -32.8298  -5.5237  -8.1788  -7.2104
 -8.6558  -2.1310  -5.5498  -4.5205  -4.5255  -2.0309 -58.0235  -5.3735
-71.2552  -1.4000  -2.5966  -3.4424  -6.7425  -6.9968  -5.6561  -3.6473
 -2.6067  -5.7317 -10.5182 -13.7613  -2.6573 -12.6514  -1.0380 -11.6728
 -5.5961  -8.7094  -1.4168  -7.7942  -7.1393  -2.8493  -8.3938  -3.0753
 -3.5865  -4.4621  -4.9992 -24.3245 -53.5191 -56.1536  -7.0057 -14.7091
 -2.5260  -5.7136 -10.6294  -2.8839  -9.7280  -5.8549  -1.0483  -2.1593
-23.1078  -2.6388  -6.0230  -8.2043  -5.1216  -1.4286  -9.2548  -5.3043
-14.2302 -15.5884 -34.9287  -7.8594  -3.1749  -3.5778  -3.1674  -3.5186
 -2.7178 -62.2446 -12.1595  -8.7992  -5.0832  -4.4383  -4.7382 -19.1800
 -1.0913  -9.7721  -9.1655  -6.5811  -4.4258  -2.0348  -6.3234  -1.5839
 -3.9761 -46.5908 -55.3544 -42.5944  -3.6596  -2.8415  -4.8653  -2.6440
 -3.3801  -7.9535  -5.3294  -9.8258  -8.4795  -5.0819 -11.1252  -6.5345
 -3.3596 -10.9183  -9.3740 -14.6973 -10.3222 -13.6026 -17.2946  -7.2314
 -7.3016  -8.2606  -7.7210 -18.0230 -11.5524  -4.7749  -6.4212  -7.9546
 -4.0299  -5.8022 -12.4575  -7.6358  -5.4779  -6.5509 -10.8592  -6.2290
 -3.6354  -8.5883  -8.4514  -7.0761  -5.6012 -15.4943  -4.5536 -14.3654
 -5.2526  -4.0358  -5.0210  -7.5809  -4.2784 -10.4416  -9.3127  -6.0443
 -6.7125  -6.5094  -5.8996  -1.7849  -6.6985  -2.9406  -1.9542 -10.8499
 -7.0981  -3.6604  -4.6814  -9.2846  -7.0399  -8.0527  -6.9939  -4.6696
 -2.8823  -7.9046  -5.4294 -10.9531  -5.9040  -9.6641  -3.7531  -3.5317
 -6.7251 -40.6248 -12.4171  -5.0420  -5.6355  -9.8253 -19.7974 -29.3837
-14.9924  -9.5539 -15.1105  -8.5333  -7.9535  -6.8958  -1.7432 -17.8462
-18.8517  -3.5102  -7.4696  -1.7636  -4.6328  -4.1623  -3.8229  -7.3318
 -7.8331  -3.8883  -1.0798  -2.0064 -11.0254 -16.2430 -10.3934  -8.7269
 -7.1378  -9.4274  -1.6678  -6.9955 -11.2623 -14.2740  -7.6272 -18.2438
 -9.6555 -12.7535  -6.1114  -5.5238  -2.9646 -21.1961  -7.2850  -7.0535
-21.8390 -15.1146 -10.4690 -11.9902 -19.8512 -33.2159 -18.4301  -5.3993
 -2.8046  -5.4038 -15.2023  -3.7414  -6.4598  -5.5910  -5.8526  -5.2109
 -7.6763  -5.7490 -13.4041  -9.5232  -3.8355 -22.4186  -4.4659  -6.8057
-37.2379 -14.8459 -46.0582  -6.5354  -4.1323  -6.6505  -6.5214  -5.5641
-21.4909  -6.8670 -17.8701  -7.6539 -10.7858  -8.5830  -5.3696 -12.3212
-13.5964 -49.7541 -10.8146 -30.3224  -8.2369 -46.4650  -4.1667 -10.9593
-65.4903 -71.9482 -10.7645 -43.8196 -33.2147 -16.6652  -8.8159  -5.0184
 -3.9538  -3.7635  -5.5997  -2.1830  -9.4862 -10.4463 -23.0993 -28.4611
-17.8361 -37.7424 -10.9396 -17.5611 -18.4115  -9.0994  -9.6299  -4.2354
-20.2533 -11.7588  -8.0958 -45.5557  -6.5594 -10.2685 -10.9142  -8.0314
 -3.8968 -10.1454 -18.8213  -5.1107 -13.9590  -7.6157  -9.0538  -7.7079
 -3.0204 -14.8900 -10.5791 -13.1826 -13.3173 -14.3062  -4.9113  -6.8475
-11.0845  -6.2963 -17.6947 -11.3305 -11.4007 -10.4772 -11.0166 -14.1197
-10.5791 -13.6393 -11.4600 -10.1246  -0.6664  -0.7185  -0.7497  -0.7943
 -0.7764  -0.6744  -0.8020  -0.7668  -0.3999  -0.4590  -0.3847  -0.4145
 -0.4872  -0.4923  -0.4359  -0.4402  -0.4718  -0.3980  -0.4299  -0.3780
 -0.4405  -0.4949  -0.4549  -0.4750  -0.4897  -0.5485
 -- Virtual --
 -0.0369  -0.0282  -0.0273  -0.0270  -0.0254  -0.0228  -0.0211  -0.0192
 -0.0182  -0.0169  -0.0151  -0.0148  -0.0130  -0.0104  -0.0079  -0.0069
 -0.0055  -0.0049  -0.0040  -0.0034  -0.0017  -0.0003   0.0004   0.0009
  0.0013   0.0016   0.0027   0.0028   0.0033   0.0052   0.0055   0.0056
  0.0075   0.0077   0.0081   0.0089   0.0101   0.0108   0.0119   0.0126
  0.0134   0.0139   0.0146   0.0149   0.0159   0.0166   0.0174   0.0181
  0.0184   0.0193   0.0201   0.0210   0.0223   0.0228   0.0234   0.0245
  0.0252   0.0260   0.0269   0.0280   0.0288   0.0292   0.0303   0.0314
  0.0315   0.0322   0.0330   0.0335   0.0344   0.0349   0.0360   0.0370
  0.0378   0.0381   0.0384   0.0395   0.0407   0.0411   0.0418   0.0426
  0.0433   0.0435   0.0440   0.0443   0.0460   0.0466   0.0470   0.0471
  0.0478   0.0483   0.0499   0.0499   0.0508   0.0510   0.0515   0.0527
  0.0531   0.0543   0.0549   0.0551   0.0557   0.0563   0.0573   0.0579
  0.0589   0.0597   0.0602   0.0614   0.0620   0.0626   0.0635   0.0641
  0.0645   0.0653   0.0657   0.0665   0.0666   0.0675   0.0688   0.0694
  0.0701   0.0702   0.0707   0.0721   0.0727   0.0736   0.0744   0.0757
  0.0759   0.0769   0.0771   0.0775   0.0786   0.0792   0.0807   0.0811
  0.0816   0.0818   0.0826   0.0833   0.0841   0.0847   0.0858   0.0865
  0.0868   0.0880   0.0887   0.0892   0.0904   0.0909   0.0920   0.0930
  0.0933   0.0941   0.0944   0.0953   0.0964   0.0965   0.0972   0.0978
  0.0986   0.0987   0.1004   0.1006   0.1015   0.1021   0.1033   0.1038
  0.1047   0.1057   0.1063   0.1068   0.1073   0.1080   0.1083   0.1092
  0.1094   0.1103   0.1107   0.1117   0.1123   0.1136   0.1145   0.1150
  0.1157   0.1166   0.1170   0.1173   0.1186   0.1191   0.1195   0.1203
  0.1217   0.1220   0.1225   0.1228   0.1242   0.1254   0.1258   0.1261
  0.1267   0.1273   0.1283   0.1290   0.1293   0.1299   0.1302   0.1313
  0.1322   0.1326   0.1339   0.1343   0.1346   0.1355   0.1361   0.1364
  0.1371   0.1377   0.1386   0.1399   0.1401   0.1414   0.1419   0.1424
  0.1427   0.1445   0.1446   0.1451   0.1458   0.1465   0.1472   0.1483
  0.1486   0.1496   0.1499   0.1507   0.1512   0.1518   0.1523   0.1533
  0.1543   0.1549   0.1557   0.1559   0.1569   0.1582   0.1589   0.1598
  0.1603   0.1612   0.1615   0.1628   0.1637   0.1640   0.1642   0.1649
  0.1658   0.1665   0.1670   0.1683   0.1693   0.1700   0.1704   0.1706
  0.1715   0.1720   0.1722   0.1733   0.1739   0.1749   0.1758   0.1764
  0.1768   0.1778   0.1790   0.1798   0.1801   0.1804   0.1805   0.1822
  0.1825   0.1842   0.1848   0.1849   0.1853   0.1862   0.1865   0.1875
  0.1878   0.1892   0.1897   0.1902   0.1913   0.1920   0.1922   0.1928
  0.1939   0.1945   0.1951   0.1959   0.1962   0.1967   0.1973   0.1982
  0.1988   0.2003   0.2006   0.2012   0.2019   0.2026   0.2040   0.2046
  0.2048   0.2057   0.2063   0.2075   0.2078   0.2085   0.2092   0.2097
  0.2105   0.2119   0.2126   0.2133   0.2138   0.2145   0.2152   0.2159
  0.2167   0.2175   0.2180   0.2188   0.2190   0.2199   0.2208   0.2210
  0.2228   0.2233   0.2238   0.2247   0.2249   0.2253   0.2262   0.2271
  0.2277   0.2283   0.2290   0.2294   0.2304   0.2308   0.2315   0.2318
  0.2334   0.2349   0.2359   0.2365   0.2371   0.2375   0.2390   0.2396
  0.2401   0.2406   0.2413   0.2420   0.2424   0.2429   0.2444   0.2447
  0.2458   0.2461   0.2480   0.2486   0.2498   0.2510   0.2512   0.2526
  0.2531   0.2540   0.2552   0.2555   0.2566   0.2569   0.2573   0.2585
  0.2596   0.2601   0.2611   0.2614   0.2630   0.2635   0.2645   0.2652
  0.2659   0.2659   0.2665   0.2676   0.2679   0.2682   0.2694   0.2701
  0.2715   0.2726   0.2729   0.2736   0.2750   0.2765   0.2774   0.2779
  0.2790   0.2799   0.2804   0.2809   0.2814   0.2828   0.2840   0.2853
  0.2857   0.2858   0.2870   0.2884   0.2898   0.2904   0.2923   0.2930
  0.2939   0.2949   0.2957   0.2967   0.2971   0.2977   0.2991   0.2996
  0.3002   0.3011   0.3018   0.3039   0.3050   0.3060   0.3066   0.3086
  0.3089   0.3091   0.3103   0.3122   0.3130   0.3134   0.3138   0.3151
  0.3158   0.3173   0.3185   0.3197   0.3201   0.3208   0.3217   0.3228
  0.3243   0.3254   0.3267   0.3271   0.3275   0.3289   0.3293   0.3305
  0.3317   0.3322   0.3330   0.3341   0.3347   0.3356   0.3369   0.3380
  0.3399   0.3405   0.3412   0.3426   0.3441   0.3445   0.3454   0.3468
  0.3479   0.3488   0.3494   0.3501   0.3503   0.3516   0.3524   0.3529
  0.3538   0.3547   0.3558   0.3570   0.3582   0.3594   0.3609   0.3621
  0.3626   0.3633   0.3642   0.3650   0.3655   0.3661   0.3667   0.3686
  0.3692   0.3703   0.3716   0.3718   0.3730   0.3742   0.3745   0.3748
  0.3756   0.3765   0.3781   0.3792   0.3797   0.3798   0.3811   0.3827
  0.3835   0.3848   0.3855   0.3857   0.3873   0.3876   0.3893   0.3913
  0.3922   0.3931   0.3934   0.3948   0.3952   0.3965   0.3974   0.3984
  0.4001   0.4002   0.4020   0.4025   0.4028   0.4046   0.4051   0.4065
  0.4080   0.4084   0.4089   0.4105   0.4116   0.4126   0.4132   0.4153
  0.4156   0.4159   0.4173   0.4179   0.4185   0.4195   0.4204   0.4222
  0.4231   0.4250   0.4275   0.4278   0.4283   0.4286   0.4302   0.4322
  0.4332   0.4346   0.4351   0.4367   0.4376   0.4386   0.4401   0.4407
  0.4413   0.4441   0.4450   0.4464   0.4468   0.4473   0.4502   0.4522
  0.4527   0.4550   0.4567   0.4577   0.4589   0.4605   0.4619   0.4631
  0.4648   0.4659   0.4681   0.4697   0.4716   0.4731   0.4742   0.4751
  0.4785   0.4797   0.4814   0.4822   0.4848   0.4858   0.4882   0.4900
  0.4911   0.4923   0.4956   0.4965   0.4975   0.4989   0.5009   0.5030
  0.5036   0.5061   0.5071   0.5112   0.5133   0.5145   0.5174   0.5185
  0.5208   0.5239   0.5263   0.5272   0.5280   0.5328   0.5332   0.5348
  0.5387   0.5400   0.5419   0.5437   0.5460   0.5481   0.5486   0.5497
  0.5520   0.5537   0.5545   0.5564   0.5582   0.5613   0.5628   0.5653
  0.5666   0.5679   0.5696   0.5724   0.5734   0.5749   0.5756   0.5770
  0.5780   0.5791   0.5804   0.5817   0.5839   0.5854   0.5880   0.5889
  0.5900   0.5905   0.5920   0.5927   0.5955   0.5988   0.5999   0.6012
  0.6026   0.6042   0.6047   0.6078   0.6096   0.6116   0.6140   0.6143
  0.6163   0.6164   0.6174   0.6191   0.6214   0.6227   0.6245   0.6260
  0.6264   0.6282   0.6288   0.6309   0.6320   0.6328   0.6336   0.6348
  0.6381   0.6385   0.6393   0.6417   0.6439   0.6457   0.6467   0.6475
  0.6485   0.6498   0.6508   0.6528   0.6537   0.6555   0.6569   0.6574
  0.6580   0.6590   0.6605   0.6614   0.6634   0.6650   0.6652   0.6668
  0.6685   0.6688   0.6702   0.6709   0.6719   0.6734   0.6743   0.6769
  0.6789   0.6792   0.6814   0.6827   0.6829   0.6838   0.6864   0.6878
  0.6892   0.6906   0.6913   0.6930   0.6946   0.6955   0.6980   0.7000
  0.7009   0.7014   0.7038   0.7054   0.7067   0.7079   0.7082   0.7100
  0.7121   0.7127   0.7154   0.7168   0.7203   0.7206   0.7210   0.7231
  0.7234   0.7246   0.7263   0.7278   0.7302   0.7303   0.7330   0.7343
  0.7353   0.7387   0.7389   0.7423   0.7449   0.7461   0.7481   0.7494
  0.7513   0.7534   0.7540   0.7556   0.7579   0.7595   0.7604   0.7631
  0.7637   0.7647   0.7666   0.7688   0.7705   0.7714   0.7737   0.7764
  0.7766   0.7768   0.7796   0.7806   0.7828   0.7845   0.7852   0.7873
  0.7891   0.7911   0.7916   0.7934   0.7948   0.7991   0.8006   0.8006
  0.8034   0.8038   0.8053   0.8069   0.8088   0.8113   0.8128   0.8147
  0.8176   0.8187   0.8190   0.8196   0.8210   0.8226   0.8248   0.8267
  0.8272   0.8303   0.8314   0.8327   0.8363   0.8368   0.8377   0.8393
  0.8401   0.8425   0.8428   0.8446   0.8463   0.8470   0.8495   0.8503
  0.8514   0.8537   0.8549   0.8576   0.8581   0.8590   0.8610   0.8624
  0.8646   0.8657   0.8673   0.8695   0.8707   0.8713   0.8723   0.8746
  0.8757   0.8780   0.8783   0.8803   0.8827   0.8838   0.8859   0.8863
  0.8878   0.8895   0.8897   0.8914   0.8929   0.8936   0.8948   0.8965
  0.8979   0.8993   0.9000   0.9019   0.9034   0.9043   0.9064   0.9072
  0.9074   0.9094   0.9104   0.9132   0.9138   0.9149   0.9163   0.9171
  0.9189   0.9214   0.9223   0.9237   0.9256   0.9265   0.9276   0.9292
  0.9309   0.9320   0.9330   0.9351   0.9356   0.9376   0.9404   0.9412
  0.9419   0.9422   0.9443   0.9448   0.9459   0.9473   0.9482   0.9491
  0.9509   0.9517   0.9537   0.9545   0.9555   0.9563   0.9595   0.9597
  0.9606   0.9621   0.9634   0.9644   0.9652   0.9665   0.9684   0.9700
  0.9718   0.9736   0.9757   0.9765   0.9775   0.9784   0.9796   0.9815
  0.9829   0.9845   0.9853   0.9862   0.9874   0.9892   0.9906   0.9915
  0.9932   0.9941   0.9946   0.9972   0.9985   0.9988   1.0002   1.0015
  1.0024   1.0037   1.0052   1.0059   1.0074   1.0078   1.0097   1.0106
  1.0115   1.0125   1.0134   1.0148   1.0170   1.0178   1.0193   1.0204
  1.0215   1.0218   1.0244   1.0248   1.0252   1.0274   1.0291   1.0298
  1.0313   1.0316   1.0335   1.0369   1.0380   1.0381   1.0400   1.0421
  1.0431   1.0444   1.0459   1.0462   1.0485   1.0496   1.0536   1.0539
  1.0559   1.0566   1.0585   1.0599   1.0616   1.0620   1.0656   1.0662
  1.0668   1.0680   1.0717   1.0721   1.0731   1.0739   1.0764   1.0777
  1.0793   1.0804   1.0825   1.0830   1.0861   1.0868   1.0879   1.0914
  1.0923   1.0935   1.0950   1.0968   1.0986   1.0995   1.1008   1.1027
  1.1038   1.1049   1.1058   1.1070   1.1085   1.1111   1.1137   1.1141
  1.1150   1.1172   1.1183   1.1189   1.1197   1.1223   1.1228   1.1250
  1.1267   1.1273   1.1278   1.1309   1.1321   1.1325   1.1349   1.1365
  1.1379   1.1395   1.1414   1.1425   1.1432   1.1444   1.1466   1.1475
  1.1489   1.1506   1.1533   1.1536   1.1545   1.1551   1.1590   1.1597
  1.1606   1.1632   1.1650   1.1666   1.1679   1.1702   1.1722   1.1741
  1.1760   1.1770   1.1786   1.1808   1.1832   1.1834   1.1858   1.1878
  1.1896   1.1910   1.1927   1.1954   1.1967   1.2011   1.2017   1.2027
  1.2051   1.2070   1.2099   1.2113   1.2144   1.2175   1.2188   1.2216
  1.2231   1.2244   1.2265   1.2286   1.2294   1.2305   1.2339   1.2349
  1.2371   1.2376   1.2416   1.2434   1.2460   1.2467   1.2499   1.2532
  1.2554   1.2562   1.2577   1.2591   1.2630   1.2657   1.2691   1.2696
  1.2723   1.2726   1.2784   1.2794   1.2802   1.2840   1.2863   1.2900
  1.2910   1.2923   1.2962   1.2982   1.3036   1.3043   1.3074   1.3107
  1.3111   1.3127   1.3141   1.3179   1.3226   1.3262   1.3278   1.3321
  1.3348   1.3359   1.3389   1.3399   1.3424   1.3444   1.3476   1.3500
  1.3509   1.3529   1.3562   1.3581   1.3604   1.3624   1.3633   1.3655
  1.3663   1.3682   1.3691   1.3720   1.3733   1.3754   1.3766   1.3770
  1.3782   1.3795   1.3827   1.3843   1.3858   1.3868   1.3884   1.3904
  1.3926   1.3933   1.3948   1.3963   1.3990   1.4001   1.4015   1.4023
  1.4032   1.4054   1.4057   1.4080   1.4085   1.4127   1.4142   1.4156
  1.4173   1.4182   1.4206   1.4222   1.4226   1.4234   1.4248   1.4250
  1.4289   1.4300   1.4310   1.4338   1.4347   1.4385   1.4397   1.4430
  1.4453   1.4459   1.4473   1.4481   1.4518   1.4544   1.4558   1.4568
  1.4580   1.4602   1.4620   1.4643   1.4658   1.4668   1.4681   1.4709
  1.4723   1.4749   1.4777   1.4804   1.4827   1.4844   1.4885   1.4896
  1.4905   1.4914   1.4972   1.5013   1.5026   1.5045   1.5051   1.5052
  1.5111   1.5166   1.5187   1.5192   1.5247   1.5275   1.5300   1.5317
  1.5364   1.5369   1.5409   1.5433   1.5447   1.5490   1.5507   1.5538
  1.5563   1.5591   1.5609   1.5635   1.5665   1.5770   1.5824   1.5844
  1.5907   1.5932   1.5960   1.6025   1.6037   1.6081   1.6088   1.6262
  1.6299   1.6328   1.6388   1.6419   1.6447   1.6507   1.6534   1.6573
  1.6598   1.6608   1.6622   1.6636   1.6645   1.6666   1.6697   1.6709
  1.6713   1.6733   1.6754   1.6767   1.6795   1.6808   1.6813   1.6831
  1.6838   1.6845   1.6860   1.6882   1.6895   1.6899   1.6909   1.6916
  1.6925   1.6934   1.6950   1.6967   1.6985   1.6999   1.7012   1.7030
  1.7034   1.7054   1.7056   1.7071   1.7077   1.7098   1.7116   1.7135
  1.7148   1.7177   1.7192   1.7220   1.7234   1.7243   1.7257   1.7265
  1.7270   1.7291   1.7300   1.7317   1.7338   1.7368   1.7376   1.7396
  1.7404   1.7418   1.7432   1.7452   1.7462   1.7510   1.7517   1.7550
  1.7573   1.7605   1.7623   1.7649   1.7662   1.7682   1.7705   1.7710
  1.7729   1.7735   1.7761   1.7775   1.7816   1.7818   1.7824   1.7855
  1.7858   1.7900   1.7935   1.7944   1.7949   1.7976   1.7983   1.8009
  1.8024   1.8040   1.8054   1.8077   1.8109   1.8161   1.8181   1.8220
  1.8252   1.8286   1.8306   1.8357   1.8434   1.8468   1.8487   1.8488
  1.8518   1.8573   1.8607   1.8632   1.8653   1.8688   1.8710   1.8721
  1.8739   1.8755   1.8775   1.8812   1.8826   1.8838   1.8851   1.8867
  1.8883   1.8902   1.8903   1.8914   1.8926   1.8933   1.8948   1.8958
  1.8974   1.8984   1.9004   1.9009   1.9017   1.9030   1.9039   1.9049
  1.9066   1.9075   1.9087   1.9098   1.9124   1.9153   1.9181   1.9191
  1.9192   1.9221   1.9244   1.9254   1.9281   1.9291   1.9303   1.9323
  1.9339   1.9365   1.9376   1.9408   1.9423   1.9445   1.9452   1.9469
  1.9542   1.9560   1.9592   1.9683   1.9708   1.9748   1.9856   1.9904
  1.9932   2.0016   2.0044   2.0106   2.0207   2.0339   2.0405   2.0425
  2.0444   2.0460   2.0484   2.0492   2.0502   2.0505   2.0574   2.0632
  2.0639   2.0656   2.0683   2.0688   2.0699   2.0720   2.0733   2.0739
  2.0755   2.0765   2.0781   2.0801   2.0810   2.0847   2.0860   2.0867
  2.0884   2.0912   2.0916   2.0930   2.0932   2.0942   2.0961   2.0981
  2.0986   2.1006   2.1033   2.1065   2.1097   2.1112   2.1119   2.1145
  2.1157   2.1171   2.1205   2.1247   2.1271   2.1331   2.1375   2.1408
  2.1412   2.1443   2.1475   2.1477   2.1554   2.1608   2.1678   2.1719
  2.1766   2.1783   2.1879   2.1924   2.1958   2.1968   2.1982   2.2028
  2.2031   2.2070   2.2083   2.2104   2.2141   2.2150   2.2159   2.2171
  2.2194   2.2230   2.2237   2.2262   2.2274   2.2287   2.2291   2.2305
  2.2314   2.2317   2.2337   2.2345   2.2356   2.2370   2.2381   2.2395
  2.2406   2.2426   2.2443   2.2448   2.2453   2.2469   2.2477   2.2481
  2.2493   2.2498   2.2521   2.2533   2.2543   2.2548   2.2557   2.2561
  2.2575   2.2578   2.2593   2.2603   2.2625   2.2635   2.2641   2.2649
  2.2659   2.2668   2.2679   2.2685   2.2700   2.2705   2.2713   2.2740
  2.2744   2.2762   2.2767   2.2779   2.2790   2.2796   2.2802   2.2810
  2.2827   2.2837   2.2841   2.2863   2.2876   2.2883   2.2903   2.2904
  2.2923   2.2928   2.2941   2.2960   2.2975   2.2985   2.2993   2.3007
  2.3015   2.3018   2.3022   2.3041   2.3053   2.3058   2.3070   2.3079
  2.3101   2.3120   2.3136   2.3140   2.3158   2.3160   2.3180   2.3188
  2.3202   2.3210   2.3239   2.3244   2.3267   2.3276   2.3279   2.3317
  2.3323   2.3359   2.3371   2.3436   2.3462   2.3465   2.3485   2.3515
  2.3542   2.3579   2.3602   2.3616   2.3641   2.3648   2.3665   2.3717
  2.3741   2.3764   2.3777   2.3781   2.3842   2.3856   2.3886   2.3965
  2.3988   2.4018   2.4305   2.4369   2.4499   2.4734   2.4834   2.5074
  2.5487   2.6142   2.6736   2.7179   2.7336   2.7767   2.8144   2.8188
  2.8208   2.8229   2.8281   2.8299   2.8308   2.8342   2.8444   2.8461
  2.8493   2.8521   2.8539   2.8548   2.8565   2.8574   2.8604   2.8647
  2.8662   2.8695   2.8726   2.8744   2.8772   2.8830   2.8844   2.8865
  2.8966   2.9535   3.1021   3.2761   3.9488   3.9494   3.9513   3.9543
  3.9579   3.9618   3.9638   3.9766   3.9797   3.9837   3.9843   3.9847
  3.9890   3.9906   3.9934   3.9946   3.9985   3.9998   4.0020   4.0041
  4.0090   4.0128   4.0264   4.2165   4.2232   4.2273   4.2296   4.2309
  4.2338   4.2346   4.2374   4.2397   4.2504   4.2529   4.2535   4.2563
  4.2592   4.2634   4.2655   4.2678   4.2715   4.2727   4.2760   4.2795
  4.2823   4.2848   4.2872   4.2896   4.2924   4.2949   4.2968   4.2989
  4.3034   4.3046   4.3070   4.3082   4.3117   4.3121   4.3173   4.3192
  4.3219   4.3246   4.3270   4.3295   4.3337   4.3367   4.3415   4.3451
  4.3462   4.3475   4.3521   4.3540   4.3601   4.3622   4.3644   4.3673
  4.3691   4.3763   4.3768   4.3834   4.3864   4.3903   4.4020   4.4064
  4.4099   4.4203   4.4321   4.4480   4.4584   4.4702   4.5011   4.5187
  4.5342   4.5723   4.5876   4.5985   4.6312   4.7085   4.7477   4.7919
  4.8607
 --------------------------------------------------------------
 
          Ground-State Mulliken Net Atomic Charges

     Atom                 Charge (a.u.)
  ----------------------------------------
      1 C                    -0.465214
      2 C                    -0.330281
      3 C                    -0.336280
      4 C                    -1.008110
      5 C                    -0.390511
      6 C                    -0.316021
      7 H                     0.230724
      8 H                     0.205716
      9 H                     0.219005
     10 H                     0.217955
     11 H                     0.216748
     12 H                     0.197861
     13 H                     0.228163
     14 H                     0.206770
     15 H                     0.209960
     16 H                     0.225591
     17 H                     0.215907
     18 N                    -0.041797
     19 H                     0.524150
     20 C                    -0.031206
     21 H                     0.209679
     22 O                    -0.274272
     23 C                    -0.822752
     24 H                     0.238091
     25 H                     0.236512
     26 H                     0.274090
     27 S                     0.904993
     28 C                    -0.821055
     29 H                     0.274802
     30 H                     0.261291
     31 H                     0.242501
     32 O                    -0.680047
     33 C                    -0.726423
     34 H                     0.243925
     35 H                     0.263038
     36 H                     0.230789
     37 S                     0.639355
     38 C                    -0.756859
     39 H                     0.283853
     40 H                     0.254127
     41 H                     0.237909
     42 O                    -0.698384
     43 C                    -1.106027
     44 H                     0.233808
     45 H                     0.250049
     46 H                     0.279318
     47 S                     1.296222
     48 C                    -1.112103
     49 H                     0.289025
     50 H                     0.265962
     51 H                     0.243599
     52 O                    -0.653633
     53 C                    -0.893046
     54 H                     0.243834
     55 H                     0.294917
     56 H                     0.267690
     57 S                     0.645422
     58 C                    -0.529364
     59 H                     0.234933
     60 H                     0.292946
     61 H                     0.237196
     62 O                    -0.688814
     63 C                    -0.889052
     64 H                     0.247832
     65 H                     0.293497
     66 H                     0.243191
     67 S                     0.727870
     68 C                    -0.954933
     69 H                     0.255160
     70 H                     0.250443
     71 H                     0.232438
     72 O                    -0.547912
     73 C                    -0.844503
     74 H                     0.270211
     75 H                     0.267344
     76 H                     0.265748
     77 S                     1.073506
     78 C                    -0.998411
     79 H                     0.283149
     80 H                     0.254592
     81 H                     0.246746
     82 O                    -0.646308
     83 C                    -0.816228
     84 H                     0.244426
     85 H                     0.259825
     86 H                     0.248875
     87 S                     0.398071
     88 C                    -0.748255
     89 H                     0.257819
     90 H                     0.268817
     91 H                     0.266749
     92 O                    -0.477048
     93 C                    -0.824987
     94 H                     0.268076
     95 H                     0.231519
     96 H                     0.293723
     97 S                     0.961197
     98 C                    -0.874101
     99 H                     0.252947
    100 H                     0.233392
    101 H                     0.249730
    102 O                    -0.742304
    103 C                    -0.932118
    104 H                     0.274013
    105 H                     0.244456
    106 H                     0.264828
    107 S                     1.146308
    108 C                    -1.009638
    109 H                     0.241953
    110 H                     0.284186
    111 H                     0.236317
    112 O                    -0.725002
    113 C                    -1.019380
    114 H                     0.284473
    115 H                     0.299330
    116 H                     0.251334
    117 S                     1.240388
    118 C                    -1.126103
    119 H                     0.300329
    120 H                     0.247304
    121 H                     0.270252
    122 O                    -0.731416
    123 C                    -0.802636
    124 H                     0.216809
    125 H                     0.270863
    126 H                     0.262125
    127 S                     0.850416
    128 C                    -0.837576
    129 H                     0.232785
    130 H                     0.237223
    131 H                     0.296881
    132 O                    -0.745607
    133 C                    -0.925583
    134 H                     0.253040
    135 H                     0.238066
    136 H                     0.246002
    137 S                     1.011729
    138 C                    -0.859173
    139 H                     0.276844
    140 H                     0.273782
    141 H                     0.246599
    142 O                    -0.706883
    143 C                    -0.888329
    144 H                     0.234109
    145 H                     0.271286
    146 H                     0.223097
    147 S                     0.864925
    148 C                    -0.781020
    149 H                     0.236483
    150 H                     0.249093
    151 H                     0.266571
    152 O                    -0.695523
    153 C                    -0.868826
    154 H                     0.259029
    155 H                     0.259821
    156 H                     0.201702
    157 S                     1.025758
    158 C                    -0.887015
    159 H                     0.279413
    160 H                     0.262583
    161 H                     0.276606
    162 O                    -0.758124
    163 C                    -0.753026
    164 H                     0.255552
    165 H                     0.259897
    166 H                     0.313805
    167 S                     0.907477
    168 C                    -0.890968
    169 H                     0.184314
    170 H                     0.275342
    171 H                     0.277661
    172 O                    -0.727316
    173 C                    -0.806887
    174 H                     0.248428
    175 H                     0.252938
    176 H                     0.246711
    177 S                     0.707107
    178 C                    -0.744643
    179 H                     0.280726
    180 H                     0.226921
    181 H                     0.265887
    182 O                    -0.684220
    183 C                    -1.207355
    184 H                     0.286206
    185 H                     0.253150
    186 H                     0.255406
    187 S                     1.342628
    188 C                    -1.013882
    189 H                     0.243113
    190 H                     0.305072
    191 H                     0.255005
    192 O                    -0.698899
    193 C                    -0.983845
    194 H                     0.265309
    195 H                     0.237742
    196 H                     0.249360
    197 S                     0.925698
    198 C                    -0.897682
    199 H                     0.277201
    200 H                     0.237790
    201 H                     0.248627
    202 O                    -0.679249
    203 C                    -1.061704
    204 H                     0.255073
    205 H                     0.252190
    206 H                     0.270888
    207 S                     1.015094
    208 C                    -0.850862
    209 H                     0.224440
    210 H                     0.269438
    211 H                     0.262764
    212 O                    -0.616476
    213 C                    -1.037972
    214 H                     0.254180
    215 H                     0.259340
    216 H                     0.268536
    217 S                     1.042750
    218 C                    -0.848193
    219 H                     0.241552
    220 H                     0.247467
    221 H                     0.259923
    222 O                    -0.741969
    223 C                    -0.920454
    224 H                     0.247629
    225 H                     0.300579
    226 H                     0.233392
    227 S                     0.814904
    228 C                    -0.839822
    229 H                     0.254004
    230 H                     0.282070
    231 H                     0.281460
    232 O                    -0.746733
    233 C                    -1.037848
    234 H                     0.283478
    235 H                     0.279652
    236 H                     0.255101
    237 S                     0.979808
    238 C                    -0.847663
    239 H                     0.241226
    240 H                     0.302238
    241 H                     0.276654
    242 O                    -0.755435
    243 C                    -0.801009
    244 H                     0.234131
    245 H                     0.252361
    246 H                     0.300960
    247 S                     0.666896
    248 C                    -0.751219
    249 H                     0.242252
    250 H                     0.246302
    251 H                     0.283270
    252 O                    -0.699984
  ----------------------------------------
  Sum of atomic charges =     0.000000

 -----------------------------------------------------------------
                    Cartesian Multipole Moments
 -----------------------------------------------------------------
    Charge (ESU x 10^10)
                 0.0000
    Dipole Moment (Debye)
         X      -9.6892      Y       1.4331      Z      -8.3908
       Tot      12.8972
    Quadrupole Moments (Debye-Ang)
        XX   -1295.5300     XY    -212.9772     YY    -726.7431
        XZ    -417.6254     YZ    -158.7962     ZZ   -1364.3525
    Octopole Moments (Debye-Ang^2)
       XXX  -86589.0377    XXY  -33593.5870    XYY  -27112.5704
       YYY  -64269.8538    XXZ  -35575.2214    XYZ   -9044.2762
       YYZ  -22009.2362    XZZ  -41343.4144    YZZ  -34685.6536
       ZZZ  -86258.7411
    Hexadecapole Moments (Debye-Ang^3)
      XXXX ************   XXXY ************   XXYY ************
      XYYY ************   YYYY ************   XXXZ ************
      XXYZ -895609.2893   XYYZ -735643.5176   YYYZ ************
      XXZZ ************   XYZZ ************   YYZZ ************
      XZZZ ************   YZZZ ************   ZZZZ ************
 -----------------------------------------------------------------
Archival summary:
1\1\node029\SP\ProcedureUnspecified\6-31+G*\2324153\ymao90\SatDec402:46:172021SatDec402:46:172021\0\\#,ProcedureUnspecified,6-31+G*,\\0,1\S\O,1,1.4962\C,1,1.80668,2,101.692\H,3,1.09268,1,113.304,2,47.3729,0\H,3,1.09269,1,100.676,2,-63.7343,0\H,3,1.09304,1,116.489,2,177.939,0\C,1,1.8071,2,95.9431,3,96.4971,0\H,7,1.09297,1,111.981,2,-170.89,0\H,7,1.0931,1,103.776,2,60.4366,0\H,7,1.09331,1,109.738,2,-58.3904,0\H,10,2.03985,7,158.216,1,13.5133,0\C,11,1.09232,10,155,7,73.237,0\H,12,1.09283,11,114.555,10,150.7,0\H,12,1.09373,11,113.488,10,30.3077,0\S,12,1.80663,11,107.054,10,-93.7096,0\O,15,1.4967,12,100.224,11,-168.469,0\C,15,1.80674,12,98.9635,11,-66.1448,0\H,17,1.0923,15,102.535,12,-83.4599,0\H,17,1.09323,15,112.859,12,159.191,0\H,17,1.09355,15,108.908,12,27.9951,0\H,5,2.18544,3,123.932,1,-130.746,0\C,21,1.09338,5,151.698,3,-81.3989,0\H,22,1.09302,21,105.346,5,-64.7224,0\H,22,1.09318,21,110.961,5,173.769,0\S,22,1.80686,21,112.877,5,52.9133,0\O,25,1.49653,22,106.89,21,-167.127,0\C,25,1.8072,22,99.6369,21,89.8475,0\H,27,1.0929,25,113.639,22,-78.7509,0\H,27,1.09337,25,101.842,22,162.428,0\H,27,1.09349,25,105.207,22,44.9622,0\H,29,2.00247,27,105.345,25,164.098,0\C,31,1.09326,29,167.998,27,-174.711,0\H,32,1.09263,31,109.533,29,-54.4636,0\H,32,1.09284,31,116.671,29,69.5805,0\S,32,1.80706,31,101.229,29,-163.03,0\O,35,1.49662,32,106.427,31,-57.0202,0\C,35,1.80695,32,100.871,31,49.3534,0\H,37,1.09241,35,108.373,32,-162.776,0\H,37,1.09263,35,109.571,32,74.5337,0\H,37,1.09321,35,110.509,32,-44.3449,0\H,38,2.14324,37,150.289,35,2.62151,0\C,41,1.09297,38,136.797,37,-39.9132,0\H,42,1.09251,41,113.715,38,161.131,0\H,42,1.09324,41,110.098,38,42.4237,0\S,42,1.80664,41,113.765,38,-74.4764,0\O,45,1.49665,42,98.9204,41,-44.8276,0\C,45,1.80747,42,95.3739,41,55.9926,0\H,47,1.09214,45,110.892,42,-170.201,0\H,47,1.09287,45,110.434,42,-52.1354,0\H,47,1.09291,45,110.445,42,64.4491,0\H,41,2.07567,38,69.539,37,-166.672,0\C,51,1.09245,41,152.318,38,-79.4413,0\H,52,1.09304,51,105.372,41,-138.223,0\H,52,1.0932,51,102.963,41,110.776,0\S,52,1.80631,51,110.981,41,-6.29637,0\O,55,1.49678,52,101.842,51,18.7449,0\C,55,1.80758,52,100.262,51,-84.2885,0\H,57,1.09251,55,108.8,52,-55.7181,0\H,57,1.09264,55,106.106,52,-176.574,0\H,57,1.09268,55,110.187,52,71.1489,0\H,56,1.88388,55,149.478,52,-154.451,0\N,61,1.01365,56,175.623,55,7.44071,0\C,62,1.37813,61,117.721,56,166.654,0\H,63,1.10539,62,107.552,61,-5.76387,0\O,63,1.21837,62,126.089,61,178.444,0\C,62,1.46176,61,118.214,56,-12.3586,0\H,66,1.09676,62,108.476,61,-129.671,0\C,66,1.53716,62,109.591,61,-13.1118,0\H,68,1.09666,66,109.471,62,60.9863,0\H,68,1.09736,66,121.604,62,-55.3405,0\C,68,1.53768,66,112.41,62,176.627,0\H,71,1.09667,68,114.73,66,56.4489,0\H,71,1.09713,68,117.403,66,-179.392,0\C,71,1.53754,68,110.625,66,-58.4117,0\H,74,1.09668,71,109.64,68,177.81,0\H,74,1.09691,71,108.887,68,-70.2088,0\C,74,1.53683,71,109.441,68,58.5654,0\H,77,1.09667,74,108.596,71,70.7222,0\H,77,1.09691,74,109.612,71,-179.581,0\C,66,1.53775,62,112.365,61,111.898,0\H,80,1.09642,66,110.609,62,70.7934,0\H,80,1.0968,66,108.891,62,-49.8623,0\H,81,2.00902,80,144.357,66,-96.1205,0\C,83,1.09266,81,116.19,80,-165.256,0\H,84,1.09323,83,114.904,81,-24.2412,0\H,84,1.09358,83,107.019,81,99.3759,0\S,84,1.8076,83,106.652,81,-141.412,0\O,87,1.4975,84,102.112,83,-63.1489,0\C,87,1.80649,84,96.0878,83,-174.245,0\H,89,1.09264,87,109.549,84,43.8424,0\H,89,1.09316,87,111.645,84,174.93,0\H,89,1.09353,87,104.383,84,-66.5073,0\H,72,2.0135,71,162.645,68,-53.6522,0\C,93,1.09298,72,115.214,71,154.642,0\H,94,1.0928,93,110.466,72,-11.7488,0\H,94,1.09359,93,110.381,72,-137.044,0\S,94,1.80645,93,99.4323,72,103.283,0\O,97,1.49647,94,100.716,93,-31.228,0\C,97,1.80738,94,95.4572,93,76.4077,0\H,99,1.09262,97,101.683,94,-44.0898,0\H,99,1.09279,97,109.613,94,58.495,0\H,99,1.0937,97,120.165,94,-169.659,0\H,78,2.33181,77,123.463,74,76.0836,0\C,103,1.09285,78,161.856,77,31.6132,0\H,104,1.09241,103,118.667,78,74.3876,0\H,104,1.09354,103,107.7,78,-166.116,0\S,104,1.80717,103,109.116,78,-54.8484,0\O,107,1.49736,104,106.099,103,155.842,0\C,107,1.80743,104,99.0788,103,-98.2879,0\H,109,1.09264,107,112.532,104,-174.214,0\H,109,1.09305,107,106.004,104,54.5456,0\H,109,1.09398,107,97.4785,104,-50.8433,0\H,23,2.36029,22,121.36,21,-155.78,0\C,113,1.09264,23,113.069,22,161.029,0\H,114,1.09275,113,110.343,23,103.717,0\H,114,1.09361,113,109.822,23,-145.035,0\S,114,1.80675,113,107.765,23,-22.1549,0\O,117,1.4974,114,106.324,113,75.9752,0\C,117,1.80701,114,95.1118,113,-175.051,0\H,119,1.09229,117,105.83,114,68.2842,0\H,119,1.09269,117,109.87,114,-178.861,0\H,119,1.09351,117,115.945,114,-51.2453,0\H,60,2.36339,57,116.541,55,-108.511,0\C,123,1.09353,60,109.543,57,-67.5006,0\H,124,1.09296,123,113.664,60,-159.21,0\H,124,1.09321,123,99.1131,60,74.846,0\S,124,1.8066,123,107.259,60,-37.7301,0\O,127,1.49678,124,104.102,123,-162.265,0\C,127,1.80756,124,98.4225,123,-62.3313,0\H,129,1.09277,127,97.8276,124,54.7735,0\H,129,1.09305,127,108.722,124,178.138,0\H,129,1.09329,127,108.891,124,-58.5362,0\H,130,2.12077,129,118.26,127,141.696,0\C,133,1.09363,130,139.523,129,78.3639,0\H,134,1.09274,133,118.816,130,39.7872,0\H,134,1.09292,133,111.356,130,164.613,0\S,134,1.80707,133,102.61,130,-81.488,0\O,137,1.49761,134,103.877,133,-65.7108,0\C,137,1.80654,134,108.528,133,-172.159,0\H,139,1.09202,137,102.369,134,151.467,0\H,139,1.09289,137,111.691,134,19.4357,0\H,139,1.09342,137,103.113,134,-95.6842,0\H,113,2.38874,23,134.261,22,21.1429,0\C,143,1.09343,113,106.519,23,42.5598,0\H,144,1.09269,143,113.366,113,-91.4079,0\H,144,1.09277,143,110.697,113,31.9868,0\S,144,1.80758,143,100.073,113,143.227,0\O,147,1.49641,144,102.348,143,-55.7626,0\C,147,1.80752,144,98.1422,143,42.5935,0\H,149,1.09271,147,107.73,144,-79.4665,0\H,149,1.09274,147,100.175,144,32.0934,0\H,149,1.09356,147,113.601,144,145.404,0\H,146,1.97862,144,135.983,143,93.8253,0\C,153,1.09402,146,136.187,144,162.907,0\H,154,1.09214,153,117.585,146,143.918,0\H,154,1.09317,153,103.248,146,13.5344,0\S,154,1.80703,153,100.649,146,-93.1366,0\O,157,1.49755,154,98.1117,153,30.3391,0\C,157,1.80761,154,96.8536,153,-73.2846,0\H,159,1.09254,157,112.177,154,-61.538,0\H,159,1.09279,157,110.531,154,57.4025,0\H,159,1.0928,157,110.329,154,-179.132,0\H,162,2.18978,159,118.645,157,-65.961,0\C,163,1.09349,162,123.456,159,109.935,0\H,164,1.093,163,112.818,162,-61.6834,0\H,164,1.09378,163,109.769,162,59.4506,0\S,164,1.80685,163,111.87,162,-175.449,0\O,167,1.49729,164,108.882,163,148.726,0\C,167,1.80709,164,93.6189,163,40.0248,0\H,169,1.09212,167,112.434,164,40.7753,0\H,169,1.09299,167,114.504,164,-74.2228,0\H,169,1.09318,167,96.7044,164,164.718,0\O,155,2.32849,154,122.886,153,-154.629,0\S,173,1.49784,155,143.498,154,-91.9576,0\C,174,1.80666,173,99.4346,155,-22.8604,0\H,175,1.09245,174,106.596,173,170.665,0\H,175,1.09321,174,112.414,173,48.5954,0\H,175,1.09324,174,112.478,173,-69.6074,0\C,174,1.80683,173,104.036,155,76.7883,0\H,179,1.09317,174,108.029,173,62.3364,0\H,179,1.09335,174,105.039,173,-57.4816,0\H,179,1.09356,174,109.215,173,-178.235,0\H,6,2.44689,3,159.821,1,-67.4915,0\C,183,1.0933,6,121.839,3,-62.8231,0\H,184,1.09253,183,104.735,6,133.965,0\H,184,1.09305,183,116.042,6,-102.401,0\S,184,1.80736,183,107.795,6,20.3276,0\O,187,1.4974,184,97.9834,183,-87.5315,0\C,187,1.80689,184,101.36,183,154.365,0\H,189,1.09253,187,103.902,184,-99.869,0\H,189,1.09269,187,108.979,184,152.874,0\H,189,1.09296,187,114.501,184,27.1026,0\H,185,1.99142,184,130.094,183,2.52139,0\C,193,1.0933,185,126.246,184,34.7421,0\H,194,1.09322,193,103.1,185,-150.426,0\H,194,1.09357,193,116.172,185,-28.3486,0\S,194,1.80678,193,111.419,185,97.048,0\O,197,1.49729,194,104.793,193,58.631,0\C,197,1.80735,194,94.0424,193,154.879,0\H,199,1.09299,197,111.311,194,66.1458,0\H,199,1.09303,197,107.317,194,-174.702,0\H,199,1.09303,197,106.975,194,-53.3028,0\H,90,2.51405,89,127.607,87,-149.912,0\C,203,1.0928,90,161.06,89,61.8898,0\H,204,1.0927,203,111.046,90,125.057,0\H,204,1.09293,203,108.21,90,-111.521,0\S,204,1.80774,203,105.111,90,5.20746,0\O,207,1.49692,204,99.8025,203,-48.9101,0\C,207,1.80728,204,106.431,203,57.4556,0\H,209,1.09245,207,109.316,204,-46.1368,0\H,209,1.0926,207,120.755,204,80.7289,0\H,209,1.09267,207,108.6,204,-158.996,0\H,211,2.46612,209,136.927,207,-120.683,0\C,213,1.09314,211,106.612,209,-125.864,0\H,214,1.09254,213,107.499,211,-117.036,0\H,214,1.09288,213,107.644,211,3.35461,0\S,214,1.80642,213,105.756,211,128.584,0\O,217,1.49684,214,108.292,213,83.8988,0\C,217,1.80678,214,99.4406,213,-171.699,0\H,219,1.0927,217,105.134,214,-71.6901,0\H,219,1.09307,217,99.8866,214,177.26,0\H,219,1.09319,217,115.068,214,54.5751,0\H,108,2.55656,107,104.7,104,-160.332,0\C,223,1.09371,108,115.667,107,-58.8477,0\H,224,1.09234,223,113.18,108,-77.3253,0\H,224,1.09355,223,107.625,108,46.9849,0\S,224,1.80648,223,107.789,108,160.288,0\O,227,1.49669,224,103.562,223,173.332,0\C,227,1.80667,224,99.7531,223,63.8668,0\H,229,1.09284,227,108.143,224,49.8856,0\H,229,1.09307,227,108.617,224,167.432,0\H,229,1.09327,227,105.604,224,-72.5697,0\H,226,2.49761,224,117.875,223,-173.849,0\C,233,1.09319,226,155.925,224,-92.878,0\H,234,1.09264,233,110.261,226,-85.3055,0\H,234,1.09283,233,108.909,226,43.0697,0\S,234,1.80767,233,107.574,226,168.887,0\O,237,1.49706,234,108.822,233,51.5633,0\C,237,1.807,234,96.2873,233,-55.1918,0\H,239,1.09231,237,112.071,234,-60.378,0\H,239,1.09323,237,104.849,234,56.5319,0\H,239,1.09339,237,110.187,234,173.691,0\H,128,2.64619,127,132.636,124,-150.329,0\C,243,1.09275,128,128.528,127,-51.6189,0\H,244,1.09262,243,117.014,128,154.541,0\H,244,1.09277,243,114.292,128,-71.8634,0\S,244,1.80713,243,100.993,128,41.0034,0\O,247,1.49714,244,109.067,243,169.365,0\C,247,1.80641,244,91.3316,243,61.0114,0\H,249,1.09266,247,111.523,244,-61.8162,0\H,249,1.09275,247,104.661,244,55.9761,0\H,249,1.09336,247,105.9,244,172.485,0\\\@

 Total job time:  8458.10s(wall), 133281.06s(cpu) 
 Sat Dec  4 02:46:17 2021

        *************************************************************
[...]
    2   0.0110124  -0.0448104   0.0072357  -0.0076414   0.0111568   0.0310528
    3  -0.0305112   0.0988901   0.0079598   0.0327433   0.0046414  -0.0179650
           67          68          69          70          71          72
    1   0.0098345  -0.0091432  -0.0220966  -0.0157536   0.0002633   0.0529432
    2  -0.0051129  -0.0052783   0.0121480  -0.0351422   0.0091624  -0.0601680
    3  -0.0473339   0.0089759  -0.0108771   0.0009484   0.0267582   0.0789071
           73          74          75          76          77          78
    1  -0.0106744  -0.0080305  -0.0076528  -0.0114252   0.0262928   0.0013917
    2   0.0008629  -0.0256865   0.0111446   0.0267981  -0.0060326  -0.0100813
    3  -0.0009631  -0.0221602   0.0336024  -0.0118346  -0.0505009   0.0035662
           79          80          81          82          83          84
    1   0.0295260  -0.0170826  -0.0086993   0.0276622  -0.0030034  -0.0217666
    2  -0.0071352   0.0059629  -0.0266894   0.0725170  -0.0047020   0.0034895
    3   0.0091188   0.0266521  -0.0206630   0.0770603   0.0020506   0.0232658
           85          86          87          88          89          90
    1  -0.0209318   0.0088978  -0.0197122   0.0029345   0.0254862   0.0125469
    2   0.0046905  -0.0306997   0.0541294  -0.0031179   0.0097993  -0.0314093
    3  -0.0240661   0.0086296  -0.0196724  -0.0045429  -0.0156554   0.0018332
           91          92          93          94          95          96
    1  -0.0134731   0.0606984   0.0037828   0.0286330  -0.0142701   0.0029379
    2  -0.0002161  -0.0098807   0.0063288  -0.0102946   0.0093014   0.0309947
    3  -0.0345774   0.0890177  -0.0060363  -0.0092901  -0.0284807   0.0104932
           97          98          99         100         101         102
    1   0.0343024   0.0010567  -0.0132011  -0.0140206   0.0256909  -0.0964352
    2  -0.0162167  -0.0061822  -0.0191080   0.0182716  -0.0205938   0.0482175
    3   0.0411777  -0.0058381   0.0224824  -0.0237575  -0.0105691   0.0148683
          103         104         105         106         107         108
    1   0.0039829   0.0269841   0.0013367  -0.0075094   0.0133947  -0.0042831
    2   0.0057293  -0.0028124   0.0257825   0.0155446  -0.0112918   0.0046679
    3   0.0057012   0.0049759  -0.0205897   0.0293614  -0.0539344   0.0026536
          109         110         111         112         113         114
    1  -0.0207198  -0.0082453  -0.0160938   0.0018797   0.0074172   0.0139606
    2  -0.0181494  -0.0172316   0.0378967  -0.0726076  -0.0027140  -0.0170598
    3  -0.0152793   0.0257610  -0.0014960   0.0825313  -0.0026750   0.0231653
          115         116         117         118         119         120
    1  -0.0038672   0.0086642  -0.0252007  -0.0011797   0.0067304  -0.0304026
    2  -0.0225156   0.0289791  -0.0386751   0.0083428  -0.0226084   0.0018874
    3  -0.0232969  -0.0083212   0.0305813  -0.0106032  -0.0231506   0.0121846
          121         122         123         124         125         126
    1   0.0234127   0.0583182   0.0046356  -0.0108829  -0.0116675   0.0282510
    2   0.0202944   0.0994031   0.0015003   0.0195833  -0.0226262   0.0057019
    3  -0.0099052   0.0496796  -0.0010567   0.0230737   0.0011169  -0.0134058
          127         128         129         130         131         132
    1  -0.0519954   0.0057221  -0.0050140  -0.0080313   0.0278902   0.0361310
    2  -0.0132857  -0.0047357  -0.0363071   0.0149191   0.0130036   0.1039929
    3  -0.0017806  -0.0059425  -0.0029450  -0.0271178  -0.0005458  -0.0159903
          133         134         135         136         137         138
    1   0.0058083  -0.0011483   0.0198844   0.0216233  -0.0305797   0.0013361
    2  -0.0018653  -0.0119911   0.0278255  -0.0160581   0.0440325   0.0047777
    3  -0.0004091  -0.0285437  -0.0047708   0.0186027  -0.0258381   0.0076487
          139         140         141         142         143         144
    1   0.0153724  -0.0280658   0.0181109  -0.0365413   0.0069160  -0.0153000
    2   0.0283153   0.0045446  -0.0207424  -0.1030567  -0.0026613  -0.0164576
    3   0.0149377   0.0113168   0.0153473   0.0061593   0.0026690   0.0226335
          145         146         147         148         149         150
    1   0.0261658   0.0117256  -0.0508586  -0.0017726  -0.0248242   0.0236700
    2  -0.0204940   0.0297009   0.0395684  -0.0074673  -0.0123938  -0.0196158
    3  -0.0030071   0.0019933   0.0038345   0.0008566  -0.0194373  -0.0044102
          151         152         153         154         155         156
    1  -0.0184605   0.0626430  -0.0009185  -0.0235649   0.0300436   0.0047956
    2  -0.0137796  -0.0065426   0.0053272   0.0149966  -0.0053522   0.0246959
    3   0.0230585  -0.0898994   0.0033868   0.0193025   0.0088941  -0.0192838
          157         158         159         160         161         162
    1   0.0304312  -0.0099265  -0.0165124  -0.0182225  -0.0122284  -0.0170215
    2  -0.0293377   0.0034844  -0.0034722   0.0243792  -0.0226804  -0.0353178
    3  -0.0355399   0.0024226   0.0294851  -0.0204795  -0.0175158   0.1041060
          163         164         165         166         167         168
    1  -0.0085381  -0.0156007   0.0058417  -0.0202566  -0.0148226   0.0009531
    2   0.0021139   0.0360827  -0.0000247  -0.0302477  -0.0092621   0.0035272
    3  -0.0038578   0.0008998  -0.0291703  -0.0109206   0.0494364  -0.0015736
          169         170         171         172         173         174
    1  -0.0062719   0.0223045   0.0102404   0.0631555   0.0087588   0.0104611
    2   0.0406789   0.0016921  -0.0011801  -0.0631142   0.0017546  -0.0204372
    3   0.0132109   0.0191095  -0.0285327  -0.0636715  -0.0007020   0.0196166
          175         176         177         178         179         180
    1   0.0073009   0.0187402  -0.0311182   0.0016609   0.0036347  -0.0301748
    2  -0.0100286   0.0260745  -0.0475557   0.0086665  -0.0067462   0.0236031
    3  -0.0310023   0.0066549  -0.0175786  -0.0034289  -0.0305357  -0.0081991
          181         182         183         184         185         186
    1   0.0162220  -0.0025097  -0.0032832  -0.0277636  -0.0049578   0.0222636
    2   0.0266734   0.0394912   0.0020363   0.0143960  -0.0038764   0.0189811
    3   0.0006002   0.1028452   0.0084032   0.0018971   0.0339437  -0.0102972
          187         188         189         190         191         192
    1  -0.0427310  -0.0028186   0.0284581  -0.0354981   0.0035642   0.1064137
    2   0.0029293  -0.0005079  -0.0155996  -0.0046007  -0.0255889  -0.0101803
    3  -0.0456261   0.0089769   0.0244615   0.0140162  -0.0094351  -0.0227409
          193         194         195         196         197         198
    1  -0.0004787   0.0229981  -0.0072000  -0.0272806   0.0262367   0.0025253
    2  -0.0006735   0.0134355  -0.0207981   0.0114263   0.0379031  -0.0101817
    3  -0.0072156  -0.0186049  -0.0257550   0.0024429   0.0396032  -0.0031082
          199         200         201         202         203         204
    1  -0.0044938  -0.0037998   0.0267814  -0.1005107  -0.0032556   0.0243333
    2  -0.0195731  -0.0181319   0.0077454  -0.0416504   0.0075215   0.0248606
    3   0.0233432  -0.0321486  -0.0047816   0.0206416   0.0046412  -0.0111405
          205         206         207         208         209         210
    1  -0.0243535  -0.0135450   0.0569445  -0.0049416  -0.0015989  -0.0000806
    2   0.0177208  -0.0044548  -0.0102157   0.0042806   0.0309635  -0.0222377
    3  -0.0109455   0.0330623  -0.0005607  -0.0061918  -0.0168946  -0.0141341
          211         212         213         214         215         216
    1  -0.0319381  -0.0682191   0.0028805   0.0271015   0.0051436  -0.0058700
    2  -0.0074210  -0.0801808   0.0011063  -0.0147466   0.0266598  -0.0224236
    3   0.0035663   0.0385263   0.0110380   0.0009971   0.0269102   0.0221550
          217         218         219         220         221         222
    1   0.0220070  -0.0065426  -0.0056873  -0.0028292  -0.0193063  -0.0203998
    2   0.0289550   0.0016256  -0.0254766   0.0334006   0.0006636  -0.1086173
    3  -0.0312832   0.0052081   0.0178591   0.0087808  -0.0244316  -0.0125633
          223         224         225         226         227         228
    1  -0.0072798   0.0126323  -0.0308539   0.0006461   0.0535478  -0.0041302
    2  -0.0062822  -0.0216710   0.0111992  -0.0108149  -0.0059371   0.0028481
    3   0.0017587   0.0233470   0.0069133  -0.0285645  -0.0078634   0.0087343
          229         230         231         232         233         234
    1  -0.0323200   0.0140002   0.0234942  -0.0668841  -0.0055766  -0.0256121
    2  -0.0060564  -0.0144215   0.0203761   0.0721307   0.0058168  -0.0165708
    3   0.0055587   0.0263059   0.0169645  -0.0456831  -0.0060310  -0.0029006
          235         236         237         238         239         240
    1  -0.0066908   0.0042862  -0.0140903   0.0012174   0.0265843   0.0102485
    2   0.0217304   0.0116438  -0.0374483   0.0130289  -0.0126079   0.0262967
    3   0.0184649  -0.0311656   0.0463080  -0.0023380   0.0046583  -0.0263150
          241         242         243         244         245         246
    1  -0.0108000   0.0355318  -0.0017830  -0.0248456  -0.0257959   0.0221027
    2   0.0118701  -0.0340074   0.0052952   0.0305440  -0.0234543   0.0213538
    3   0.0316114  -0.0965587   0.0070909   0.0007070   0.0012204   0.0223833
          247         248         249         250         251         252
    1  -0.0319700   0.0082746  -0.0154823   0.0173571   0.0188379   0.0531524
    2  -0.0409733   0.0003735  -0.0079190  -0.0199915   0.0186192   0.0839642
    3  -0.0345424   0.0064730   0.0229087  -0.0168810   0.0234560  -0.0446127
  --- DONE ESP SUMMARY ---
Archival summary:
1\1\node029\SP\ProcedureUnspecified\6-31+G*\232346h22\ymao90\SatDec402:47:032021SatDec402:47:032021\0\\#,ProcedureUnspecified,6-31+G*,\\0,1\S\O,1,1.49678\C,1,1.80631,2,101.842\H,3,1.09245,1,110.981,2,18.7449,0\H,3,1.09304,1,120.44,2,142.433,0\H,3,1.0932,1,109.499,2,-94.2509,0\C,1,1.80758,2,100.406,3,102.92,0\H,7,1.09251,1,108.8,2,-159.917,0\H,7,1.09264,1,106.106,2,79.2269,0\H,7,1.09268,1,110.187,2,-33.0498,0\Gh,2,1.88388,1,149.478,3,-154.451,0\Gh,11,1.01365,2,175.623,1,7.44071,0\Gh,12,1.37813,11,117.721,2,166.654,0\Gh,13,1.10539,12,107.552,11,-5.76387,0\Gh,13,1.21837,12,126.089,11,178.444,0\Gh,12,1.46176,11,118.214,2,-12.3586,0\Gh,16,1.09676,12,108.476,11,-129.671,0\Gh,16,1.53716,12,109.591,11,-13.1118,0\Gh,18,1.09666,16,109.471,12,60.9863,0\Gh,18,1.09736,16,121.604,12,-55.3405,0\Gh,18,1.53768,16,112.41,12,176.627,0\Gh,21,1.09667,18,114.73,16,56.4489,0\Gh,21,1.09713,18,117.403,16,-179.392,0\Gh,21,1.53754,18,110.625,16,-58.4117,0\Gh,24,1.09668,21,109.64,18,177.81,0\Gh,24,1.09691,21,108.887,18,-70.2088,0\Gh,24,1.53683,21,109.441,18,58.5654,0\Gh,27,1.09667,24,108.596,21,70.7222,0\Gh,27,1.09691,24,109.612,21,-179.581,0\Gh,16,1.53775,12,112.365,11,111.898,0\Gh,30,1.09642,16,110.609,12,70.7934,0\Gh,30,1.0968,16,108.891,12,-49.8623,0\H,31,2.00902,30,144.357,16,-96.1205,0\C,33,1.09266,31,116.19,30,-165.256,0\H,34,1.09323,33,114.904,31,-24.2412,0\H,34,1.09358,33,107.019,31,99.3759,0\S,34,1.8076,33,106.652,31,-141.412,0\O,37,1.4975,34,102.112,33,-63.1489,0\C,37,1.80649,34,96.0878,33,-174.245,0\H,39,1.09264,37,109.549,34,43.8424,0\H,39,1.09316,37,111.645,34,174.93,0\H,39,1.09353,37,104.383,34,-66.5073,0\H,22,2.0135,21,162.645,18,-53.6522,0\C,43,1.09298,22,115.214,21,154.642,0\H,44,1.0928,43,110.466,22,-11.7488,0\H,44,1.09359,43,110.381,22,-137.044,0\S,44,1.80645,43,99.4323,22,103.283,0\O,47,1.49647,44,100.716,43,-31.228,0\C,47,1.80738,44,95.4572,43,76.4077,0\H,49,1.09262,47,101.683,44,-44.0898,0\H,49,1.09279,47,109.613,44,58.495,0\H,49,1.0937,47,120.165,44,-169.659,0\H,4,2.07567,3,152.318,1,-6.29637,0\C,53,1.09297,4,129.692,3,146.019,0\H,54,1.09251,53,113.715,4,-96.1521,0\H,54,1.09324,53,110.098,4,145.141,0\S,54,1.80664,53,113.765,4,28.2408,0\O,57,1.49665,54,98.9204,53,-44.8276,0\C,57,1.80747,54,95.3739,53,55.9926,0\H,59,1.09214,57,110.892,54,-170.201,0\H,59,1.09287,57,110.434,54,-52.1354,0\H,59,1.09291,57,110.445,54,64.4491,0\H,53,2.14324,4,69.539,3,-79.4413,0\C,63,1.09241,53,150.289,4,-166.672,0\H,64,1.09263,63,112.171,53,123.719,0\H,64,1.09321,63,108.226,53,-117.248,0\S,64,1.80695,63,108.373,53,2.62151,0\O,67,1.49662,64,102.252,63,-53.1191,0\C,67,1.80706,64,100.871,63,-162.776,0\H,69,1.09263,67,103.251,64,-64.0348,0\H,69,1.09284,67,116.412,64,176.912,0\H,69,1.09326,67,101.229,64,49.3534,0\H,72,2.00247,69,167.998,67,-163.03,0\C,73,1.09337,72,105.345,69,-174.711,0\H,74,1.0929,73,110.484,72,43.0552,0\H,74,1.09349,73,112.443,72,-83.7803,0\S,74,1.8072,73,101.842,72,164.098,0\O,77,1.49653,74,99.4381,73,53.3427,0\C,77,1.80686,74,99.6369,73,162.428,0\H,79,1.09302,77,108.014,74,-154.096,0\H,79,1.09318,77,107.589,74,-32.9091,0\H,79,1.09338,77,112.877,74,89.8475,0\H,82,2.18544,79,151.698,77,52.9133,0\C,83,1.09269,82,123.932,79,-81.3989,0\H,84,1.09268,83,104.579,82,111.543,0\H,84,1.09304,83,109.555,82,-7.47305,0\S,84,1.80668,83,100.676,82,-130.746,0\O,87,1.4962,84,101.692,83,-63.7343,0\C,87,1.8071,84,95.1191,83,-160.898,0\H,89,1.09297,87,111.981,84,-68.54,0\H,89,1.0931,87,103.776,84,162.787,0\H,89,1.09331,87,109.738,84,43.96,0\H,92,2.03985,89,158.216,87,13.5133,0\C,93,1.09232,92,155,89,73.237,0\H,94,1.09283,93,114.555,92,150.7,0\H,94,1.09373,93,113.488,92,30.3077,0\S,94,1.80663,93,107.054,92,-93.7096,0\O,97,1.4967,94,100.224,93,-168.469,0\C,97,1.80674,94,98.9635,93,-66.1448,0\H,99,1.0923,97,102.535,94,-83.4599,0\H,99,1.09323,97,112.859,94,159.191,0\H,99,1.09355,97,108.908,94,27.9951,0\H,28,2.33181,27,123.463,24,76.0836,0\C,103,1.09285,28,161.856,27,31.6132,0\H,104,1.09241,103,118.667,28,74.3876,0\H,104,1.09354,103,107.7,28,-166.116,0\S,104,1.80717,103,109.116,28,-54.8484,0\O,107,1.49736,104,106.099,103,155.842,0\C,107,1.80743,104,99.0788,103,-98.2879,0\H,109,1.09264,107,112.532,104,-174.214,0\H,109,1.09305,107,106.004,104,54.5456,0\H,109,1.09398,107,97.4785,104,-50.8433,0\H,80,2.36029,79,121.36,77,83.346,0\C,113,1.09264,80,113.069,79,161.029,0\H,114,1.09275,113,110.343,80,103.717,0\H,114,1.09361,113,109.822,80,-145.035,0\S,114,1.80675,113,107.765,80,-22.1549,0\O,117,1.4974,114,106.324,113,75.9752,0\C,117,1.80701,114,95.1118,113,-175.051,0\H,119,1.09229,117,105.83,114,68.2842,0\H,119,1.09269,117,109.87,114,-178.861,0\H,119,1.09351,117,115.945,114,-51.2453,0\H,10,2.36339,7,116.541,1,-108.511,0\C,123,1.09353,10,109.543,7,-67.5006,0\H,124,1.09296,123,113.664,10,-159.21,0\H,124,1.09321,123,99.1131,10,74.846,0\S,124,1.8066,123,107.259,10,-37.7301,0\O,127,1.49678,124,104.102,123,-162.265,0\C,127,1.80756,124,98.4225,123,-62.3313,0\H,129,1.09277,127,97.8276,124,54.7735,0\H,129,1.09305,127,108.722,124,178.138,0\H,129,1.09329,127,108.891,124,-58.5362,0\H,130,2.12077,129,118.26,127,141.696,0\C,133,1.09363,130,139.523,129,78.3639,0\H,134,1.09274,133,118.816,130,39.7872,0\H,134,1.09292,133,111.356,130,164.613,0\S,134,1.80707,133,102.61,130,-81.488,0\O,137,1.49761,134,103.877,133,-65.7108,0\C,137,1.80654,134,108.528,133,-172.159,0\H,139,1.09202,137,102.369,134,151.467,0\H,139,1.09289,137,111.691,134,19.4357,0\H,139,1.09342,137,103.113,134,-95.6842,0\H,113,2.38874,80,134.261,79,21.1429,0\C,143,1.09343,113,106.519,80,42.5598,0\H,144,1.09269,143,113.366,113,-91.4079,0\H,144,1.09277,143,110.697,113,31.9868,0\S,144,1.80758,143,100.073,113,143.227,0\O,147,1.49641,144,102.348,143,-55.7626,0\C,147,1.80752,144,98.1422,143,42.5935,0\H,149,1.09271,147,107.73,144,-79.4665,0\H,149,1.09274,147,100.175,144,32.0934,0\H,149,1.09356,147,113.601,144,145.404,0\H,146,1.97862,144,135.983,143,93.8253,0\C,153,1.09402,146,136.187,144,162.907,0\H,154,1.09214,153,117.585,146,143.918,0\H,154,1.09317,153,103.248,146,13.5344,0\S,154,1.80703,153,100.649,146,-93.1366,0\O,157,1.49755,154,98.1117,153,30.3391,0\C,157,1.80761,154,96.8536,153,-73.2846,0\H,159,1.09254,157,112.177,154,-61.538,0\H,159,1.09279,157,110.531,154,57.4025,0\H,159,1.0928,157,110.329,154,-179.132,0\H,162,2.18978,159,118.645,157,-65.961,0\C,163,1.09349,162,123.456,159,109.935,0\H,164,1.093,163,112.818,162,-61.6834,0\H,164,1.09378,163,109.769,162,59.4506,0\S,164,1.80685,163,111.87,162,-175.449,0\O,167,1.49729,164,108.882,163,148.726,0\C,167,1.80709,164,93.6189,163,40.0248,0\H,169,1.09212,167,112.434,164,40.7753,0\H,169,1.09299,167,114.504,164,-74.2228,0\H,169,1.09318,167,96.7044,164,164.718,0\O,155,2.32849,154,122.886,153,-154.629,0\S,173,1.49784,155,143.498,154,-91.9576,0\C,174,1.80666,173,99.4346,155,-22.8604,0\H,175,1.09245,174,106.596,173,170.665,0\H,175,1.09321,174,112.414,173,48.5954,0\H,175,1.09324,174,112.478,173,-69.6074,0\C,174,1.80683,173,104.036,155,76.7883,0\H,179,1.09317,174,108.029,173,62.3364,0\H,179,1.09335,174,105.039,173,-57.4816,0\H,179,1.09356,174,109.215,173,-178.235,0\H,86,2.44689,84,159.821,83,179.139,0\C,183,1.0933,86,121.839,84,-62.8231,0\H,184,1.09253,183,104.735,86,133.965,0\H,184,1.09305,183,116.042,86,-102.401,0\S,184,1.80736,183,107.795,86,20.3276,0\O,187,1.4974,184,97.9834,183,-87.5315,0\C,187,1.80689,184,101.36,183,154.365,0\H,189,1.09253,187,103.902,184,-99.869,0\H,189,1.09269,187,108.979,184,152.874,0\H,189,1.09296,187,114.501,184,27.1026,0\H,185,1.99142,184,130.094,183,2.52139,0\C,193,1.0933,185,126.246,184,34.7421,0\H,194,1.09322,193,103.1,185,-150.426,0\H,194,1.09357,193,116.172,185,-28.3486,0\S,194,1.80678,193,111.419,185,97.048,0\O,197,1.49729,194,104.793,193,58.631,0\C,197,1.80735,194,94.0424,193,154.879,0\H,199,1.09299,197,111.311,194,66.1458,0\H,199,1.09303,197,107.317,194,-174.702,0\H,199,1.09303,197,106.975,194,-53.3028,0\H,40,2.51405,39,127.607,37,-149.912,0\C,203,1.0928,40,161.06,39,61.8898,0\H,204,1.0927,203,111.046,40,125.057,0\H,204,1.09293,203,108.21,40,-111.521,0\S,204,1.80774,203,105.111,40,5.20746,0\O,207,1.49692,204,99.8025,203,-48.9101,0\C,207,1.80728,204,106.431,203,57.4556,0\H,209,1.09245,207,109.316,204,-46.1368,0\H,209,1.0926,207,120.755,204,80.7289,0\H,209,1.09267,207,108.6,204,-158.996,0\H,211,2.46612,209,136.927,207,-120.683,0\C,213,1.09314,211,106.612,209,-125.864,0\H,214,1.09254,213,107.499,211,-117.036,0\H,214,1.09288,213,107.644,211,3.35461,0\S,214,1.80642,213,105.756,211,128.584,0\O,217,1.49684,214,108.292,213,83.8988,0\C,217,1.80678,214,99.4406,213,-171.699,0\H,219,1.0927,217,105.134,214,-71.6901,0\H,219,1.09307,217,99.8866,214,177.26,0\H,219,1.09319,217,115.068,214,54.5751,0\H,108,2.55656,107,104.7,104,-160.332,0\C,223,1.09371,108,115.667,107,-58.8477,0\H,224,1.09234,223,113.18,108,-77.3253,0\H,224,1.09355,223,107.625,108,46.9849,0\S,224,1.80648,223,107.789,108,160.288,0\O,227,1.49669,224,103.562,223,173.332,0\C,227,1.80667,224,99.7531,223,63.8668,0\H,229,1.09284,227,108.143,224,49.8856,0\H,229,1.09307,227,108.617,224,167.432,0\H,229,1.09327,227,105.604,224,-72.5697,0\H,226,2.49761,224,117.875,223,-173.849,0\C,233,1.09319,226,155.925,224,-92.878,0\H,234,1.09264,233,110.261,226,-85.3055,0\H,234,1.09283,233,108.909,226,43.0697,0\S,234,1.80767,233,107.574,226,168.887,0\O,237,1.49706,234,108.822,233,51.5633,0\C,237,1.807,234,96.2873,233,-55.1918,0\H,239,1.09231,237,112.071,234,-60.378,0\H,239,1.09323,237,104.849,234,56.5319,0\H,239,1.09339,237,110.187,234,173.691,0\H,128,2.64619,127,132.636,124,-150.329,0\C,243,1.09275,128,128.528,127,-51.6189,0\H,244,1.09262,243,117.014,128,154.541,0\H,244,1.09277,243,114.292,128,-71.8634,0\S,244,1.80713,243,100.993,128,41.0034,0\O,247,1.49714,244,109.067,243,169.365,0\C,247,1.80641,244,91.3316,243,61.0114,0\H,249,1.09266,247,111.523,244,-61.8162,0\H,249,1.09275,247,104.661,244,55.9761,0\H,249,1.09336,247,105.9,244,172.485,0\\\@

 Total job time:  43.34s(wall), 137.28s(cpu) 
 Sat Dec  4 02:47:03 2021

        *************************************************************
        *                                                           *
        *  Thank you very much for using Q-Chem.  Have a nice day.  *
        *                                                           *
        *************************************************************


