                  Welcome to Q-Chem
     A Quantum Leap Into The Future Of Chemistry


 Q-Chem 5.2 (devel), Q-Chem, Inc., Pleasanton, CA (2019)

 Yihan Shao,  Zhengting Gan,  E. Epifanovsky,  A. T. B. Gilbert,  M. Wormit,  
 J. Kussmann,  A. W. Lange,  A. Behn,  Jia Deng,  Xintian Feng,  D. Ghosh,  
 M. Goldey,  P. R. Horn,  L. D. Jacobson,  I. Kaliman,  T. Kus,  A. Landau,  
 Jie Liu,  E. I. Proynov,  R. M. Richard,  R. P. Steele,  E. J. Sundstrom,  
 H. L. Woodcock III,  P. M. Zimmerman,  D. Zuev,  B. Alam,  B. Albrecht,  
 E. Alguire,  S. A. Baeppler,  D. Barton,  Z. Benda,  Y. A. Bernard,  
 E. J. Berquist,  K. B. Bravaya,  H. Burton,  K. Carter-Fenk,  D. Casanova,  
 Chun-Min Chang,  Yunqing Chen,  A. Chien,  K. D. Closser,  M. P. Coons,  
 S. Coriani,  S. Dasgupta,  A. L. Dempwolff,  M. Diedenhofen,  Hainam Do,  
 R. G. Edgar,  Po-Tung Fang,  S. Faraji,  S. Fatehi,  Qingguo Feng,  
 J. Fosso-Tande,  J. Gayvert,  Qinghui Ge,  A. Ghysels,  G. Gidofalvi,  
 J. Gomes,  J. Gonthier,  A. Gunina,  D. Hait,  M. W. D. Hanson-Heine,  
 P. H. P. Harbach,  A. W. Hauser,  M. F. Herbst,  J. E. Herr,  
 E. G. Hohenstein,  Z. C. Holden,  Kerwin Hui,  B. C. Huynh,  T.-C. Jagau,  
 Hyunjun Ji,  B. Kaduk,  K. Khistyaev,  Jaehoon Kim,  P. Klunzinger,  K. Koh,  
 D. Kosenkov,  L. Koulias,  T. Kowalczyk,  C. M. Krauter,  A. Kunitsa,  
 Ka Un Lao,  A. Laurent,  K. V. Lawler,  Joonho Lee,  D. Lefrancois,  
 S. Lehtola,  D. S. Levine,  Yi-Pei Li,  You-Sheng Lin,  Fenglai Liu,  
 Kuan-Yu Liu,  E. Livshits,  M. Loipersberger,  A. Luenser,  P. Manohar,  
 E. Mansoor,  S. F. Manzer,  Shan-Ping Mao,  Yuezhi Mao,  N. Mardirossian,  
 A. V. Marenich,  T. Markovich,  L. A. Martinez-Martinez,  S. A. Maurer,  
 N. J. Mayhall,  S. C. McKenzie,  J.-M. Mewes,  P. Morgante,  A. F. Morrison,  
 J. W. Mullinax,  K. Nanda,  T. S. Nguyen-Beck,  R. Olivares-Amaya,  
 J. A. Parkhill,  S. K. Paul,  F. Pavosevic,  Zheng Pei,  T. M. Perrine,  
 F. Plasser,  P. Pokhilko,  S. Prager,  A. Prociuk,  E. Ramos,  B. Rana,  
 D. R. Rehn,  F. Rob,  M. Scheurer,  M. Schneider,  N. Sergueev,  
 S. M. Sharada,  S. Sharma,  D. W. Small,  T. Stauch,  C. J. Stein,  
 T. Stein,  Yu-Chuan Su,  S. P. Veccham,  Zhen Tao,  A. J. W. Thom,  
 A. Tkatchenko,  T. Tsuchimochi,  N. M. Tubman,  L. Vogt,  M. L. Vidal,  
 O. Vydrov,  M. A. Watson,  J. Wenzel,  M. de Wergifosse,  T. A. Wesolowski,  
 A. White,  J. Witte,  A. Yamada,  Jun Yang,  K. Yao,  S. Yeganeh,  
 S. R. Yost,  Zhi-Qiang You,  A. Zech,  Igor Ying Zhang,  Xing Zhang,  
 Yan Zhao,  Ying Zhu,  B. R. Brooks,  G. K. L. Chan,  C. J. Cramer,  
 M. S. Gordon,  W. J. Hehre,  A. Klamt,  M. W. Schmidt,  C. D. Sherrill,  
 D. G. Truhlar,  A. Aspuru-Guzik,  R. Baer,  A. T. Bell,  N. A. Besley,  
 Jeng-Da Chai,  A. E. DePrince, III,  R. A. DiStasio Jr.,  A. Dreuw,  
 B. D. Dunietz,  T. R. Furlani,  Chao-Ping Hsu,  Yousung Jung,  Jing Kong,  
 D. S. Lambrecht,  WanZhen Liang,  C. Ochsenfeld,  V. A. Rassolov,  
 L. V. Slipchenko,  J. E. Subotnik,  T. Van Voorhis,  J. M. Herbert,  
 A. I. Krylov,  P. M. W. Gill,  M. Head-Gordon

 Contributors to earlier versions of Q-Chem not listed above: 
 R. D. Adamson,  B. Austin,  J. Baker,  G. J. O. Beran,  K. Brandhorst,  
 S. T. Brown,  E. F. C. Byrd,  A. K. Chakraborty,  C.-L. Cheng,  
 Siu Hung Chien,  D. M. Chipman,  D. L. Crittenden,  H. Dachsel,  
 R. J. Doerksen,  A. D. Dutoi,  L. Fusti-Molnar,  W. A. Goddard III,  
 A. Golubeva-Zadorozhnaya,  S. R. Gwaltney,  G. Hawkins,  A. Heyden,  
 S. Hirata,  G. Kedziora,  F. J. Keil,  C. Kelley,  Jihan Kim,  R. A. King,  
 R. Z. Khaliullin,  P. P. Korambath,  W. Kurlancheek,  A. M. Lee,  M. S. Lee,  
 S. V. Levchenko,  Ching Yeh Lin,  D. Liotard,  R. C. Lochan,  I. Lotan,  
 P. E. Maslen,  N. Nair,  D. P. O'Neill,  D. Neuhauser,  E. Neuscamman,  
 C. M. Oana,  R. Olson,  B. Peters,  R. Peverati,  P. A. Pieniazek,  
 Y. M. Rhee,  J. Ritchie,  M. A. Rohrdanz,  E. Rosta,  N. J. Russ,  
 H. F. Schaefer III,  N. E. Schultz,  N. Shenvi,  A. C. Simmonett,  A. Sodt,  
 D. Stuck,  K. S. Thanthiriwatte,  V. Vanovschi,  Tao Wang,  A. Warshel,  
 C. F. Williams,  Q. Wu,  X. Xu,  W. Zhang

 Please cite Q-Chem as follows:
 Y. Shao et al., Mol. Phys. 113, 184-215 (2015)
 DOI: 10.1080/00268976.2014.952696

 Q-Chem 5.2.2 for Intel X86 EM64T Linux

 Parts of Q-Chem use Armadillo 9.800.1 (Horizon Scraper).
 http://arma.sourceforge.net/

 Q-Chem begins on Fri Dec  3 09:07:31 2021  

Host: node004
0

     Scratch files written to /home/ymao90/scratch/r7.00_frame_0012_spade_B3LYP_dp20211203023736//

Checking the input file for inconsistencies... 	...done.

--------------------------------------------------------------
User input:
--------------------------------------------------------------
$molecule
0 1
--
0 1
C    22.16000   19.13600   30.58000  
C    23.05300   18.01000   31.12600  
C    23.96100   17.57000   29.96600  
C    24.75400   18.68500   29.26400  
C    23.78300   19.76100   28.75000  
C    22.93800   20.28700   29.92200  
H    24.63100   16.74900   30.24800  
H    23.62300   18.51700   31.91400  
H    21.37300   18.76300   29.91200  
H    21.66200   19.57700   31.45200  
H    25.51900   19.05900   29.95500  
H    25.28100   18.19100   28.43900  
H    24.35300   20.55600   28.25300  
H    23.12600   19.37900   27.96000  
H    23.55800   20.76200   30.69100  
H    22.24300   21.03800   29.52500  
H    23.23100   17.16600   29.25400  
N    22.29300   16.90300   31.70600  
H    21.38600   16.65600   31.32900  
C    22.74900   15.95600   32.59900  
H    22.10000   15.06300   32.64600  
O    23.82800   16.11600   33.13900  
--
0 1
C    23.73400   24.36400   30.20300  
H    24.77900   24.26600   29.89900  
H    23.53800   23.79500   31.11500  
H    23.07400   24.16700   29.35300  
S    23.64700   26.06700   30.80200  
C    24.09000   26.74400   29.18600  
H    24.97100   26.24900   28.77000  
H    23.21100   26.78600   28.53800  
H    24.39200   27.76000   29.45400  
O    24.87400   26.36500   31.60500  
C    19.37900   18.31700   27.45100  
H    19.74100   18.39400   26.42300  
H    20.14200   17.94500   28.13900  
H    18.52700   17.63900   27.35500  
S    18.83900   19.99000   27.87100  
C    18.13200   19.64000   29.49700  
H    17.36000   18.87200   29.40900  
H    18.93300   19.21800   30.10800  
H    17.78900   20.60600   29.87700  
O    17.69900   20.35300   26.97200  
C    28.27900   15.07400   31.73100  
H    27.46000   15.59100   31.22400  
H    28.88600   15.81700   32.25500  
H    28.83400   14.44300   31.03100  
S    27.25600   14.12800   32.88200  
C    26.83000   15.59500   33.84800  
H    27.74700   16.03400   34.24700  
H    26.14400   16.22700   33.27700  
H    26.24000   15.21700   34.68700  
O    28.28000   13.39400   33.68900  
C    23.62900   8.66400    29.83900  
H    24.29400   8.03800    29.23800  
H    24.11500   8.83800    30.80200  
H    22.62600   8.23200    29.89600  
S    23.53400   10.31000   29.09800  
C    23.85300   9.92000    27.36300  
H    24.11500   10.86300   26.87600  
H    24.75400   9.31800    27.21800  
H    22.99700   9.40300    26.92200  
O    24.79200   10.94000   29.60800  
C    29.21300   17.59200   27.15700  
H    28.85800   17.98800   26.20200  
H    29.94200   18.31000   27.54100  
H    29.63100   16.58700   27.06300  
S    27.98000   17.72100   28.47200  
C    29.18700   17.59200   29.81100  
H    29.93900   18.38500   29.80000  
H    28.60800   17.61500   30.73800  
H    29.65100   16.60700   29.71000  
O    27.34800   16.36400   28.45700  
C    18.41200   13.18100   35.32700  
H    18.47900   13.27800   34.24000  
H    18.39900   14.08600   35.93900  
H    19.25300   12.54700   35.61800  
S    16.96400   12.11700   35.51700  
C    15.86000   13.36200   36.22300  
H    15.64900   13.99100   35.35500  
H    14.93000   12.89800   36.56200  
H    16.42900   13.99800   36.90500  
O    17.34700   11.41100   36.78000  
C    21.76000   8.28800    33.21800  
H    21.75000   7.48800    32.47400  
H    22.56100   9.01200    33.05200  
H    21.81300   7.92900    34.24900  
S    20.22800   9.18400    32.87800  
C    20.52800   9.46700    31.11800  
H    21.51600   9.92000    31.01000  
H    20.33700   8.61700    30.45800  
H    19.87500   10.29100   30.81900  
O    20.33000   10.54400   33.49500  
C    17.83000   23.63300   34.88100  
H    17.30000   23.33100   33.97400  
H    17.30000   24.52200   35.23400  
H    18.87100   23.95600   34.79800  
S    17.70500   22.32400   36.12100  
C    18.25100   23.20500   37.60100  
H    19.33800   23.30000   37.54000  
H    17.81300   24.20500   37.56000  
H    17.93200   22.73800   38.53600  
O    18.74900   21.29100   35.83500  
C    16.99700   10.82800   32.02700  
H    16.10000   11.12700   32.57700  
H    16.95700   9.75000    31.85400  
H    17.98000   10.99400   32.47500  
S    16.90100   11.55800   30.37600  
C    15.30900   10.88300   29.85400  
H    14.56300   11.16000   30.60400  
H    15.00100   11.35700   28.91900  
H    15.33300   9.79500    29.96200  
O    17.97200   10.85500   29.60200  
C    24.13000   15.07800   27.07300  
H    24.76400   15.67300   27.73500  
H    24.47600   14.09600   26.74200  
H    23.94200   15.76600   26.24500  
S    22.53300   14.83500   27.88300  
C    23.26400   13.92000   29.25900  
H    22.50900   13.67400   30.01000  
H    23.65700   13.02800   28.76200  
H    24.05000   14.53300   29.70800  
O    21.84000   13.75800   27.10900  
C    25.99500   22.14600   32.60900  
H    26.54900   21.88000   31.70500  
H    25.38700   21.31600   32.97800  
H    25.33700   23.01200   32.49900  
S    27.24800   22.49500   33.86400  
C    28.15800   20.93800   33.74800  
H    27.53000   20.05200   33.86600  
H    28.49600   20.86500   32.71100  
H    28.99700   20.87600   34.44500  
O    26.52100   22.51300   35.17200  
C    23.25700   22.74700   35.59900  
H    23.66400   23.54400   36.22500  
H    23.21300   21.78100   36.10800  
H    23.80400   22.71500   34.65300  
S    21.54300   23.19600   35.24300  
C    21.34200   21.89700   34.00400  
H    21.26000   20.95500   34.55100  
H    20.42200   22.08500   33.44300  
H    22.14100   21.97500   33.26200  
O    21.64600   24.41900   34.38700  
C    28.88500   13.82700   26.88600  
H    28.91000   14.36100   27.83900  
H    29.63100   13.02800   26.84900  
H    28.85400   14.59100   26.10400  
S    27.22400   13.12000   26.81800  
C    27.56600   11.73500   27.92700  
H    26.97900   10.92500   27.48600  
H    28.64000   11.57600   28.04800  
H    26.96000   12.01900   28.79100  
O    27.27900   12.59000   25.41900  
C    30.02500   17.08500   38.76300  
H    29.78600   16.17400   39.31700  
H    31.08600   16.92000   38.55600  
H    29.91900   17.98600   39.37300  
S    29.05200   16.93600   37.24700  
C    29.24200   18.70600   36.93800  
H    28.52100   19.01300   36.17600  
H    29.19200   19.28600   37.86300  
H    30.28400   18.80100   36.62300  
O    27.57900   16.95200   37.51500  
C    25.53800   13.00800   38.60200  
H    25.01200   13.35600   39.49500  
H    24.90200   13.16800   37.72800  
H    25.80900   11.95000   38.64900  
S    27.11200   13.89100   38.51700  
C    27.74600   13.18600   36.97800  
H    28.79300   13.46800   36.84000  
H    27.43700   12.13800   36.96900  
H    27.26500   13.65200   36.11400  
O    27.96500   13.17700   39.52000  
C    24.48800   11.95800   33.28000  
H    25.53500   11.77000   33.53000  
H    24.36600   11.41300   32.34100  
H    24.22900   13.01400   33.16400  
S    23.73400   11.09800   34.67900  
C    22.39200   12.30800   34.69300  
H    22.14300   12.49300   33.64500  
H    21.54400   11.89700   35.24700  
H    22.75900   13.20200   35.20300  
O    24.72700   11.46200   35.73800  
C    19.89500   24.32600   31.24400  
H    20.49300   24.34800   32.15800  
H    19.93300   25.25300   30.66500  
H    18.86800   24.10300   31.54400  
S    20.25800   22.94100   30.14100  
C    18.78600   23.25900   29.14300  
H    18.78100   24.34100   28.98600  
H    18.89000   22.77300   28.16900  
H    17.89600   22.99300   29.71800  
O    19.93500   21.78500   31.03500  
C    21.35000   15.53200   38.66300  
H    20.44600   15.50400   39.27600  
H    22.18300   16.10600   39.07600  
H    21.09700   15.83800   37.64400  
S    22.14800   13.91300   38.76000  
C    20.67700   13.03700   38.18300  
H    20.54700   13.31100   37.13300  
H    20.87200   11.96200   38.14800  
H    19.88800   13.29600   38.89500  
O    22.17500   13.45100   40.18300  
C    17.98600   20.10000   32.90600  
H    18.04300   21.08000   32.42500  
H    18.12600   20.19200   33.98600  
H    18.85300   19.58300   32.48600  
S    16.48900   19.25600   32.34700  
C    15.48200   20.63300   32.94100  
H    15.82100   21.63100   32.65000  
H    14.42700   20.49100   32.69200  
H    15.57400   20.49200   34.02100  
O    16.44500   18.21800   33.42600  
C    18.88400   16.25700   33.37100  
H    18.31900   17.11800   33.00500  
H    19.75100   15.99300   32.76000  
H    18.19000   15.42700   33.52100  
S    19.45800   16.69400   35.02800  
C    20.44000   18.15700   34.62700  
H    21.25900   18.15800   35.35200  
H    20.86900   18.08200   33.62500  
H    19.85600   19.08000   34.59500  
O    20.54500   15.67400   35.17300  
C    22.91000   24.72000   24.79300  
H    22.35900   24.02700   24.15200  
H    22.31300   25.50000   25.27200  
H    23.69900   25.27200   24.27600  
S    23.64700   23.53800   25.94400  
C    22.20000   23.40400   27.01700  
H    21.29400   23.06400   26.50800  
H    22.42500   22.68200   27.80700  
H    22.02700   24.41000   27.40900  
O    24.60000   24.42700   26.68000  
C    18.90000   14.58500   26.32900  
H    19.50400   15.43100   26.66600  
H    17.99600   14.61100   26.94200  
H    19.47000   13.65300   26.29400  
S    18.50600   14.89000   24.59200  
C    20.19300   15.22600   24.03800  
H    20.80600   15.59300   24.86500  
H    20.44000   14.24500   23.62300  
H    20.15500   15.99100   23.25900  
O    18.00500   16.29800   24.67900  
C    24.71600   19.31000   35.20600  
H    25.53800   18.85900   34.64600  
H    23.72700   19.15800   34.76400  
H    24.84100   20.35600   35.50000  
S    24.44700   18.50700   36.80300  
C    23.89800   16.85200   36.33100  
H    22.93800   17.02600   35.83800  
H    24.55800   16.38500   35.59400  
H    23.87200   16.24800   37.24100  
O    23.13700   19.12700   37.17700  
C    22.27200   18.33900   23.76300  
H    22.54400   18.37600   22.70500  
H    23.01300   17.71500   24.26900  
H    21.26900   17.96800   23.98700  
S    22.41600   19.96600   24.53600  
C    24.17900   19.92900   24.92800  
H    24.36000   19.41700   25.87700  
H    24.80100   19.44600   24.17000  
H    24.53900   20.95000   25.07800  
O    21.77500   20.01700   25.88800  
C    20.57100   27.14800   26.16900  
H    20.12000   26.28900   25.66500  
H    19.99200   27.99200   25.78500  
H    21.66200   27.20800   26.17000  
S    19.95800   27.03600   27.86500  
C    20.93200   28.46200   28.39700  
H    20.54500   29.41800   28.03600  
H    20.94600   28.54800   29.48600  
H    21.98600   28.29600   28.16000  
O    20.71500   25.92600   28.52500  
C    29.39600   21.19000   26.75900  
H    29.78300   22.21100   26.78800  
H    29.29300   20.70100   27.73200  
H    30.11600   20.58700   26.20100  
S    27.79000   21.57300   26.02400  
C    27.01200   22.00100   27.59700  
H    27.65100   22.74200   28.08400  
H    26.03400   22.44200   27.38800  
H    26.94400   21.12100   28.24100  
O    27.30600   20.17800   25.78200  
C    26.75500   17.43200   24.65800  
H    27.64100   18.06800   24.58600  
H    26.02800   17.83200   23.94700  
H    26.33000   17.52100   25.66100  
S    27.08800   15.73000   24.15200  
C    28.28500   16.05300   22.83700  
H    29.16300   16.49800   23.31200  
H    28.58200   15.11600   22.35900  
H    27.90800   16.76100   22.09400  
O    25.88900   15.36900   23.33200  
C    17.81300   15.05100   29.47800  
H    17.29600   14.16900   29.09100  
H    17.48800   15.40500   30.46000  
H    17.69300   15.93000   28.83900  
S    19.56500   14.62800   29.60100  
C    19.60200   13.58900   31.07900  
H    20.63500   13.49400   31.42400  
H    18.97100   13.92500   31.90500  
H    19.31500   12.57900   30.77300  
O    20.09700   15.93100   30.11100  
C    31.51100   22.16300   29.51900  
H    31.31600   23.18100   29.17300  
H    32.56700   22.06200   29.78300  
H    31.36000   21.44500   28.70900  
S    30.37000   21.82100   30.87800  
C    31.26100   20.32000   31.34400  
H    32.08400   20.71800   31.94300  
H    30.49600   19.74500   31.87100  
H    31.54600   19.78000   30.43800  
O    29.06900   21.38900   30.27700  
$end

$rem
JOBTYPE  SP
METHOD  B3LYP
BASIS  6-31+G(D)
SYMMETRY  FALSE
SYM_IGNORE  TRUE
MEM_TOTAL  16000
MEM_STATIC  8000
MAX_SUB_FILE_NUM  16000
BASIS_LIN_DEP_THRESH  6
THRESH  14
SCF_CONVERGENCE  8
GEN_SCFMAN  TRUE
SCF_GUESS  SAD
FD_MAT_VEC_PROD  FALSE
XC_GRID  000075000302
NL_GRID  1
MAX_SCF_CYCLES  200
ENV_METHOD  B3LYP
GEN_SCFMAN_EMBED  TRUE
SPADE_PARTITION  TRUE
$end

$development
embedding_early_stop  1
$end

--------------------------------------------------------------
 ----------------------------------------------------------------
             Standard Nuclear Orientation (Angstroms)
    I     Atom           X                Y                Z
 ----------------------------------------------------------------
    1      C      22.1600000000    19.1360000000    30.5800000000
    2      C      23.0530000000    18.0100000000    31.1260000000
    3      C      23.9610000000    17.5700000000    29.9660000000
    4      C      24.7540000000    18.6850000000    29.2640000000
    5      C      23.7830000000    19.7610000000    28.7500000000
    6      C      22.9380000000    20.2870000000    29.9220000000
    7      H      24.6310000000    16.7490000000    30.2480000000
    8      H      23.6230000000    18.5170000000    31.9140000000
    9      H      21.3730000000    18.7630000000    29.9120000000
   10      H      21.6620000000    19.5770000000    31.4520000000
   11      H      25.5190000000    19.0590000000    29.9550000000
   12      H      25.2810000000    18.1910000000    28.4390000000
   13      H      24.3530000000    20.5560000000    28.2530000000
   14      H      23.1260000000    19.3790000000    27.9600000000
   15      H      23.5580000000    20.7620000000    30.6910000000
   16      H      22.2430000000    21.0380000000    29.5250000000
   17      H      23.2310000000    17.1660000000    29.2540000000
   18      N      22.2930000000    16.9030000000    31.7060000000
   19      H      21.3860000000    16.6560000000    31.3290000000
   20      C      22.7490000000    15.9560000000    32.5990000000
   21      H      22.1000000000    15.0630000000    32.6460000000
   22      O      23.8280000000    16.1160000000    33.1390000000
   23      C      23.7340000000    24.3640000000    30.2030000000
   24      H      24.7790000000    24.2660000000    29.8990000000
   25      H      23.5380000000    23.7950000000    31.1150000000
   26      H      23.0740000000    24.1670000000    29.3530000000
   27      S      23.6470000000    26.0670000000    30.8020000000
   28      C      24.0900000000    26.7440000000    29.1860000000
   29      H      24.9710000000    26.2490000000    28.7700000000
   30      H      23.2110000000    26.7860000000    28.5380000000
   31      H      24.3920000000    27.7600000000    29.4540000000
   32      O      24.8740000000    26.3650000000    31.6050000000
   33      C      19.3790000000    18.3170000000    27.4510000000
   34      H      19.7410000000    18.3940000000    26.4230000000
   35      H      20.1420000000    17.9450000000    28.1390000000
   36      H      18.5270000000    17.6390000000    27.3550000000
   37      S      18.8390000000    19.9900000000    27.8710000000
   38      C      18.1320000000    19.6400000000    29.4970000000
   39      H      17.3600000000    18.8720000000    29.4090000000
   40      H      18.9330000000    19.2180000000    30.1080000000
   41      H      17.7890000000    20.6060000000    29.8770000000
   42      O      17.6990000000    20.3530000000    26.9720000000
   43      C      28.2790000000    15.0740000000    31.7310000000
   44      H      27.4600000000    15.5910000000    31.2240000000
   45      H      28.8860000000    15.8170000000    32.2550000000
   46      H      28.8340000000    14.4430000000    31.0310000000
   47      S      27.2560000000    14.1280000000    32.8820000000
   48      C      26.8300000000    15.5950000000    33.8480000000
   49      H      27.7470000000    16.0340000000    34.2470000000
   50      H      26.1440000000    16.2270000000    33.2770000000
   51      H      26.2400000000    15.2170000000    34.6870000000
   52      O      28.2800000000    13.3940000000    33.6890000000
   53      C      23.6290000000     8.6640000000    29.8390000000
   54      H      24.2940000000     8.0380000000    29.2380000000
   55      H      24.1150000000     8.8380000000    30.8020000000
   56      H      22.6260000000     8.2320000000    29.8960000000
   57      S      23.5340000000    10.3100000000    29.0980000000
   58      C      23.8530000000     9.9200000000    27.3630000000
   59      H      24.1150000000    10.8630000000    26.8760000000
   60      H      24.7540000000     9.3180000000    27.2180000000
   61      H      22.9970000000     9.4030000000    26.9220000000
   62      O      24.7920000000    10.9400000000    29.6080000000
   63      C      29.2130000000    17.5920000000    27.1570000000
   64      H      28.8580000000    17.9880000000    26.2020000000
   65      H      29.9420000000    18.3100000000    27.5410000000
   66      H      29.6310000000    16.5870000000    27.0630000000
   67      S      27.9800000000    17.7210000000    28.4720000000
   68      C      29.1870000000    17.5920000000    29.8110000000
   69      H      29.9390000000    18.3850000000    29.8000000000
   70      H      28.6080000000    17.6150000000    30.7380000000
   71      H      29.6510000000    16.6070000000    29.7100000000
   72      O      27.3480000000    16.3640000000    28.4570000000
   73      C      18.4120000000    13.1810000000    35.3270000000
   74      H      18.4790000000    13.2780000000    34.2400000000
   75      H      18.3990000000    14.0860000000    35.9390000000
   76      H      19.2530000000    12.5470000000    35.6180000000
   77      S      16.9640000000    12.1170000000    35.5170000000
   78      C      15.8600000000    13.3620000000    36.2230000000
   79      H      15.6490000000    13.9910000000    35.3550000000
   80      H      14.9300000000    12.8980000000    36.5620000000
   81      H      16.4290000000    13.9980000000    36.9050000000
   82      O      17.3470000000    11.4110000000    36.7800000000
   83      C      21.7600000000     8.2880000000    33.2180000000
   84      H      21.7500000000     7.4880000000    32.4740000000
   85      H      22.5610000000     9.0120000000    33.0520000000
   86      H      21.8130000000     7.9290000000    34.2490000000
   87      S      20.2280000000     9.1840000000    32.8780000000
   88      C      20.5280000000     9.4670000000    31.1180000000
   89      H      21.5160000000     9.9200000000    31.0100000000
   90      H      20.3370000000     8.6170000000    30.4580000000
   91      H      19.8750000000    10.2910000000    30.8190000000
   92      O      20.3300000000    10.5440000000    33.4950000000
   93      C      17.8300000000    23.6330000000    34.8810000000
   94      H      17.3000000000    23.3310000000    33.9740000000
   95      H      17.3000000000    24.5220000000    35.2340000000
   96      H      18.8710000000    23.9560000000    34.7980000000
   97      S      17.7050000000    22.3240000000    36.1210000000
   98      C      18.2510000000    23.2050000000    37.6010000000
   99      H      19.3380000000    23.3000000000    37.5400000000
  100      H      17.8130000000    24.2050000000    37.5600000000
  101      H      17.9320000000    22.7380000000    38.5360000000
  102      O      18.7490000000    21.2910000000    35.8350000000
  103      C      16.9970000000    10.8280000000    32.0270000000
  104      H      16.1000000000    11.1270000000    32.5770000000
  105      H      16.9570000000     9.7500000000    31.8540000000
  106      H      17.9800000000    10.9940000000    32.4750000000
  107      S      16.9010000000    11.5580000000    30.3760000000
  108      C      15.3090000000    10.8830000000    29.8540000000
  109      H      14.5630000000    11.1600000000    30.6040000000
  110      H      15.0010000000    11.3570000000    28.9190000000
  111      H      15.3330000000     9.7950000000    29.9620000000
  112      O      17.9720000000    10.8550000000    29.6020000000
  113      C      24.1300000000    15.0780000000    27.0730000000
  114      H      24.7640000000    15.6730000000    27.7350000000
  115      H      24.4760000000    14.0960000000    26.7420000000
  116      H      23.9420000000    15.7660000000    26.2450000000
  117      S      22.5330000000    14.8350000000    27.8830000000
  118      C      23.2640000000    13.9200000000    29.2590000000
  119      H      22.5090000000    13.6740000000    30.0100000000
  120      H      23.6570000000    13.0280000000    28.7620000000
  121      H      24.0500000000    14.5330000000    29.7080000000
  122      O      21.8400000000    13.7580000000    27.1090000000
  123      C      25.9950000000    22.1460000000    32.6090000000
  124      H      26.5490000000    21.8800000000    31.7050000000
  125      H      25.3870000000    21.3160000000    32.9780000000
  126      H      25.3370000000    23.0120000000    32.4990000000
  127      S      27.2480000000    22.4950000000    33.8640000000
  128      C      28.1580000000    20.9380000000    33.7480000000
  129      H      27.5300000000    20.0520000000    33.8660000000
  130      H      28.4960000000    20.8650000000    32.7110000000
  131      H      28.9970000000    20.8760000000    34.4450000000
  132      O      26.5210000000    22.5130000000    35.1720000000
  133      C      23.2570000000    22.7470000000    35.5990000000
  134      H      23.6640000000    23.5440000000    36.2250000000
  135      H      23.2130000000    21.7810000000    36.1080000000
  136      H      23.8040000000    22.7150000000    34.6530000000
  137      S      21.5430000000    23.1960000000    35.2430000000
  138      C      21.3420000000    21.8970000000    34.0040000000
  139      H      21.2600000000    20.9550000000    34.5510000000
  140      H      20.4220000000    22.0850000000    33.4430000000
  141      H      22.1410000000    21.9750000000    33.2620000000
  142      O      21.6460000000    24.4190000000    34.3870000000
  143      C      28.8850000000    13.8270000000    26.8860000000
  144      H      28.9100000000    14.3610000000    27.8390000000
  145      H      29.6310000000    13.0280000000    26.8490000000
  146      H      28.8540000000    14.5910000000    26.1040000000
  147      S      27.2240000000    13.1200000000    26.8180000000
  148      C      27.5660000000    11.7350000000    27.9270000000
  149      H      26.9790000000    10.9250000000    27.4860000000
  150      H      28.6400000000    11.5760000000    28.0480000000
  151      H      26.9600000000    12.0190000000    28.7910000000
  152      O      27.2790000000    12.5900000000    25.4190000000
  153      C      30.0250000000    17.0850000000    38.7630000000
  154      H      29.7860000000    16.1740000000    39.3170000000
  155      H      31.0860000000    16.9200000000    38.5560000000
  156      H      29.9190000000    17.9860000000    39.3730000000
  157      S      29.0520000000    16.9360000000    37.2470000000
  158      C      29.2420000000    18.7060000000    36.9380000000
  159      H      28.5210000000    19.0130000000    36.1760000000
  160      H      29.1920000000    19.2860000000    37.8630000000
  161      H      30.2840000000    18.8010000000    36.6230000000
  162      O      27.5790000000    16.9520000000    37.5150000000
  163      C      25.5380000000    13.0080000000    38.6020000000
  164      H      25.0120000000    13.3560000000    39.4950000000
  165      H      24.9020000000    13.1680000000    37.7280000000
  166      H      25.8090000000    11.9500000000    38.6490000000
  167      S      27.1120000000    13.8910000000    38.5170000000
  168      C      27.7460000000    13.1860000000    36.9780000000
  169      H      28.7930000000    13.4680000000    36.8400000000
  170      H      27.4370000000    12.1380000000    36.9690000000
  171      H      27.2650000000    13.6520000000    36.1140000000
  172      O      27.9650000000    13.1770000000    39.5200000000
  173      C      24.4880000000    11.9580000000    33.2800000000
  174      H      25.5350000000    11.7700000000    33.5300000000
  175      H      24.3660000000    11.4130000000    32.3410000000
  176      H      24.2290000000    13.0140000000    33.1640000000
  177      S      23.7340000000    11.0980000000    34.6790000000
  178      C      22.3920000000    12.3080000000    34.6930000000
  179      H      22.1430000000    12.4930000000    33.6450000000
  180      H      21.5440000000    11.8970000000    35.2470000000
  181      H      22.7590000000    13.2020000000    35.2030000000
  182      O      24.7270000000    11.4620000000    35.7380000000
  183      C      19.8950000000    24.3260000000    31.2440000000
  184      H      20.4930000000    24.3480000000    32.1580000000
  185      H      19.9330000000    25.2530000000    30.6650000000
  186      H      18.8680000000    24.1030000000    31.5440000000
  187      S      20.2580000000    22.9410000000    30.1410000000
  188      C      18.7860000000    23.2590000000    29.1430000000
  189      H      18.7810000000    24.3410000000    28.9860000000
  190      H      18.8900000000    22.7730000000    28.1690000000
  191      H      17.8960000000    22.9930000000    29.7180000000
  192      O      19.9350000000    21.7850000000    31.0350000000
  193      C      21.3500000000    15.5320000000    38.6630000000
  194      H      20.4460000000    15.5040000000    39.2760000000
  195      H      22.1830000000    16.1060000000    39.0760000000
  196      H      21.0970000000    15.8380000000    37.6440000000
  197      S      22.1480000000    13.9130000000    38.7600000000
  198      C      20.6770000000    13.0370000000    38.1830000000
  199      H      20.5470000000    13.3110000000    37.1330000000
  200      H      20.8720000000    11.9620000000    38.1480000000
  201      H      19.8880000000    13.2960000000    38.8950000000
  202      O      22.1750000000    13.4510000000    40.1830000000
  203      C      17.9860000000    20.1000000000    32.9060000000
  204      H      18.0430000000    21.0800000000    32.4250000000
  205      H      18.1260000000    20.1920000000    33.9860000000
  206      H      18.8530000000    19.5830000000    32.4860000000
  207      S      16.4890000000    19.2560000000    32.3470000000
  208      C      15.4820000000    20.6330000000    32.9410000000
  209      H      15.8210000000    21.6310000000    32.6500000000
  210      H      14.4270000000    20.4910000000    32.6920000000
  211      H      15.5740000000    20.4920000000    34.0210000000
  212      O      16.4450000000    18.2180000000    33.4260000000
  213      C      18.8840000000    16.2570000000    33.3710000000
  214      H      18.3190000000    17.1180000000    33.0050000000
  215      H      19.7510000000    15.9930000000    32.7600000000
  216      H      18.1900000000    15.4270000000    33.5210000000
  217      S      19.4580000000    16.6940000000    35.0280000000
  218      C      20.4400000000    18.1570000000    34.6270000000
  219      H      21.2590000000    18.1580000000    35.3520000000
  220      H      20.8690000000    18.0820000000    33.6250000000
  221      H      19.8560000000    19.0800000000    34.5950000000
  222      O      20.5450000000    15.6740000000    35.1730000000
  223      C      22.9100000000    24.7200000000    24.7930000000
  224      H      22.3590000000    24.0270000000    24.1520000000
  225      H      22.3130000000    25.5000000000    25.2720000000
  226      H      23.6990000000    25.2720000000    24.2760000000
  227      S      23.6470000000    23.5380000000    25.9440000000
  228      C      22.2000000000    23.4040000000    27.0170000000
  229      H      21.2940000000    23.0640000000    26.5080000000
  230      H      22.4250000000    22.6820000000    27.8070000000
  231      H      22.0270000000    24.4100000000    27.4090000000
  232      O      24.6000000000    24.4270000000    26.6800000000
  233      C      18.9000000000    14.5850000000    26.3290000000
  234      H      19.5040000000    15.4310000000    26.6660000000
  235      H      17.9960000000    14.6110000000    26.9420000000
  236      H      19.4700000000    13.6530000000    26.2940000000
  237      S      18.5060000000    14.8900000000    24.5920000000
  238      C      20.1930000000    15.2260000000    24.0380000000
  239      H      20.8060000000    15.5930000000    24.8650000000
  240      H      20.4400000000    14.2450000000    23.6230000000
  241      H      20.1550000000    15.9910000000    23.2590000000
  242      O      18.0050000000    16.2980000000    24.6790000000
  243      C      24.7160000000    19.3100000000    35.2060000000
  244      H      25.5380000000    18.8590000000    34.6460000000
  245      H      23.7270000000    19.1580000000    34.7640000000
  246      H      24.8410000000    20.3560000000    35.5000000000
  247      S      24.4470000000    18.5070000000    36.8030000000
  248      C      23.8980000000    16.8520000000    36.3310000000
  249      H      22.9380000000    17.0260000000    35.8380000000
  250      H      24.5580000000    16.3850000000    35.5940000000
  251      H      23.8720000000    16.2480000000    37.2410000000
  252      O      23.1370000000    19.1270000000    37.1770000000
  253      C      22.2720000000    18.3390000000    23.7630000000
  254      H      22.5440000000    18.3760000000    22.7050000000
  255      H      23.0130000000    17.7150000000    24.2690000000
  256      H      21.2690000000    17.9680000000    23.9870000000
  257      S      22.4160000000    19.9660000000    24.5360000000
  258      C      24.1790000000    19.9290000000    24.9280000000
  259      H      24.3600000000    19.4170000000    25.8770000000
  260      H      24.8010000000    19.4460000000    24.1700000000
  261      H      24.5390000000    20.9500000000    25.0780000000
  262      O      21.7750000000    20.0170000000    25.8880000000
  263      C      20.5710000000    27.1480000000    26.1690000000
  264      H      20.1200000000    26.2890000000    25.6650000000
  265      H      19.9920000000    27.9920000000    25.7850000000
  266      H      21.6620000000    27.2080000000    26.1700000000
  267      S      19.9580000000    27.0360000000    27.8650000000
  268      C      20.9320000000    28.4620000000    28.3970000000
  269      H      20.5450000000    29.4180000000    28.0360000000
  270      H      20.9460000000    28.5480000000    29.4860000000
  271      H      21.9860000000    28.2960000000    28.1600000000
  272      O      20.7150000000    25.9260000000    28.5250000000
  273      C      29.3960000000    21.1900000000    26.7590000000
  274      H      29.7830000000    22.2110000000    26.7880000000
  275      H      29.2930000000    20.7010000000    27.7320000000
  276      H      30.1160000000    20.5870000000    26.2010000000
  277      S      27.7900000000    21.5730000000    26.0240000000
  278      C      27.0120000000    22.0010000000    27.5970000000
  279      H      27.6510000000    22.7420000000    28.0840000000
  280      H      26.0340000000    22.4420000000    27.3880000000
  281      H      26.9440000000    21.1210000000    28.2410000000
  282      O      27.3060000000    20.1780000000    25.7820000000
  283      C      26.7550000000    17.4320000000    24.6580000000
  284      H      27.6410000000    18.0680000000    24.5860000000
  285      H      26.0280000000    17.8320000000    23.9470000000
  286      H      26.3300000000    17.5210000000    25.6610000000
  287      S      27.0880000000    15.7300000000    24.1520000000
  288      C      28.2850000000    16.0530000000    22.8370000000
  289      H      29.1630000000    16.4980000000    23.3120000000
  290      H      28.5820000000    15.1160000000    22.3590000000
  291      H      27.9080000000    16.7610000000    22.0940000000
  292      O      25.8890000000    15.3690000000    23.3320000000
  293      C      17.8130000000    15.0510000000    29.4780000000
  294      H      17.2960000000    14.1690000000    29.0910000000
  295      H      17.4880000000    15.4050000000    30.4600000000
  296      H      17.6930000000    15.9300000000    28.8390000000
  297      S      19.5650000000    14.6280000000    29.6010000000
  298      C      19.6020000000    13.5890000000    31.0790000000
  299      H      20.6350000000    13.4940000000    31.4240000000
  300      H      18.9710000000    13.9250000000    31.9050000000
  301      H      19.3150000000    12.5790000000    30.7730000000
  302      O      20.0970000000    15.9310000000    30.1110000000
  303      C      31.5110000000    22.1630000000    29.5190000000
  304      H      31.3160000000    23.1810000000    29.1730000000
  305      H      32.5670000000    22.0620000000    29.7830000000
  306      H      31.3600000000    21.4450000000    28.7090000000
  307      S      30.3700000000    21.8210000000    30.8780000000
  308      C      31.2610000000    20.3200000000    31.3440000000
  309      H      32.0840000000    20.7180000000    31.9430000000
  310      H      30.4960000000    19.7450000000    31.8710000000
  311      H      31.5460000000    19.7800000000    30.4380000000
  312      O      29.0690000000    21.3890000000    30.2770000000
 ----------------------------------------------------------------
 Nuclear Repulsion Energy =       53826.13265326 hartrees
 There are      644 alpha and      644 beta electrons
 Requested basis set is 6-31+G(d)
 There are 1028 shells and 2865 basis functions

 Total QAlloc Memory Limit  16000 MB
 Mega-Array Size      7821 MB
 MEM_STATIC part      8000 MB
 A cutoff of  1.0D-14 yielded 194512 shell pairs
 There are   1693008 function pairs
 Smallest overlap matrix eigenvalue = 3.30E-07
 Linear dependence detected in AO basis
 Tighter screening thresholds may be required for diffuse basis sets
 Use S2THRESH > 14 and THRESH = 14 in case of SCF convergence issues
 Number of orthogonalized atomic orbitals = 2863
 Maximum deviation from orthogonality = 1.917E-10

 Scale SEOQF with 1.000000e-03/1.000000e-03/1.000000e-03

 Standard Electronic Orientation quadrupole field applied
 Nucleus-field energy     =    -0.0000008112 hartrees
 Guess from superposition of atomic densities
 Warning:  Energy on first SCF cycle will be non-variational
 SAD guess density has 1288.000002 electrons

 -----------------------------------------------------------------------
  General SCF calculation program by
  Eric Jon Sundstrom, Paul Horn, Yuezhi Mao, Dmitri Zuev, Alec White,
  David Stuck, Shaama M.S., Shane Yost, Joonho Lee, David Small,
  Daniel Levine, Susi Lehtola, Hugh Burton, Evgeny Epifanovsky,
  Bang C. Huynh
 -----------------------------------------------------------------------
=================================================
        Doing projection-based embedding         
      F. Manby et al. JCTC, 8, 2564 (2012)       
=================================================

****************************************************
   Low-level SCF calculation for the whole system   
****************************************************
----------------------------------------------
 Summary of the low-level theory: 
 Exchange:     0.2000 Hartree-Fock + 0.0800 Slater + 0.7200 B88
 Correlation:  0.1900 VWN1RPA + 0.8100 LYP
 Using Euler-Maclaurin-Lebedev (75,302) quadrature formula
----------------------------------------------
 using 16 threads for integral computing
 -------------------------------------------------------
 OpenMP Integral computing Module                
 Release: version 2.0, May 2017, Q-Chem Inc. Pleasanton 
 -------------------------------------------------------
 A restricted SCF calculation will be
 performed using DIIS
 SCF converges when DIIS error is below 1.0e-08
 ---------------------------------------
  Cycle       Energy         DIIS error
 ---------------------------------------
    1  -16467.7445227527      1.31e-02  
    2  -16441.8631677020      2.43e-03  
    3  -16423.7985154077      4.81e-03  
    4  -16438.1632286238      1.97e-03  
    5  -16444.6500908757      1.12e-03  
    6  -16447.0182713741      2.08e-04  
    7  -16447.0218593653      2.42e-04  
    8  -16447.0647395568      7.89e-05  
    9  -16447.0697820099      5.11e-05  
   10  -16447.0727534240      2.06e-05  
   11  -16447.0731303527      1.09e-05  
   12  -16447.0732304303      2.80e-06  
   13  -16447.0732372816      1.03e-06  
   14  -16447.0732380743      4.41e-07  
   15  -16447.0732382495      9.12e-08  
   16  -16447.0732382556      4.86e-08  
   17  -16447.0732382574      1.79e-08  
   18  -16447.0732382573      5.16e-09  Convergence criterion met
 ---------------------------------------
 SCF time:   CPU 263493.01s  wall 16614.00s 
 SCF   energy in the final basis set =   -16447.0732382573
 Total energy in the final basis set =   -16447.0732382573

****************************************************
             Start embedding calculation            
****************************************************
----------------------------------------------
 Summary of the high-level theory: 
 Exchange:     0.2000 Hartree-Fock + 0.0800 Slater + 0.7200 B88
 Correlation:  0.1900 VWN1RPA + 0.8100 LYP
 Using Euler-Maclaurin-Lebedev (75,302) quadrature formula
----------------------------------------------
Doing R-in-R Embedding Calculation
Number of fragments: 2
Embedded fragment(s): 1 
NOcc for each fragment
           35
          609
NBasis for each fragment
          197
         2668
Variational space of the embedded problem: 
NOcc (active)  = 35
NOcc (fixed)   = 609
NVir (total)   = 2219
Read converged orbitals from disk
=========================================================
       Doing SPADE partition for the orbital space       
     D. CLaudino and N. Mayhall JCTC 15, 1053 (2019)     
=========================================================
SPADE singular values:
 1.0000 1.0000 1.0000 1.0000 1.0000 1.0000 1.0000 1.0000 1.0000 0.9999
 0.9998 0.9997 0.9996 0.9996 0.9995 0.9993 0.9993 0.9988 0.9986 0.9973
 0.9972 0.9966 0.9962 0.9960 0.9953 0.9950 0.9945 0.9932 0.9922 0.9914
 0.9905 0.9882 0.9878 0.9861 0.9804 0.2061 0.1992 0.1632 0.1546 0.1506
 0.1439 0.1416 0.1285 0.1209 0.1051 0.1012 0.0941 0.0826 0.0752 0.0675
 0.0632 0.0611 0.0512 0.0489 0.0479 0.0432 0.0405 0.0401 0.0384 0.0347
 0.0337 0.0302 0.0282 0.0271 0.0244 0.0234 0.0221 0.0207 0.0199 0.0182
 0.0174 0.0169 0.0163 0.0150 0.0141 0.0127 0.0124 0.0117 0.0115 0.0111
 0.0108 0.0099 0.0095 0.0093 0.0089 0.0087 0.0077 0.0074 0.0072 0.0070
 0.0067 0.0065 0.0062 0.0059 0.0054 0.0054 0.0049 0.0047 0.0045 0.0041
 0.0038 0.0037 0.0036 0.0034 0.0031 0.0029 0.0027 0.0026 0.0026 0.0024
 0.0023 0.0022 0.0021 0.0020 0.0020 0.0019 0.0018 0.0018 0.0017 0.0016
 0.0016 0.0015 0.0014 0.0014 0.0013 0.0013 0.0013 0.0012 0.0011 0.0011
 0.0010 0.0010 0.0010 0.0010 0.0009 0.0009 0.0008 0.0008 0.0008 0.0008
 0.0007 0.0007 0.0006 0.0006 0.0006 0.0006 0.0006 0.0005 0.0005 0.0005
 0.0005 0.0004 0.0004 0.0004 0.0004 0.0004 0.0004 0.0004 0.0003 0.0003
 0.0003 0.0003 0.0003 0.0003 0.0003 0.0003 0.0002 0.0002 0.0002 0.0002
 0.0002 0.0002 0.0002 0.0002 0.0002 0.0002 0.0002 0.0002 0.0002 0.0001
 0.0001 0.0001 0.0001 0.0001 0.0001 0.0001 0.0001 0.0001 0.0001 0.0001
 0.0001 0.0001 0.0001 0.0001 0.0001 0.0001 0.0001
Early stop requested!
609 environment occs will be part of frozen-core in future post-HF calculations
 
 --------------------------------------------------------------
 
                    Orbital Energies (a.u.)
 --------------------------------------------------------------
 
 Alpha MOs
 -- Occupied --
 -0.5201  -0.4893  -0.5288  -0.4853  -0.4754  -0.5242  -0.5067  -0.4735
 -0.4820  -0.4765  -0.4597  -0.4407  -0.4783  -0.4492  -0.4395  -0.4496
 -0.4484  -0.5493  -0.4515  -0.4423  -0.5345  -0.6278  -0.5087  -0.5559
 -0.6550  -0.4815  -0.6694  -0.7355  -0.6143  -0.5398  -0.5305  -0.5723
 -0.5532  -0.5885  -0.5777  -0.5345  -0.5811  -0.5737  -0.5796  -0.5273
 -0.5272  -0.5601  -0.5377  -0.5076  -0.5741  -0.5408  -0.6095  -0.6065
 -0.5499  -0.5696  -0.5171  -0.5329  -0.5680  -0.5842  -0.5919  -0.5641
 -0.6289  -0.6106  -0.7063  -0.6050  -0.6094  -0.5751  -0.7687  -0.6617
 -0.6148  -0.7135  -0.7808  -0.8983  -0.7830  -0.9222  -0.8720  -0.7750
 -0.9807  -0.7456  -1.1635  -0.8502  -0.9869  -0.9183  -1.3588  -0.9648
 -0.8950  -1.0963  -0.8605  -0.9256  -1.0806  -1.3278  -1.0782  -0.8989
 -1.4868  -1.4416  -0.8133  -1.1157  -1.4058  -1.1051  -1.1940  -1.2336
 -0.9518  -0.9413  -0.9324  -0.9713  -1.1921  -2.1036  -1.0544  -1.1758
 -1.4887  -1.4450  -1.1857  -2.5834  -1.9498  -1.3341  -2.6398  -1.3028
 -1.7989  -1.3432  -1.3790  -1.2240  -1.5925  -1.2432  -2.3189  -1.5722
 -1.1410  -1.9529  -1.4325  -1.2874  -1.8096  -1.5613  -1.0188  -1.5849
 -1.0824  -1.1617  -1.4074  -1.2304  -1.5495  -1.3086  -1.5226  -2.0591
 -1.1116  -1.3475  -1.6399  -1.1016  -1.7612  -1.9691  -1.2691  -1.4723
 -1.7844  -1.1902  -1.5202  -1.3375  -1.8922  -1.7026  -1.7621  -1.4133
 -2.1474  -1.8771  -1.9334  -1.8977  -1.6924  -1.4633  -1.8473  -2.0839
 -1.7357  -2.2248  -6.0009  -5.9905  -7.0844  -6.3153  -5.9917  -5.8879
 -5.9811  -5.9838  -6.0064  -6.0144  -5.9924  -5.9828  -5.9161  -5.9939
 -5.9468  -5.9814  -5.9762  -5.9853  -6.4341  -5.9886  -5.9772  -5.9580
 -5.9862  -5.9520  -5.9638  -5.9765  -5.9844  -5.9502  -5.9504  -5.9648
 -5.9799  -5.9983  -5.9642  -5.9817  -5.9541  -5.9008  -5.9646  -5.9458
 -5.9386  -5.9641  -5.9471  -5.9335  -5.9421  -5.9314  -2.9100  -2.0469
 -1.7735 -14.3393 -47.9493  -5.5721 -19.7575  -1.5014  -4.4203  -2.2820
 -8.5049  -1.7481 -13.4858 -18.9310  -4.6891  -9.9070  -1.3349  -2.3656
 -6.9775  -4.3655  -4.4425  -1.9134  -1.1947  -2.0476  -3.1665  -2.1800
-10.3635  -5.1843  -1.3392  -1.2553 -75.3104  -2.6904  -1.5095 -81.8750
-15.3661  -0.9994  -4.0179  -1.5640  -5.8432  -1.2289 -14.1599  -1.4478
 -4.9629  -8.6110 -10.5721  -3.3277  -1.0321 -17.3098  -7.5141  -2.2420
 -4.3570  -2.1477  -1.2610  -1.9153  -5.1840 -29.9429 -13.1042  -5.7123
 -1.2603  -8.3661  -2.9399  -0.9857  -1.2546  -8.3827 -51.3999 -29.8861
 -2.5311 -59.0134 -23.6959  -1.0570  -8.2972  -1.0411  -3.2940  -4.0733
 -7.0971  -3.8227  -1.9933  -1.8951  -6.1479  -5.7224  -9.6942  -0.9662
 -6.0526  -7.4312  -5.0350 -10.4899 -16.0286  -8.5118  -4.1505  -9.3452
 -1.1085  -1.2235  -2.4786  -1.3223 -64.3868 -11.7149  -2.1139  -6.0465
-10.3331  -1.0793  -5.5617  -1.2834  -4.9972  -8.5123  -6.5168 -58.2166
-10.8928  -3.3812 -11.3014  -0.9294 -11.9281  -1.6608  -8.3237  -2.9943
-13.4993  -4.4739  -2.3566  -5.0480 -10.4328  -9.6118 -50.7956 -11.1972
-68.8547  -0.9013  -0.8599  -1.4073 -71.2720  -2.3305  -2.1722  -1.0555
 -1.9649 -11.8897  -1.7714 -10.0143  -1.9008  -8.4160  -3.1790  -9.5001
 -5.5336  -5.5729  -8.9720  -7.2224 -37.2930  -6.7231  -1.8586  -2.4747
 -4.0177  -9.5803  -2.6662 -10.4712  -8.5515  -5.0764 -14.1947  -5.8578
 -4.4810  -5.8374  -5.6962  -9.7996  -5.4179  -2.5826 -17.9199  -7.0692
 -8.0483  -8.3405  -8.4856  -3.3702  -5.1927  -1.7983  -1.5401  -9.8486
-10.8159  -7.4424  -7.2004 -19.5453  -4.7247  -6.0673 -14.6520  -4.2836
 -6.5888  -8.8104  -3.9659  -5.9897  -6.5117  -1.0239  -6.7613  -9.4864
-12.4717  -7.2780  -6.7166  -5.1815  -7.8582 -15.4724  -7.5305  -6.7505
 -7.8528  -5.6064  -7.0052  -9.6048 -11.0302 -16.4777  -5.6658  -4.9980
-13.9455  -7.9172  -5.0122 -20.6954 -11.5050  -8.8653  -1.6971  -3.2299
 -4.2141 -10.5521 -13.0442 -10.5229  -5.3567 -17.3167 -12.1338 -21.2542
 -3.7551 -28.2481  -6.0855  -3.4795 -19.2985 -11.1194 -10.6620  -3.1548
 -4.1917  -9.7444  -1.0722  -9.4692  -1.7128  -5.0144  -9.7423  -7.1159
 -7.0035  -5.9144  -9.5243  -7.6969  -7.1964  -5.9424  -7.3770  -1.8258
 -2.2646  -3.6159  -8.6519 -11.1131  -6.0069  -8.6032  -7.0403  -6.3583
-16.3452  -7.2060  -6.0002 -10.9590  -4.2749 -12.7022  -2.1747  -4.9403
-15.2726  -9.4237 -15.0888 -12.2762  -2.1747  -5.0819  -2.9361  -2.8720
 -7.8429 -15.4866  -9.3620  -7.4504 -17.5703 -13.0831 -13.4134 -19.7654
-12.2932  -5.6113  -4.9893  -7.3606 -14.2955  -4.3388  -4.7773  -3.0512
 -3.7428  -7.5237 -11.3151  -7.5203 -13.3059 -15.8867 -15.8804  -2.5374
 -2.0772  -8.5493  -4.5130 -10.9060  -7.5548 -10.0109  -9.5136  -6.0890
-12.9184  -1.4432  -5.8644  -9.3668 -11.1813  -8.5031 -28.0167 -11.0484
-34.2407 -12.6872 -11.3502 -10.8573 -34.2402  -5.9804  -9.9811 -14.2495
-14.0954  -2.1499 -10.8226  -4.8544 -31.6162 -15.3124 -22.7363  -2.6137
-47.5443 -31.0204 -10.4754  -1.6484  -6.9523  -2.5079 -18.8209 -26.3904
-15.2779  -4.2359 -30.3938  -4.5638  -1.5924 -18.5173  -3.2335 -72.5202
-12.2691  -3.2910  -5.1430 -82.4453  -2.3448 -64.4538 -14.7313  -1.4946
-14.0984  -2.2664 -20.5216  -4.2106  -8.6909  -6.5301  -8.0203  -2.5023
 -7.4693  -4.5483  -7.6302 -19.2385 -13.0443 -13.2810 -21.7999 -55.8613
 -9.4621  -4.9859  -4.4528  -5.1793 -16.5272  -9.8582 -15.7235 -10.5489
-11.0971 -14.9734 -10.6900  -6.2636  -8.7883 -16.7641 -42.2553  -5.5015
-16.3654  -9.0420 -11.2057 -15.4267 -38.5083 -17.7177  -6.1401 -12.7439
 -2.1918  -4.5688 -25.2158  -7.1746  -9.0877 -11.2059 -27.0465  -4.7882
 -7.9354  -8.8491  -9.5834 -13.7904 -24.7299  -1.8884 -14.7537  -3.3460
 -2.0402 -10.4789 -10.4577 -14.7143 -13.3761 -11.7803 -10.1402 -11.2728
-10.1816 -11.5687  -0.6985  -0.8401  -0.8040  -0.8150  -0.7885  -0.6544
 -0.7132  -0.7159  -0.4620  -0.4228  -0.4294  -0.4296  -0.4778  -0.4638
 -0.4627  -0.4612  -0.3667  -0.3924  -0.4475  -0.3837  -0.4514  -0.4864
 -0.4316  -0.4865  -0.5304  -0.5482
 -- Virtual --
 -0.0466  -0.0391  -0.0340  -0.0300  -0.0282  -0.0270  -0.0257  -0.0244
 -0.0215  -0.0197  -0.0188  -0.0185  -0.0157  -0.0152  -0.0136  -0.0129
 -0.0122  -0.0113  -0.0100  -0.0090  -0.0083  -0.0072  -0.0055  -0.0044
 -0.0039  -0.0033  -0.0021  -0.0013  -0.0008   0.0004   0.0009   0.0015
  0.0018   0.0029   0.0031   0.0036   0.0039   0.0049   0.0057   0.0067
  0.0077   0.0080   0.0088   0.0091   0.0096   0.0105   0.0113   0.0116
  0.0126   0.0133   0.0147   0.0153   0.0159   0.0164   0.0170   0.0179
  0.0186   0.0192   0.0200   0.0204   0.0213   0.0223   0.0226   0.0229
  0.0246   0.0247   0.0251   0.0260   0.0265   0.0274   0.0275   0.0281
  0.0293   0.0294   0.0299   0.0308   0.0313   0.0318   0.0326   0.0329
  0.0337   0.0344   0.0353   0.0363   0.0373   0.0379   0.0388   0.0392
  0.0400   0.0407   0.0416   0.0417   0.0420   0.0422   0.0435   0.0439
  0.0445   0.0452   0.0458   0.0461   0.0470   0.0477   0.0481   0.0492
  0.0497   0.0497   0.0509   0.0517   0.0522   0.0531   0.0532   0.0543
  0.0550   0.0555   0.0559   0.0572   0.0574   0.0585   0.0590   0.0593
  0.0596   0.0606   0.0610   0.0617   0.0619   0.0629   0.0634   0.0639
  0.0643   0.0652   0.0655   0.0658   0.0663   0.0673   0.0673   0.0676
  0.0688   0.0692   0.0699   0.0706   0.0708   0.0712   0.0714   0.0724
  0.0727   0.0733   0.0743   0.0745   0.0751   0.0755   0.0760   0.0766
  0.0777   0.0779   0.0787   0.0793   0.0795   0.0799   0.0809   0.0818
  0.0824   0.0830   0.0838   0.0846   0.0852   0.0857   0.0866   0.0869
  0.0873   0.0879   0.0889   0.0897   0.0904   0.0911   0.0912   0.0921
  0.0924   0.0931   0.0934   0.0941   0.0950   0.0953   0.0966   0.0969
  0.0972   0.0979   0.0985   0.0989   0.0993   0.0998   0.1003   0.1013
  0.1021   0.1026   0.1032   0.1033   0.1041   0.1050   0.1055   0.1059
  0.1069   0.1074   0.1077   0.1087   0.1092   0.1096   0.1105   0.1106
  0.1111   0.1114   0.1124   0.1133   0.1139   0.1144   0.1147   0.1154
  0.1163   0.1165   0.1166   0.1175   0.1184   0.1189   0.1193   0.1197
  0.1200   0.1209   0.1213   0.1221   0.1226   0.1228   0.1234   0.1242
  0.1245   0.1251   0.1262   0.1266   0.1270   0.1281   0.1285   0.1294
  0.1300   0.1302   0.1304   0.1310   0.1319   0.1322   0.1332   0.1336
  0.1347   0.1350   0.1355   0.1362   0.1371   0.1374   0.1380   0.1386
  0.1391   0.1401   0.1405   0.1410   0.1416   0.1421   0.1427   0.1431
  0.1439   0.1447   0.1453   0.1459   0.1462   0.1469   0.1474   0.1486
  0.1491   0.1495   0.1496   0.1503   0.1512   0.1518   0.1523   0.1529
  0.1539   0.1540   0.1546   0.1554   0.1560   0.1563   0.1573   0.1579
  0.1583   0.1589   0.1600   0.1604   0.1606   0.1616   0.1617   0.1619
  0.1629   0.1631   0.1639   0.1641   0.1653   0.1658   0.1662   0.1666
  0.1671   0.1677   0.1683   0.1687   0.1695   0.1700   0.1708   0.1714
  0.1718   0.1721   0.1727   0.1736   0.1744   0.1751   0.1756   0.1758
  0.1763   0.1766   0.1778   0.1782   0.1792   0.1797   0.1803   0.1808
  0.1813   0.1815   0.1823   0.1824   0.1833   0.1837   0.1841   0.1855
  0.1857   0.1860   0.1867   0.1870   0.1880   0.1886   0.1887   0.1897
  0.1900   0.1905   0.1906   0.1912   0.1918   0.1927   0.1928   0.1929
  0.1933   0.1944   0.1946   0.1947   0.1962   0.1966   0.1974   0.1979
  0.1985   0.1987   0.1993   0.1997   0.2004   0.2009   0.2021   0.2023
  0.2028   0.2037   0.2040   0.2045   0.2054   0.2061   0.2064   0.2070
  0.2075   0.2077   0.2087   0.2097   0.2102   0.2108   0.2117   0.2123
  0.2126   0.2131   0.2137   0.2148   0.2149   0.2154   0.2161   0.2169
  0.2171   0.2176   0.2179   0.2189   0.2197   0.2200   0.2206   0.2212
  0.2216   0.2218   0.2224   0.2237   0.2239   0.2250   0.2251   0.2258
  0.2264   0.2274   0.2277   0.2278   0.2287   0.2290   0.2303   0.2307
  0.2314   0.2320   0.2329   0.2336   0.2344   0.2349   0.2356   0.2359
  0.2366   0.2367   0.2374   0.2382   0.2385   0.2393   0.2401   0.2407
  0.2411   0.2420   0.2428   0.2429   0.2437   0.2446   0.2449   0.2454
  0.2459   0.2462   0.2465   0.2482   0.2482   0.2487   0.2495   0.2502
  0.2513   0.2518   0.2521   0.2526   0.2529   0.2539   0.2542   0.2554
  0.2558   0.2559   0.2568   0.2569   0.2579   0.2583   0.2594   0.2598
  0.2599   0.2610   0.2619   0.2622   0.2635   0.2639   0.2645   0.2651
  0.2657   0.2665   0.2670   0.2676   0.2680   0.2684   0.2693   0.2698
  0.2710   0.2717   0.2721   0.2723   0.2734   0.2737   0.2740   0.2753
  0.2759   0.2763   0.2764   0.2778   0.2784   0.2789   0.2801   0.2804
  0.2808   0.2814   0.2822   0.2836   0.2840   0.2843   0.2853   0.2854
  0.2861   0.2869   0.2871   0.2878   0.2887   0.2890   0.2901   0.2912
  0.2919   0.2924   0.2930   0.2936   0.2946   0.2952   0.2967   0.2971
  0.2976   0.2978   0.2995   0.3007   0.3012   0.3033   0.3034   0.3049
  0.3055   0.3058   0.3060   0.3068   0.3077   0.3078   0.3089   0.3106
  0.3115   0.3119   0.3126   0.3131   0.3135   0.3146   0.3153   0.3168
  0.3172   0.3176   0.3186   0.3199   0.3206   0.3213   0.3225   0.3236
  0.3241   0.3246   0.3253   0.3258   0.3266   0.3274   0.3287   0.3301
  0.3303   0.3305   0.3314   0.3326   0.3341   0.3343   0.3356   0.3359
  0.3365   0.3371   0.3390   0.3391   0.3403   0.3413   0.3418   0.3431
  0.3434   0.3440   0.3445   0.3450   0.3465   0.3475   0.3479   0.3481
  0.3494   0.3502   0.3505   0.3517   0.3522   0.3528   0.3538   0.3543
  0.3547   0.3560   0.3568   0.3582   0.3587   0.3594   0.3600   0.3616
  0.3629   0.3635   0.3638   0.3643   0.3658   0.3663   0.3671   0.3673
  0.3681   0.3689   0.3704   0.3707   0.3717   0.3734   0.3738   0.3752
  0.3760   0.3764   0.3771   0.3779   0.3786   0.3790   0.3810   0.3812
  0.3816   0.3824   0.3839   0.3844   0.3850   0.3863   0.3882   0.3893
  0.3895   0.3901   0.3905   0.3921   0.3925   0.3939   0.3941   0.3946
  0.3961   0.3966   0.3969   0.3972   0.3982   0.3995   0.4006   0.4014
  0.4020   0.4026   0.4035   0.4044   0.4055   0.4059   0.4064   0.4076
  0.4083   0.4087   0.4097   0.4105   0.4112   0.4127   0.4136   0.4141
  0.4152   0.4163   0.4171   0.4177   0.4193   0.4208   0.4210   0.4221
  0.4237   0.4242   0.4255   0.4264   0.4266   0.4274   0.4283   0.4290
  0.4293   0.4301   0.4311   0.4327   0.4336   0.4344   0.4349   0.4370
  0.4377   0.4389   0.4390   0.4408   0.4416   0.4423   0.4429   0.4441
  0.4451   0.4464   0.4466   0.4483   0.4484   0.4494   0.4500   0.4504
  0.4523   0.4539   0.4548   0.4556   0.4563   0.4577   0.4584   0.4590
  0.4608   0.4616   0.4619   0.4632   0.4643   0.4647   0.4658   0.4672
  0.4682   0.4686   0.4693   0.4714   0.4729   0.4746   0.4751   0.4758
  0.4765   0.4789   0.4800   0.4802   0.4816   0.4834   0.4847   0.4854
  0.4863   0.4869   0.4890   0.4896   0.4910   0.4931   0.4937   0.4947
  0.4965   0.4992   0.4996   0.5011   0.5022   0.5035   0.5043   0.5058
  0.5061   0.5086   0.5104   0.5125   0.5133   0.5142   0.5152   0.5170
  0.5190   0.5211   0.5218   0.5231   0.5250   0.5258   0.5261   0.5265
  0.5294   0.5307   0.5319   0.5340   0.5349   0.5364   0.5379   0.5402
  0.5415   0.5425   0.5431   0.5458   0.5475   0.5494   0.5500   0.5515
  0.5536   0.5544   0.5559   0.5566   0.5585   0.5590   0.5615   0.5626
  0.5650   0.5660   0.5674   0.5681   0.5690   0.5698   0.5714   0.5731
  0.5742   0.5752   0.5768   0.5782   0.5796   0.5806   0.5822   0.5855
  0.5864   0.5880   0.5888   0.5913   0.5919   0.5920   0.5940   0.5951
  0.5956   0.5960   0.5984   0.5989   0.5996   0.6008   0.6018   0.6034
  0.6064   0.6067   0.6082   0.6087   0.6096   0.6102   0.6124   0.6145
  0.6154   0.6166   0.6178   0.6192   0.6201   0.6216   0.6224   0.6227
  0.6236   0.6257   0.6260   0.6269   0.6280   0.6297   0.6314   0.6321
  0.6326   0.6340   0.6350   0.6366   0.6378   0.6384   0.6393   0.6409
  0.6412   0.6427   0.6443   0.6453   0.6456   0.6464   0.6475   0.6480
  0.6491   0.6496   0.6512   0.6520   0.6545   0.6549   0.6559   0.6567
  0.6572   0.6584   0.6590   0.6600   0.6606   0.6634   0.6640   0.6644
  0.6662   0.6672   0.6686   0.6687   0.6707   0.6715   0.6720   0.6733
  0.6739   0.6753   0.6765   0.6767   0.6778   0.6801   0.6818   0.6824
  0.6829   0.6847   0.6852   0.6857   0.6870   0.6888   0.6895   0.6906
  0.6908   0.6925   0.6936   0.6952   0.6973   0.6975   0.6987   0.6998
  0.7016   0.7029   0.7036   0.7046   0.7051   0.7068   0.7074   0.7077
  0.7084   0.7102   0.7120   0.7138   0.7140   0.7155   0.7158   0.7176
  0.7185   0.7199   0.7205   0.7210   0.7222   0.7233   0.7244   0.7254
  0.7264   0.7276   0.7281   0.7306   0.7319   0.7332   0.7339   0.7356
  0.7361   0.7379   0.7382   0.7394   0.7414   0.7430   0.7443   0.7451
  0.7460   0.7469   0.7485   0.7490   0.7498   0.7507   0.7518   0.7519
  0.7532   0.7544   0.7559   0.7566   0.7595   0.7598   0.7613   0.7631
  0.7651   0.7656   0.7662   0.7666   0.7682   0.7689   0.7712   0.7720
  0.7729   0.7750   0.7767   0.7779   0.7788   0.7814   0.7835   0.7844
  0.7860   0.7876   0.7889   0.7898   0.7914   0.7917   0.7945   0.7949
  0.7965   0.7973   0.7984   0.8014   0.8021   0.8040   0.8057   0.8081
  0.8084   0.8093   0.8107   0.8120   0.8132   0.8142   0.8168   0.8170
  0.8183   0.8185   0.8212   0.8223   0.8249   0.8256   0.8285   0.8290
  0.8294   0.8302   0.8312   0.8330   0.8347   0.8349   0.8358   0.8378
  0.8394   0.8400   0.8422   0.8433   0.8442   0.8459   0.8463   0.8468
  0.8481   0.8485   0.8509   0.8525   0.8536   0.8544   0.8568   0.8574
  0.8587   0.8600   0.8609   0.8613   0.8618   0.8641   0.8666   0.8670
  0.8674   0.8693   0.8696   0.8708   0.8717   0.8731   0.8743   0.8752
  0.8762   0.8774   0.8788   0.8801   0.8808   0.8830   0.8857   0.8872
  0.8878   0.8883   0.8899   0.8920   0.8927   0.8938   0.8946   0.8970
  0.8985   0.9004   0.9015   0.9016   0.9026   0.9045   0.9073   0.9080
  0.9089   0.9100   0.9119   0.9135   0.9138   0.9155   0.9177   0.9183
  0.9185   0.9197   0.9212   0.9213   0.9223   0.9239   0.9246   0.9248
  0.9268   0.9280   0.9290   0.9302   0.9313   0.9323   0.9343   0.9355
  0.9367   0.9374   0.9383   0.9390   0.9405   0.9418   0.9428   0.9440
  0.9448   0.9452   0.9465   0.9474   0.9489   0.9497   0.9500   0.9516
  0.9519   0.9536   0.9541   0.9544   0.9569   0.9578   0.9585   0.9588
  0.9612   0.9617   0.9635   0.9642   0.9657   0.9666   0.9680   0.9682
  0.9700   0.9703   0.9716   0.9726   0.9739   0.9755   0.9759   0.9770
  0.9782   0.9788   0.9803   0.9808   0.9822   0.9830   0.9833   0.9844
  0.9852   0.9865   0.9875   0.9888   0.9896   0.9904   0.9913   0.9919
  0.9931   0.9940   0.9950   0.9959   0.9964   0.9981   0.9990   1.0003
  1.0010   1.0030   1.0036   1.0041   1.0053   1.0076   1.0084   1.0095
  1.0109   1.0114   1.0120   1.0138   1.0149   1.0158   1.0167   1.0183
  1.0200   1.0206   1.0219   1.0230   1.0235   1.0243   1.0248   1.0254
  1.0258   1.0297   1.0301   1.0306   1.0310   1.0324   1.0327   1.0333
  1.0343   1.0366   1.0380   1.0386   1.0407   1.0414   1.0419   1.0431
  1.0438   1.0443   1.0458   1.0475   1.0480   1.0490   1.0516   1.0521
  1.0533   1.0545   1.0567   1.0570   1.0594   1.0605   1.0607   1.0627
  1.0635   1.0654   1.0661   1.0666   1.0674   1.0686   1.0704   1.0708
  1.0722   1.0737   1.0752   1.0755   1.0766   1.0788   1.0800   1.0804
  1.0810   1.0821   1.0852   1.0863   1.0870   1.0903   1.0908   1.0924
  1.0929   1.0946   1.0954   1.0975   1.0989   1.0990   1.1005   1.1020
  1.1040   1.1062   1.1074   1.1084   1.1092   1.1097   1.1119   1.1122
  1.1159   1.1160   1.1171   1.1185   1.1191   1.1208   1.1217   1.1230
  1.1235   1.1243   1.1260   1.1274   1.1275   1.1291   1.1308   1.1318
  1.1332   1.1337   1.1345   1.1353   1.1362   1.1372   1.1404   1.1410
  1.1418   1.1438   1.1449   1.1463   1.1472   1.1477   1.1488   1.1492
  1.1503   1.1533   1.1534   1.1550   1.1552   1.1566   1.1579   1.1587
  1.1605   1.1622   1.1636   1.1643   1.1653   1.1672   1.1674   1.1680
  1.1691   1.1707   1.1721   1.1728   1.1740   1.1763   1.1778   1.1790
  1.1793   1.1801   1.1816   1.1826   1.1855   1.1863   1.1877   1.1893
  1.1905   1.1918   1.1925   1.1930   1.1941   1.1968   1.1980   1.1981
  1.1997   1.2009   1.2037   1.2053   1.2053   1.2070   1.2084   1.2089
  1.2104   1.2114   1.2123   1.2151   1.2163   1.2189   1.2195   1.2215
  1.2222   1.2241   1.2262   1.2300   1.2308   1.2324   1.2335   1.2346
  1.2360   1.2380   1.2392   1.2414   1.2441   1.2459   1.2471   1.2485
  1.2491   1.2508   1.2536   1.2563   1.2592   1.2607   1.2638   1.2653
  1.2654   1.2672   1.2714   1.2731   1.2764   1.2770   1.2778   1.2789
  1.2832   1.2842   1.2881   1.2883   1.2902   1.2940   1.2964   1.2990
  1.3001   1.3038   1.3042   1.3069   1.3084   1.3094   1.3108   1.3135
  1.3172   1.3196   1.3209   1.3236   1.3259   1.3271   1.3309   1.3315
  1.3342   1.3354   1.3368   1.3381   1.3409   1.3427   1.3451   1.3456
  1.3498   1.3503   1.3517   1.3532   1.3556   1.3585   1.3590   1.3624
  1.3631   1.3645   1.3666   1.3674   1.3690   1.3712   1.3727   1.3733
  1.3741   1.3759   1.3781   1.3795   1.3819   1.3842   1.3850   1.3874
  1.3890   1.3903   1.3914   1.3919   1.3943   1.3955   1.3965   1.3989
  1.3999   1.4018   1.4020   1.4040   1.4045   1.4059   1.4075   1.4096
  1.4104   1.4126   1.4130   1.4147   1.4171   1.4176   1.4186   1.4202
  1.4217   1.4225   1.4236   1.4253   1.4266   1.4289   1.4296   1.4308
  1.4313   1.4325   1.4338   1.4354   1.4361   1.4382   1.4397   1.4410
  1.4416   1.4428   1.4446   1.4461   1.4470   1.4472   1.4486   1.4500
  1.4517   1.4533   1.4545   1.4555   1.4570   1.4589   1.4598   1.4614
  1.4638   1.4653   1.4661   1.4685   1.4697   1.4704   1.4709   1.4726
  1.4732   1.4765   1.4770   1.4787   1.4808   1.4810   1.4831   1.4844
  1.4860   1.4871   1.4880   1.4886   1.4924   1.4935   1.4962   1.4976
  1.4995   1.5013   1.5036   1.5051   1.5074   1.5097   1.5111   1.5132
  1.5138   1.5170   1.5190   1.5217   1.5226   1.5241   1.5245   1.5270
  1.5303   1.5316   1.5328   1.5376   1.5381   1.5404   1.5434   1.5463
  1.5476   1.5497   1.5508   1.5521   1.5538   1.5573   1.5598   1.5646
  1.5681   1.5708   1.5716   1.5763   1.5773   1.5795   1.5835   1.5858
  1.5873   1.5894   1.5920   1.5946   1.5978   1.6027   1.6033   1.6053
  1.6126   1.6157   1.6246   1.6264   1.6282   1.6371   1.6398   1.6418
  1.6424   1.6435   1.6477   1.6517   1.6547   1.6561   1.6590   1.6594
  1.6637   1.6657   1.6668   1.6696   1.6709   1.6729   1.6744   1.6761
  1.6785   1.6806   1.6815   1.6828   1.6838   1.6841   1.6861   1.6868
  1.6879   1.6887   1.6905   1.6915   1.6924   1.6935   1.6942   1.6957
  1.6967   1.6981   1.6993   1.7007   1.7022   1.7030   1.7045   1.7055
  1.7073   1.7076   1.7082   1.7109   1.7115   1.7132   1.7145   1.7157
  1.7168   1.7174   1.7190   1.7221   1.7232   1.7233   1.7247   1.7260
  1.7271   1.7278   1.7288   1.7301   1.7323   1.7327   1.7340   1.7350
  1.7361   1.7381   1.7393   1.7405   1.7410   1.7424   1.7435   1.7454
  1.7456   1.7486   1.7495   1.7498   1.7514   1.7525   1.7532   1.7548
  1.7565   1.7573   1.7584   1.7585   1.7598   1.7627   1.7634   1.7646
  1.7656   1.7685   1.7687   1.7691   1.7715   1.7732   1.7746   1.7752
  1.7769   1.7775   1.7802   1.7813   1.7823   1.7833   1.7851   1.7875
  1.7893   1.7929   1.7939   1.7956   1.7981   1.7990   1.8028   1.8037
  1.8045   1.8081   1.8093   1.8111   1.8128   1.8154   1.8183   1.8193
  1.8224   1.8238   1.8290   1.8309   1.8329   1.8336   1.8368   1.8401
  1.8427   1.8451   1.8459   1.8505   1.8522   1.8531   1.8575   1.8599
  1.8613   1.8639   1.8677   1.8695   1.8704   1.8715   1.8746   1.8751
  1.8783   1.8787   1.8806   1.8827   1.8830   1.8847   1.8854   1.8876
  1.8884   1.8911   1.8919   1.8924   1.8938   1.8952   1.8971   1.8980
  1.8987   1.8996   1.9006   1.9014   1.9038   1.9050   1.9055   1.9068
  1.9071   1.9088   1.9093   1.9105   1.9120   1.9126   1.9146   1.9157
  1.9168   1.9186   1.9188   1.9206   1.9216   1.9231   1.9260   1.9264
  1.9269   1.9289   1.9308   1.9315   1.9318   1.9327   1.9355   1.9372
  1.9384   1.9389   1.9408   1.9426   1.9436   1.9448   1.9464   1.9486
  1.9516   1.9529   1.9548   1.9562   1.9589   1.9607   1.9621   1.9664
  1.9685   1.9723   1.9730   1.9776   1.9821   1.9836   1.9865   1.9894
  2.0004   2.0058   2.0096   2.0165   2.0207   2.0234   2.0326   2.0343
  2.0391   2.0425   2.0471   2.0490   2.0514   2.0538   2.0569   2.0606
  2.0610   2.0615   2.0645   2.0703   2.0718   2.0739   2.0745   2.0753
  2.0758   2.0772   2.0778   2.0785   2.0806   2.0846   2.0871   2.0880
  2.0904   2.0924   2.0928   2.0936   2.0940   2.0955   2.0958   2.0960
  2.0980   2.0983   2.1000   2.1002   2.1012   2.1023   2.1038   2.1041
  2.1049   2.1065   2.1087   2.1091   2.1109   2.1128   2.1154   2.1166
  2.1186   2.1190   2.1251   2.1273   2.1277   2.1281   2.1298   2.1339
  2.1354   2.1370   2.1395   2.1404   2.1415   2.1457   2.1470   2.1492
  2.1565   2.1610   2.1666   2.1692   2.1704   2.1721   2.1732   2.1781
  2.1788   2.1803   2.1837   2.1855   2.1884   2.1915   2.1956   2.1990
  2.2001   2.2018   2.2039   2.2081   2.2088   2.2105   2.2133   2.2141
  2.2180   2.2194   2.2215   2.2232   2.2239   2.2247   2.2267   2.2277
  2.2280   2.2295   2.2299   2.2318   2.2328   2.2341   2.2348   2.2361
  2.2371   2.2378   2.2394   2.2419   2.2428   2.2443   2.2451   2.2458
  2.2462   2.2477   2.2483   2.2489   2.2495   2.2504   2.2517   2.2526
  2.2536   2.2543   2.2545   2.2564   2.2568   2.2577   2.2587   2.2595
  2.2606   2.2609   2.2617   2.2625   2.2632   2.2647   2.2654   2.2655
  2.2663   2.2668   2.2673   2.2682   2.2689   2.2699   2.2711   2.2740
  2.2751   2.2762   2.2775   2.2783   2.2787   2.2794   2.2805   2.2813
  2.2821   2.2826   2.2839   2.2846   2.2857   2.2873   2.2876   2.2882
  2.2901   2.2904   2.2910   2.2929   2.2937   2.2942   2.2960   2.2975
  2.2984   2.2995   2.3018   2.3024   2.3032   2.3047   2.3051   2.3065
  2.3082   2.3086   2.3106   2.3122   2.3129   2.3145   2.3155   2.3170
  2.3173   2.3187   2.3198   2.3207   2.3223   2.3234   2.3249   2.3256
  2.3265   2.3270   2.3284   2.3292   2.3299   2.3315   2.3320   2.3331
  2.3340   2.3352   2.3360   2.3378   2.3407   2.3421   2.3443   2.3455
  2.3458   2.3492   2.3509   2.3518   2.3524   2.3551   2.3553   2.3559
  2.3570   2.3581   2.3595   2.3613   2.3646   2.3652   2.3677   2.3701
  2.3732   2.3742   2.3745   2.3764   2.3783   2.3799   2.3802   2.3854
  2.3859   2.3874   2.3879   2.3906   2.3942   2.3960   2.3994   2.4021
  2.4045   2.4089   2.4144   2.4193   2.4225   2.4237   2.4263   2.4312
  2.4705   2.4858   2.5159   2.5534   2.5555   2.5757   2.6641   2.7216
  2.7681   2.8062   2.8082   2.8110   2.8156   2.8249   2.8341   2.8389
  2.8406   2.8443   2.8467   2.8489   2.8512   2.8541   2.8549   2.8564
  2.8587   2.8615   2.8650   2.8666   2.8688   2.8720   2.8725   2.8730
  2.8778   2.8843   2.8851   2.8882   2.8895   2.8915   2.8942   2.8994
  2.9028   2.9104   2.9242   2.9418   3.1171   3.2494   3.9417   3.9465
  3.9538   3.9640   3.9677   3.9690   3.9709   3.9746   3.9785   3.9797
  3.9800   3.9844   3.9891   3.9897   3.9917   3.9952   3.9973   3.9988
  4.0030   4.0037   4.0084   4.0196   4.0200   4.0253   4.0258   4.0296
  4.0347   4.0449   4.0554   4.1961   4.2037   4.2251   4.2363   4.2407
  4.2490   4.2526   4.2536   4.2548   4.2572   4.2587   4.2596   4.2609
  4.2628   4.2644   4.2664   4.2687   4.2696   4.2773   4.2796   4.2807
  4.2828   4.2848   4.2884   4.2908   4.2912   4.2934   4.2945   4.2991
  4.3008   4.3028   4.3066   4.3072   4.3117   4.3168   4.3173   4.3195
  4.3207   4.3249   4.3263   4.3293   4.3309   4.3313   4.3335   4.3366
  4.3399   4.3407   4.3447   4.3465   4.3484   4.3497   4.3532   4.3554
  4.3571   4.3599   4.3646   4.3658   4.3694   4.3735   4.3797   4.3816
  4.3879   4.3884   4.3959   4.3978   4.4039   4.4100   4.4111   4.4125
  4.4166   4.4182   4.4277   4.4311   4.4414   4.4466   4.4540   4.4623
  4.4641   4.4704   4.4726   4.4805   4.4861   4.5181   4.5193   4.5317
  4.5485   4.5513   4.5875   4.5994   4.6615   4.6847   4.7107   4.7402
  4.7604   4.7690   4.9453
 --------------------------------------------------------------
 
          Ground-State Mulliken Net Atomic Charges

     Atom                 Charge (a.u.)
  ----------------------------------------
      1 C                    -0.508579
      2 C                    -0.609137
      3 C                     0.103078
      4 C                    -0.460560
      5 C                    -0.965217
      6 C                    -0.299650
      7 H                     0.221457
      8 H                     0.207123
      9 H                     0.217876
     10 H                     0.242724
     11 H                     0.192839
     12 H                     0.201990
     13 H                     0.189430
     14 H                     0.273250
     15 H                     0.196113
     16 H                     0.199162
     17 H                     0.229503
     18 N                     0.226524
     19 H                     0.497963
     20 C                    -0.301983
     21 H                     0.172510
     22 O                    -0.236128
     23 C                    -0.853999
     24 H                     0.267930
     25 H                     0.248731
     26 H                     0.273652
     27 S                     0.913621
     28 C                    -0.863424
     29 H                     0.277094
     30 H                     0.217231
     31 H                     0.243688
     32 O                    -0.666667
     33 C                    -0.960805
     34 H                     0.288281
     35 H                     0.263869
     36 H                     0.260239
     37 S                     1.049907
     38 C                    -1.006092
     39 H                     0.258420
     40 H                     0.288613
     41 H                     0.243313
     42 O                    -0.652715
     43 C                    -0.947934
     44 H                     0.247917
     45 H                     0.237521
     46 H                     0.246579
     47 S                     0.972145
     48 C                    -0.959588
     49 H                     0.248965
     50 H                     0.275305
     51 H                     0.279679
     52 O                    -0.634415
     53 C                    -0.893278
     54 H                     0.250920
     55 H                     0.281027
     56 H                     0.233746
     57 S                     0.948735
     58 C                    -0.897256
     59 H                     0.284512
     60 H                     0.265631
     61 H                     0.244840
     62 O                    -0.652448
     63 C                    -0.749794
     64 H                     0.272481
     65 H                     0.209031
     66 H                     0.269678
     67 S                     0.638509
     68 C                    -0.918674
     69 H                     0.218932
     70 H                     0.257398
     71 H                     0.279869
     72 O                    -0.605418
     73 C                    -1.034095
     74 H                     0.211724
     75 H                     0.258236
     76 H                     0.296181
     77 S                     1.048763
     78 C                    -0.865070
     79 H                     0.226142
     80 H                     0.250898
     81 H                     0.268362
     82 O                    -0.700382
     83 C                    -0.876243
     84 H                     0.230644
     85 H                     0.257802
     86 H                     0.274533
     87 S                     0.903754
     88 C                    -0.834763
     89 H                     0.236176
     90 H                     0.240212
     91 H                     0.300334
     92 O                    -0.693544
     93 C                    -0.869931
     94 H                     0.246220
     95 H                     0.242013
     96 H                     0.290470
     97 S                     0.959143
     98 C                    -0.888502
     99 H                     0.279809
    100 H                     0.227761
    101 H                     0.258237
    102 O                    -0.651212
    103 C                    -0.925979
    104 H                     0.246906
    105 H                     0.266094
    106 H                     0.293645
    107 S                     0.860585
    108 C                    -0.962171
    109 H                     0.246049
    110 H                     0.258885
    111 H                     0.259890
    112 O                    -0.610420
    113 C                    -0.893385
    114 H                     0.292595
    115 H                     0.266624
    116 H                     0.253342
    117 S                     0.909798
    118 C                    -0.823378
    119 H                     0.235666
    120 H                     0.257656
    121 H                     0.261430
    122 O                    -0.561815
    123 C                    -0.886775
    124 H                     0.254925
    125 H                     0.275336
    126 H                     0.286582
    127 S                     0.753010
    128 C                    -0.833562
    129 H                     0.255677
    130 H                     0.225042
    131 H                     0.253085
    132 O                    -0.628158
    133 C                    -0.817198
    134 H                     0.256426
    135 H                     0.271412
    136 H                     0.247595
    137 S                     1.061481
    138 C                    -1.156333
    139 H                     0.263827
    140 H                     0.317037
    141 H                     0.253195
    142 O                    -0.611277
    143 C                    -0.966873
    144 H                     0.251179
    145 H                     0.239260
    146 H                     0.233293
    147 S                     1.266245
    148 C                    -0.974640
    149 H                     0.259163
    150 H                     0.226831
    151 H                     0.286041
    152 O                    -0.697790
    153 C                    -0.903032
    154 H                     0.286146
    155 H                     0.246457
    156 H                     0.236625
    157 S                     1.047639
    158 C                    -0.867518
    159 H                     0.240691
    160 H                     0.254780
    161 H                     0.217813
    162 O                    -0.649363
    163 C                    -0.951778
    164 H                     0.263892
    165 H                     0.260251
    166 H                     0.258864
    167 S                     0.971056
    168 C                    -0.782437
    169 H                     0.240402
    170 H                     0.256487
    171 H                     0.242214
    172 O                    -0.727159
    173 C                    -1.070368
    174 H                     0.277482
    175 H                     0.264375
    176 H                     0.271213
    177 S                     0.840530
    178 C                    -0.805952
    179 H                     0.242822
    180 H                     0.262263
    181 H                     0.302071
    182 O                    -0.640100
    183 C                    -0.872246
    184 H                     0.330623
    185 H                     0.284226
    186 H                     0.240191
    187 S                     0.492546
    188 C                    -0.826069
    189 H                     0.263726
    190 H                     0.284092
    191 H                     0.254040
    192 O                    -0.529129
    193 C                    -0.834710
    194 H                     0.241780
    195 H                     0.236063
    196 H                     0.293745
    197 S                     0.844345
    198 C                    -0.789858
    199 H                     0.229785
    200 H                     0.257104
    201 H                     0.246567
    202 O                    -0.701846
    203 C                    -1.555205
    204 H                     0.273611
    205 H                     0.337530
    206 H                     0.289584
    207 S                     1.418192
    208 C                    -1.016250
    209 H                     0.227808
    210 H                     0.243768
    211 H                     0.281244
    212 O                    -0.649173
    213 C                    -0.994299
    214 H                     0.273858
    215 H                     0.267660
    216 H                     0.229962
    217 S                     0.987712
    218 C                    -1.037860
    219 H                     0.298720
    220 H                     0.288965
    221 H                     0.273595
    222 O                    -0.612341
    223 C                    -0.895413
    224 H                     0.238304
    225 H                     0.219770
    226 H                     0.261437
    227 S                     0.759066
    228 C                    -0.948808
    229 H                     0.279340
    230 H                     0.294366
    231 H                     0.309327
    232 O                    -0.647830
    233 C                    -0.743066
    234 H                     0.277885
    235 H                     0.239081
    236 H                     0.284085
    237 S                     0.850008
    238 C                    -0.846988
    239 H                     0.259260
    240 H                     0.231943
    241 H                     0.255984
    242 O                    -0.739134
    243 C                    -0.892061
    244 H                     0.211740
    245 H                     0.254913
    246 H                     0.295448
    247 S                     0.735664
    248 C                    -0.724705
    249 H                     0.256447
[...]
    2  -0.0072278  -0.0346724   0.0068323  -0.0517945  -0.0029504   0.0056620
    3   0.0027399  -0.0033535  -0.0251890   0.0748445  -0.0066664   0.0043566
          175         176         177         178         179         180
    1  -0.0079370  -0.0061548  -0.0193860  -0.0103650  -0.0227743  -0.0284565
    2  -0.0122385   0.0222507  -0.0488323   0.0051240   0.0077056  -0.0102468
    3  -0.0348912   0.0006633  -0.0134074   0.0019489  -0.0251631   0.0072440
          181         182         183         184         185         186
    1   0.0067398   0.0735049  -0.0008882   0.0246874   0.0070233  -0.0303396
    2   0.0251591   0.0216727   0.0083577   0.0011359   0.0278981  -0.0012912
    3   0.0113166   0.0773920   0.0062816   0.0237371  -0.0120488   0.0135311
          187         188         189         190         191         192
    1   0.0485570  -0.0047897  -0.0012847  -0.0058935  -0.0251074  -0.0197484
    2   0.0060461   0.0015862   0.0290999  -0.0189493  -0.0142529  -0.0863245
    3  -0.0301370  -0.0056146  -0.0101001  -0.0248881   0.0122444   0.0633502
          193         194         195         196         197         198
    1  -0.0037838  -0.0224179   0.0069707  -0.0033731   0.0397542  -0.0045486
    2   0.0058799   0.0062092   0.0396257   0.0059358  -0.0050805  -0.0036205
    3   0.0000766   0.0251286   0.0161707  -0.0323376  -0.0372452  -0.0028283
          199         200         201         202         203         204
    1  -0.0170703   0.0028070  -0.0273450   0.0035966   0.0114817   0.0129411
    2   0.0156355  -0.0316668   0.0002204  -0.0374250   0.0070100   0.0284662
    3  -0.0278214   0.0098845   0.0147200   0.1045592   0.0016413  -0.0135278
          205         206         207         208         209         210
    1  -0.0076363   0.0263901   0.0030220  -0.0049631   0.0096737  -0.0301906
    2  -0.0004748  -0.0139464  -0.0077912   0.0023864   0.0257468  -0.0034598
    3   0.0323642  -0.0122070  -0.0540928   0.0066793  -0.0117567  -0.0092306
          211         212         213         214         215         216
    1  -0.0001592  -0.0015703  -0.0001690  -0.0196110   0.0285280  -0.0181273
    2   0.0006907  -0.0765914   0.0029134   0.0168664  -0.0061916  -0.0217825
    3   0.0337801   0.0771044  -0.0124166  -0.0184874  -0.0247132  -0.0031717
          217         218         219         220         221         222
    1  -0.0417960   0.0036692   0.0142761   0.0106744  -0.0171933   0.0766875
    2   0.0092121   0.0093019   0.0103554  -0.0110264   0.0267823  -0.0748209
    3   0.0310349  -0.0037613   0.0241750  -0.0289529   0.0127068   0.0064989
          223         224         225         226         227         228
    1  -0.0027063  -0.0253222  -0.0200649   0.0264717   0.0116218  -0.0091575
    2   0.0034450  -0.0044420   0.0110310   0.0065561  -0.0466068   0.0014741
    3  -0.0039933  -0.0326775   0.0164632  -0.0182412  -0.0251453   0.0090594
          229         230         231         232         233         234
    1  -0.0246876   0.0011785  -0.0090989   0.0704463   0.0070901   0.0223588
    2  -0.0165899  -0.0214358   0.0248322   0.0654268  -0.0008047   0.0208785
    3  -0.0158013   0.0227538   0.0190934   0.0516639   0.0062672   0.0085439
          235         236         237         238         239         240
    1  -0.0276574   0.0221856  -0.0215175   0.0057719   0.0205786   0.0336408
    2  -0.0077290  -0.0251550  -0.0351929   0.0002906   0.0014504  -0.0230712
    3   0.0093325   0.0236036  -0.0215722  -0.0008422   0.0231580  -0.0137811
          241         242         243         244         245         246
    1  -0.0077299  -0.0372518  -0.0039388   0.0242132  -0.0266039   0.0107397
    2   0.0186051   0.1045763   0.0075206  -0.0046093   0.0071541   0.0329455
    3  -0.0230451   0.0057776  -0.0014563  -0.0175362  -0.0235167  -0.0002804
          247         248         249         250         251         252
    1   0.0488538  -0.0067670  -0.0365435   0.0179748  -0.0070056  -0.0963021
    2   0.0009252  -0.0043370  -0.0051955  -0.0129072  -0.0178693   0.0462656
    3   0.0383803   0.0001817  -0.0016172  -0.0068381   0.0269408   0.0321632
          253         254         255         256         257         258
    1  -0.0002370   0.0010786   0.0160193  -0.0295263  -0.0097572   0.0096172
    2  -0.0096179   0.0012213  -0.0282366  -0.0109796   0.0442077  -0.0007659
    3   0.0017370  -0.0314355   0.0126559   0.0006233  -0.0412483   0.0048323
          259         260         261         262         263         264
    1  -0.0018041   0.0174782   0.0089055  -0.0477508  -0.0004348  -0.0018719
    2  -0.0161110  -0.0091942   0.0266755   0.0062580  -0.0013697  -0.0284545
    3   0.0279171  -0.0219704   0.0019647   0.1012195  -0.0050018  -0.0207863
          265         266         267         268         269         270
    1  -0.0035510   0.0281889  -0.0536933   0.0067533  -0.0079609  -0.0060925
    2   0.0316534   0.0044281   0.0088561   0.0074689   0.0289461  -0.0032559
    3  -0.0228551  -0.0064348   0.0014118   0.0050654  -0.0152794   0.0338926
          271         272         273         274         275         276
    1   0.0276963   0.0531225   0.0052135   0.0293688  -0.0105663   0.0097428
    2  -0.0005611  -0.0809010   0.0006691   0.0276126  -0.0021174  -0.0162523
    3  -0.0123437   0.0499059   0.0050173   0.0166509   0.0304271  -0.0315064
          277         278         279         280         281         282
    1   0.0006421  -0.0063329   0.0113911  -0.0276536  -0.0021771  -0.0353270
    2   0.0377142   0.0023085   0.0238841   0.0172058  -0.0261931  -0.1018275
    3  -0.0334497   0.0095580   0.0224532  -0.0019523   0.0141753  -0.0187242
          283         284         285         286         287         288
    1  -0.0027591   0.0192464  -0.0207174  -0.0105850   0.0199435   0.0039680
    2   0.0098291   0.0247949   0.0058695  -0.0004545  -0.0327271   0.0022068
    3  -0.0010187   0.0004997  -0.0217796   0.0281073   0.0409194  -0.0051072
          289         290         291         292         293         294
    1   0.0330482   0.0027912  -0.0184388  -0.0882472  -0.0065200  -0.0242549
    2   0.0128295  -0.0280579   0.0164526  -0.0294503   0.0038178  -0.0191512
    3   0.0081168  -0.0124918  -0.0213514  -0.0605257   0.0027523  -0.0062736
          295         296         297         298         299         300
    1  -0.0101496   0.0036345   0.0230838  -0.0000058   0.0297060  -0.0133620
    2   0.0047466   0.0212356  -0.0254866  -0.0031047   0.0080580   0.0173956
    3   0.0301192  -0.0221185  -0.0452346   0.0072065   0.0111961   0.0194986
          301         302         303         304         305         306
    1  -0.0068503   0.0499383   0.0042057  -0.0024400   0.0312314  -0.0111852
    2  -0.0273592   0.1035073   0.0022890   0.0285975   0.0028748  -0.0168718
    3  -0.0085380   0.0459410  -0.0090201  -0.0149152   0.0132383  -0.0250214
          307         308         309         310         311         312
    1   0.0068710   0.0000947   0.0288312  -0.0101436   0.0156128  -0.0970532
    2   0.0402279  -0.0047957  -0.0052959  -0.0225373  -0.0179577  -0.0279178
    3   0.0439493   0.0009367   0.0225225   0.0238983  -0.0214216  -0.0417584
  --- DONE ESP SUMMARY ---
Archival summary:
1\1\node004\SP\ProcedureUnspecified\6-31+G*\292958h22\ymao90\FriDec313:58:002021FriDec313:58:002021\0\\#,ProcedureUnspecified,6-31+G*,\\0,1\S\O,1,1.49641\C,1,1.80692,2,102.52\H,3,1.09295,1,110.964,2,-77.0653,0\H,3,1.09324,1,108.644,2,161.986,0\H,3,1.09413,1,102.253,2,42.6752,0\C,1,1.80709,2,105.915,3,96.8119,0\H,7,1.09252,1,107.146,2,-36.5935,0\H,7,1.09281,1,108.324,2,-166.495,0\H,7,1.09283,1,105.798,2,84.2254,0\Gh,5,2.35368,3,143.094,1,36.428,0\Gh,11,1.09657,5,119.675,3,-3.12216,0\Gh,12,1.09684,11,107.326,5,-13.2193,0\Gh,12,1.53742,11,112.401,5,97.7339,0\Gh,14,1.09676,12,111.559,11,69.8471,0\Gh,14,1.46269,12,112.921,11,-54.08,0\Gh,16,1.01281,14,120.151,12,-88.7505,0\Gh,16,1.3792,14,127.201,12,79.1004,0\Gh,18,1.10492,16,112.847,14,-162.221,0\Gh,18,1.21714,16,119.347,14,11.4407,0\Gh,14,1.53735,12,106.541,11,-178.905,0\Gh,21,1.09675,14,106.015,12,-169.036,0\Gh,21,1.0976,14,112.566,12,74.1187,0\Gh,21,1.53722,14,113.982,12,-53.3109,0\Gh,24,1.09608,21,108.086,14,-63.5747,0\Gh,24,1.09756,21,110.284,14,178.1,0\Gh,24,1.53762,21,110.381,14,59.0394,0\Gh,27,1.09621,24,109.825,21,64.914,0\Gh,27,1.09724,24,112.512,21,179.912,0\Gh,27,1.53779,24,109.365,21,-58.4386,0\Gh,30,1.09654,27,111.544,24,172.464,0\Gh,30,1.09662,27,114.359,24,-65.9422,0\O,17,1.9159,16,158.658,14,74.5269,0\S,33,1.49697,17,141.727,16,70.8669,0\C,34,1.80653,33,99.4416,17,141.528,0\H,35,1.09315,34,107.089,33,179.059,0\H,35,1.09328,34,107.635,33,-55.5424,0\H,35,1.09333,34,109.541,33,56.2453,0\C,34,1.80703,33,102.389,17,36.7738,0\H,39,1.0924,34,115.453,33,62.1307,0\H,39,1.09322,34,109.113,33,-61.6714,0\H,39,1.09367,34,107.264,33,-174.714,0\H,17,2.27169,16,118.766,14,-142.695,0\C,43,1.09303,17,148.488,16,94.1419,0\H,44,1.09226,43,113.404,17,152.884,0\H,44,1.09293,43,114.402,17,27.8082,0\S,44,1.80723,43,108.602,17,-90.7446,0\O,47,1.49766,44,98.894,43,-38.2433,0\C,47,1.80707,44,99.4916,43,63.838,0\H,49,1.09255,47,111.181,44,-30.5089,0\H,49,1.09271,47,113.574,44,86.3025,0\H,49,1.09379,47,105.103,44,-147.465,0\H,52,2.08247,49,139.279,47,66.4943,0\C,53,1.09313,52,154.138,49,164.622,0\H,54,1.09252,53,116.28,52,101.401,0\H,54,1.09401,53,107.094,52,-135.372,0\S,54,1.80644,53,103.822,52,-16.0881,0\O,57,1.49679,54,100.3,53,36.8435,0\C,57,1.80764,54,102.79,53,-65.5891,0\H,59,1.0921,57,112.431,54,-65.9015,0\H,59,1.0937,57,101.793,54,168.652,0\H,59,1.09389,57,99.248,54,55.6402,0\H,51,2.14484,49,151.322,47,-45.8364,0\C,63,1.09292,51,109.893,49,-52.8954,0\H,64,1.09317,63,110.65,51,-119.08,0\H,64,1.09333,63,108.532,51,-7.54814,0\S,64,1.80716,63,116.814,51,115.429,0\O,67,1.49787,64,97.1897,63,-37.1027,0\C,67,1.80638,64,90.2325,63,69.0203,0\H,69,1.09304,67,100.35,64,-71.2726,0\H,69,1.09325,67,111.349,64,175.937,0\H,69,1.09344,67,115.812,64,47.9856,0\O,63,2.23936,51,78.2057,49,153.666,0\S,73,1.49627,63,107.609,51,-174.224,0\C,74,1.80684,73,106.4,63,-179.189,0\H,75,1.09249,74,107.123,73,153.627,0\H,75,1.09274,74,113.846,73,-87.2594,0\H,75,1.09285,74,107.291,73,37.3041,0\C,74,1.8074,73,108.7,63,-71.3445,0\H,79,1.09305,74,109.612,73,82.3583,0\H,79,1.09311,74,109.388,73,-49.4041,0\H,79,1.09354,74,109.499,73,-163.051,0\H,56,2.23964,54,161.534,53,-158.209,0\C,83,1.09312,56,122.401,54,-134.31,0\H,84,1.09216,83,108.166,56,97.5877,0\H,84,1.09365,83,105.189,56,-30.5922,0\S,84,1.80741,83,104.878,56,-146.335,0\O,87,1.49619,84,105.737,83,-72.233,0\C,87,1.80728,84,92.8055,83,-175.84,0\H,89,1.09319,87,111.395,84,41.6567,0\H,89,1.09321,87,96.8254,84,-71.2747,0\H,89,1.0937,87,113.133,84,172.543,0\H,61,2.24737,59,126.609,57,-76.2313,0\C,93,1.09278,61,113.912,59,-131.173,0\H,94,1.09212,93,113.149,61,-102.959,0\H,94,1.09323,93,113.411,61,22.3003,0\S,94,1.80724,93,105.854,61,140.702,0\O,97,1.49635,94,104.505,93,-172.485,0\C,97,1.80636,94,93.5537,93,-69.4118,0\H,99,1.09238,97,106.56,94,74.2703,0\H,99,1.09318,97,109.446,94,-53.3047,0\H,99,1.09383,97,108.771,94,-167.189,0\H,45,2.28444,44,132.663,43,51.4239,0\C,103,1.09337,45,112.868,44,88.2686,0\H,104,1.09258,103,118.955,45,-10.5729,0\H,104,1.09267,103,105.61,45,-134.541,0\S,104,1.8069,103,101.881,45,116.736,0\O,107,1.49676,104,99.2895,103,149.468,0\C,107,1.80756,104,97.1771,103,-110.43,0\H,109,1.09242,107,109.069,104,-38.349,0\H,109,1.09251,107,101.782,104,72.423,0\H,109,1.09321,107,110.387,104,-171.902,0\H,106,2.13386,104,116.621,103,126.848,0\C,113,1.09292,106,131.642,104,106.983,0\H,114,1.0931,113,103.71,106,54.2531,0\H,114,1.09387,113,118.697,106,-71.3555,0\S,114,1.80669,113,106.386,106,170.26,0\O,117,1.49636,114,99.7123,113,179.435,0\C,117,1.80759,114,93.3075,113,68.894,0\H,119,1.0926,117,108.192,114,56.3959,0\H,119,1.09267,117,96.527,114,176.096,0\H,119,1.09362,117,113.75,114,-65.8742,0\H,36,2.30295,35,91.8192,34,-78.1836,0\C,123,1.09255,36,140.399,35,71.8986,0\H,124,1.09275,123,105.42,36,-73.3516,0\H,124,1.09305,123,118.017,36,53.1862,0\S,124,1.80705,123,110.787,36,171.665,0\O,127,1.49701,124,100.128,123,64.6311,0\C,127,1.80715,124,97.0375,123,165.063,0\H,129,1.09248,127,108.44,124,-145.127,0\H,129,1.09288,127,110.736,124,-25.6966,0\H,129,1.09343,127,99.2311,124,98.4819,0\H,23,2.30825,21,166,14,-77.2457,0\C,133,1.09266,23,137.341,21,-109.472,0\H,134,1.09259,133,112.648,23,112.355,0\H,134,1.09307,133,112.856,23,-131.938,0\S,134,1.80746,133,112.175,23,-5.37997,0\O,137,1.49652,134,108.211,133,-173.992,0\C,137,1.80727,134,98.4347,133,-63.0868,0\H,139,1.09225,137,106.931,134,58.8544,0\H,139,1.0925,137,109.883,134,-56.8871,0\H,139,1.09325,137,105.328,134,178.332,0\H,83,2.35291,56,115.368,54,20.4271,0\C,143,1.09317,83,162.661,56,-49.1096,0\H,144,1.09264,143,106.136,83,148.646,0\H,144,1.09306,143,102.222,83,-83.499,0\S,144,1.80762,143,110.63,83,33.6534,0\O,147,1.4978,144,100.63,143,-176.465,0\C,147,1.80676,144,98.9167,143,77.9882,0\H,149,1.09269,147,113.445,144,-57.9167,0\H,149,1.09317,147,105.014,144,60.6311,0\H,149,1.09327,147,107.578,144,-178.642,0\H,42,2.35598,39,145.997,34,128.603,0\C,153,1.09306,42,151.574,39,0.630834,0\H,154,1.09225,153,101.577,42,-38.2576,0\H,154,1.09297,153,108.462,42,-159.681,0\S,154,1.80768,153,106.571,42,74.8532,0\O,157,1.49689,154,104.346,153,-49.5775,0\C,157,1.80705,154,96.8988,153,-160.593,0\H,159,1.0924,157,105.333,154,64.9645,0\H,159,1.09254,157,103.131,154,-53.5676,0\H,159,1.093,157,112.423,154,-176.466,0\H,155,2.30704,154,100.341,153,-134.117,0\C,163,1.09356,155,100.22,154,-176.958,0\H,164,1.09263,163,115.146,155,63.0694,0\H,164,1.0933,163,111.121,155,-174.064,0\S,164,1.8076,163,109.444,155,-53.4491,0\O,167,1.49652,164,101.505,163,157.413,0\C,167,1.80668,164,100.826,163,-93.9748,0\H,169,1.09293,167,110.568,164,71.607,0\H,169,1.09319,167,106.494,164,-163.328,0\H,169,1.09327,167,113.063,164,-51.3886,0\O,153,2.32822,42,63.9125,39,-177.034,0\S,173,1.49677,153,115.362,42,-58.1923,0\C,174,1.80626,173,107.8,153,-139.069,0\H,175,1.0926,174,109.49,173,-81.0878,0\H,175,1.0935,174,107.963,173,163.301,0\H,175,1.09361,174,108.899,173,53.8865,0\C,174,1.80774,173,104.159,153,-34.3467,0\H,179,1.09253,174,104.589,173,-51.7653,0\H,179,1.09295,174,111.149,173,60.2666,0\H,179,1.09385,174,107.775,173,-167.228,0\H,90,2.36883,89,98.265,87,-138.143,0\C,183,1.09321,90,117.704,89,-77.2408,0\H,184,1.09292,183,110.959,90,-112.031,0\H,184,1.09349,183,108.785,90,10.5344,0\S,184,1.80732,183,105.844,90,124.309,0\O,187,1.49703,184,102.983,183,-74.0648,0\C,187,1.80725,184,94.4937,183,-177.981,0\H,189,1.09251,187,112.911,184,71.7263,0\H,189,1.0929,187,98.7738,184,-47.0875,0\H,189,1.0931,187,112.847,184,-159.335,0\H,192,2.02459,189,155.078,187,-61.6731,0\C,193,1.09301,192,114.311,189,9.76979,0\H,194,1.09273,193,106.466,192,159.211,0\H,194,1.09296,193,109.164,192,42.8911,0\S,194,1.80658,193,112.354,192,-84.4822,0\O,197,1.49677,194,103.475,193,-137.677,0\C,197,1.80731,194,99.0618,193,-34.939,0\H,199,1.09295,197,106.774,194,64.792,0\H,199,1.09301,197,110.179,194,-177.318,0\H,199,1.09336,197,112.445,194,-53.4597,0\H,195,2.03967,194,128.225,193,-79.214,0\C,203,1.09304,195,140.158,194,-39.929,0\H,204,1.09295,203,108.695,195,120.714,0\H,204,1.09339,203,107.504,195,7.21486,0\S,204,1.80643,203,114.452,195,-116.668,0\O,207,1.49713,204,102.861,203,153.296,0\C,207,1.80704,204,98.752,203,37.6709,0\H,209,1.09262,207,106.928,204,147.806,0\H,209,1.09293,207,105.188,204,31.4495,0\H,209,1.09303,207,111.331,204,-84.548,0\H,185,2.2216,184,161.885,183,42.645,0\C,213,1.09255,185,111.089,184,-53.8377,0\H,214,1.09251,213,108.816,185,22.7397,0\H,214,1.09295,213,115.979,185,157.186,0\S,214,1.80666,213,108.989,185,-88.2981,0\O,217,1.49681,214,107.004,213,67.6372,0\C,217,1.80713,214,92.2821,213,-41.4907,0\H,219,1.09273,217,107.563,214,-167.955,0\H,219,1.0929,217,110.23,214,71.3203,0\H,219,1.09318,217,114.256,214,-46.0889,0\H,190,2.34679,189,133.7,187,78.146,0\C,223,1.0937,190,107.011,189,-124.32,0\H,224,1.0927,223,106.431,190,19.9086,0\H,224,1.09375,223,120.361,190,-108.473,0\S,224,1.80649,223,102.733,190,129.095,0\O,227,1.49704,224,98.0451,223,62.184,0\C,227,1.80695,224,95.9032,223,170.507,0\H,229,1.09243,227,111.445,224,-16.2674,0\H,229,1.09288,227,100.432,224,111.577,0\H,229,1.09323,227,102.633,224,-143.117,0\H,26,2.38482,24,133.152,21,-156.186,0\C,233,1.09362,26,163.698,24,155.851,0\H,234,1.0934,233,107.546,26,-30.0853,0\H,234,1.09345,233,112.394,26,89.6108,0\S,234,1.8064,233,108.256,26,-153.962,0\O,237,1.49674,234,105.189,233,-78.9181,0\C,237,1.80696,234,95.7491,233,178.41,0\H,239,1.09282,237,114.237,234,40.8639,0\H,239,1.09294,237,109.71,234,157.114,0\H,239,1.09304,237,99.4639,234,-83.0379,0\H,240,2.03653,239,165.13,237,90.3322,0\C,243,1.09265,240,105.826,239,168.913,0\H,244,1.09318,243,119.129,240,-129.025,0\H,244,1.0933,243,117.094,240,-3.85923,0\S,244,1.80686,243,109.956,240,114.657,0\O,247,1.49691,244,106.753,243,-51.2794,0\C,247,1.80698,244,92.5542,243,50.5214,0\H,249,1.09248,247,111.254,244,-167.872,0\H,249,1.09271,247,113.719,244,73.3472,0\H,249,1.093,247,109.639,244,-55.2538,0\H,252,1.98081,249,132.126,247,-51.2208,0\C,253,1.09284,252,129.782,249,-113.108,0\H,254,1.09281,253,116.111,252,-135.195,0\H,254,1.09329,253,109.379,252,-14.0908,0\S,254,1.80722,253,110.331,252,96.5576,0\O,257,1.49638,254,101.785,253,-168.375,0\C,257,1.80737,254,92.569,253,81.5805,0\H,259,1.09267,257,101.854,254,176.815,0\H,259,1.09272,257,102.87,254,61.8426,0\H,259,1.09403,257,113.461,254,-57.139,0\H,248,2.37572,247,116.152,244,-170.483,0\C,263,1.09362,248,136.757,247,148.322,0\H,264,1.09247,263,114.007,248,115.697,0\H,264,1.09291,263,110.544,248,-124,0\S,264,1.80737,263,108.631,248,-13.4136,0\O,267,1.49663,264,100.603,263,-170.897,0\C,267,1.80663,264,92.212,263,-63.2846,0\H,269,1.09247,267,109.279,264,-70.7488,0\H,269,1.09334,267,104.906,264,45.1033,0\H,269,1.09348,267,109.653,264,161.1,0\H,260,2.40103,259,121.1,257,-93.1606,0\C,273,1.09317,260,140.116,259,-89.1852,0\H,274,1.09303,273,107.5,260,-70.3858,0\H,274,1.09311,273,114.495,260,54.8727,0\S,274,1.80744,273,109.523,260,173.31,0\O,277,1.49657,274,105.808,273,70.3455,0\C,277,1.80715,274,97.9411,273,-178.189,0\H,279,1.09238,277,113.727,274,-53.7815,0\H,279,1.09251,277,113.244,274,-179.021,0\H,279,1.09313,277,105.91,274,58.68,0\H,221,2.40428,219,128.554,217,45.8284,0\C,283,1.09383,221,98.1738,219,109.938,0\H,284,1.09227,283,115.317,221,-41.9516,0\H,284,1.09242,283,105.644,221,76.2477,0\S,284,1.80725,283,111.89,221,-151.96,0\O,287,1.49628,284,98.9543,283,-66.7774,0\C,287,1.80632,284,94.5195,283,37.0106,0\H,289,1.09259,287,110.442,284,-65.82,0\H,289,1.09296,287,107.269,284,52.4273,0\H,289,1.093,287,108.329,284,170.612,0\H,106,2.41015,104,147.899,103,35.7635,0\C,293,1.09313,106,135.562,104,14.0636,0\H,294,1.09271,293,109.367,106,71.4607,0\H,294,1.09295,293,111.892,106,-54.11,0\S,294,1.807,293,109.165,106,-171.082,0\O,297,1.49667,294,108.929,293,-99.0821,0\C,297,1.80702,294,89.8395,293,161.529,0\H,299,1.09253,297,112.42,294,-106.26,0\H,299,1.09273,297,98.0938,294,146.483,0\H,299,1.09347,297,116.29,294,23.7682,0\H,281,2.58722,279,109.052,277,114.198,0\C,303,1.09304,281,123.183,279,175.47,0\H,304,1.09271,303,113.805,281,-31.6506,0\H,304,1.09294,303,114.254,281,87.5745,0\S,304,1.80679,303,108.966,281,-146.67,0\O,307,1.49727,304,97.0998,303,-52.805,0\C,307,1.80754,304,90.3481,303,-165.279,0\H,309,1.09268,307,103.814,304,162.285,0\H,309,1.09322,307,118.929,304,36.3713,0\H,309,1.09352,307,110.554,304,-90.6901,0\\\@

 Total job time:  50.56s(wall), 171.73s(cpu) 
 Fri Dec  3 13:58:00 2021

        *************************************************************
        *                                                           *
        *  Thank you very much for using Q-Chem.  Have a nice day.  *
        *                                                           *
        *************************************************************


