                  Welcome to Q-Chem
     A Quantum Leap Into The Future Of Chemistry


 Q-Chem 5.2 (devel), Q-Chem, Inc., Pleasanton, CA (2019)

 Yihan Shao,  Zhengting Gan,  E. Epifanovsky,  A. T. B. Gilbert,  M. Wormit,  
 J. Kussmann,  A. W. Lange,  A. Behn,  Jia Deng,  Xintian Feng,  D. Ghosh,  
 M. Goldey,  P. R. Horn,  L. D. Jacobson,  I. Kaliman,  T. Kus,  A. Landau,  
 Jie Liu,  E. I. Proynov,  R. M. Richard,  R. P. Steele,  E. J. Sundstrom,  
 H. L. Woodcock III,  P. M. Zimmerman,  D. Zuev,  B. Alam,  B. Albrecht,  
 E. Alguire,  S. A. Baeppler,  D. Barton,  Z. Benda,  Y. A. Bernard,  
 E. J. Berquist,  K. B. Bravaya,  H. Burton,  K. Carter-Fenk,  D. Casanova,  
 Chun-Min Chang,  Yunqing Chen,  A. Chien,  K. D. Closser,  M. P. Coons,  
 S. Coriani,  S. Dasgupta,  A. L. Dempwolff,  M. Diedenhofen,  Hainam Do,  
 R. G. Edgar,  Po-Tung Fang,  S. Faraji,  S. Fatehi,  Qingguo Feng,  
 J. Fosso-Tande,  J. Gayvert,  Qinghui Ge,  A. Ghysels,  G. Gidofalvi,  
 J. Gomes,  J. Gonthier,  A. Gunina,  D. Hait,  M. W. D. Hanson-Heine,  
 P. H. P. Harbach,  A. W. Hauser,  M. F. Herbst,  J. E. Herr,  
 E. G. Hohenstein,  Z. C. Holden,  Kerwin Hui,  B. C. Huynh,  T.-C. Jagau,  
 Hyunjun Ji,  B. Kaduk,  K. Khistyaev,  Jaehoon Kim,  P. Klunzinger,  K. Koh,  
 D. Kosenkov,  L. Koulias,  T. Kowalczyk,  C. M. Krauter,  A. Kunitsa,  
 Ka Un Lao,  A. Laurent,  K. V. Lawler,  Joonho Lee,  D. Lefrancois,  
 S. Lehtola,  D. S. Levine,  Yi-Pei Li,  You-Sheng Lin,  Fenglai Liu,  
 Kuan-Yu Liu,  E. Livshits,  M. Loipersberger,  A. Luenser,  P. Manohar,  
 E. Mansoor,  S. F. Manzer,  Shan-Ping Mao,  Yuezhi Mao,  N. Mardirossian,  
 A. V. Marenich,  T. Markovich,  L. A. Martinez-Martinez,  S. A. Maurer,  
 N. J. Mayhall,  S. C. McKenzie,  J.-M. Mewes,  P. Morgante,  A. F. Morrison,  
 J. W. Mullinax,  K. Nanda,  T. S. Nguyen-Beck,  R. Olivares-Amaya,  
 J. A. Parkhill,  S. K. Paul,  F. Pavosevic,  Zheng Pei,  T. M. Perrine,  
 F. Plasser,  P. Pokhilko,  S. Prager,  A. Prociuk,  E. Ramos,  B. Rana,  
 D. R. Rehn,  F. Rob,  M. Scheurer,  M. Schneider,  N. Sergueev,  
 S. M. Sharada,  S. Sharma,  D. W. Small,  T. Stauch,  C. J. Stein,  
 T. Stein,  Yu-Chuan Su,  S. P. Veccham,  Zhen Tao,  A. J. W. Thom,  
 A. Tkatchenko,  T. Tsuchimochi,  N. M. Tubman,  L. Vogt,  M. L. Vidal,  
 O. Vydrov,  M. A. Watson,  J. Wenzel,  M. de Wergifosse,  T. A. Wesolowski,  
 A. White,  J. Witte,  A. Yamada,  Jun Yang,  K. Yao,  S. Yeganeh,  
 S. R. Yost,  Zhi-Qiang You,  A. Zech,  Igor Ying Zhang,  Xing Zhang,  
 Yan Zhao,  Ying Zhu,  B. R. Brooks,  G. K. L. Chan,  C. J. Cramer,  
 M. S. Gordon,  W. J. Hehre,  A. Klamt,  M. W. Schmidt,  C. D. Sherrill,  
 D. G. Truhlar,  A. Aspuru-Guzik,  R. Baer,  A. T. Bell,  N. A. Besley,  
 Jeng-Da Chai,  A. E. DePrince, III,  R. A. DiStasio Jr.,  A. Dreuw,  
 B. D. Dunietz,  T. R. Furlani,  Chao-Ping Hsu,  Yousung Jung,  Jing Kong,  
 D. S. Lambrecht,  WanZhen Liang,  C. Ochsenfeld,  V. A. Rassolov,  
 L. V. Slipchenko,  J. E. Subotnik,  T. Van Voorhis,  J. M. Herbert,  
 A. I. Krylov,  P. M. W. Gill,  M. Head-Gordon

 Contributors to earlier versions of Q-Chem not listed above: 
 R. D. Adamson,  B. Austin,  J. Baker,  G. J. O. Beran,  K. Brandhorst,  
 S. T. Brown,  E. F. C. Byrd,  A. K. Chakraborty,  C.-L. Cheng,  
 Siu Hung Chien,  D. M. Chipman,  D. L. Crittenden,  H. Dachsel,  
 R. J. Doerksen,  A. D. Dutoi,  L. Fusti-Molnar,  W. A. Goddard III,  
 A. Golubeva-Zadorozhnaya,  S. R. Gwaltney,  G. Hawkins,  A. Heyden,  
 S. Hirata,  G. Kedziora,  F. J. Keil,  C. Kelley,  Jihan Kim,  R. A. King,  
 R. Z. Khaliullin,  P. P. Korambath,  W. Kurlancheek,  A. M. Lee,  M. S. Lee,  
 S. V. Levchenko,  Ching Yeh Lin,  D. Liotard,  R. C. Lochan,  I. Lotan,  
 P. E. Maslen,  N. Nair,  D. P. O'Neill,  D. Neuhauser,  E. Neuscamman,  
 C. M. Oana,  R. Olson,  B. Peters,  R. Peverati,  P. A. Pieniazek,  
 Y. M. Rhee,  J. Ritchie,  M. A. Rohrdanz,  E. Rosta,  N. J. Russ,  
 H. F. Schaefer III,  N. E. Schultz,  N. Shenvi,  A. C. Simmonett,  A. Sodt,  
 D. Stuck,  K. S. Thanthiriwatte,  V. Vanovschi,  Tao Wang,  A. Warshel,  
 C. F. Williams,  Q. Wu,  X. Xu,  W. Zhang

 Please cite Q-Chem as follows:
 Y. Shao et al., Mol. Phys. 113, 184-215 (2015)
 DOI: 10.1080/00268976.2014.952696

 Q-Chem 5.2.2 for Intel X86 EM64T Linux

 Parts of Q-Chem use Armadillo 9.800.1 (Horizon Scraper).
 http://arma.sourceforge.net/

 Q-Chem begins on Fri Dec  3 08:58:21 2021  

Host: node007
0

     Scratch files written to /home/ymao90/scratch/r7.00_frame_0074_spade_B3LYP_dp20211203023736//

Checking the input file for inconsistencies... 	...done.

--------------------------------------------------------------
User input:
--------------------------------------------------------------
$molecule
0 1
--
0 1
C    29.18900   25.93400   27.49300  
C    27.88700   26.75100   27.53600  
C    26.71600   25.84500   27.95200  
C    26.98100   25.14000   29.29200  
C    28.28900   24.33400   29.23300  
C    29.53300   25.07900   28.72400  
H    25.79900   26.42800   27.80500  
H    28.13200   27.49700   28.30100  
H    29.10600   25.29500   26.60500  
H    30.00900   26.63600   27.29900  
H    27.05500   25.95700   30.02000  
H    26.15600   24.56500   29.73100  
H    28.46900   24.07400   30.28400  
H    28.10800   23.42700   28.64400  
H    29.77800   25.76700   29.54300  
H    30.41100   24.44800   28.53500  
H    26.63400   25.09600   27.15500  
N    27.73600   27.35900   26.21500  
H    27.47800   26.71800   25.47400  
C    27.93700   28.68600   25.90000  
H    27.72500   28.91500   24.84000  
O    28.30700   29.48200   26.74400  
--
0 1
C    25.00600   30.79200   25.68500  
H    24.38300   31.46000   26.28600  
H    24.85200   29.82800   26.17600  
H    25.99800   31.24100   25.58400  
S    24.24000   30.47500   24.07900  
C    23.97700   32.20000   23.61300  
H    23.23400   32.54600   24.33600  
H    24.93400   32.72800   23.63400  
H    23.56200   32.21900   22.60200  
O    22.91200   30.17600   24.70200  
C    23.40900   24.28200   33.61300  
H    24.46200   24.39000   33.33900  
H    23.24500   24.58700   34.64900  
H    23.05100   23.27700   33.37400  
S    22.50400   25.50800   32.64200  
C    23.18300   24.94300   31.06600  
H    24.22900   24.70300   31.27300  
H    22.61800   24.10500   30.65000  
H    23.20700   25.68100   30.26000  
O    23.29700   26.76900   32.78900  
C    30.13700   27.48000   33.99000  
H    29.81500   28.45200   34.37300  
H    30.80200   26.92200   34.65400  
H    30.72500   27.60700   33.07700  
S    28.72600   26.39700   33.67300  
C    27.75800   27.52000   32.63900  
H    28.34400   27.82700   31.76900  
H    26.80400   27.05700   32.37300  
H    27.64600   28.45700   33.19000  
O    27.87000   26.07000   34.85600  
C    32.05900   22.82900   33.30600  
H    31.35600   21.99300   33.24700  
H    31.68100   23.75200   32.86000  
H    32.92800   22.53200   32.71300  
S    32.71900   23.07000   34.97100  
C    31.24700   23.93700   35.55900  
H    30.47100   23.16800   35.59600  
H    31.42200   24.39600   36.53600  
H    31.06100   24.71900   34.81800  
O    33.73300   24.12400   34.65200  
C    26.44700   29.32300   19.56100  
H    26.87600   28.33400   19.73800  
H    25.68700   29.18600   18.78800  
H    27.24900   29.91700   19.11400  
S    25.92100   30.08700   21.11200  
C    25.37000   31.61700   20.32400  
H    26.22600   32.02200   19.77800  
H    24.54800   31.40100   19.63700  
H    25.11000   32.27500   21.15700  
O    27.18700   30.52200   21.78300  
C    30.88600   20.61500   29.33000  
H    31.05200   21.68800   29.45500  
H    31.87400   20.16600   29.45700  
H    30.44000   20.48300   28.34100  
S    29.67400   20.02300   30.53300  
C    30.87600   19.47100   31.76400  
H    30.26100   19.00700   32.53900  
H    31.59200   18.72000   31.41900  
H    31.38300   20.37400   32.11400  
O    29.08900   18.78700   29.92300  
C    29.59400   35.92600   27.82100  
H    28.50700   35.82300   27.86800  
H    29.81900   36.87900   28.30800  
H    29.86900   36.14400   26.78600  
S    30.57200   34.58900   28.54200  
C    30.29100   33.24700   27.36500  
H    30.26500   32.30500   27.91900  
H    29.28300   33.42400   26.98400  
H    30.99100   33.29300   26.52700  
O    29.81500   34.24900   29.78900  
C    27.25500   22.79900   35.20800  
H    26.68700   21.87500   35.34400  
H    27.96500   22.96900   36.02200  
H    26.63200   23.69500   35.13800  
S    28.42100   22.64600   33.83600  
C    27.19900   22.11500   32.61500  
H    26.73300   21.16000   32.87000  
H    26.47400   22.93000   32.67900  
H    27.65000   22.01000   31.62500  
O    29.15000   21.35400   34.03500  
C    22.33700   21.85300   28.48700  
H    22.63400   22.47000   29.33900  
H    22.04100   22.52200   27.67400  
H    21.58900   21.07900   28.67800  
S    23.91400   21.14300   27.96600  
C    23.48800   19.92500   26.70100  
H    24.32600   19.27400   26.43900  
H    22.76600   19.18400   27.05200  
H    23.18900   20.35700   25.74200  
O    24.30500   20.22300   29.08100  
C    35.87400   22.67000   30.37200  
H    36.65600   23.22900   30.89200  
H    35.03400   22.49800   31.05000  
H    36.27300   21.71800   30.01300  
S    35.22800   23.53100   28.92100  
C    34.31500   22.08900   28.32700  
H    33.82800   22.20400   27.35600  
H    34.99100   21.24000   28.20000  
H    33.55100   21.92600   29.09200  
O    36.32100   23.42900   27.90200  
C    33.42300   24.81400   25.52300  
H    33.46800   25.90300   25.44100  
H    33.42500   24.50900   26.57300  
H    34.31000   24.29700   25.14900  
S    31.92600   24.22300   24.70200  
C    32.17600   22.43400   24.65000  
H    31.81500   21.98600   25.57900  
H    31.53300   22.17400   23.80500  
H    33.23500   22.28700   24.42500  
O    32.37300   24.71500   23.36000  
C    21.15800   25.38200   28.44600  
H    21.11500   24.84400   29.39600  
H    20.79900   24.71400   27.65900  
H    22.07000   25.84900   28.06500  
S    19.87700   26.65300   28.54200  
C    19.19500   26.14400   30.13600  
H    18.43900   26.88200   30.41600  
H    18.83600   25.11200   30.10300  
H    20.04800   26.20700   30.81600  
O    18.85100   26.24700   27.53000  
C    29.83700   32.96800   23.41000  
H    30.19000   33.98000   23.62000  
H    30.38300   32.27600   24.05700  
H    29.87600   32.82600   22.32700  
S    28.10800   33.01000   23.93500  
C    27.57900   33.89900   22.45400  
H    26.59500   34.35400   22.59500  
H    28.20600   34.77800   22.28200  
H    27.64200   33.25600   21.57300  
O    28.24100   34.13200   24.91700  
C    30.46000   28.76500   19.85500  
H    29.91000   28.92900   18.92500  
H    31.29400   28.10000   19.61300  
H    29.77000   28.27000   20.54300  
S    30.85000   30.39200   20.53700  
C    31.88700   30.88200   19.14100  
H    32.35600   31.76700   19.57900  
H    32.43000   29.97500   18.86400  
H    31.26700   31.18900   18.29500  
O    31.76200   30.09600   21.68700  
C    27.16700   26.24200   22.35100  
H    27.47800   26.90800   21.54100  
H    26.35400   25.60000   22.00200  
H    26.69100   26.82800   23.14000  
S    28.48400   25.29300   23.14400  
C    28.85200   24.17000   21.77800  
H    28.03900   23.47700   21.54500  
H    29.02400   24.79600   20.89900  
H    29.76300   23.65300   22.08900  
O    27.78600   24.47700   24.18800  
C    30.49400   31.18100   33.83700  
H    29.75500   31.28100   33.03700  
H    30.35900   30.36300   34.54800  
H    30.59000   32.13800   34.35600  
S    32.11800   30.93900   33.08200  
C    31.89200   32.19400   31.80100  
H    31.56500   31.75700   30.85400  
H    31.23900   33.02600   32.07700  
H    32.89500   32.58100   31.60100  
O    32.10200   29.61800   32.37900  
C    24.70900   29.77900   34.46300  
H    24.86200   30.07200   35.50500  
H    23.74500   29.26300   34.43200  
H    25.51100   29.08700   34.19700  
S    24.50000   31.15000   33.30400  
C    25.93400   32.13000   33.80200  
H    26.79100   31.56200   33.43400  
H    25.99000   33.12100   33.34400  
H    25.95500   32.22200   34.89100  
O    23.30500   31.86500   33.85400  
C    26.34700   34.89200   29.07300  
H    25.76800   34.63000   29.96200  
H    27.34000   34.44600   29.17100  
H    26.36600   35.98400   29.11200  
S    25.51600   34.30400   27.58000  
C    24.32700   35.65900   27.45400  
H    24.81500   36.49400   26.94500  
H    23.54400   35.32200   26.77000  
H    23.88600   35.94700   28.41200  
O    24.71500   33.19800   28.19200  
C    24.27400   27.17900   24.84300  
H    25.28700   27.34500   25.21800  
H    24.31500   27.23200   23.75200  
H    23.59900   27.91200   25.29300  
S    23.65000   25.65500   25.58600  
C    24.44600   24.42500   24.52900  
H    24.10000   24.71200   23.53200  
H    25.53900   24.41600   24.52900  
H    24.05800   23.43600   24.78300  
O    22.17300   25.57500   25.35600  
C    22.15700   29.21000   27.65200  
H    21.22100   29.71900   27.89600  
H    22.79400   29.74900   26.94500  
H    21.77300   28.36700   27.07300  
S    22.96700   28.46600   29.08600  
C    23.63000   29.98700   29.80200  
H    22.82700   30.51200   30.32500  
H    24.30300   29.64500   30.59200  
H    24.11300   30.62600   29.05800  
O    24.18800   27.83800   28.48900  
C    31.72800   29.79500   26.32700  
H    32.44400   30.29600   26.98400  
H    30.84200   30.40900   26.14200  
H    31.46100   28.80400   26.70300  
S    32.59400   29.41900   24.78600  
C    31.26000   28.45200   24.04200  
H    31.54700   28.31400   22.99700  
H    31.22500   27.47500   24.53100  
H    30.27900   28.93300   24.06600  
O    33.68200   28.53900   25.31600  
C    22.09000   28.84000   21.54300  
H    21.03600   28.55200   21.49800  
H    22.26800   28.80600   22.62100  
H    22.33200   29.82500   21.13500  
S    23.12100   27.61000   20.71300  
C    22.35900   26.21500   21.57200  
H    21.40700   25.92200   21.12300  
H    22.96900   25.32200   21.41200  
H    22.15700   26.48900   22.61000  
O    24.42400   27.56700   21.44900  
C    27.53700   20.22500   27.07500  
H    26.46200   20.41100   27.14800  
H    27.68300   19.16900   26.83300  
H    27.87900   20.39000   28.10000  
S    28.31600   21.38700   25.93200  
C    27.79700   20.57700   24.40200  
H    28.22500   21.18200   23.59800  
H    28.23500   19.58000   24.30700  
H    26.71000   20.52600   24.30200  
O    29.74800   20.95900   26.01800  
C    27.43300   31.31500   29.16600  
H    27.84900   31.74200   28.25000  
H    26.99400   30.36500   28.85100  
H    26.64900   31.99000   29.51700  
S    28.67100   31.16300   30.47400  
C    29.72000   29.92000   29.68600  
H    30.39800   30.42800   28.99600  
H    30.31300   29.34800   30.40400  
H    28.97300   29.35500   29.12200  
O    27.95100   30.47600   31.59300  
C    33.07400   27.39900   29.32200  
H    32.25200   27.60000   28.62900  
H    33.57000   28.37100   29.37800  
H    33.66000   26.57000   28.91600  
S    32.59400   26.78700   30.95300  
C    34.25800   26.29100   31.45100  
H    34.18300   25.72900   32.38600  
H    34.66500   25.54200   30.76600  
H    34.95300   27.13100   31.52400  
O    32.06900   25.45300   30.52500  
$end

$rem
JOBTYPE  SP
METHOD  B3LYP
BASIS  6-31+G(D)
SYMMETRY  FALSE
SYM_IGNORE  TRUE
MEM_TOTAL  16000
MEM_STATIC  8000
MAX_SUB_FILE_NUM  16000
BASIS_LIN_DEP_THRESH  6
THRESH  14
SCF_CONVERGENCE  8
GEN_SCFMAN  TRUE
SCF_GUESS  SAD
FD_MAT_VEC_PROD  FALSE
XC_GRID  000075000302
NL_GRID  1
MAX_SCF_CYCLES  200
ENV_METHOD  B3LYP
GEN_SCFMAN_EMBED  TRUE
SPADE_PARTITION  TRUE
$end

$development
embedding_early_stop  1
$end

--------------------------------------------------------------
 ----------------------------------------------------------------
             Standard Nuclear Orientation (Angstroms)
    I     Atom           X                Y                Z
 ----------------------------------------------------------------
    1      C      29.1890000000    25.9340000000    27.4930000000
    2      C      27.8870000000    26.7510000000    27.5360000000
    3      C      26.7160000000    25.8450000000    27.9520000000
    4      C      26.9810000000    25.1400000000    29.2920000000
    5      C      28.2890000000    24.3340000000    29.2330000000
    6      C      29.5330000000    25.0790000000    28.7240000000
    7      H      25.7990000000    26.4280000000    27.8050000000
    8      H      28.1320000000    27.4970000000    28.3010000000
    9      H      29.1060000000    25.2950000000    26.6050000000
   10      H      30.0090000000    26.6360000000    27.2990000000
   11      H      27.0550000000    25.9570000000    30.0200000000
   12      H      26.1560000000    24.5650000000    29.7310000000
   13      H      28.4690000000    24.0740000000    30.2840000000
   14      H      28.1080000000    23.4270000000    28.6440000000
   15      H      29.7780000000    25.7670000000    29.5430000000
   16      H      30.4110000000    24.4480000000    28.5350000000
   17      H      26.6340000000    25.0960000000    27.1550000000
   18      N      27.7360000000    27.3590000000    26.2150000000
   19      H      27.4780000000    26.7180000000    25.4740000000
   20      C      27.9370000000    28.6860000000    25.9000000000
   21      H      27.7250000000    28.9150000000    24.8400000000
   22      O      28.3070000000    29.4820000000    26.7440000000
   23      C      25.0060000000    30.7920000000    25.6850000000
   24      H      24.3830000000    31.4600000000    26.2860000000
   25      H      24.8520000000    29.8280000000    26.1760000000
   26      H      25.9980000000    31.2410000000    25.5840000000
   27      S      24.2400000000    30.4750000000    24.0790000000
   28      C      23.9770000000    32.2000000000    23.6130000000
   29      H      23.2340000000    32.5460000000    24.3360000000
   30      H      24.9340000000    32.7280000000    23.6340000000
   31      H      23.5620000000    32.2190000000    22.6020000000
   32      O      22.9120000000    30.1760000000    24.7020000000
   33      C      23.4090000000    24.2820000000    33.6130000000
   34      H      24.4620000000    24.3900000000    33.3390000000
   35      H      23.2450000000    24.5870000000    34.6490000000
   36      H      23.0510000000    23.2770000000    33.3740000000
   37      S      22.5040000000    25.5080000000    32.6420000000
   38      C      23.1830000000    24.9430000000    31.0660000000
   39      H      24.2290000000    24.7030000000    31.2730000000
   40      H      22.6180000000    24.1050000000    30.6500000000
   41      H      23.2070000000    25.6810000000    30.2600000000
   42      O      23.2970000000    26.7690000000    32.7890000000
   43      C      30.1370000000    27.4800000000    33.9900000000
   44      H      29.8150000000    28.4520000000    34.3730000000
   45      H      30.8020000000    26.9220000000    34.6540000000
   46      H      30.7250000000    27.6070000000    33.0770000000
   47      S      28.7260000000    26.3970000000    33.6730000000
   48      C      27.7580000000    27.5200000000    32.6390000000
   49      H      28.3440000000    27.8270000000    31.7690000000
   50      H      26.8040000000    27.0570000000    32.3730000000
   51      H      27.6460000000    28.4570000000    33.1900000000
   52      O      27.8700000000    26.0700000000    34.8560000000
   53      C      32.0590000000    22.8290000000    33.3060000000
   54      H      31.3560000000    21.9930000000    33.2470000000
   55      H      31.6810000000    23.7520000000    32.8600000000
   56      H      32.9280000000    22.5320000000    32.7130000000
   57      S      32.7190000000    23.0700000000    34.9710000000
   58      C      31.2470000000    23.9370000000    35.5590000000
   59      H      30.4710000000    23.1680000000    35.5960000000
   60      H      31.4220000000    24.3960000000    36.5360000000
   61      H      31.0610000000    24.7190000000    34.8180000000
   62      O      33.7330000000    24.1240000000    34.6520000000
   63      C      26.4470000000    29.3230000000    19.5610000000
   64      H      26.8760000000    28.3340000000    19.7380000000
   65      H      25.6870000000    29.1860000000    18.7880000000
   66      H      27.2490000000    29.9170000000    19.1140000000
   67      S      25.9210000000    30.0870000000    21.1120000000
   68      C      25.3700000000    31.6170000000    20.3240000000
   69      H      26.2260000000    32.0220000000    19.7780000000
   70      H      24.5480000000    31.4010000000    19.6370000000
   71      H      25.1100000000    32.2750000000    21.1570000000
   72      O      27.1870000000    30.5220000000    21.7830000000
   73      C      30.8860000000    20.6150000000    29.3300000000
   74      H      31.0520000000    21.6880000000    29.4550000000
   75      H      31.8740000000    20.1660000000    29.4570000000
   76      H      30.4400000000    20.4830000000    28.3410000000
   77      S      29.6740000000    20.0230000000    30.5330000000
   78      C      30.8760000000    19.4710000000    31.7640000000
   79      H      30.2610000000    19.0070000000    32.5390000000
   80      H      31.5920000000    18.7200000000    31.4190000000
   81      H      31.3830000000    20.3740000000    32.1140000000
   82      O      29.0890000000    18.7870000000    29.9230000000
   83      C      29.5940000000    35.9260000000    27.8210000000
   84      H      28.5070000000    35.8230000000    27.8680000000
   85      H      29.8190000000    36.8790000000    28.3080000000
   86      H      29.8690000000    36.1440000000    26.7860000000
   87      S      30.5720000000    34.5890000000    28.5420000000
   88      C      30.2910000000    33.2470000000    27.3650000000
   89      H      30.2650000000    32.3050000000    27.9190000000
   90      H      29.2830000000    33.4240000000    26.9840000000
   91      H      30.9910000000    33.2930000000    26.5270000000
   92      O      29.8150000000    34.2490000000    29.7890000000
   93      C      27.2550000000    22.7990000000    35.2080000000
   94      H      26.6870000000    21.8750000000    35.3440000000
   95      H      27.9650000000    22.9690000000    36.0220000000
   96      H      26.6320000000    23.6950000000    35.1380000000
   97      S      28.4210000000    22.6460000000    33.8360000000
   98      C      27.1990000000    22.1150000000    32.6150000000
   99      H      26.7330000000    21.1600000000    32.8700000000
  100      H      26.4740000000    22.9300000000    32.6790000000
  101      H      27.6500000000    22.0100000000    31.6250000000
  102      O      29.1500000000    21.3540000000    34.0350000000
  103      C      22.3370000000    21.8530000000    28.4870000000
  104      H      22.6340000000    22.4700000000    29.3390000000
  105      H      22.0410000000    22.5220000000    27.6740000000
  106      H      21.5890000000    21.0790000000    28.6780000000
  107      S      23.9140000000    21.1430000000    27.9660000000
  108      C      23.4880000000    19.9250000000    26.7010000000
  109      H      24.3260000000    19.2740000000    26.4390000000
  110      H      22.7660000000    19.1840000000    27.0520000000
  111      H      23.1890000000    20.3570000000    25.7420000000
  112      O      24.3050000000    20.2230000000    29.0810000000
  113      C      35.8740000000    22.6700000000    30.3720000000
  114      H      36.6560000000    23.2290000000    30.8920000000
  115      H      35.0340000000    22.4980000000    31.0500000000
  116      H      36.2730000000    21.7180000000    30.0130000000
  117      S      35.2280000000    23.5310000000    28.9210000000
  118      C      34.3150000000    22.0890000000    28.3270000000
  119      H      33.8280000000    22.2040000000    27.3560000000
  120      H      34.9910000000    21.2400000000    28.2000000000
  121      H      33.5510000000    21.9260000000    29.0920000000
  122      O      36.3210000000    23.4290000000    27.9020000000
  123      C      33.4230000000    24.8140000000    25.5230000000
  124      H      33.4680000000    25.9030000000    25.4410000000
  125      H      33.4250000000    24.5090000000    26.5730000000
  126      H      34.3100000000    24.2970000000    25.1490000000
  127      S      31.9260000000    24.2230000000    24.7020000000
  128      C      32.1760000000    22.4340000000    24.6500000000
  129      H      31.8150000000    21.9860000000    25.5790000000
  130      H      31.5330000000    22.1740000000    23.8050000000
  131      H      33.2350000000    22.2870000000    24.4250000000
  132      O      32.3730000000    24.7150000000    23.3600000000
  133      C      21.1580000000    25.3820000000    28.4460000000
  134      H      21.1150000000    24.8440000000    29.3960000000
  135      H      20.7990000000    24.7140000000    27.6590000000
  136      H      22.0700000000    25.8490000000    28.0650000000
  137      S      19.8770000000    26.6530000000    28.5420000000
  138      C      19.1950000000    26.1440000000    30.1360000000
  139      H      18.4390000000    26.8820000000    30.4160000000
  140      H      18.8360000000    25.1120000000    30.1030000000
  141      H      20.0480000000    26.2070000000    30.8160000000
  142      O      18.8510000000    26.2470000000    27.5300000000
  143      C      29.8370000000    32.9680000000    23.4100000000
  144      H      30.1900000000    33.9800000000    23.6200000000
  145      H      30.3830000000    32.2760000000    24.0570000000
  146      H      29.8760000000    32.8260000000    22.3270000000
  147      S      28.1080000000    33.0100000000    23.9350000000
  148      C      27.5790000000    33.8990000000    22.4540000000
  149      H      26.5950000000    34.3540000000    22.5950000000
  150      H      28.2060000000    34.7780000000    22.2820000000
  151      H      27.6420000000    33.2560000000    21.5730000000
  152      O      28.2410000000    34.1320000000    24.9170000000
  153      C      30.4600000000    28.7650000000    19.8550000000
  154      H      29.9100000000    28.9290000000    18.9250000000
  155      H      31.2940000000    28.1000000000    19.6130000000
  156      H      29.7700000000    28.2700000000    20.5430000000
  157      S      30.8500000000    30.3920000000    20.5370000000
  158      C      31.8870000000    30.8820000000    19.1410000000
  159      H      32.3560000000    31.7670000000    19.5790000000
  160      H      32.4300000000    29.9750000000    18.8640000000
  161      H      31.2670000000    31.1890000000    18.2950000000
  162      O      31.7620000000    30.0960000000    21.6870000000
  163      C      27.1670000000    26.2420000000    22.3510000000
  164      H      27.4780000000    26.9080000000    21.5410000000
  165      H      26.3540000000    25.6000000000    22.0020000000
  166      H      26.6910000000    26.8280000000    23.1400000000
  167      S      28.4840000000    25.2930000000    23.1440000000
  168      C      28.8520000000    24.1700000000    21.7780000000
  169      H      28.0390000000    23.4770000000    21.5450000000
  170      H      29.0240000000    24.7960000000    20.8990000000
  171      H      29.7630000000    23.6530000000    22.0890000000
  172      O      27.7860000000    24.4770000000    24.1880000000
  173      C      30.4940000000    31.1810000000    33.8370000000
  174      H      29.7550000000    31.2810000000    33.0370000000
  175      H      30.3590000000    30.3630000000    34.5480000000
  176      H      30.5900000000    32.1380000000    34.3560000000
  177      S      32.1180000000    30.9390000000    33.0820000000
  178      C      31.8920000000    32.1940000000    31.8010000000
  179      H      31.5650000000    31.7570000000    30.8540000000
  180      H      31.2390000000    33.0260000000    32.0770000000
  181      H      32.8950000000    32.5810000000    31.6010000000
  182      O      32.1020000000    29.6180000000    32.3790000000
  183      C      24.7090000000    29.7790000000    34.4630000000
  184      H      24.8620000000    30.0720000000    35.5050000000
  185      H      23.7450000000    29.2630000000    34.4320000000
  186      H      25.5110000000    29.0870000000    34.1970000000
  187      S      24.5000000000    31.1500000000    33.3040000000
  188      C      25.9340000000    32.1300000000    33.8020000000
  189      H      26.7910000000    31.5620000000    33.4340000000
  190      H      25.9900000000    33.1210000000    33.3440000000
  191      H      25.9550000000    32.2220000000    34.8910000000
  192      O      23.3050000000    31.8650000000    33.8540000000
  193      C      26.3470000000    34.8920000000    29.0730000000
  194      H      25.7680000000    34.6300000000    29.9620000000
  195      H      27.3400000000    34.4460000000    29.1710000000
  196      H      26.3660000000    35.9840000000    29.1120000000
  197      S      25.5160000000    34.3040000000    27.5800000000
  198      C      24.3270000000    35.6590000000    27.4540000000
  199      H      24.8150000000    36.4940000000    26.9450000000
  200      H      23.5440000000    35.3220000000    26.7700000000
  201      H      23.8860000000    35.9470000000    28.4120000000
  202      O      24.7150000000    33.1980000000    28.1920000000
  203      C      24.2740000000    27.1790000000    24.8430000000
  204      H      25.2870000000    27.3450000000    25.2180000000
  205      H      24.3150000000    27.2320000000    23.7520000000
  206      H      23.5990000000    27.9120000000    25.2930000000
  207      S      23.6500000000    25.6550000000    25.5860000000
  208      C      24.4460000000    24.4250000000    24.5290000000
  209      H      24.1000000000    24.7120000000    23.5320000000
  210      H      25.5390000000    24.4160000000    24.5290000000
  211      H      24.0580000000    23.4360000000    24.7830000000
  212      O      22.1730000000    25.5750000000    25.3560000000
  213      C      22.1570000000    29.2100000000    27.6520000000
  214      H      21.2210000000    29.7190000000    27.8960000000
  215      H      22.7940000000    29.7490000000    26.9450000000
  216      H      21.7730000000    28.3670000000    27.0730000000
  217      S      22.9670000000    28.4660000000    29.0860000000
  218      C      23.6300000000    29.9870000000    29.8020000000
  219      H      22.8270000000    30.5120000000    30.3250000000
  220      H      24.3030000000    29.6450000000    30.5920000000
  221      H      24.1130000000    30.6260000000    29.0580000000
  222      O      24.1880000000    27.8380000000    28.4890000000
  223      C      31.7280000000    29.7950000000    26.3270000000
  224      H      32.4440000000    30.2960000000    26.9840000000
  225      H      30.8420000000    30.4090000000    26.1420000000
  226      H      31.4610000000    28.8040000000    26.7030000000
  227      S      32.5940000000    29.4190000000    24.7860000000
  228      C      31.2600000000    28.4520000000    24.0420000000
  229      H      31.5470000000    28.3140000000    22.9970000000
  230      H      31.2250000000    27.4750000000    24.5310000000
  231      H      30.2790000000    28.9330000000    24.0660000000
  232      O      33.6820000000    28.5390000000    25.3160000000
  233      C      22.0900000000    28.8400000000    21.5430000000
  234      H      21.0360000000    28.5520000000    21.4980000000
  235      H      22.2680000000    28.8060000000    22.6210000000
  236      H      22.3320000000    29.8250000000    21.1350000000
  237      S      23.1210000000    27.6100000000    20.7130000000
  238      C      22.3590000000    26.2150000000    21.5720000000
  239      H      21.4070000000    25.9220000000    21.1230000000
  240      H      22.9690000000    25.3220000000    21.4120000000
  241      H      22.1570000000    26.4890000000    22.6100000000
  242      O      24.4240000000    27.5670000000    21.4490000000
  243      C      27.5370000000    20.2250000000    27.0750000000
  244      H      26.4620000000    20.4110000000    27.1480000000
  245      H      27.6830000000    19.1690000000    26.8330000000
  246      H      27.8790000000    20.3900000000    28.1000000000
  247      S      28.3160000000    21.3870000000    25.9320000000
  248      C      27.7970000000    20.5770000000    24.4020000000
  249      H      28.2250000000    21.1820000000    23.5980000000
  250      H      28.2350000000    19.5800000000    24.3070000000
  251      H      26.7100000000    20.5260000000    24.3020000000
  252      O      29.7480000000    20.9590000000    26.0180000000
  253      C      27.4330000000    31.3150000000    29.1660000000
  254      H      27.8490000000    31.7420000000    28.2500000000
  255      H      26.9940000000    30.3650000000    28.8510000000
  256      H      26.6490000000    31.9900000000    29.5170000000
  257      S      28.6710000000    31.1630000000    30.4740000000
  258      C      29.7200000000    29.9200000000    29.6860000000
  259      H      30.3980000000    30.4280000000    28.9960000000
  260      H      30.3130000000    29.3480000000    30.4040000000
  261      H      28.9730000000    29.3550000000    29.1220000000
  262      O      27.9510000000    30.4760000000    31.5930000000
  263      C      33.0740000000    27.3990000000    29.3220000000
  264      H      32.2520000000    27.6000000000    28.6290000000
  265      H      33.5700000000    28.3710000000    29.3780000000
  266      H      33.6600000000    26.5700000000    28.9160000000
  267      S      32.5940000000    26.7870000000    30.9530000000
  268      C      34.2580000000    26.2910000000    31.4510000000
  269      H      34.1830000000    25.7290000000    32.3860000000
  270      H      34.6650000000    25.5420000000    30.7660000000
  271      H      34.9530000000    27.1310000000    31.5240000000
  272      O      32.0690000000    25.4530000000    30.5250000000
 ----------------------------------------------------------------
 Nuclear Repulsion Energy =       42791.55032351 hartrees
 There are      560 alpha and      560 beta electrons
 Requested basis set is 6-31+G(d)
 There are 896 shells and 2497 basis functions

 Total QAlloc Memory Limit  16000 MB
 Mega-Array Size      7821 MB
 MEM_STATIC part      8000 MB
 A cutoff of  1.0D-14 yielded 158976 shell pairs
 There are   1381648 function pairs
 Smallest overlap matrix eigenvalue = 8.20E-07
 Linear dependence detected in AO basis
 Tighter screening thresholds may be required for diffuse basis sets
 Use S2THRESH > 14 and THRESH = 14 in case of SCF convergence issues
 Number of orthogonalized atomic orbitals = 2496
 Maximum deviation from orthogonality = 1.258E-10

 Scale SEOQF with 1.000000e-03/1.000000e-03/1.000000e-03

 Standard Electronic Orientation quadrupole field applied
 Nucleus-field energy     =    -0.0000000313 hartrees
 Guess from superposition of atomic densities
 Warning:  Energy on first SCF cycle will be non-variational
 SAD guess density has 1120.000002 electrons

 -----------------------------------------------------------------------
  General SCF calculation program by
  Eric Jon Sundstrom, Paul Horn, Yuezhi Mao, Dmitri Zuev, Alec White,
  David Stuck, Shaama M.S., Shane Yost, Joonho Lee, David Small,
  Daniel Levine, Susi Lehtola, Hugh Burton, Evgeny Epifanovsky,
  Bang C. Huynh
 -----------------------------------------------------------------------
=================================================
        Doing projection-based embedding         
      F. Manby et al. JCTC, 8, 2564 (2012)       
=================================================

****************************************************
   Low-level SCF calculation for the whole system   
****************************************************
----------------------------------------------
 Summary of the low-level theory: 
 Exchange:     0.2000 Hartree-Fock + 0.0800 Slater + 0.7200 B88
 Correlation:  0.1900 VWN1RPA + 0.8100 LYP
 Using Euler-Maclaurin-Lebedev (75,302) quadrature formula
----------------------------------------------
 using 16 threads for integral computing
 -------------------------------------------------------
 OpenMP Integral computing Module                
 Release: version 2.0, May 2017, Q-Chem Inc. Pleasanton 
 -------------------------------------------------------
 A restricted SCF calculation will be
 performed using DIIS
 SCF converges when DIIS error is below 1.0e-08
 ---------------------------------------
  Cycle       Energy         DIIS error
 ---------------------------------------
    1  -14252.1386904403      1.40e-02  
    2  -14229.8005126392      2.60e-03  
    3  -14216.0495301539      5.11e-03  
    4  -14233.3532004513      1.15e-03  
    5  -14234.3278427004      1.88e-04  
    6  -14234.3411118884      1.44e-04  
    7  -14234.3531693109      5.53e-05  
    8  -14234.3550908758      1.21e-05  
    9  -14234.3551795559      5.32e-06  
   10  -14234.3551957100      2.04e-06  
   11  -14234.3551981419      5.67e-07  
   12  -14234.3551983370      2.22e-07  
   13  -14234.3551983706      6.70e-08  
   14  -14234.3551983728      3.09e-08  
   15  -14234.3551983735      8.53e-09  Convergence criterion met
 ---------------------------------------
 SCF time:   CPU 153647.24s  wall 9677.00s 
 SCF   energy in the final basis set =   -14234.3551983735
 Total energy in the final basis set =   -14234.3551983735

****************************************************
             Start embedding calculation            
****************************************************
----------------------------------------------
 Summary of the high-level theory: 
 Exchange:     0.2000 Hartree-Fock + 0.0800 Slater + 0.7200 B88
 Correlation:  0.1900 VWN1RPA + 0.8100 LYP
 Using Euler-Maclaurin-Lebedev (75,302) quadrature formula
----------------------------------------------
Doing R-in-R Embedding Calculation
Number of fragments: 2
Embedded fragment(s): 1 
NOcc for each fragment
           35
          525
NBasis for each fragment
          197
         2300
Variational space of the embedded problem: 
NOcc (active)  = 35
NOcc (fixed)   = 525
NVir (total)   = 1936
Read converged orbitals from disk
=========================================================
       Doing SPADE partition for the orbital space       
     D. CLaudino and N. Mayhall JCTC 15, 1053 (2019)     
=========================================================
SPADE singular values:
 1.0000 1.0000 1.0000 1.0000 1.0000 1.0000 1.0000 1.0000 1.0000 0.9999
 0.9999 0.9998 0.9998 0.9997 0.9997 0.9995 0.9995 0.9994 0.9989 0.9978
 0.9975 0.9972 0.9968 0.9965 0.9962 0.9960 0.9953 0.9943 0.9942 0.9936
 0.9929 0.9910 0.9881 0.9877 0.9814 0.1960 0.1782 0.1480 0.1423 0.1381
 0.1254 0.1139 0.1100 0.1064 0.0951 0.0873 0.0865 0.0754 0.0682 0.0662
 0.0559 0.0543 0.0500 0.0487 0.0416 0.0369 0.0338 0.0320 0.0301 0.0264
 0.0256 0.0228 0.0225 0.0209 0.0206 0.0188 0.0171 0.0166 0.0156 0.0146
 0.0140 0.0138 0.0131 0.0118 0.0116 0.0109 0.0106 0.0098 0.0089 0.0088
 0.0083 0.0077 0.0075 0.0072 0.0070 0.0067 0.0064 0.0063 0.0059 0.0055
 0.0054 0.0051 0.0050 0.0045 0.0042 0.0040 0.0038 0.0036 0.0035 0.0033
 0.0032 0.0031 0.0030 0.0028 0.0027 0.0026 0.0025 0.0024 0.0023 0.0022
 0.0021 0.0020 0.0019 0.0018 0.0018 0.0017 0.0017 0.0016 0.0016 0.0015
 0.0014 0.0014 0.0014 0.0013 0.0013 0.0012 0.0012 0.0011 0.0010 0.0010
 0.0010 0.0010 0.0009 0.0008 0.0008 0.0008 0.0007 0.0007 0.0007 0.0006
 0.0006 0.0006 0.0006 0.0005 0.0005 0.0005 0.0005 0.0005 0.0004 0.0004
 0.0004 0.0004 0.0003 0.0003 0.0003 0.0003 0.0003 0.0003 0.0003 0.0003
 0.0002 0.0002 0.0002 0.0002 0.0002 0.0002 0.0002 0.0002 0.0002 0.0002
 0.0002 0.0002 0.0002 0.0001 0.0001 0.0001 0.0001 0.0001 0.0001 0.0001
 0.0001 0.0001 0.0001 0.0001 0.0001 0.0001 0.0001 0.0001 0.0001 0.0001
 0.0001 0.0001 0.0001 0.0001 0.0000 0.0000 0.0000
Early stop requested!
525 environment occs will be part of frozen-core in future post-HF calculations
 
 --------------------------------------------------------------
 
                    Orbital Energies (a.u.)
 --------------------------------------------------------------
 
 Alpha MOs
 -- Occupied --
 -0.4916  -0.4947  -0.4736  -0.4733  -0.4866  -0.4228  -0.4561  -0.4192
 -0.4459  -0.4359  -0.4263  -0.4550  -0.4251  -0.4251  -0.4303  -0.4448
 -0.4420  -0.4230  -0.4218  -0.5792  -0.5214  -0.4726  -0.4941  -0.4545
 -0.5188  -0.5048  -0.5808  -0.4689  -0.5377  -0.5223  -0.5140  -0.4558
 -0.5866  -0.5662  -0.5049  -0.5998  -0.5350  -0.5687  -0.5706  -0.5167
 -0.6283  -0.5940  -0.5058  -0.5406  -0.5925  -0.5971  -0.4923  -0.5926
 -0.5715  -0.5596  -0.5768  -0.5445  -0.6563  -0.6550  -0.6594  -0.6653
 -0.7088  -0.6181  -0.6932  -0.6234  -0.7209  -0.7703  -0.7611  -0.9912
 -1.2472  -0.7198  -0.7661  -0.6405  -0.8370  -0.9866  -1.0808  -0.6923
 -0.8287  -0.7296  -0.6928  -0.8279  -0.9354  -0.9066  -0.9525  -0.7718
 -0.7010  -0.9973  -1.3554  -1.0623  -0.8868  -0.7288  -0.9709  -0.9589
 -1.0913  -1.0410  -0.9647  -0.9196  -0.8848  -0.9100  -0.9648  -0.8669
 -1.2613  -0.8020  -1.1221  -1.0185  -0.9807  -1.1423  -1.5856  -1.1155
 -1.2256  -1.2782  -1.7773  -1.2459  -1.6987  -1.1810  -1.4924  -1.1864
 -1.7010  -1.3130  -1.3138  -1.5517  -1.6745  -0.9993  -1.6086  -1.2247
 -1.2942  -1.7811  -1.1447  -1.1675  -1.5269  -1.6527  -1.3862  -1.2261
 -1.1259  -1.6535  -1.3452  -1.1893  -1.9630  -1.6019  -1.2690  -1.1997
 -1.6369  -1.6418  -1.8420  -2.0927  -1.5192  -1.5145  -1.3942  -1.4756
 -2.0320  -1.2642  -1.5805  -1.3610  -1.3220  -1.3551  -2.1738  -2.3224
 -1.5927  -1.7684  -1.8470  -1.7378  -1.4704  -2.7831  -1.4442  -1.4608
 -1.7404  -2.0193  -5.9377  -5.9291  -6.0770  -5.9260  -5.9858  -5.8188
 -5.9778  -6.1124  -5.9746  -5.7188  -5.9170  -5.9716  -2.5185 -40.5585
 -2.6612 -23.0306  -2.8440  -2.0742  -3.7228  -2.2425  -1.9195  -4.2577
 -3.2461  -2.4572  -8.8892  -7.3160  -5.6848  -4.9606 -12.7306  -4.1241
 -2.0903  -5.2039 -19.7157  -1.7655  -2.4488 -12.3190  -4.0012  -1.5299
-69.7057  -1.9952  -1.3871  -2.5803  -9.9222  -2.4447 -76.4653  -4.0889
 -1.9937  -6.4724  -1.3860  -2.7670  -2.5343 -13.0962  -2.3188 -11.5190
 -8.1366  -2.2573  -6.4461  -8.8456  -8.6189  -3.3473  -4.5464  -8.0098
-17.3992 -14.7551  -1.3872  -1.5364  -1.2199  -1.4283  -7.0765  -2.4666
 -2.9747  -3.0703 -10.3843 -70.3488  -1.6091 -12.1460 -66.6545  -9.1745
 -1.6165  -9.1963  -2.5861  -4.3322 -12.2579  -7.4052  -8.3133  -8.3577
 -3.4569  -5.2481  -9.7969  -9.5164  -5.7429  -1.2489  -1.7635  -2.6628
-16.9666 -36.6645  -1.3945  -8.4569  -4.4775  -1.5166  -1.9197  -3.6614
 -5.8058 -61.2650 -19.5818  -3.2988  -2.0679  -8.1548 -12.7929  -5.7920
 -2.1928 -11.7608 -10.0225 -14.4321 -25.4316 -36.1850  -5.7698  -6.3764
-11.4543  -0.9381 -54.1435 -64.3355  -2.7971  -1.5079  -1.2146  -2.2333
 -3.1868  -3.6471  -2.4665  -4.0170  -3.3609  -4.2618  -5.0214 -12.7271
 -4.1850 -31.8343  -4.2752  -4.4576 -12.2119  -4.0691 -12.2369  -5.3718
 -7.3195 -14.9285  -2.0458  -2.2431  -2.8056  -4.4274  -3.2440  -3.9933
 -4.5714  -9.1511  -7.0268  -6.7837  -5.3375  -6.5918  -6.6036  -4.2795
-10.3746  -9.6214  -8.1567 -16.5002  -5.7206  -6.4741  -8.0939  -9.2932
 -5.6639  -8.2839  -8.7633  -3.9932  -6.0062 -10.1122  -8.6787  -9.9912
-13.0344  -5.5074  -4.2827  -8.8970  -5.0747  -5.2037  -7.0546 -10.6442
 -3.5699  -8.1354  -5.5057  -6.4995  -7.1130  -7.9535  -6.6840  -6.6917
 -1.8065  -4.4133  -2.8044  -7.6208  -3.4059  -5.5721  -6.5122  -2.8515
 -5.4602  -4.0815  -3.7981 -24.5315  -5.4124 -18.7760 -13.2462  -8.4816
 -5.2156  -6.5994 -17.9981 -10.7412 -10.2302 -12.4817  -3.1301 -33.1819
 -6.0719  -3.3241  -2.5290  -3.8553 -24.2276 -26.4592  -4.4509  -3.9035
 -5.5604  -2.7900  -6.0162  -3.9811 -16.8959  -7.2550 -18.6343  -5.2035
 -7.7014 -27.4666  -2.1099  -5.9097  -9.8935  -9.5988  -8.4796  -7.3054
 -5.4683 -10.8207  -9.2532  -9.4941  -8.3664  -4.1474  -3.8117  -6.1827
 -4.1702  -5.9420  -7.1269  -4.2431  -4.6869  -4.2307  -7.5268  -8.3777
-17.8749  -7.7304  -7.8108 -29.5419  -5.2461 -13.4162  -5.3681  -6.0471
 -6.0696  -6.1029  -5.9667  -6.9226  -5.5678 -27.2998  -9.7746  -7.4347
-19.6959 -15.1491 -11.9472  -8.1649  -7.5811 -11.5196  -2.0975 -18.8927
 -5.5510 -32.5832 -29.6042  -5.4353 -16.3874 -11.2579 -10.1814  -4.3863
-34.1838  -8.3421  -3.5056  -7.4204  -6.9962  -7.0437 -15.1098 -11.9179
 -7.4279  -4.6516 -16.7171 -14.3341  -5.7297  -3.5010 -15.9487 -12.0397
-13.5243 -11.4883 -18.3842 -65.9934  -3.5814 -60.0440  -3.2939  -5.9424
-64.1049 -78.9850 -23.8833 -76.5107  -6.1991  -4.6988  -4.2479  -9.7841
-16.0424  -7.0008  -4.6763 -21.9087  -6.2754  -5.7082  -9.8329  -9.3912
 -9.4168  -6.4228 -12.5621  -9.1922  -6.0552 -14.6430 -11.0840  -9.4036
-35.6571 -57.1381  -9.1346 -10.7439 -13.0736  -6.0322  -7.6248 -26.8498
 -3.8155 -13.6427  -3.3334 -11.1973  -3.9836 -13.5482  -4.8142 -15.6033
-15.1218 -10.9817  -9.4059 -16.4746 -17.2260  -7.3643 -17.3428  -8.1898
-14.1848  -9.1199 -50.4045 -12.2505  -4.0935 -11.4431 -10.1474 -10.2090
-11.6937 -10.9425 -12.1583 -14.3730 -13.1486 -10.1021  -0.7054  -0.6881
 -0.7838  -0.5971  -0.8490  -0.6387  -0.6450  -0.9003  -0.4033  -0.4537
 -0.4980  -0.4276  -0.4707  -0.3900  -0.4250  -0.4226  -0.4595  -0.4071
 -0.4033  -0.4750  -0.3659  -0.4149  -0.4693  -0.4060  -0.5049  -0.5296
 -- Virtual --
 -0.0472  -0.0400  -0.0332  -0.0306  -0.0261  -0.0235  -0.0208  -0.0189
 -0.0182  -0.0159  -0.0137  -0.0128  -0.0114  -0.0108  -0.0101  -0.0086
 -0.0064  -0.0059  -0.0051  -0.0043  -0.0031  -0.0028  -0.0019  -0.0009
 -0.0005   0.0018   0.0022   0.0026   0.0033   0.0040   0.0057   0.0071
  0.0078   0.0083   0.0088   0.0098   0.0106   0.0113   0.0124   0.0132
  0.0148   0.0149   0.0154   0.0165   0.0173   0.0188   0.0195   0.0208
  0.0212   0.0220   0.0231   0.0240   0.0244   0.0253   0.0258   0.0262
  0.0273   0.0277   0.0284   0.0286   0.0288   0.0297   0.0308   0.0311
  0.0312   0.0318   0.0323   0.0331   0.0334   0.0344   0.0347   0.0355
  0.0369   0.0372   0.0390   0.0391   0.0395   0.0399   0.0412   0.0413
  0.0423   0.0431   0.0435   0.0446   0.0451   0.0458   0.0459   0.0464
  0.0472   0.0480   0.0483   0.0487   0.0497   0.0502   0.0503   0.0512
  0.0518   0.0526   0.0537   0.0542   0.0552   0.0558   0.0564   0.0566
  0.0571   0.0576   0.0586   0.0596   0.0598   0.0613   0.0616   0.0623
  0.0628   0.0641   0.0644   0.0649   0.0651   0.0662   0.0667   0.0671
  0.0682   0.0688   0.0694   0.0699   0.0710   0.0718   0.0722   0.0731
  0.0735   0.0741   0.0747   0.0753   0.0763   0.0767   0.0771   0.0776
  0.0787   0.0796   0.0809   0.0811   0.0813   0.0822   0.0824   0.0834
  0.0844   0.0848   0.0857   0.0861   0.0878   0.0881   0.0885   0.0888
  0.0896   0.0908   0.0915   0.0919   0.0928   0.0938   0.0942   0.0958
  0.0964   0.0971   0.0974   0.0988   0.0990   0.0994   0.1006   0.1013
  0.1021   0.1022   0.1029   0.1037   0.1044   0.1047   0.1057   0.1061
  0.1067   0.1071   0.1072   0.1082   0.1087   0.1097   0.1104   0.1120
  0.1121   0.1128   0.1136   0.1144   0.1156   0.1157   0.1167   0.1169
  0.1171   0.1178   0.1186   0.1189   0.1199   0.1201   0.1211   0.1218
  0.1226   0.1231   0.1234   0.1239   0.1250   0.1252   0.1256   0.1267
  0.1273   0.1281   0.1293   0.1296   0.1303   0.1310   0.1313   0.1320
  0.1325   0.1340   0.1343   0.1347   0.1355   0.1363   0.1372   0.1379
  0.1383   0.1397   0.1402   0.1408   0.1420   0.1422   0.1427   0.1432
  0.1441   0.1448   0.1455   0.1459   0.1469   0.1472   0.1479   0.1487
  0.1496   0.1502   0.1505   0.1516   0.1527   0.1531   0.1535   0.1538
  0.1543   0.1545   0.1560   0.1566   0.1575   0.1578   0.1582   0.1591
  0.1595   0.1599   0.1608   0.1615   0.1620   0.1626   0.1632   0.1636
  0.1645   0.1656   0.1659   0.1669   0.1678   0.1683   0.1685   0.1687
  0.1706   0.1712   0.1714   0.1722   0.1727   0.1735   0.1740   0.1748
  0.1752   0.1754   0.1764   0.1769   0.1775   0.1781   0.1784   0.1793
  0.1798   0.1803   0.1811   0.1820   0.1826   0.1838   0.1839   0.1854
  0.1860   0.1867   0.1869   0.1870   0.1885   0.1894   0.1899   0.1902
  0.1908   0.1915   0.1920   0.1926   0.1929   0.1938   0.1942   0.1948
  0.1953   0.1959   0.1968   0.1975   0.1975   0.1979   0.1993   0.1995
  0.2000   0.2013   0.2014   0.2021   0.2026   0.2039   0.2043   0.2049
  0.2054   0.2067   0.2070   0.2074   0.2082   0.2094   0.2099   0.2100
  0.2109   0.2117   0.2122   0.2130   0.2135   0.2148   0.2150   0.2158
  0.2160   0.2167   0.2174   0.2177   0.2184   0.2191   0.2198   0.2204
  0.2213   0.2215   0.2218   0.2228   0.2239   0.2246   0.2250   0.2258
  0.2262   0.2271   0.2281   0.2285   0.2291   0.2296   0.2310   0.2314
  0.2323   0.2325   0.2334   0.2342   0.2346   0.2354   0.2367   0.2370
  0.2375   0.2379   0.2383   0.2395   0.2402   0.2413   0.2423   0.2425
  0.2429   0.2440   0.2445   0.2453   0.2454   0.2460   0.2471   0.2472
  0.2485   0.2489   0.2503   0.2508   0.2517   0.2520   0.2538   0.2543
  0.2554   0.2556   0.2564   0.2570   0.2572   0.2582   0.2594   0.2597
  0.2603   0.2610   0.2615   0.2616   0.2628   0.2640   0.2647   0.2653
  0.2663   0.2672   0.2679   0.2685   0.2689   0.2697   0.2704   0.2713
  0.2718   0.2724   0.2737   0.2747   0.2754   0.2763   0.2777   0.2782
  0.2795   0.2799   0.2810   0.2819   0.2823   0.2829   0.2840   0.2841
  0.2858   0.2875   0.2881   0.2884   0.2903   0.2905   0.2909   0.2922
  0.2925   0.2928   0.2938   0.2947   0.2964   0.2966   0.2971   0.2981
  0.2985   0.2994   0.2996   0.3010   0.3024   0.3033   0.3056   0.3057
  0.3065   0.3078   0.3081   0.3089   0.3095   0.3098   0.3113   0.3119
  0.3128   0.3143   0.3152   0.3157   0.3166   0.3177   0.3182   0.3201
  0.3205   0.3217   0.3226   0.3228   0.3236   0.3239   0.3250   0.3264
  0.3271   0.3279   0.3283   0.3287   0.3297   0.3300   0.3320   0.3328
  0.3335   0.3353   0.3357   0.3368   0.3382   0.3390   0.3393   0.3403
  0.3416   0.3428   0.3435   0.3444   0.3452   0.3464   0.3469   0.3478
  0.3486   0.3494   0.3507   0.3517   0.3527   0.3530   0.3543   0.3546
  0.3567   0.3567   0.3580   0.3599   0.3606   0.3612   0.3616   0.3634
  0.3636   0.3658   0.3660   0.3668   0.3674   0.3686   0.3687   0.3702
  0.3710   0.3720   0.3734   0.3740   0.3750   0.3756   0.3770   0.3778
  0.3783   0.3791   0.3801   0.3817   0.3825   0.3834   0.3837   0.3842
  0.3859   0.3872   0.3886   0.3888   0.3890   0.3893   0.3908   0.3920
  0.3935   0.3938   0.3945   0.3953   0.3968   0.3971   0.3981   0.3992
  0.4001   0.4007   0.4010   0.4020   0.4038   0.4042   0.4049   0.4063
  0.4066   0.4087   0.4089   0.4095   0.4107   0.4113   0.4121   0.4135
  0.4145   0.4151   0.4164   0.4175   0.4186   0.4194   0.4201   0.4209
  0.4213   0.4227   0.4241   0.4251   0.4267   0.4271   0.4282   0.4290
  0.4305   0.4310   0.4335   0.4344   0.4359   0.4370   0.4375   0.4386
  0.4400   0.4408   0.4422   0.4431   0.4440   0.4446   0.4463   0.4489
  0.4490   0.4498   0.4529   0.4543   0.4558   0.4562   0.4569   0.4579
  0.4597   0.4602   0.4610   0.4625   0.4635   0.4644   0.4647   0.4670
  0.4685   0.4697   0.4700   0.4723   0.4743   0.4753   0.4763   0.4779
  0.4781   0.4797   0.4813   0.4847   0.4862   0.4866   0.4876   0.4894
  0.4919   0.4923   0.4932   0.4950   0.4977   0.4998   0.5016   0.5025
  0.5041   0.5074   0.5079   0.5096   0.5113   0.5126   0.5143   0.5172
  0.5190   0.5201   0.5237   0.5244   0.5258   0.5271   0.5281   0.5290
  0.5324   0.5329   0.5337   0.5359   0.5382   0.5400   0.5404   0.5413
  0.5443   0.5467   0.5473   0.5487   0.5513   0.5523   0.5524   0.5539
  0.5546   0.5585   0.5590   0.5618   0.5632   0.5652   0.5663   0.5676
  0.5680   0.5702   0.5715   0.5747   0.5763   0.5790   0.5794   0.5816
  0.5820   0.5833   0.5860   0.5873   0.5889   0.5895   0.5909   0.5922
  0.5938   0.5959   0.5978   0.5982   0.5996   0.6015   0.6030   0.6041
  0.6052   0.6081   0.6082   0.6089   0.6106   0.6121   0.6136   0.6145
  0.6152   0.6173   0.6183   0.6203   0.6222   0.6225   0.6248   0.6259
  0.6270   0.6287   0.6298   0.6307   0.6323   0.6331   0.6347   0.6350
  0.6370   0.6381   0.6388   0.6408   0.6419   0.6427   0.6430   0.6460
  0.6481   0.6485   0.6504   0.6515   0.6522   0.6537   0.6554   0.6565
  0.6575   0.6590   0.6608   0.6611   0.6630   0.6645   0.6651   0.6660
  0.6670   0.6689   0.6690   0.6702   0.6717   0.6736   0.6752   0.6766
  0.6782   0.6792   0.6806   0.6811   0.6820   0.6837   0.6837   0.6857
  0.6867   0.6883   0.6886   0.6896   0.6909   0.6923   0.6940   0.6941
  0.6948   0.6958   0.6968   0.6994   0.7005   0.7021   0.7024   0.7039
  0.7040   0.7054   0.7093   0.7094   0.7111   0.7112   0.7116   0.7142
  0.7154   0.7169   0.7179   0.7183   0.7203   0.7205   0.7226   0.7244
  0.7250   0.7269   0.7279   0.7300   0.7307   0.7321   0.7329   0.7341
  0.7345   0.7365   0.7376   0.7395   0.7410   0.7422   0.7431   0.7449
  0.7451   0.7477   0.7499   0.7503   0.7527   0.7540   0.7553   0.7565
  0.7568   0.7590   0.7604   0.7607   0.7615   0.7649   0.7659   0.7679
  0.7700   0.7703   0.7726   0.7731   0.7734   0.7764   0.7798   0.7816
  0.7836   0.7846   0.7865   0.7871   0.7877   0.7908   0.7920   0.7926
  0.7937   0.7953   0.7984   0.8003   0.8031   0.8048   0.8066   0.8074
  0.8108   0.8119   0.8123   0.8145   0.8171   0.8182   0.8186   0.8201
  0.8211   0.8232   0.8252   0.8266   0.8271   0.8288   0.8303   0.8318
  0.8336   0.8359   0.8362   0.8378   0.8396   0.8414   0.8431   0.8452
  0.8471   0.8489   0.8505   0.8511   0.8520   0.8528   0.8541   0.8552
  0.8564   0.8566   0.8582   0.8605   0.8620   0.8629   0.8634   0.8666
  0.8675   0.8699   0.8707   0.8726   0.8730   0.8741   0.8760   0.8766
  0.8776   0.8785   0.8788   0.8820   0.8829   0.8840   0.8845   0.8872
  0.8885   0.8888   0.8899   0.8906   0.8918   0.8931   0.8939   0.8966
  0.8974   0.8976   0.8986   0.9012   0.9029   0.9046   0.9063   0.9073
  0.9084   0.9099   0.9107   0.9127   0.9131   0.9141   0.9146   0.9148
  0.9177   0.9189   0.9205   0.9213   0.9225   0.9238   0.9245   0.9257
  0.9264   0.9271   0.9292   0.9311   0.9318   0.9337   0.9356   0.9370
  0.9383   0.9396   0.9400   0.9411   0.9422   0.9434   0.9439   0.9449
  0.9474   0.9476   0.9492   0.9509   0.9515   0.9521   0.9542   0.9560
  0.9572   0.9576   0.9592   0.9598   0.9622   0.9629   0.9634   0.9649
  0.9662   0.9667   0.9675   0.9693   0.9707   0.9713   0.9739   0.9758
  0.9762   0.9777   0.9784   0.9801   0.9807   0.9817   0.9822   0.9833
  0.9845   0.9858   0.9872   0.9882   0.9892   0.9908   0.9924   0.9928
  0.9955   0.9966   0.9974   0.9978   0.9993   0.9999   1.0015   1.0037
  1.0054   1.0060   1.0079   1.0095   1.0096   1.0101   1.0112   1.0131
  1.0139   1.0149   1.0163   1.0172   1.0181   1.0201   1.0206   1.0219
  1.0222   1.0235   1.0243   1.0255   1.0269   1.0288   1.0299   1.0301
  1.0333   1.0339   1.0349   1.0361   1.0367   1.0385   1.0403   1.0410
  1.0416   1.0434   1.0447   1.0457   1.0478   1.0482   1.0488   1.0503
  1.0509   1.0538   1.0539   1.0552   1.0560   1.0570   1.0583   1.0589
  1.0595   1.0612   1.0627   1.0650   1.0659   1.0673   1.0680   1.0697
  1.0705   1.0721   1.0730   1.0736   1.0754   1.0766   1.0780   1.0801
  1.0814   1.0825   1.0837   1.0857   1.0858   1.0867   1.0888   1.0897
  1.0915   1.0919   1.0941   1.0954   1.0972   1.0982   1.0997   1.1017
  1.1027   1.1034   1.1060   1.1072   1.1089   1.1101   1.1118   1.1147
  1.1154   1.1161   1.1186   1.1194   1.1210   1.1220   1.1245   1.1248
  1.1258   1.1277   1.1288   1.1313   1.1324   1.1328   1.1351   1.1362
  1.1383   1.1402   1.1415   1.1418   1.1430   1.1448   1.1463   1.1475
  1.1489   1.1500   1.1506   1.1514   1.1544   1.1557   1.1574   1.1597
  1.1601   1.1610   1.1624   1.1637   1.1659   1.1670   1.1679   1.1691
  1.1703   1.1722   1.1764   1.1770   1.1779   1.1786   1.1802   1.1827
  1.1844   1.1858   1.1886   1.1903   1.1910   1.1929   1.1953   1.1960
  1.1977   1.2005   1.2018   1.2022   1.2037   1.2056   1.2075   1.2090
  1.2119   1.2134   1.2162   1.2173   1.2179   1.2219   1.2226   1.2237
  1.2261   1.2302   1.2313   1.2326   1.2347   1.2367   1.2394   1.2425
  1.2438   1.2460   1.2478   1.2501   1.2522   1.2547   1.2558   1.2576
  1.2594   1.2639   1.2651   1.2675   1.2688   1.2725   1.2751   1.2776
  1.2788   1.2807   1.2853   1.2877   1.2907   1.2908   1.2926   1.2970
  1.2978   1.3009   1.3034   1.3063   1.3098   1.3134   1.3147   1.3159
  1.3187   1.3203   1.3233   1.3270   1.3282   1.3311   1.3324   1.3342
  1.3358   1.3385   1.3398   1.3426   1.3435   1.3494   1.3501   1.3513
  1.3541   1.3549   1.3579   1.3593   1.3620   1.3626   1.3661   1.3671
  1.3682   1.3691   1.3703   1.3741   1.3746   1.3774   1.3780   1.3812
  1.3822   1.3850   1.3857   1.3872   1.3887   1.3902   1.3930   1.3946
  1.3966   1.3974   1.3984   1.3991   1.4026   1.4036   1.4040   1.4054
  1.4069   1.4086   1.4109   1.4125   1.4134   1.4144   1.4150   1.4170
  1.4180   1.4185   1.4207   1.4217   1.4238   1.4246   1.4259   1.4268
  1.4286   1.4291   1.4298   1.4325   1.4331   1.4343   1.4361   1.4380
  1.4392   1.4408   1.4428   1.4436   1.4460   1.4472   1.4480   1.4486
  1.4518   1.4531   1.4549   1.4560   1.4588   1.4597   1.4626   1.4642
  1.4665   1.4684   1.4706   1.4720   1.4738   1.4754   1.4792   1.4810
  1.4818   1.4841   1.4871   1.4876   1.4897   1.4913   1.4927   1.4952
  1.4987   1.4995   1.5016   1.5058   1.5063   1.5084   1.5095   1.5128
  1.5153   1.5165   1.5176   1.5182   1.5223   1.5239   1.5259   1.5275
  1.5288   1.5329   1.5354   1.5409   1.5446   1.5464   1.5480   1.5513
  1.5559   1.5565   1.5587   1.5600   1.5617   1.5651   1.5675   1.5710
  1.5751   1.5776   1.5813   1.5848   1.5881   1.5926   1.5993   1.6013
  1.6068   1.6100   1.6120   1.6129   1.6207   1.6263   1.6327   1.6371
  1.6395   1.6483   1.6514   1.6528   1.6567   1.6575   1.6603   1.6621
  1.6642   1.6653   1.6666   1.6678   1.6698   1.6704   1.6730   1.6742
  1.6760   1.6765   1.6805   1.6822   1.6833   1.6848   1.6867   1.6875
  1.6893   1.6900   1.6920   1.6938   1.6949   1.6967   1.6982   1.6999
  1.7008   1.7021   1.7043   1.7051   1.7060   1.7064   1.7083   1.7095
  1.7103   1.7111   1.7125   1.7137   1.7160   1.7182   1.7192   1.7212
  1.7216   1.7235   1.7257   1.7260   1.7272   1.7279   1.7283   1.7308
  1.7317   1.7335   1.7336   1.7354   1.7379   1.7387   1.7397   1.7406
  1.7436   1.7454   1.7472   1.7489   1.7492   1.7521   1.7538   1.7552
  1.7564   1.7581   1.7604   1.7617   1.7647   1.7657   1.7693   1.7706
  1.7751   1.7755   1.7768   1.7776   1.7796   1.7810   1.7821   1.7826
  1.7845   1.7851   1.7892   1.7897   1.7905   1.7911   1.7950   1.7973
  1.8003   1.8007   1.8040   1.8055   1.8077   1.8096   1.8149   1.8181
  1.8226   1.8250   1.8270   1.8290   1.8301   1.8332   1.8370   1.8387
  1.8417   1.8462   1.8506   1.8562   1.8572   1.8600   1.8615   1.8637
  1.8650   1.8685   1.8707   1.8722   1.8758   1.8762   1.8806   1.8815
  1.8832   1.8841   1.8854   1.8873   1.8878   1.8887   1.8904   1.8914
  1.8924   1.8948   1.8962   1.8976   1.8998   1.9005   1.9023   1.9054
  1.9061   1.9076   1.9085   1.9094   1.9104   1.9115   1.9131   1.9131
  1.9145   1.9161   1.9174   1.9200   1.9209   1.9220   1.9231   1.9240
  1.9261   1.9271   1.9288   1.9304   1.9344   1.9351   1.9386   1.9391
  1.9411   1.9426   1.9444   1.9470   1.9484   1.9520   1.9522   1.9548
  1.9557   1.9571   1.9622   1.9631   1.9660   1.9683   1.9709   1.9730
  1.9775   1.9787   1.9889   1.9918   2.0032   2.0151   2.0217   2.0320
  2.0325   2.0354   2.0459   2.0466   2.0481   2.0507   2.0508   2.0537
  2.0597   2.0606   2.0627   2.0646   2.0674   2.0693   2.0706   2.0726
  2.0743   2.0757   2.0767   2.0791   2.0846   2.0853   2.0870   2.0875
  2.0891   2.0906   2.0910   2.0915   2.0928   2.0933   2.0943   2.0947
  2.0954   2.0965   2.0974   2.0984   2.1005   2.1010   2.1032   2.1062
  2.1075   2.1088   2.1101   2.1124   2.1142   2.1150   2.1161   2.1172
  2.1221   2.1223   2.1244   2.1257   2.1264   2.1324   2.1327   2.1384
  2.1451   2.1472   2.1519   2.1584   2.1604   2.1639   2.1647   2.1667
  2.1675   2.1777   2.1817   2.1836   2.1900   2.1923   2.1938   2.1972
  2.1994   2.2016   2.2044   2.2067   2.2087   2.2094   2.2105   2.2120
  2.2136   2.2154   2.2183   2.2206   2.2220   2.2224   2.2251   2.2262
  2.2279   2.2299   2.2308   2.2320   2.2325   2.2344   2.2356   2.2374
  2.2389   2.2403   2.2412   2.2423   2.2442   2.2446   2.2460   2.2475
  2.2497   2.2501   2.2515   2.2527   2.2551   2.2558   2.2575   2.2578
  2.2583   2.2594   2.2599   2.2605   2.2608   2.2617   2.2629   2.2654
  2.2673   2.2675   2.2683   2.2690   2.2708   2.2716   2.2734   2.2746
  2.2748   2.2763   2.2774   2.2782   2.2786   2.2799   2.2809   2.2817
  2.2841   2.2844   2.2845   2.2860   2.2864   2.2869   2.2881   2.2889
  2.2896   2.2905   2.2911   2.2930   2.2936   2.2942   2.2950   2.2955
  2.2982   2.2995   2.3005   2.3031   2.3036   2.3047   2.3053   2.3076
  2.3095   2.3100   2.3113   2.3136   2.3147   2.3170   2.3177   2.3188
  2.3203   2.3211   2.3225   2.3251   2.3265   2.3267   2.3276   2.3289
  2.3296   2.3305   2.3327   2.3334   2.3342   2.3350   2.3361   2.3384
  2.3391   2.3407   2.3409   2.3423   2.3435   2.3455   2.3465   2.3477
  2.3490   2.3518   2.3535   2.3561   2.3578   2.3584   2.3604   2.3637
  2.3645   2.3651   2.3687   2.3706   2.3719   2.3737   2.3758   2.3765
  2.3845   2.3901   2.3916   2.3978   2.4002   2.4046   2.4084   2.4121
  2.4148   2.4486   2.4638   2.4889   2.5385   2.5463   2.5874   2.6587
  2.7308   2.7521   2.7991   2.8030   2.8238   2.8271   2.8304   2.8365
  2.8402   2.8427   2.8470   2.8472   2.8503   2.8511   2.8538   2.8554
  2.8579   2.8593   2.8600   2.8625   2.8641   2.8647   2.8673   2.8689
  2.8729   2.8753   2.8786   2.8838   2.8908   2.8946   2.8977   2.9132
  2.9399   3.1049   3.2484   3.9546   3.9572   3.9620   3.9705   3.9719
  3.9723   3.9735   3.9798   3.9820   3.9840   3.9849   3.9873   3.9883
  3.9899   3.9938   4.0001   4.0026   4.0039   4.0079   4.0088   4.0201
  4.0244   4.0322   4.0340   4.0479   4.2000   4.2151   4.2347   4.2392
  4.2451   4.2487   4.2521   4.2550   4.2564   4.2585   4.2602   4.2611
  4.2655   4.2669   4.2710   4.2725   4.2736   4.2744   4.2782   4.2796
  4.2817   4.2887   4.2900   4.2935   4.2945   4.2967   4.3007   4.3021
  4.3059   4.3081   4.3125   4.3131   4.3172   4.3197   4.3215   4.3230
  4.3256   4.3293   4.3303   4.3338   4.3392   4.3411   4.3447   4.3470
  4.3512   4.3516   4.3555   4.3569   4.3599   4.3617   4.3673   4.3689
  4.3720   4.3745   4.3825   4.3831   4.3850   4.3889   4.3905   4.3944
  4.4035   4.4046   4.4101   4.4162   4.4201   4.4285   4.4390   4.4409
  4.4515   4.4847   4.4909   4.5019   4.5135   4.5219   4.5582   4.5896
  4.5964   4.6035   4.6480   4.6573   4.7046   4.7293   4.7927   4.9261
 --------------------------------------------------------------
 
          Ground-State Mulliken Net Atomic Charges

     Atom                 Charge (a.u.)
  ----------------------------------------
      1 C                    -0.177264
      2 C                    -0.383429
      3 C                     0.709480
      4 C                    -1.247880
      5 C                    -0.951633
      6 C                    -0.315419
      7 H                     0.303545
      8 H                     0.207955
      9 H                     0.246144
     10 H                     0.195358
     11 H                     0.216077
     12 H                     0.198445
     13 H                     0.203383
     14 H                     0.196745
     15 H                     0.234239
     16 H                     0.216451
     17 H                     0.225442
     18 N                    -0.083009
     19 H                     0.447615
     20 C                    -0.352576
     21 H                     0.172613
     22 O                    -0.194673
     23 C                    -1.579795
     24 H                     0.335316
     25 H                     0.323889
     26 H                     0.254056
     27 S                     1.925412
     28 C                    -1.099066
     29 H                     0.286698
     30 H                     0.247508
     31 H                     0.232265
     32 O                    -0.693552
     33 C                    -0.696060
     34 H                     0.246588
     35 H                     0.254566
     36 H                     0.242959
     37 S                     0.733762
     38 C                    -0.923533
     39 H                     0.241954
     40 H                     0.201760
     41 H                     0.312130
     42 O                    -0.645540
     43 C                    -0.832142
     44 H                     0.216982
     45 H                     0.249205
     46 H                     0.306313
     47 S                     0.692459
     48 C                    -0.774587
     49 H                     0.263791
     50 H                     0.257263
     51 H                     0.268386
     52 O                    -0.603680
     53 C                    -0.930669
     54 H                     0.268265
     55 H                     0.299744
     56 H                     0.228963
     57 S                     0.838790
     58 C                    -0.764094
     59 H                     0.240029
     60 H                     0.247450
     61 H                     0.233147
     62 O                    -0.695840
     63 C                    -0.964820
     64 H                     0.269913
     65 H                     0.258614
     66 H                     0.250944
     67 S                     0.438298
     68 C                    -0.654185
     69 H                     0.259894
     70 H                     0.239842
     71 H                     0.249418
     72 O                    -0.531317
     73 C                    -1.021999
     74 H                     0.255544
     75 H                     0.235560
     76 H                     0.313814
     77 S                     1.048492
     78 C                    -0.919039
     79 H                     0.273528
     80 H                     0.251196
     81 H                     0.223526
     82 O                    -0.684782
     83 C                    -0.922498
     84 H                     0.258464
     85 H                     0.252854
     86 H                     0.258358
     87 S                     0.886011
     88 C                    -0.852081
     89 H                     0.265956
     90 H                     0.310876
     91 H                     0.244077
     92 O                    -0.640803
     93 C                    -0.849653
     94 H                     0.244291
     95 H                     0.249178
     96 H                     0.280871
     97 S                     0.963284
     98 C                    -0.895136
     99 H                     0.274631
    100 H                     0.196674
    101 H                     0.267772
    102 O                    -0.718656
    103 C                    -0.858861
    104 H                     0.243207
    105 H                     0.248373
    106 H                     0.254199
    107 S                     1.066213
    108 C                    -0.943847
    109 H                     0.268402
    110 H                     0.260536
    111 H                     0.227143
    112 O                    -0.714128
    113 C                    -0.923228
    114 H                     0.262570
    115 H                     0.235859
    116 H                     0.248300
    117 S                     1.094633
    118 C                    -0.873605
    119 H                     0.258475
    120 H                     0.257031
    121 H                     0.206220
    122 O                    -0.736512
    123 C                    -0.941067
    124 H                     0.313097
    125 H                     0.213738
    126 H                     0.269845
    127 S                     0.941501
    128 C                    -0.896599
    129 H                     0.294519
    130 H                     0.239242
    131 H                     0.242789
    132 O                    -0.704578
    133 C                    -1.070600
    134 H                     0.222416
    135 H                     0.298778
    136 H                     0.291573
    137 S                     1.238688
    138 C                    -0.983371
    139 H                     0.250987
    140 H                     0.257029
    141 H                     0.234385
    142 O                    -0.692457
    143 C                    -1.046690
    144 H                     0.280616
    145 H                     0.267931
    146 H                     0.235361
    147 S                     1.228482
    148 C                    -1.017165
    149 H                     0.243481
    150 H                     0.263496
    151 H                     0.258787
    152 O                    -0.704435
    153 C                    -0.955152
    154 H                     0.231231
    155 H                     0.271726
    156 H                     0.254900
    157 S                     0.941925
    158 C                    -0.787736
    159 H                     0.247788
    160 H                     0.244572
    161 H                     0.238342
    162 O                    -0.671634
    163 C                    -1.147756
    164 H                     0.231144
    165 H                     0.288521
    166 H                     0.269505
    167 S                     1.092801
    168 C                    -0.856267
    169 H                     0.257099
    170 H                     0.233421
    171 H                     0.289192
    172 O                    -0.649751
    173 C                    -0.822642
    174 H                     0.289997
    175 H                     0.232242
    176 H                     0.242261
    177 S                     0.951480
    178 C                    -0.903159
    179 H                     0.281967
    180 H                     0.283938
    181 H                     0.243083
    182 O                    -0.718133
    183 C                    -0.837455
    184 H                     0.240710
    185 H                     0.274057
    186 H                     0.248817
    187 S                     0.912964
    188 C                    -0.874403
    189 H                     0.284089
    190 H                     0.240975
    191 H                     0.236826
    192 O                    -0.721062
    193 C                    -1.065952
    194 H                     0.288151
    195 H                     0.301362
    196 H                     0.238067
    197 S                     1.311915
    198 C                    -1.007624
    199 H                     0.238797
    200 H                     0.249170
    201 H                     0.261029
    202 O                    -0.761051
    203 C                    -0.955104
    204 H                     0.267833
    205 H                     0.314242
    206 H                     0.310887
    207 S                     0.624677
    208 C                    -0.998061
    209 H                     0.237162
    210 H                     0.314526
    211 H                     0.237881
    212 O                    -0.596941
    213 C                    -0.686367
    214 H                     0.257305
    215 H                     0.306572
    216 H                     0.290061
    217 S                     0.157177
    218 C                    -0.634259
    219 H                     0.253550
    220 H                     0.272038
    221 H                     0.286395
    222 O                    -0.534634
    223 C                    -0.811281
    224 H                     0.248757
    225 H                     0.249409
    226 H                     0.261490
    227 S                     0.454558
    228 C                    -0.671109
    229 H                     0.291402
    230 H                     0.274416
    231 H                     0.240747
    232 O                    -0.613813
    233 C                    -0.865116
    234 H                     0.259516
    235 H                     0.320882
    236 H                     0.228942
    237 S                     0.997696
    238 C                    -0.871274
    239 H                     0.242476
    240 H                     0.249438
    241 H                     0.301656
    242 O                    -0.710073
    243 C                    -0.884858
    244 H                     0.223132
    245 H                     0.262334
    246 H                     0.280242
    247 S                     1.034665
    248 C                    -0.975894
    249 H                     0.246375
    250 H                     0.269015
    251 H                     0.224132
    252 O                    -0.689744
    253 C                    -0.680465
    254 H                     0.272279
    255 H                     0.296139
    256 H                     0.287812
    257 S                     0.200157
    258 C                    -0.883040
    259 H                     0.233114
    260 H                     0.317592
    261 H                     0.265354
    262 O                    -0.501036
    263 C                    -0.607791
    264 H                     0.251138
    265 H                     0.237493
    266 H                     0.260093
    267 S                     0.502533
    268 C                    -0.819563
    269 H                     0.309505
    270 H                     0.237017
    271 H                     0.237181
    272 O                    -0.629230
  ----------------------------------------
  Sum of atomic charges =     0.000000

 -----------------------------------------------------------------
                    Cartesian Multipole Moments
 -----------------------------------------------------------------
    Charge (ESU x 10^10)
                -0.0000
    Dipole Moment (Debye)
         X      -8.0397      Y      13.0599      Z     -23.8334
       Tot      28.3413
    Quadrupole Moments (Debye-Ang)
        XX   -1475.7072     XY     206.6348     YY    -120.0971
        XZ    -830.2577     YZ    -339.3973     ZZ   -2078.3872
    Octopole Moments (Debye-Ang^2)
       XXX -104786.9197    XXY  -26625.6110    XYY   -5999.4195
       YYY  -37572.4980    XXZ  -56402.5602    XYZ  -12014.7030
       YYZ  -24705.2348    XZZ  -61194.7625    YZZ  -49132.5038
       ZZZ -120108.7086
    Hexadecapole Moments (Debye-Ang^3)
      XXXX ************   XXXY ************   XXYY ************
      XYYY ************   YYYY ************   XXXZ ************
      XXYZ ************   XYYZ -705618.4687   YYYZ ************
      XXZZ ************   XYZZ ************   YYZZ ************
      XZZZ ************   YZZZ ************   ZZZZ ************
 -----------------------------------------------------------------
Archival summary:
[...]
    2   0.0495957  -0.0021531  -0.0280697   0.0198849   0.0006148  -0.0950125
    3  -0.0160478  -0.0056813   0.0125493  -0.0151176  -0.0272977   0.0124661
          103         104         105         106         107         108
    1  -0.0061329   0.0006491  -0.0176758  -0.0204625   0.0368046  -0.0041806
    2   0.0023936   0.0127367   0.0224400  -0.0201864   0.0407844  -0.0074830
    3  -0.0003375   0.0276818  -0.0211011   0.0121181  -0.0182697  -0.0062546
          109         110         111         112         113         114
    1   0.0346857  -0.0273884  -0.0164437   0.0312051   0.0027705   0.0219240
    2  -0.0109999  -0.0148486   0.0155000  -0.0684308  -0.0059404   0.0179146
    3   0.0027181   0.0158715  -0.0272916   0.0822017   0.0048408   0.0119419
          115         116         117         118         119         120
    1  -0.0210211   0.0160079  -0.0285156  -0.0053899  -0.0125801   0.0235048
    2  -0.0073870  -0.0264061   0.0419414  -0.0070285   0.0141049  -0.0209370
    3   0.0266074  -0.0077082   0.0073205  -0.0004080  -0.0258007   0.0008140
          121         122         123         124         125         126
    1  -0.0293364   0.0795145   0.0085338   0.0050854  -0.0024584   0.0249024
    2  -0.0175637  -0.0071980   0.0025295   0.0295939   0.0003005  -0.0067038
    3   0.0163941  -0.0770313   0.0062389  -0.0067806   0.0382151  -0.0237716
          127         128         129         130         131         132
    1  -0.0456843   0.0003434  -0.0164578  -0.0147048   0.0284955   0.0350276
    2   0.0146773  -0.0064310  -0.0214771  -0.0214046  -0.0125569   0.0386241
    3   0.0262386   0.0021876   0.0221086  -0.0213365  -0.0097402  -0.0967316
          133         134         135         136         137         138
    1   0.0026874   0.0137876  -0.0105961   0.0328139   0.0217658  -0.0008034
    2  -0.0065182  -0.0157671  -0.0144692   0.0038850   0.0522334  -0.0015438
    3  -0.0062433   0.0213684  -0.0269537  -0.0030778   0.0021646   0.0043298
          139         140         141         142         143         144
    1  -0.0247359  -0.0175285   0.0183319  -0.0745233   0.0079760   0.0079920
    2   0.0150437  -0.0273230   0.0035368  -0.0282754   0.0030543   0.0308077
    3   0.0103211  -0.0044937   0.0315028  -0.0760468  -0.0045153   0.0079766
          145         146         147         148         149         150
    1   0.0216755   0.0128804  -0.0230244  -0.0006925  -0.0323329   0.0252667
    2  -0.0232719  -0.0176587  -0.0463118   0.0046162   0.0061363   0.0236491
    3   0.0026397  -0.0296786   0.0051078  -0.0087196   0.0040045   0.0007513
          151         152         153         154         155         156
    1  -0.0046268   0.0097310  -0.0025153  -0.0194284   0.0304231  -0.0164465
    2  -0.0212656   0.0837891  -0.0080313   0.0009942  -0.0151717  -0.0163652
    3  -0.0254730   0.0699271  -0.0018450  -0.0296377   0.0034073   0.0219827
          157         158         159         160         161         162
    1  -0.0476555   0.0036348   0.0348583   0.0351220  -0.0182759   0.0651524
    2   0.0312948   0.0005106   0.0203010  -0.0135760   0.0108621  -0.0211899
    3   0.0034716  -0.0035531  -0.0007848  -0.0075494  -0.0262580   0.0857134
          163         164         165         166         167         168
    1  -0.0095709   0.0096963  -0.0212180  -0.0109843   0.0463891   0.0021480
    2   0.0025574   0.0186821  -0.0188501   0.0221667   0.0374093  -0.0058508
    3   0.0018027  -0.0175014  -0.0099457   0.0251007   0.0142639  -0.0035832
          169         170         171         172         173         174
    1  -0.0255734   0.0130633   0.0278131  -0.0481397  -0.0080735  -0.0303383
    2  -0.0201352   0.0130241  -0.0152071  -0.0541438   0.0011395  -0.0086295
    3   0.0013877  -0.0282951   0.0008222   0.0826307   0.0002677  -0.0127530
          175         176         177         178         179         180
    1  -0.0124575  -0.0053094   0.0415205  -0.0003541  -0.0132472  -0.0202468
    2  -0.0193065   0.0274948   0.0169436   0.0064213  -0.0155753   0.0238059
    3   0.0200152   0.0222093   0.0394382  -0.0071850  -0.0191200   0.0045694
          181         182         183         184         185         186
    1   0.0285251   0.0026978  -0.0005635   0.0022919  -0.0246565   0.0200002
    2   0.0169872  -0.0984084  -0.0089000   0.0171019  -0.0212217  -0.0240147
    3  -0.0070646  -0.0482737   0.0061323   0.0294524  -0.0032760  -0.0117537
          187         188         189         190         191         192
    1   0.0035439   0.0079567   0.0320079  -0.0072395  -0.0009949  -0.0895636
    2  -0.0172062   0.0005706  -0.0151829   0.0273019   0.0047018   0.0524847
    3  -0.0540269   0.0036572  -0.0104246  -0.0138589   0.0319471   0.0391248
          193         194         195         196         197         198
    1   0.0042734  -0.0242268   0.0293863   0.0101812   0.0313510  -0.0060609
    2   0.0030273  -0.0180019  -0.0068336   0.0347428  -0.0032906   0.0053049
    3   0.0108872   0.0196409   0.0089942   0.0003627  -0.0430426  -0.0006279
          199         200         201         202         203         204
    1   0.0124233  -0.0274285  -0.0128788  -0.0603837   0.0029223   0.0297891
    2   0.0312430  -0.0108611   0.0051741  -0.0799767   0.0071189   0.0023650
    3  -0.0113447  -0.0155282   0.0282292   0.0469619  -0.0046956   0.0151007
          205         206         207         208         209         210
    1  -0.0040675  -0.0159442   0.0289733   0.0074523  -0.0066727   0.0387022
    2  -0.0004102   0.0261431  -0.0031696  -0.0025598  -0.0010488   0.0042018
    3  -0.0335419   0.0041061   0.0621651  -0.0064753  -0.0319073   0.0063462
          211         212         213         214         215         216
    1  -0.0103370  -0.1078353  -0.0036239  -0.0231867   0.0152274  -0.0090462
    2  -0.0264645  -0.0060810   0.0025292   0.0235448   0.0181201  -0.0263057
    3   0.0078435  -0.0119099  -0.0110497   0.0096919  -0.0137740  -0.0220096
          217         218         219         220         221         222
    1  -0.0362504   0.0035851  -0.0233784   0.0245015   0.0128217   0.0919241
    2  -0.0233607   0.0066038   0.0214517  -0.0055525   0.0171812  -0.0516927
    3   0.0335350   0.0051466   0.0145963   0.0206308  -0.0183688  -0.0431212
          223         224         225         226         227         228
    1   0.0023969   0.0242354  -0.0190525  -0.0051618   0.0117521  -0.0034079
    2  -0.0031385   0.0109187   0.0145913  -0.0282861   0.0504952  -0.0118736
    3   0.0017277   0.0190346  -0.0039837   0.0176220  -0.0343799  -0.0086121
          229         230         231         232         233         234
    1   0.0065684  -0.0021449  -0.0281249   0.0845013  -0.0032511  -0.0337734
    2  -0.0048466  -0.0319319   0.0143759  -0.0618762   0.0037642  -0.0004041
    3  -0.0292867   0.0103814  -0.0014600   0.0367315   0.0107312  -0.0110239
          235         236         237         238         239         240
    1   0.0141899  -0.0026380  -0.0078233  -0.0056965  -0.0340016   0.0250176
    2   0.0049899   0.0293745  -0.0020857  -0.0078309  -0.0059833  -0.0208881
    3   0.0332321  -0.0081777  -0.0519201   0.0062417  -0.0118341   0.0048420
          241         242         243         244         245         246
    1   0.0014482   0.0955707  -0.0050585  -0.0315693   0.0125818   0.0144251
    2  -0.0016597  -0.0049135  -0.0063722   0.0046357  -0.0283200   0.0002428
    3   0.0339893   0.0532458   0.0085650   0.0027250  -0.0066613   0.0267707
          247         248         249         250         251         252
    1  -0.0205469   0.0000569   0.0080114   0.0156370  -0.0325216   0.1042561
    2   0.0536527  -0.0035841   0.0184460  -0.0277865   0.0003697  -0.0304107
    3   0.0070176  -0.0059406  -0.0244246   0.0054874  -0.0052336   0.0061983
          253         254         255         256         257         258
    1  -0.0122535   0.0106766  -0.0207122  -0.0284573   0.0315643   0.0038971
    2   0.0025962   0.0202892  -0.0290147   0.0168224   0.0562147  -0.0109098
    3  -0.0003156  -0.0194923   0.0072287   0.0131103   0.0116061   0.0030687
          259         260         261         262         263         264
    1   0.0256040   0.0153925  -0.0038270  -0.0528519   0.0047068  -0.0302660
    2   0.0096916  -0.0168848  -0.0354080  -0.0491911  -0.0007322  -0.0070430
    3  -0.0173896   0.0285339  -0.0066844   0.0842137  -0.0074803  -0.0114798
          265         266         267         268         269         270
    1   0.0279426   0.0196399  -0.0261912   0.0087606  -0.0037930   0.0035354
    2   0.0232620  -0.0180487   0.0340126  -0.0055084  -0.0093960  -0.0163581
    3   0.0021385  -0.0174083   0.0333868   0.0033325   0.0342621  -0.0283977
          271         272
    1   0.0213225  -0.0420506
    2   0.0241721  -0.0981078
    3   0.0074823  -0.0329447
  --- DONE ESP SUMMARY ---
Archival summary:
1\1\node007\SP\ProcedureUnspecified\6-31+G*\252550h22\ymao90\FriDec311:48:582021FriDec311:48:582021\0\\#,ProcedureUnspecified,6-31+G*,\\0,1\S\O,1,1.49751\C,1,1.80732,2,106.819\H,3,1.09263,1,108.405,2,-169.198,0\H,3,1.09287,1,112.859,2,-48.6652,0\H,3,1.09331,1,100.589,2,75.6451,0\C,1,1.80738,2,104.479,3,103.237,0\H,7,1.09247,1,108.12,2,65.649,0\H,7,1.0929,1,112.253,2,-175.918,0\H,7,1.09291,1,114.244,2,-57.1263,0\H,4,2.16812,3,132.698,1,-25.6648,0\C,11,1.09314,4,175.082,3,161.677,0\H,12,1.09204,11,107.13,4,159.617,0\H,12,1.09287,11,116.111,4,38.2624,0\S,12,1.807,11,108.275,4,-88.1892,0\O,15,1.49788,12,107.163,11,-37.263,0\C,15,1.80663,12,101.858,11,-145.155,0\H,17,1.09287,15,112.914,12,-55.5756,0\H,17,1.09288,15,116.841,12,70.6431,0\H,17,1.09362,15,110.843,12,-168.454,0\Gh,6,2.19852,3,152.966,1,-143.326,0\Gh,21,1.09625,6,157.1,3,-104.344,0\Gh,22,1.46202,21,111.753,6,-29.0545,0\Gh,23,1.01318,22,115.088,21,-178.029,0\Gh,23,1.37861,22,126.277,21,3.38847,0\Gh,25,1.10498,23,112.998,22,-177.892,0\Gh,25,1.21772,23,121.007,22,1.90099,0\Gh,22,1.53771,21,101.06,6,83.8137,0\Gh,28,1.09674,22,107.333,21,-55.0726,0\Gh,28,1.09716,22,105.547,21,-168.527,0\Gh,28,1.53777,22,117.544,21,68.4965,0\Gh,31,1.09733,28,107.386,22,-69.0075,0\Gh,31,1.09762,28,111.145,22,172.971,0\Gh,31,1.53676,28,110.708,22,43.5991,0\Gh,34,1.09651,31,110.898,28,81.2356,0\Gh,34,1.09754,31,107.413,28,-158.277,0\Gh,34,1.53752,31,116.566,28,-43.2689,0\Gh,37,1.09679,34,111.012,31,-64.7436,0\Gh,37,1.09726,34,112.351,31,-175.919,0\Gh,37,1.53716,34,110.71,31,50.7199,0\Gh,40,1.09653,37,120.323,34,177.213,0\Gh,40,1.09678,37,109.46,34,60.0665,0\H,19,2.22617,17,127.219,15,16.668,0\C,43,1.09296,19,99.8682,17,164.961,0\H,44,1.0928,43,108.095,19,-155.034,0\H,44,1.09286,43,112.877,19,-42.1551,0\S,44,1.80703,43,111.046,19,83.5813,0\O,47,1.49646,44,98.5545,43,95.885,0\C,47,1.8071,44,96.6726,43,-159.502,0\H,49,1.09291,47,108.153,44,83.5908,0\H,49,1.09294,47,106.488,44,-163.655,0\H,49,1.09325,47,113.693,44,-42.4669,0\O,41,2.2475,40,153.15,37,38.6575,0\S,53,1.49721,41,165.709,40,-83.2869,0\C,54,1.80712,53,102.229,41,138.389,0\H,55,1.09269,54,108.93,53,-176.766,0\H,55,1.0927,54,104.418,53,-65.1334,0\H,55,1.09323,54,112.607,53,58.7586,0\C,54,1.80721,53,102.815,41,-120.766,0\H,59,1.0924,54,105.095,53,71.0247,0\H,59,1.09303,54,113.478,53,179.485,0\H,59,1.09368,54,117.051,53,-43.789,0\H,62,2.1984,59,142.099,54,27.3172,0\C,63,1.09275,62,108.712,59,-162.263,0\H,64,1.09341,63,102.221,62,33.5341,0\H,64,1.09356,63,122.11,62,154.772,0\S,64,1.80734,63,100.65,62,-80.6318,0\O,67,1.49704,64,92.3617,63,59.6728,0\C,67,1.80609,64,97.0923,63,159.783,0\H,69,1.09293,67,103.337,64,-66.5851,0\H,69,1.09303,67,108.092,64,176.415,0\H,69,1.09319,67,109.2,64,56.7806,0\H,71,2.11836,69,110.729,67,-89.0282,0\C,73,1.09291,71,132.675,69,121.99,0\H,74,1.09284,73,114.784,71,52.081,0\H,74,1.0931,73,110.117,71,177.364,0\S,74,1.80705,73,104.473,71,-68.0212,0\O,77,1.49741,74,101.961,73,-67.1979,0\C,77,1.8072,74,94.154,73,-173.649,0\H,79,1.09247,77,110.975,74,178.463,0\H,79,1.09266,77,117.24,74,-59.6863,0\H,79,1.09355,77,109.551,74,62.1706,0\H,24,2.29328,23,98.7402,22,106.138,0\C,83,1.09286,24,151.928,23,-164.879,0\H,84,1.09306,83,107.479,24,-66.8891,0\H,84,1.09335,83,109.22,24,169.365,0\S,84,1.80665,83,107.888,24,60.9312,0\O,87,1.49694,84,108.825,83,166.62,0\C,87,1.80659,84,100.458,83,-80.1565,0\H,89,1.09233,87,108.898,84,-172.915,0\H,89,1.09304,87,116.5,84,61.5373,0\H,89,1.09366,87,102.434,84,-56.7822,0\O,91,2.27355,89,171.141,87,-117.703,0\S,93,1.49766,91,125.436,89,27.4881,0\C,94,1.80624,93,106.462,91,-99.8601,0\H,95,1.09267,94,104.406,93,-81.4475,0\H,95,1.09275,94,106.513,93,160.306,0\H,95,1.09339,94,113.811,93,41.439,0\C,94,1.80664,93,104.621,91,3.51707,0\H,99,1.09201,94,106.409,93,58.4452,0\H,99,1.09313,94,111.95,93,-53.1351,0\H,99,1.09379,94,115.952,93,-179.649,0\O,85,2.32979,84,174.484,83,-74.1875,0\S,103,1.49712,85,116.703,84,-98.1307,0\C,104,1.80681,103,96.382,85,-42.8717,0\H,105,1.09239,104,109.638,103,68.9399,0\H,105,1.09259,104,112.281,103,-171.945,0\H,105,1.09323,104,109.012,103,-59.749,0\C,104,1.80686,103,106.879,85,53.0929,0\H,109,1.09313,104,109.811,103,-36.2722,0\H,109,1.09328,104,108.396,103,85.266,0\H,109,1.09357,104,110.596,103,-146.781,0\O,13,2.42064,12,137.958,11,-135.42,0\S,113,1.49696,13,112.283,12,81.4424,0\C,114,1.80652,113,101.243,13,-170.881,0\H,115,1.09251,114,110.767,113,167.653,0\H,115,1.09323,114,111.263,113,-64.9311,0\H,115,1.09332,114,110.896,113,47.4288,0\C,114,1.80744,113,97.0636,13,-76.32,0\H,119,1.09218,114,103.403,113,-24.5874,0\H,119,1.09297,114,108.964,113,-138.623,0\H,119,1.09343,114,108.694,113,90.1467,0\H,2,2.43193,1,126.167,3,164.122,0\C,123,1.09202,2,149.51,1,73.2553,0\H,124,1.09308,123,111.373,2,172.604,0\H,124,1.09315,123,106.866,2,-67.3758,0\S,124,1.80686,123,104.35,2,54.4409,0\O,127,1.49725,124,105.853,123,177.2,0\C,127,1.80737,124,98.2162,123,71.4762,0\H,129,1.09216,127,114.165,124,-75.2105,0\H,129,1.09317,127,115.095,124,49.6961,0\H,129,1.09385,127,103.754,124,165.119,0\H,130,2.44319,129,154.885,127,29.1157,0\C,133,1.09276,130,121.231,129,-138.517,0\H,134,1.09295,133,102.443,130,137.18,0\H,134,1.09327,133,113.352,130,14.9186,0\S,134,1.80757,133,107.408,130,-106.907,0\O,137,1.49638,134,106.359,133,67.2441,0\C,137,1.80674,134,98.406,133,-53.1471,0\H,139,1.09292,137,106.006,134,177.907,0\H,139,1.09323,137,111.37,134,52.3304,0\H,139,1.09336,137,110.067,134,-70.3808,0\H,141,1.99461,139,143.345,137,-156.633,0\C,143,1.09219,141,133.96,139,68.793,0\H,144,1.0929,143,110.949,141,167.528,0\H,144,1.09367,143,117.461,141,41.1469,0\S,144,1.8072,143,106.424,141,-80.3167,0\O,147,1.4965,144,107.749,143,61.0042,0\C,147,1.8075,144,95.2065,143,169.845,0\H,149,1.09303,147,111.953,144,-97.0103,0\H,149,1.09307,147,115.102,144,29.7761,0\H,149,1.09352,147,105.109,144,149.641,0\H,140,2.22423,139,128.413,137,28.6186,0\C,153,1.09325,140,141.101,139,-143.782,0\H,154,1.09312,153,113.914,140,121.64,0\H,154,1.09354,153,109.424,140,-4.91304,0\S,154,1.80671,153,105.146,140,-124.444,0\O,157,1.49695,154,106.461,153,49.0368,0\C,157,1.80718,154,93.801,153,-50.8153,0\H,159,1.09258,157,112.941,154,50.8403,0\H,159,1.09317,157,104.223,154,165.955,0\H,159,1.09389,157,112.726,154,-79.6775,0\H,162,1.97625,159,130.409,157,-122.954,0\C,163,1.09314,162,148.644,159,-172.799,0\H,164,1.09277,163,112.625,162,-34.6851,0\H,164,1.09347,163,111.387,162,-155.551,0\S,164,1.80689,163,105.921,162,78.1187,0\O,167,1.49734,164,106.575,163,173.239,0\C,167,1.80738,164,96.1674,163,65.4032,0\H,169,1.09265,167,113.228,164,21.7441,0\H,169,1.09291,167,106.804,164,149.495,0\H,169,1.09294,167,110.322,164,-95.148,0\O,162,2.42811,159,140.13,157,67.2559,0\S,173,1.49677,162,99.9149,159,41.6752,0\C,174,1.80703,173,106.643,162,-143.742,0\H,175,1.09311,174,110.988,173,-48.2461,0\H,175,1.09343,174,99.1722,173,69.7947,0\H,175,1.09355,174,112.854,173,-177.434,0\C,174,1.80723,173,99.5282,162,117.188,0\H,179,1.09268,174,100.948,173,163.373,0\H,179,1.0928,174,112.796,173,45.0946,0\H,179,1.09294,174,111.173,173,-75.9494,0\H,170,2.45828,169,107.781,167,-140.003,0\C,183,1.09338,170,133.416,169,-113.821,0\H,184,1.09235,183,109.033,170,62.1381,0\H,184,1.09266,183,113.44,170,-54.1427,0\S,184,1.80714,183,104.005,170,-173.906,0\O,187,1.4978,184,95.2047,183,170.782,0\C,187,1.80666,184,93.6901,183,65.6842,0\H,189,1.09288,187,106.371,184,48.3151,0\H,189,1.09289,187,113.218,184,169.133,0\H,189,1.0931,187,107.359,184,-69.7849,0\H,185,2.46749,184,116.951,183,96.7714,0\C,193,1.0934,185,124.444,184,148.6,0\H,194,1.09267,193,101.258,185,-44.5508,0\H,194,1.09301,193,110.481,185,-166.093,0\S,194,1.80675,193,110.282,185,73.3137,0\O,197,1.49761,194,93.0051,193,-175.217,0\C,197,1.80713,194,102.843,193,-69.1289,0\H,199,1.09257,197,105.855,194,-39.2553,0\H,199,1.09273,197,109.615,194,86.6852,0\H,199,1.09319,197,100.156,194,-156.067,0\O,201,2.34946,199,128.955,197,97.4195,0\S,203,1.49707,201,134.897,199,-57.7663,0\C,204,1.80653,203,101.083,201,-157.68,0\H,205,1.09308,204,111.179,203,65.5017,0\H,205,1.09317,204,115.068,203,-57.8779,0\H,205,1.09341,204,110.902,203,179.065,0\C,204,1.80731,203,101.256,201,102.688,0\H,209,1.09278,204,112.584,203,163.537,0\H,209,1.0931,204,111.548,203,38.8195,0\H,209,1.09345,204,105.194,203,-76.2388,0\H,39,2.47187,37,143.752,34,138.523,0\C,213,1.09296,39,129.806,37,91.5685,0\H,214,1.09294,213,113.482,39,79.1746,0\H,214,1.09309,213,105.479,39,-34.4839,0\S,214,1.80667,213,105.257,39,-157.791,0\O,217,1.49686,214,98.6278,213,66.5158,0\C,217,1.80692,214,93.9189,213,-38.9924,0\H,219,1.09234,217,104.183,214,170.623,0\H,219,1.0933,217,110.013,214,-66.1867,0\H,219,1.09341,217,106.3,214,53.5558,0\H,215,2.09228,214,109.188,213,-149.66,0\C,223,1.09261,215,131.818,214,66.0181,0\H,224,1.09292,223,108.193,215,110.115,0\H,224,1.09316,223,123.109,215,-14.7347,0\S,224,1.8071,223,105.797,215,-139.375,0\O,227,1.49722,224,105.019,223,-112.567,0\C,227,1.80694,224,96.6781,223,-4.88516,0\H,229,1.09269,227,103.774,224,58.2614,0\H,229,1.09297,227,107.269,224,174.655,0\H,229,1.09316,227,111.3,224,-59.1129,0\H,215,2.09576,214,146.338,213,-39.588,0\C,233,1.09307,215,157.801,214,-118.308,0\H,234,1.09319,233,116.704,215,-93.6976,0\H,234,1.09368,233,107.919,215,33.6833,0\S,234,1.80623,233,102.092,215,144.246,0\O,237,1.4975,234,104.755,233,67.7605,0\C,237,1.80699,234,105.133,233,172.353,0\H,239,1.0925,237,112.834,234,-55.4653,0\H,239,1.09302,237,112.863,234,-168.368,0\H,239,1.09348,237,114.339,234,73.5783,0\O,32,2.51229,31,114.644,28,-122.167,0\S,243,1.49612,32,108.686,31,146.419,0\C,244,1.80635,243,99.0497,32,-174.863,0\H,245,1.09268,244,113.157,243,162.488,0\H,245,1.09348,244,108.281,243,-72.174,0\H,245,1.09356,244,110.991,243,39.0886,0\C,244,1.80696,243,97.8737,32,-77.894,0\H,249,1.09267,244,112.062,243,-175.877,0\H,249,1.09338,244,102.753,243,-49.7348,0\H,249,1.09377,244,115.753,243,67.5547,0\H,252,2.40516,249,147.835,244,155.75,0\C,253,1.09304,252,130.465,249,-30.6627,0\H,254,1.0933,253,111.637,252,-2.54864,0\H,254,1.09372,253,111.671,252,-128.822,0\S,254,1.80721,253,102.811,252,111.938,0\O,257,1.49634,254,99.7156,253,-57.6103,0\C,257,1.80781,254,96.2354,253,55.5939,0\H,259,1.09245,257,105.509,254,168.54,0\H,259,1.09284,257,114.704,254,49.5565,0\H,259,1.0931,257,108.518,254,-74.9138,0\O,260,2.22213,259,119.212,257,-62.5094,0\S,263,1.49728,260,123.531,259,-112.644,0\C,264,1.80673,263,107.305,260,-135.149,0\H,265,1.09281,264,104.83,263,67.8359,0\H,265,1.09287,264,110.407,263,-175.395,0\H,265,1.09317,264,98.9878,263,-61.1178,0\C,264,1.80675,263,104.086,260,-35.8988,0\H,269,1.09284,264,107.141,263,-172.12,0\H,269,1.09292,264,107.849,263,73.4438,0\H,269,1.09378,264,117.802,263,-52,0\\\@

 Total job time:  38.43s(wall), 136.88s(cpu) 
 Fri Dec  3 11:48:58 2021

        *************************************************************
        *                                                           *
        *  Thank you very much for using Q-Chem.  Have a nice day.  *
        *                                                           *
        *************************************************************


