                  Welcome to Q-Chem
     A Quantum Leap Into The Future Of Chemistry


 Q-Chem 5.2 (devel), Q-Chem, Inc., Pleasanton, CA (2019)

 Yihan Shao,  Zhengting Gan,  E. Epifanovsky,  A. T. B. Gilbert,  M. Wormit,  
 J. Kussmann,  A. W. Lange,  A. Behn,  Jia Deng,  Xintian Feng,  D. Ghosh,  
 M. Goldey,  P. R. Horn,  L. D. Jacobson,  I. Kaliman,  T. Kus,  A. Landau,  
 Jie Liu,  E. I. Proynov,  R. M. Richard,  R. P. Steele,  E. J. Sundstrom,  
 H. L. Woodcock III,  P. M. Zimmerman,  D. Zuev,  B. Alam,  B. Albrecht,  
 E. Alguire,  S. A. Baeppler,  D. Barton,  Z. Benda,  Y. A. Bernard,  
 E. J. Berquist,  K. B. Bravaya,  H. Burton,  K. Carter-Fenk,  D. Casanova,  
 Chun-Min Chang,  Yunqing Chen,  A. Chien,  K. D. Closser,  M. P. Coons,  
 S. Coriani,  S. Dasgupta,  A. L. Dempwolff,  M. Diedenhofen,  Hainam Do,  
 R. G. Edgar,  Po-Tung Fang,  S. Faraji,  S. Fatehi,  Qingguo Feng,  
 J. Fosso-Tande,  J. Gayvert,  Qinghui Ge,  A. Ghysels,  G. Gidofalvi,  
 J. Gomes,  J. Gonthier,  A. Gunina,  D. Hait,  M. W. D. Hanson-Heine,  
 P. H. P. Harbach,  A. W. Hauser,  M. F. Herbst,  J. E. Herr,  
 E. G. Hohenstein,  Z. C. Holden,  Kerwin Hui,  B. C. Huynh,  T.-C. Jagau,  
 Hyunjun Ji,  B. Kaduk,  K. Khistyaev,  Jaehoon Kim,  P. Klunzinger,  K. Koh,  
 D. Kosenkov,  L. Koulias,  T. Kowalczyk,  C. M. Krauter,  A. Kunitsa,  
 Ka Un Lao,  A. Laurent,  K. V. Lawler,  Joonho Lee,  D. Lefrancois,  
 S. Lehtola,  D. S. Levine,  Yi-Pei Li,  You-Sheng Lin,  Fenglai Liu,  
 Kuan-Yu Liu,  E. Livshits,  M. Loipersberger,  A. Luenser,  P. Manohar,  
 E. Mansoor,  S. F. Manzer,  Shan-Ping Mao,  Yuezhi Mao,  N. Mardirossian,  
 A. V. Marenich,  T. Markovich,  L. A. Martinez-Martinez,  S. A. Maurer,  
 N. J. Mayhall,  S. C. McKenzie,  J.-M. Mewes,  P. Morgante,  A. F. Morrison,  
 J. W. Mullinax,  K. Nanda,  T. S. Nguyen-Beck,  R. Olivares-Amaya,  
 J. A. Parkhill,  S. K. Paul,  F. Pavosevic,  Zheng Pei,  T. M. Perrine,  
 F. Plasser,  P. Pokhilko,  S. Prager,  A. Prociuk,  E. Ramos,  B. Rana,  
 D. R. Rehn,  F. Rob,  M. Scheurer,  M. Schneider,  N. Sergueev,  
 S. M. Sharada,  S. Sharma,  D. W. Small,  T. Stauch,  C. J. Stein,  
 T. Stein,  Yu-Chuan Su,  S. P. Veccham,  Zhen Tao,  A. J. W. Thom,  
 A. Tkatchenko,  T. Tsuchimochi,  N. M. Tubman,  L. Vogt,  M. L. Vidal,  
 O. Vydrov,  M. A. Watson,  J. Wenzel,  M. de Wergifosse,  T. A. Wesolowski,  
 A. White,  J. Witte,  A. Yamada,  Jun Yang,  K. Yao,  S. Yeganeh,  
 S. R. Yost,  Zhi-Qiang You,  A. Zech,  Igor Ying Zhang,  Xing Zhang,  
 Yan Zhao,  Ying Zhu,  B. R. Brooks,  G. K. L. Chan,  C. J. Cramer,  
 M. S. Gordon,  W. J. Hehre,  A. Klamt,  M. W. Schmidt,  C. D. Sherrill,  
 D. G. Truhlar,  A. Aspuru-Guzik,  R. Baer,  A. T. Bell,  N. A. Besley,  
 Jeng-Da Chai,  A. E. DePrince, III,  R. A. DiStasio Jr.,  A. Dreuw,  
 B. D. Dunietz,  T. R. Furlani,  Chao-Ping Hsu,  Yousung Jung,  Jing Kong,  
 D. S. Lambrecht,  WanZhen Liang,  C. Ochsenfeld,  V. A. Rassolov,  
 L. V. Slipchenko,  J. E. Subotnik,  T. Van Voorhis,  J. M. Herbert,  
 A. I. Krylov,  P. M. W. Gill,  M. Head-Gordon

 Contributors to earlier versions of Q-Chem not listed above: 
 R. D. Adamson,  B. Austin,  J. Baker,  G. J. O. Beran,  K. Brandhorst,  
 S. T. Brown,  E. F. C. Byrd,  A. K. Chakraborty,  C.-L. Cheng,  
 Siu Hung Chien,  D. M. Chipman,  D. L. Crittenden,  H. Dachsel,  
 R. J. Doerksen,  A. D. Dutoi,  L. Fusti-Molnar,  W. A. Goddard III,  
 A. Golubeva-Zadorozhnaya,  S. R. Gwaltney,  G. Hawkins,  A. Heyden,  
 S. Hirata,  G. Kedziora,  F. J. Keil,  C. Kelley,  Jihan Kim,  R. A. King,  
 R. Z. Khaliullin,  P. P. Korambath,  W. Kurlancheek,  A. M. Lee,  M. S. Lee,  
 S. V. Levchenko,  Ching Yeh Lin,  D. Liotard,  R. C. Lochan,  I. Lotan,  
 P. E. Maslen,  N. Nair,  D. P. O'Neill,  D. Neuhauser,  E. Neuscamman,  
 C. M. Oana,  R. Olson,  B. Peters,  R. Peverati,  P. A. Pieniazek,  
 Y. M. Rhee,  J. Ritchie,  M. A. Rohrdanz,  E. Rosta,  N. J. Russ,  
 H. F. Schaefer III,  N. E. Schultz,  N. Shenvi,  A. C. Simmonett,  A. Sodt,  
 D. Stuck,  K. S. Thanthiriwatte,  V. Vanovschi,  Tao Wang,  A. Warshel,  
 C. F. Williams,  Q. Wu,  X. Xu,  W. Zhang

 Please cite Q-Chem as follows:
 Y. Shao et al., Mol. Phys. 113, 184-215 (2015)
 DOI: 10.1080/00268976.2014.952696

 Q-Chem 5.2.2 for Intel X86 EM64T Linux

 Parts of Q-Chem use Armadillo 9.800.1 (Horizon Scraper).
 http://arma.sourceforge.net/

 Q-Chem begins on Fri Dec  3 19:45:31 2021  

Host: node029
0

     Scratch files written to /home/ymao90/scratch/r7.00_frame_0058_spade_B3LYP_dp20211203120852//

Checking the input file for inconsistencies... 	...done.

--------------------------------------------------------------
User input:
--------------------------------------------------------------
$molecule
0 1
--
0 1
C    25.05100   20.97100   26.61300  
C    25.50900   22.07100   27.58600  
C    26.92100   22.57000   27.23800  
C    27.04400   23.03800   25.77900  
C    26.63900   21.89200   24.83700  
C    25.24800   21.30300   25.12400  
H    27.13200   23.38300   27.94400  
H    24.84400   22.94300   27.57300  
H    25.72800   20.13700   26.83200  
H    24.02300   20.65700   26.82700  
H    26.38800   23.89000   25.56300  
H    28.06200   23.41800   25.62700  
H    26.52600   22.23100   23.80000  
H    27.46100   21.16600   24.83600  
H    24.48800   22.02300   24.79600  
H    25.11000   20.40000   24.51800  
H    27.74600   21.88100   27.45500  
N    25.51000   21.56200   28.95600  
H    26.08100   20.77400   29.23700  
C    25.23100   22.37500   30.03400  
H    25.27700   21.74800   30.94200  
O    24.91300   23.54500   29.91600  
--
0 1
C    25.83500   26.65900   27.51200  
H    26.25200   26.50700   28.51100  
H    26.27000   26.00900   26.74900  
H    25.89800   27.72900   27.30100  
S    24.14600   26.02600   27.63500  
C    23.81800   26.16800   25.86300  
H    24.63800   25.73600   25.28400  
H    22.91000   25.68600   25.49300  
H    23.72100   27.23000   25.62300  
O    23.46600   27.24500   28.17500  
C    21.32000   19.40600   18.71600  
H    22.27400   19.86500   18.44200  
H    21.00000   18.67000   17.97600  
H    20.52500   20.14300   18.85800  
S    21.29400   18.68700   20.37400  
C    22.72300   17.63000   20.05100  
H    23.53100   18.36600   20.07800  
H    22.76200   17.02800   20.96200  
H    22.75700   17.06200   19.11800  
O    20.14700   17.72500   20.34300  
C    21.89700   24.59200   34.74100  
H    22.07800   23.74000   34.08100  
H    21.24100   24.36000   35.58400  
H    21.40300   25.41500   34.21800  
S    23.32400   25.43400   35.46300  
C    23.97300   23.90100   36.16600  
H    24.26700   23.21300   35.36900  
H    24.87500   24.12900   36.74000  
H    23.23400   23.47700   36.85000  
O    22.77000   25.97300   36.74400  
C    30.60800   24.56100   29.59300  
H    29.70400   24.21600   30.10300  
H    31.20600   23.66000   29.43600  
H    31.21100   25.20400   30.23900  
S    30.21100   25.22700   27.96100  
C    31.68500   26.26800   27.87200  
H    31.88000   26.82500   28.79200  
H    32.52800   25.66000   27.53200  
H    31.47700   27.03100   27.11800  
O    29.19800   26.25400   28.36200  
C    32.25500   22.81500   32.42900  
H    31.85200   23.19900   31.48800  
H    32.24500   23.68200   33.09400  
H    33.25600   22.42700   32.22500  
S    31.17600   21.59100   33.20700  
C    32.17100   21.35700   34.69700  
H    31.79000   20.51400   35.27800  
H    33.16000   21.08900   34.31400  
H    32.24700   22.32600   35.19600  
O    31.75600   20.42400   32.47000  
C    31.66400   20.72100   26.56100  
H    32.47200   20.75900   25.82600  
H    32.05200   21.21400   27.45600  
H    31.34600   19.68600   26.71200  
S    30.35800   21.80100   25.93300  
C    30.29800   21.15800   24.24600  
H    30.13300   20.08000   24.31800  
H    29.42000   21.60300   23.77000  
H    31.30200   21.33000   23.84800  
O    31.17600   23.05500   25.89800  
C    23.34400   19.33000   33.31800  
H    23.47100   19.42900   34.39900  
H    22.84100   18.37800   33.13400  
H    24.26700   19.28000   32.73400  
S    22.49500   20.82700   32.76600  
C    22.17900   20.13300   31.12700  
H    21.37100   20.72800   30.69100  
H    23.03900   20.16000   30.45400  
H    21.84400   19.09300   31.15000  
O    23.56100   21.87400   32.67300  
C    28.98400   18.19500   29.51700  
H    29.48400   18.20800   30.48900  
H    28.07300   17.60300   29.63600  
H    29.57900   17.87400   28.65800  
S    28.12800   19.78600   29.47400  
C    29.39600   20.73400   30.34500  
H    30.28400   20.72300   29.70800  
H    29.12600   21.75700   30.62100  
H    29.54700   20.21000   31.29200  
O    27.05000   19.58100   30.49300  
C    23.42000   22.80500   19.04100  
H    22.45800   23.32000   18.97300  
H    24.02000   23.61900   18.62600  
H    23.52600   21.88800   18.45500  
S    23.79100   22.29300   20.73300  
C    25.50200   22.87100   20.66100  
H    25.92800   22.51200   21.60200  
H    26.06800   22.41300   19.84600  
H    25.52100   23.95400   20.52000  
O    23.94000   20.80500   20.67900  
C    27.67400   20.77000   33.99100  
H    27.04000   20.67400   33.10600  
H    27.67700   21.82300   34.28200  
H    28.70100   20.46700   33.77000  
S    27.01700   19.78700   35.35800  
C    25.62700   20.88500   35.71900  
H    25.12900   20.43500   36.58100  
H    26.01900   21.86600   35.99900  
H    24.93000   20.89200   34.87700  
O    28.01000   20.19300   36.40100  
C    18.04000   21.34100   20.16400  
H    17.52300   22.12800   19.60800  
H    18.14000   20.47400   19.50600  
H    17.42900   21.02300   21.01200  
S    19.60200   22.03800   20.74800  
C    19.08300   23.10400   22.11200  
H    18.24700   23.68500   21.71600  
H    18.76800   22.42900   22.91200  
H    19.89300   23.72600   22.50200  
O    20.14500   22.99100   19.72900  
C    25.54800   13.35000   23.59900  
H    24.61600   12.79100   23.72000  
H    26.06900   12.89000   22.75600  
H    26.14500   13.40900   24.51200  
S    25.11000   15.04500   23.15000  
C    24.06100   15.58500   24.51900  
H    23.88600   16.65900   24.41300  
H    23.07900   15.13300   24.36300  
H    24.51400   15.41700   25.50000  
O    24.16400   14.93200   21.99500  
C    19.07900   27.50000   23.72600  
H    19.83600   28.26700   23.53900  
H    18.78800   26.93100   22.83900  
H    18.17300   27.87700   24.20800  
S    19.83900   26.29200   24.83300  
C    20.64600   27.43900   25.97200  
H    21.08800   26.79700   26.73900  
H    21.35200   28.08900   25.44700  
H    19.87500   28.11300   26.35300  
O    20.97900   25.69400   24.06800  
C    26.02700   31.02300   23.97600  
H    26.39300   31.03900   22.94600  
H    25.41700   31.92000   24.11200  
H    26.90000   30.99800   24.63400  
S    24.78000   29.74300   24.24200  
C    24.46100   30.12800   25.97900  
H    25.36300   30.02300   26.58800  
H    23.98000   31.10000   26.10800  
H    23.73400   29.35700   26.24600  
O    25.55600   28.48400   24.47600  
C    29.17100   28.80600   25.66000  
H    28.71300   29.79800   25.66400  
H    28.63600   28.25800   26.44000  
H    30.25100   28.91700   25.78400  
S    28.90600   28.08400   24.02500  
C    28.81200   26.33600   24.47100  
H    28.43500   25.76100   23.62200  
H    29.82600   25.96500   24.63700  
H    28.09600   26.14500   25.27500  
O    30.22400   28.09400   23.31600  
C    26.18300   16.24500   31.39800  
H    26.23100   17.29400   31.09300  
H    27.09500   15.81200   31.81700  
H    25.92900   15.66300   30.50800  
S    24.83300   16.08300   32.58700  
C    25.06400   14.29300   32.48600  
H    26.04700   14.06100   32.90300  
H    24.30400   13.72000   33.02300  
H    25.00900   13.97100   31.44300  
O    23.65700   16.32400   31.69200  
C    21.96300   19.97100   23.66900  
H    22.16600   19.14900   22.97800  
H    21.27800   20.71300   23.24900  
H    22.78700   20.60600   24.00400  
S    21.15300   19.29200   25.13400  
C    20.04900   18.18300   24.23000  
H    20.52700   17.25500   23.90300  
H    19.27500   17.94600   24.96400  
H    19.61200   18.67800   23.35900  
O    20.23700   20.42800   25.46900  
C    25.74000   28.33000   36.47700  
H    24.76400   28.00500   36.84700  
H    26.50000   27.58200   36.71600  
H    25.99900   29.30800   36.89200  
S    25.63100   28.57500   34.69000  
C    23.89200   29.06000   34.75500  
H    23.31500   28.25500   35.21700  
H    23.80900   30.01300   35.28300  
H    23.47900   29.32400   33.77800  
O    25.47300   27.26200   33.98700  
C    29.80600   18.21400   21.70400  
H    29.16300   18.93600   22.21300  
H    30.04000   17.29600   22.24900  
H    30.61400   18.78900   21.24400  
S    28.77400   17.78900   20.28200  
C    28.27500   19.42200   19.69200  
H    28.04700   20.00200   20.59100  
H    29.14400   19.81400   19.15900  
H    27.37800   19.26400   19.08700  
O    27.53200   17.21300   20.88700  
C    28.14600   24.92300   20.30200  
H    28.63000   25.37500   19.43200  
H    27.50300   24.15700   19.86200  
H    27.46200   25.58100   20.84400  
S    29.10400   23.95800   21.49200  
C    30.77900   24.48600   21.06500  
H    30.89000   25.55800   21.25200  
H    31.48200   23.92600   21.68700  
H    30.97400   24.28800   20.00800  
O    29.08000   22.53100   21.04100  
C    21.41600   24.26900   31.00200  
H    21.08200   23.95000   31.99300  
H    20.52500   24.12700   30.38600  
H    22.29000   23.73700   30.61700  
S    21.69400   26.05300   31.07400  
C    23.35000   26.04200   31.79900  
H    23.30800   25.34600   32.64000  
H    24.10600   25.77500   31.05600  
H    23.46500   26.99700   32.31800  
O    20.82000   26.55600   32.18100  
C    28.52700   15.93500   25.51100  
H    29.46400   16.03800   24.95800  
H    28.79000   15.51100   26.48400  
H    27.78400   15.37700   24.93500  
S    27.76000   17.55200   25.75700  
C    27.19800   17.79000   24.05600  
H    26.69800   18.76200   24.08900  
H    28.02900   17.69000   23.35400  
H    26.44900   17.04800   23.76800  
O    28.90200   18.51500   25.86300  
C    17.15400   17.77700   28.68500  
H    16.58700   17.84400   27.75300  
H    18.04200   17.14000   28.64600  
H    16.49900   17.43300   29.49000  
S    17.63400   19.45600   29.14700  
C    18.13800   19.83800   27.45400  
H    18.83500   19.05900   27.13200  
H    17.23400   20.05400   26.87900  
H    18.77600   20.72500   27.46800  
O    18.96000   19.19900   29.79200  
C    18.79000   23.46900   26.03300  
H    18.45400   22.42900   26.06100  
H    17.97300   24.18500   25.91000  
H    19.52500   23.52400   25.22600  
S    19.70900   23.95400   27.51100  
C    21.19100   22.97400   27.18300  
H    21.04800   21.89600   27.28900  
H    21.67300   23.32200   26.26500  
H    21.90000   23.17600   27.99000  
O    18.99000   23.18500   28.57500  
C    21.68800   26.45900   20.41900  
H    21.26100   25.93500   19.56000  
H    20.96400   26.48300   21.23800  
H    21.82700   27.48900   20.08000  
S    23.25300   25.79700   21.03200  
C    23.70000   26.99500   22.30800  
H    23.04800   26.79100   23.16100  
H    24.76500   26.84500   22.50500  
H    23.64500   27.98600   21.85200  
O    24.24300   26.05900   19.93900  
C    34.32000   27.87000   22.34800  
H    34.47500   28.65400   23.09400  
H    35.19800   27.22900   22.23900  
H    34.04500   28.35700   21.40800  
S    33.00500   26.69600   22.74300  
C    33.02000   26.75000   24.54900  
H    32.71100   27.74400   24.88300  
H    32.27900   25.98000   24.77600  
H    34.06900   26.57200   24.80000  
O    33.52300   25.33200   22.40700  
C    27.85800   25.97600   32.00800  
H    28.65000   26.20400   31.29000  
H    26.90900   26.44000   31.72700  
H    28.18700   26.17200   33.03200  
S    27.57500   24.19400   31.91600  
C    26.43100   24.09800   33.31200  
H    25.94500   23.11900   33.29400  
H    27.02800   24.31400   34.20200  
H    25.72600   24.93200   33.27900  
O    28.82500   23.62000   32.50700  
C    21.88200   18.06400   28.39700  
H    22.11900   19.13000   28.43800  
H    20.97400   17.89900   27.81200  
H    21.74700   17.78200   29.44400  
S    23.40300   17.26100   27.84600  
C    24.35200   18.09200   29.14000  
H    25.40700   17.80900   29.14100  
H    24.34600   19.17400   28.98500  
H    23.90500   17.90600   30.12000  
O    23.66600   17.92400   26.53000  
C    32.01000   16.65800   26.22100  
H    31.84800   15.65800   26.63000  
H    32.88700   17.05800   26.73700  
H    31.10100   17.26100   26.29800  
S    32.60700   16.38300   24.53800  
C    32.67500   18.12800   24.07300  
H    32.65800   18.11400   22.98000  
H    31.99100   18.87900   24.47600  
H    33.60400   18.49700   24.51500  
O    31.64900   16.00800   23.45000  
$end

$rem
JOBTYPE  SP
METHOD  B3LYP
BASIS  6-31+G(D)
SYMMETRY  FALSE
SYM_IGNORE  TRUE
MEM_TOTAL  16000
MEM_STATIC  8000
MAX_SUB_FILE_NUM  16000
BASIS_LIN_DEP_THRESH  6
THRESH  14
SCF_CONVERGENCE  8
GEN_SCFMAN  TRUE
SCF_GUESS  SAD
FD_MAT_VEC_PROD  FALSE
XC_GRID  000075000302
NL_GRID  1
MAX_SCF_CYCLES  200
ENV_METHOD  B3LYP
GEN_SCFMAN_EMBED  TRUE
SPADE_PARTITION  TRUE
$end

$development
embedding_early_stop  1
$end

--------------------------------------------------------------
 ----------------------------------------------------------------
             Standard Nuclear Orientation (Angstroms)
    I     Atom           X                Y                Z
 ----------------------------------------------------------------
    1      C      25.0510000000    20.9710000000    26.6130000000
    2      C      25.5090000000    22.0710000000    27.5860000000
    3      C      26.9210000000    22.5700000000    27.2380000000
    4      C      27.0440000000    23.0380000000    25.7790000000
    5      C      26.6390000000    21.8920000000    24.8370000000
    6      C      25.2480000000    21.3030000000    25.1240000000
    7      H      27.1320000000    23.3830000000    27.9440000000
    8      H      24.8440000000    22.9430000000    27.5730000000
    9      H      25.7280000000    20.1370000000    26.8320000000
   10      H      24.0230000000    20.6570000000    26.8270000000
   11      H      26.3880000000    23.8900000000    25.5630000000
   12      H      28.0620000000    23.4180000000    25.6270000000
   13      H      26.5260000000    22.2310000000    23.8000000000
   14      H      27.4610000000    21.1660000000    24.8360000000
   15      H      24.4880000000    22.0230000000    24.7960000000
   16      H      25.1100000000    20.4000000000    24.5180000000
   17      H      27.7460000000    21.8810000000    27.4550000000
   18      N      25.5100000000    21.5620000000    28.9560000000
   19      H      26.0810000000    20.7740000000    29.2370000000
   20      C      25.2310000000    22.3750000000    30.0340000000
   21      H      25.2770000000    21.7480000000    30.9420000000
   22      O      24.9130000000    23.5450000000    29.9160000000
   23      C      25.8350000000    26.6590000000    27.5120000000
   24      H      26.2520000000    26.5070000000    28.5110000000
   25      H      26.2700000000    26.0090000000    26.7490000000
   26      H      25.8980000000    27.7290000000    27.3010000000
   27      S      24.1460000000    26.0260000000    27.6350000000
   28      C      23.8180000000    26.1680000000    25.8630000000
   29      H      24.6380000000    25.7360000000    25.2840000000
   30      H      22.9100000000    25.6860000000    25.4930000000
   31      H      23.7210000000    27.2300000000    25.6230000000
   32      O      23.4660000000    27.2450000000    28.1750000000
   33      C      21.3200000000    19.4060000000    18.7160000000
   34      H      22.2740000000    19.8650000000    18.4420000000
   35      H      21.0000000000    18.6700000000    17.9760000000
   36      H      20.5250000000    20.1430000000    18.8580000000
   37      S      21.2940000000    18.6870000000    20.3740000000
   38      C      22.7230000000    17.6300000000    20.0510000000
   39      H      23.5310000000    18.3660000000    20.0780000000
   40      H      22.7620000000    17.0280000000    20.9620000000
   41      H      22.7570000000    17.0620000000    19.1180000000
   42      O      20.1470000000    17.7250000000    20.3430000000
   43      C      21.8970000000    24.5920000000    34.7410000000
   44      H      22.0780000000    23.7400000000    34.0810000000
   45      H      21.2410000000    24.3600000000    35.5840000000
   46      H      21.4030000000    25.4150000000    34.2180000000
   47      S      23.3240000000    25.4340000000    35.4630000000
   48      C      23.9730000000    23.9010000000    36.1660000000
   49      H      24.2670000000    23.2130000000    35.3690000000
   50      H      24.8750000000    24.1290000000    36.7400000000
   51      H      23.2340000000    23.4770000000    36.8500000000
   52      O      22.7700000000    25.9730000000    36.7440000000
   53      C      30.6080000000    24.5610000000    29.5930000000
   54      H      29.7040000000    24.2160000000    30.1030000000
   55      H      31.2060000000    23.6600000000    29.4360000000
   56      H      31.2110000000    25.2040000000    30.2390000000
   57      S      30.2110000000    25.2270000000    27.9610000000
   58      C      31.6850000000    26.2680000000    27.8720000000
   59      H      31.8800000000    26.8250000000    28.7920000000
   60      H      32.5280000000    25.6600000000    27.5320000000
   61      H      31.4770000000    27.0310000000    27.1180000000
   62      O      29.1980000000    26.2540000000    28.3620000000
   63      C      32.2550000000    22.8150000000    32.4290000000
   64      H      31.8520000000    23.1990000000    31.4880000000
   65      H      32.2450000000    23.6820000000    33.0940000000
   66      H      33.2560000000    22.4270000000    32.2250000000
   67      S      31.1760000000    21.5910000000    33.2070000000
   68      C      32.1710000000    21.3570000000    34.6970000000
   69      H      31.7900000000    20.5140000000    35.2780000000
   70      H      33.1600000000    21.0890000000    34.3140000000
   71      H      32.2470000000    22.3260000000    35.1960000000
   72      O      31.7560000000    20.4240000000    32.4700000000
   73      C      31.6640000000    20.7210000000    26.5610000000
   74      H      32.4720000000    20.7590000000    25.8260000000
   75      H      32.0520000000    21.2140000000    27.4560000000
   76      H      31.3460000000    19.6860000000    26.7120000000
   77      S      30.3580000000    21.8010000000    25.9330000000
   78      C      30.2980000000    21.1580000000    24.2460000000
   79      H      30.1330000000    20.0800000000    24.3180000000
   80      H      29.4200000000    21.6030000000    23.7700000000
   81      H      31.3020000000    21.3300000000    23.8480000000
   82      O      31.1760000000    23.0550000000    25.8980000000
   83      C      23.3440000000    19.3300000000    33.3180000000
   84      H      23.4710000000    19.4290000000    34.3990000000
   85      H      22.8410000000    18.3780000000    33.1340000000
   86      H      24.2670000000    19.2800000000    32.7340000000
   87      S      22.4950000000    20.8270000000    32.7660000000
   88      C      22.1790000000    20.1330000000    31.1270000000
   89      H      21.3710000000    20.7280000000    30.6910000000
   90      H      23.0390000000    20.1600000000    30.4540000000
   91      H      21.8440000000    19.0930000000    31.1500000000
   92      O      23.5610000000    21.8740000000    32.6730000000
   93      C      28.9840000000    18.1950000000    29.5170000000
   94      H      29.4840000000    18.2080000000    30.4890000000
   95      H      28.0730000000    17.6030000000    29.6360000000
   96      H      29.5790000000    17.8740000000    28.6580000000
   97      S      28.1280000000    19.7860000000    29.4740000000
   98      C      29.3960000000    20.7340000000    30.3450000000
   99      H      30.2840000000    20.7230000000    29.7080000000
  100      H      29.1260000000    21.7570000000    30.6210000000
  101      H      29.5470000000    20.2100000000    31.2920000000
  102      O      27.0500000000    19.5810000000    30.4930000000
  103      C      23.4200000000    22.8050000000    19.0410000000
  104      H      22.4580000000    23.3200000000    18.9730000000
  105      H      24.0200000000    23.6190000000    18.6260000000
  106      H      23.5260000000    21.8880000000    18.4550000000
  107      S      23.7910000000    22.2930000000    20.7330000000
  108      C      25.5020000000    22.8710000000    20.6610000000
  109      H      25.9280000000    22.5120000000    21.6020000000
  110      H      26.0680000000    22.4130000000    19.8460000000
  111      H      25.5210000000    23.9540000000    20.5200000000
  112      O      23.9400000000    20.8050000000    20.6790000000
  113      C      27.6740000000    20.7700000000    33.9910000000
  114      H      27.0400000000    20.6740000000    33.1060000000
  115      H      27.6770000000    21.8230000000    34.2820000000
  116      H      28.7010000000    20.4670000000    33.7700000000
  117      S      27.0170000000    19.7870000000    35.3580000000
  118      C      25.6270000000    20.8850000000    35.7190000000
  119      H      25.1290000000    20.4350000000    36.5810000000
  120      H      26.0190000000    21.8660000000    35.9990000000
  121      H      24.9300000000    20.8920000000    34.8770000000
  122      O      28.0100000000    20.1930000000    36.4010000000
  123      C      18.0400000000    21.3410000000    20.1640000000
  124      H      17.5230000000    22.1280000000    19.6080000000
  125      H      18.1400000000    20.4740000000    19.5060000000
  126      H      17.4290000000    21.0230000000    21.0120000000
  127      S      19.6020000000    22.0380000000    20.7480000000
  128      C      19.0830000000    23.1040000000    22.1120000000
  129      H      18.2470000000    23.6850000000    21.7160000000
  130      H      18.7680000000    22.4290000000    22.9120000000
  131      H      19.8930000000    23.7260000000    22.5020000000
  132      O      20.1450000000    22.9910000000    19.7290000000
  133      C      25.5480000000    13.3500000000    23.5990000000
  134      H      24.6160000000    12.7910000000    23.7200000000
  135      H      26.0690000000    12.8900000000    22.7560000000
  136      H      26.1450000000    13.4090000000    24.5120000000
  137      S      25.1100000000    15.0450000000    23.1500000000
  138      C      24.0610000000    15.5850000000    24.5190000000
  139      H      23.8860000000    16.6590000000    24.4130000000
  140      H      23.0790000000    15.1330000000    24.3630000000
  141      H      24.5140000000    15.4170000000    25.5000000000
  142      O      24.1640000000    14.9320000000    21.9950000000
  143      C      19.0790000000    27.5000000000    23.7260000000
  144      H      19.8360000000    28.2670000000    23.5390000000
  145      H      18.7880000000    26.9310000000    22.8390000000
  146      H      18.1730000000    27.8770000000    24.2080000000
  147      S      19.8390000000    26.2920000000    24.8330000000
  148      C      20.6460000000    27.4390000000    25.9720000000
  149      H      21.0880000000    26.7970000000    26.7390000000
  150      H      21.3520000000    28.0890000000    25.4470000000
  151      H      19.8750000000    28.1130000000    26.3530000000
  152      O      20.9790000000    25.6940000000    24.0680000000
  153      C      26.0270000000    31.0230000000    23.9760000000
  154      H      26.3930000000    31.0390000000    22.9460000000
  155      H      25.4170000000    31.9200000000    24.1120000000
  156      H      26.9000000000    30.9980000000    24.6340000000
  157      S      24.7800000000    29.7430000000    24.2420000000
  158      C      24.4610000000    30.1280000000    25.9790000000
  159      H      25.3630000000    30.0230000000    26.5880000000
  160      H      23.9800000000    31.1000000000    26.1080000000
  161      H      23.7340000000    29.3570000000    26.2460000000
  162      O      25.5560000000    28.4840000000    24.4760000000
  163      C      29.1710000000    28.8060000000    25.6600000000
  164      H      28.7130000000    29.7980000000    25.6640000000
  165      H      28.6360000000    28.2580000000    26.4400000000
  166      H      30.2510000000    28.9170000000    25.7840000000
  167      S      28.9060000000    28.0840000000    24.0250000000
  168      C      28.8120000000    26.3360000000    24.4710000000
  169      H      28.4350000000    25.7610000000    23.6220000000
  170      H      29.8260000000    25.9650000000    24.6370000000
  171      H      28.0960000000    26.1450000000    25.2750000000
  172      O      30.2240000000    28.0940000000    23.3160000000
  173      C      26.1830000000    16.2450000000    31.3980000000
  174      H      26.2310000000    17.2940000000    31.0930000000
  175      H      27.0950000000    15.8120000000    31.8170000000
  176      H      25.9290000000    15.6630000000    30.5080000000
  177      S      24.8330000000    16.0830000000    32.5870000000
  178      C      25.0640000000    14.2930000000    32.4860000000
  179      H      26.0470000000    14.0610000000    32.9030000000
  180      H      24.3040000000    13.7200000000    33.0230000000
  181      H      25.0090000000    13.9710000000    31.4430000000
  182      O      23.6570000000    16.3240000000    31.6920000000
  183      C      21.9630000000    19.9710000000    23.6690000000
  184      H      22.1660000000    19.1490000000    22.9780000000
  185      H      21.2780000000    20.7130000000    23.2490000000
  186      H      22.7870000000    20.6060000000    24.0040000000
  187      S      21.1530000000    19.2920000000    25.1340000000
  188      C      20.0490000000    18.1830000000    24.2300000000
  189      H      20.5270000000    17.2550000000    23.9030000000
  190      H      19.2750000000    17.9460000000    24.9640000000
  191      H      19.6120000000    18.6780000000    23.3590000000
  192      O      20.2370000000    20.4280000000    25.4690000000
  193      C      25.7400000000    28.3300000000    36.4770000000
  194      H      24.7640000000    28.0050000000    36.8470000000
  195      H      26.5000000000    27.5820000000    36.7160000000
  196      H      25.9990000000    29.3080000000    36.8920000000
  197      S      25.6310000000    28.5750000000    34.6900000000
  198      C      23.8920000000    29.0600000000    34.7550000000
  199      H      23.3150000000    28.2550000000    35.2170000000
  200      H      23.8090000000    30.0130000000    35.2830000000
  201      H      23.4790000000    29.3240000000    33.7780000000
  202      O      25.4730000000    27.2620000000    33.9870000000
  203      C      29.8060000000    18.2140000000    21.7040000000
  204      H      29.1630000000    18.9360000000    22.2130000000
  205      H      30.0400000000    17.2960000000    22.2490000000
  206      H      30.6140000000    18.7890000000    21.2440000000
  207      S      28.7740000000    17.7890000000    20.2820000000
  208      C      28.2750000000    19.4220000000    19.6920000000
  209      H      28.0470000000    20.0020000000    20.5910000000
  210      H      29.1440000000    19.8140000000    19.1590000000
  211      H      27.3780000000    19.2640000000    19.0870000000
  212      O      27.5320000000    17.2130000000    20.8870000000
  213      C      28.1460000000    24.9230000000    20.3020000000
  214      H      28.6300000000    25.3750000000    19.4320000000
  215      H      27.5030000000    24.1570000000    19.8620000000
  216      H      27.4620000000    25.5810000000    20.8440000000
  217      S      29.1040000000    23.9580000000    21.4920000000
  218      C      30.7790000000    24.4860000000    21.0650000000
  219      H      30.8900000000    25.5580000000    21.2520000000
  220      H      31.4820000000    23.9260000000    21.6870000000
  221      H      30.9740000000    24.2880000000    20.0080000000
  222      O      29.0800000000    22.5310000000    21.0410000000
  223      C      21.4160000000    24.2690000000    31.0020000000
  224      H      21.0820000000    23.9500000000    31.9930000000
  225      H      20.5250000000    24.1270000000    30.3860000000
  226      H      22.2900000000    23.7370000000    30.6170000000
  227      S      21.6940000000    26.0530000000    31.0740000000
  228      C      23.3500000000    26.0420000000    31.7990000000
  229      H      23.3080000000    25.3460000000    32.6400000000
  230      H      24.1060000000    25.7750000000    31.0560000000
  231      H      23.4650000000    26.9970000000    32.3180000000
  232      O      20.8200000000    26.5560000000    32.1810000000
  233      C      28.5270000000    15.9350000000    25.5110000000
  234      H      29.4640000000    16.0380000000    24.9580000000
  235      H      28.7900000000    15.5110000000    26.4840000000
  236      H      27.7840000000    15.3770000000    24.9350000000
  237      S      27.7600000000    17.5520000000    25.7570000000
  238      C      27.1980000000    17.7900000000    24.0560000000
  239      H      26.6980000000    18.7620000000    24.0890000000
  240      H      28.0290000000    17.6900000000    23.3540000000
  241      H      26.4490000000    17.0480000000    23.7680000000
  242      O      28.9020000000    18.5150000000    25.8630000000
  243      C      17.1540000000    17.7770000000    28.6850000000
  244      H      16.5870000000    17.8440000000    27.7530000000
  245      H      18.0420000000    17.1400000000    28.6460000000
  246      H      16.4990000000    17.4330000000    29.4900000000
  247      S      17.6340000000    19.4560000000    29.1470000000
  248      C      18.1380000000    19.8380000000    27.4540000000
  249      H      18.8350000000    19.0590000000    27.1320000000
  250      H      17.2340000000    20.0540000000    26.8790000000
  251      H      18.7760000000    20.7250000000    27.4680000000
  252      O      18.9600000000    19.1990000000    29.7920000000
  253      C      18.7900000000    23.4690000000    26.0330000000
  254      H      18.4540000000    22.4290000000    26.0610000000
  255      H      17.9730000000    24.1850000000    25.9100000000
  256      H      19.5250000000    23.5240000000    25.2260000000
  257      S      19.7090000000    23.9540000000    27.5110000000
  258      C      21.1910000000    22.9740000000    27.1830000000
  259      H      21.0480000000    21.8960000000    27.2890000000
  260      H      21.6730000000    23.3220000000    26.2650000000
  261      H      21.9000000000    23.1760000000    27.9900000000
  262      O      18.9900000000    23.1850000000    28.5750000000
  263      C      21.6880000000    26.4590000000    20.4190000000
  264      H      21.2610000000    25.9350000000    19.5600000000
  265      H      20.9640000000    26.4830000000    21.2380000000
  266      H      21.8270000000    27.4890000000    20.0800000000
  267      S      23.2530000000    25.7970000000    21.0320000000
  268      C      23.7000000000    26.9950000000    22.3080000000
  269      H      23.0480000000    26.7910000000    23.1610000000
  270      H      24.7650000000    26.8450000000    22.5050000000
  271      H      23.6450000000    27.9860000000    21.8520000000
  272      O      24.2430000000    26.0590000000    19.9390000000
  273      C      34.3200000000    27.8700000000    22.3480000000
  274      H      34.4750000000    28.6540000000    23.0940000000
  275      H      35.1980000000    27.2290000000    22.2390000000
  276      H      34.0450000000    28.3570000000    21.4080000000
  277      S      33.0050000000    26.6960000000    22.7430000000
  278      C      33.0200000000    26.7500000000    24.5490000000
  279      H      32.7110000000    27.7440000000    24.8830000000
  280      H      32.2790000000    25.9800000000    24.7760000000
  281      H      34.0690000000    26.5720000000    24.8000000000
  282      O      33.5230000000    25.3320000000    22.4070000000
  283      C      27.8580000000    25.9760000000    32.0080000000
  284      H      28.6500000000    26.2040000000    31.2900000000
  285      H      26.9090000000    26.4400000000    31.7270000000
  286      H      28.1870000000    26.1720000000    33.0320000000
  287      S      27.5750000000    24.1940000000    31.9160000000
  288      C      26.4310000000    24.0980000000    33.3120000000
  289      H      25.9450000000    23.1190000000    33.2940000000
  290      H      27.0280000000    24.3140000000    34.2020000000
  291      H      25.7260000000    24.9320000000    33.2790000000
  292      O      28.8250000000    23.6200000000    32.5070000000
  293      C      21.8820000000    18.0640000000    28.3970000000
  294      H      22.1190000000    19.1300000000    28.4380000000
  295      H      20.9740000000    17.8990000000    27.8120000000
  296      H      21.7470000000    17.7820000000    29.4440000000
  297      S      23.4030000000    17.2610000000    27.8460000000
  298      C      24.3520000000    18.0920000000    29.1400000000
  299      H      25.4070000000    17.8090000000    29.1410000000
  300      H      24.3460000000    19.1740000000    28.9850000000
  301      H      23.9050000000    17.9060000000    30.1200000000
  302      O      23.6660000000    17.9240000000    26.5300000000
  303      C      32.0100000000    16.6580000000    26.2210000000
  304      H      31.8480000000    15.6580000000    26.6300000000
  305      H      32.8870000000    17.0580000000    26.7370000000
  306      H      31.1010000000    17.2610000000    26.2980000000
  307      S      32.6070000000    16.3830000000    24.5380000000
  308      C      32.6750000000    18.1280000000    24.0730000000
  309      H      32.6580000000    18.1140000000    22.9800000000
  310      H      31.9910000000    18.8790000000    24.4760000000
  311      H      33.6040000000    18.4970000000    24.5150000000
  312      O      31.6490000000    16.0080000000    23.4500000000
 ----------------------------------------------------------------
 Nuclear Repulsion Energy =       54035.93343419 hartrees
 There are      644 alpha and      644 beta electrons
 Requested basis set is 6-31+G(d)
 There are 1028 shells and 2865 basis functions

 Total QAlloc Memory Limit  16000 MB
 Mega-Array Size      7821 MB
 MEM_STATIC part      8000 MB
 A cutoff of  1.0D-14 yielded 192789 shell pairs
 There are   1692233 function pairs
 Smallest overlap matrix eigenvalue = 3.36E-07
 Linear dependence detected in AO basis
 Tighter screening thresholds may be required for diffuse basis sets
 Use S2THRESH > 14 and THRESH = 14 in case of SCF convergence issues
 Number of orthogonalized atomic orbitals = 2862
 Maximum deviation from orthogonality = 7.273E-11

 Scale SEOQF with 1.000000e-03/1.000000e-03/1.000000e-03

 Standard Electronic Orientation quadrupole field applied
 Nucleus-field energy     =    -0.0000002562 hartrees
 Guess from superposition of atomic densities
 Warning:  Energy on first SCF cycle will be non-variational
 SAD guess density has 1288.000002 electrons

 -----------------------------------------------------------------------
  General SCF calculation program by
  Eric Jon Sundstrom, Paul Horn, Yuezhi Mao, Dmitri Zuev, Alec White,
  David Stuck, Shaama M.S., Shane Yost, Joonho Lee, David Small,
  Daniel Levine, Susi Lehtola, Hugh Burton, Evgeny Epifanovsky,
  Bang C. Huynh
 -----------------------------------------------------------------------
=================================================
        Doing projection-based embedding         
      F. Manby et al. JCTC, 8, 2564 (2012)       
=================================================

****************************************************
   Low-level SCF calculation for the whole system   
****************************************************
----------------------------------------------
 Summary of the low-level theory: 
 Exchange:     0.2000 Hartree-Fock + 0.0800 Slater + 0.7200 B88
 Correlation:  0.1900 VWN1RPA + 0.8100 LYP
 Using Euler-Maclaurin-Lebedev (75,302) quadrature formula
----------------------------------------------
 using 16 threads for integral computing
 -------------------------------------------------------
 OpenMP Integral computing Module                
 Release: version 2.0, May 2017, Q-Chem Inc. Pleasanton 
 -------------------------------------------------------
 A restricted SCF calculation will be
 performed using DIIS
 SCF converges when DIIS error is below 1.0e-08
 ---------------------------------------
  Cycle       Energy         DIIS error
 ---------------------------------------
    1  -16467.6663291918      1.31e-02  
    2  -16441.9213596359      2.43e-03  
    3  -16429.4921406862      4.54e-03  
    4  -16446.3008637062      9.17e-04  
    5  -16447.0809320891      1.82e-04  
    6  -16447.1041597521      9.48e-05  
    7  -16447.1108402522      3.76e-05  
    8  -16447.1120171454      6.63e-06  
    9  -16447.1120557971      2.52e-06  
   10  -16447.1120608276      9.64e-07  
   11  -16447.1120615097      3.48e-07  
   12  -16447.1120616094      1.08e-07  
   13  -16447.1120616192      3.70e-08  
   14  -16447.1120616200      1.55e-08  
   15  -16447.1120616205      5.49e-09  Convergence criterion met
 ---------------------------------------
 SCF time:   CPU 223779.67s  wall 14143.00s 
 SCF   energy in the final basis set =   -16447.1120616205
 Total energy in the final basis set =   -16447.1120616205

****************************************************
             Start embedding calculation            
****************************************************
----------------------------------------------
 Summary of the high-level theory: 
 Exchange:     0.2000 Hartree-Fock + 0.0800 Slater + 0.7200 B88
 Correlation:  0.1900 VWN1RPA + 0.8100 LYP
 Using Euler-Maclaurin-Lebedev (75,302) quadrature formula
----------------------------------------------
Doing R-in-R Embedding Calculation
Number of fragments: 2
Embedded fragment(s): 1 
NOcc for each fragment
           35
          609
NBasis for each fragment
          197
         2668
Variational space of the embedded problem: 
NOcc (active)  = 35
NOcc (fixed)   = 609
NVir (total)   = 2218
Read converged orbitals from disk
=========================================================
       Doing SPADE partition for the orbital space       
     D. CLaudino and N. Mayhall JCTC 15, 1053 (2019)     
=========================================================
SPADE singular values:
 1.0000 1.0000 1.0000 1.0000 1.0000 1.0000 1.0000 1.0000 1.0000 0.9999
 0.9997 0.9997 0.9996 0.9996 0.9995 0.9993 0.9991 0.9991 0.9984 0.9971
 0.9968 0.9964 0.9961 0.9960 0.9954 0.9945 0.9944 0.9940 0.9927 0.9922
 0.9904 0.9884 0.9880 0.9846 0.9769 0.2321 0.2007 0.1842 0.1617 0.1555
 0.1424 0.1380 0.1324 0.1228 0.1167 0.1063 0.0972 0.0807 0.0760 0.0707
 0.0645 0.0600 0.0560 0.0543 0.0533 0.0461 0.0386 0.0351 0.0347 0.0331
 0.0301 0.0273 0.0264 0.0254 0.0248 0.0245 0.0227 0.0223 0.0203 0.0196
 0.0175 0.0167 0.0148 0.0142 0.0140 0.0126 0.0123 0.0113 0.0110 0.0101
 0.0098 0.0094 0.0088 0.0087 0.0083 0.0078 0.0074 0.0068 0.0065 0.0064
 0.0061 0.0056 0.0055 0.0054 0.0052 0.0048 0.0047 0.0045 0.0042 0.0041
 0.0039 0.0036 0.0036 0.0033 0.0031 0.0030 0.0027 0.0027 0.0025 0.0024
 0.0023 0.0022 0.0021 0.0020 0.0019 0.0019 0.0017 0.0016 0.0016 0.0016
 0.0015 0.0014 0.0014 0.0013 0.0013 0.0012 0.0012 0.0011 0.0011 0.0011
 0.0010 0.0010 0.0009 0.0009 0.0009 0.0008 0.0008 0.0008 0.0008 0.0007
 0.0007 0.0007 0.0006 0.0006 0.0006 0.0006 0.0005 0.0005 0.0005 0.0005
 0.0005 0.0004 0.0004 0.0004 0.0004 0.0004 0.0004 0.0003 0.0003 0.0003
 0.0003 0.0003 0.0003 0.0003 0.0003 0.0002 0.0002 0.0002 0.0002 0.0002
 0.0002 0.0002 0.0002 0.0002 0.0002 0.0002 0.0002 0.0002 0.0002 0.0001
 0.0001 0.0001 0.0001 0.0001 0.0001 0.0001 0.0001 0.0001 0.0001 0.0001
 0.0001 0.0001 0.0001 0.0001 0.0001 0.0001 0.0001
Early stop requested!
609 environment occs will be part of frozen-core in future post-HF calculations
 
 --------------------------------------------------------------
 
                    Orbital Energies (a.u.)
 --------------------------------------------------------------
 
 Alpha MOs
 -- Occupied --
 -0.5224  -0.4782  -0.4338  -0.4587  -0.4690  -0.4477  -0.4665  -0.4336
 -0.4736  -0.4849  -0.4379  -0.4483  -0.4612  -0.5107  -0.4632  -0.5120
 -0.4790  -0.5516  -0.5078  -0.4319  -0.6398  -0.5577  -0.5265  -0.4525
 -0.5468  -0.6949  -0.5654  -0.5697  -0.6121  -0.5601  -0.5476  -0.6345
 -0.5924  -0.5922  -0.6654  -0.5433  -0.5889  -0.6066  -0.6633  -0.5416
 -0.5479  -0.6235  -0.5736  -0.5089  -0.5475  -0.5561  -0.5289  -0.7221
 -0.5432  -0.5334  -0.6902  -0.5763  -0.5204  -0.6520  -0.5884  -0.6291
 -0.6672  -0.6374  -0.8356  -0.6914  -0.7193  -0.8573  -0.6631  -0.6823
 -0.7901  -0.6812  -0.7548  -0.7275  -0.9309  -1.0048  -0.7131  -1.2388
 -0.7667  -0.8011  -0.9375  -0.8162  -0.8564  -0.8796  -1.3378  -1.0740
 -0.9730  -1.2594  -1.0431  -0.9797  -1.1403  -0.8790  -0.9202  -0.8327
 -1.0439  -0.8119  -1.5825  -1.0551  -1.1441  -1.1010  -1.2340  -1.2642
 -0.9348  -0.9418  -1.0033  -2.1733  -2.3485  -1.6021  -1.5770  -1.3724
 -2.7833  -1.3769  -2.0113  -1.4470  -1.3738  -0.8384  -1.0871  -1.3436
 -1.3918  -1.4059  -1.1993  -2.0334  -1.1810  -1.4745  -1.0357  -0.9821
 -1.5560  -1.3431  -2.0212  -1.3353  -1.3962  -1.1092  -1.9172  -1.2554
 -1.0933  -1.4108  -1.8665  -1.6458  -1.6310  -1.3619  -1.9148  -1.6139
 -1.3383  -1.5492  -1.1729  -1.5332  -1.8321  -1.6128  -1.5031  -1.8123
 -1.5800  -1.3654  -1.5090  -1.5865  -1.6497  -1.4183  -1.9677  -1.5000
 -1.2491  -1.5606  -2.1457  -1.6865  -1.7527  -1.4337  -1.8970  -1.8985
 -1.5267  -2.2127  -6.1031  -5.9809  -5.9982  -5.9841  -5.9846  -5.9805
 -6.0131  -5.9730  -5.9815  -5.9941  -5.9929  -5.8715  -5.9807  -5.9872
 -5.9864  -6.0172  -5.9917  -5.9453  -5.9085  -5.9804  -5.9381  -5.9669
 -5.9347  -5.9891  -5.9203  -6.0253  -5.9857  -5.9890  -5.9887  -6.0361
 -5.9548  -5.9746  -5.9799  -5.9798  -5.9802  -5.9751  -5.9688  -5.9707
 -5.9841  -5.9708  -5.9829  -5.9096  -5.9565  -5.9264 -20.1466  -1.6403
 -3.1055  -2.3502  -1.8299 -14.7672 -43.9166  -6.8643 -12.6487  -1.5827
-32.7456  -9.6848  -1.4381  -4.3955  -2.3220  -7.9797  -2.1680  -6.6187
 -6.6921  -5.6530 -12.2420  -1.5083  -1.4755  -1.5761  -6.0886  -1.6911
 -1.3635  -1.9017  -1.6462  -3.2807 -73.8527 -78.9151  -2.1228  -1.7497
 -2.4836  -2.6087 -14.4996 -13.2727  -1.3525 -10.5915 -16.6924 -15.3957
 -1.0377  -6.5951  -1.6760  -4.3513  -1.8733  -1.9575  -4.9324  -4.1108
 -2.8760  -3.6441 -12.2303  -1.9094 -20.7582  -4.7834  -2.7607  -5.8253
 -2.3519  -1.2957  -6.9746  -1.6992  -1.9772 -76.1382 -74.6901  -2.2419
-10.4977  -1.1196  -4.5848 -10.2025  -7.8259 -13.4924  -2.0096  -7.2131
 -5.1016  -1.9446  -6.2235  -1.7403  -0.8354  -3.9082 -15.7333  -4.1552
 -9.8025 -17.9749  -2.5573  -7.4313  -4.6793  -6.9520  -5.6009  -1.3804
 -1.2529  -6.6705  -2.1312 -67.8912  -2.3021  -1.6059  -3.6960 -17.7325
-53.0255  -7.3484 -29.6254  -9.1668  -0.9691  -9.9954  -2.6280  -1.0868
 -5.6634  -1.9987 -13.8849  -8.3559  -2.0993  -4.7899  -3.6380  -9.8142
-11.0393  -3.9583  -0.9699  -5.1677  -7.2997  -0.9699  -2.7156 -59.8061
 -1.0914  -4.9080 -56.7688 -64.9339  -1.9170  -6.6972 -17.6704  -2.6567
 -4.2030  -1.2068  -7.0639  -1.7066  -4.7550  -5.5760 -12.7036  -2.0206
-26.5475  -1.9371  -4.9324  -7.3411  -5.5811  -6.1059  -7.4600  -1.9189
-13.7050 -24.9092  -4.2096  -8.7113 -14.2138  -4.7833 -10.3870 -10.7963
 -4.9693 -11.0937  -8.8173  -9.3061  -7.5704  -5.6251  -7.1761  -5.7048
 -8.1010  -7.4744 -10.9739  -9.8602 -13.3496  -9.1869 -13.0734  -6.4022
 -6.0484 -15.7954  -9.3947 -10.0874  -2.2835  -4.0737  -1.7746  -5.0704
 -8.7025  -5.8147  -6.8001  -7.3268  -8.2605  -7.8004  -4.2477 -11.8461
-11.2333 -13.6787  -5.6094  -7.9821  -6.5092  -3.3292  -6.0247  -3.5314
 -5.7996  -7.1018  -2.1987  -7.2251  -4.3894  -7.2300  -5.3885  -8.6922
 -6.5866 -42.9635  -3.7298 -20.2334  -6.7798  -2.4109  -3.1097 -44.2598
 -8.3555  -3.4619  -1.9632  -3.7050  -3.8043 -11.3724  -9.3021  -2.1362
 -4.2237  -8.7974  -2.5043  -2.9539  -2.8416  -5.5334 -11.5950  -1.4811
 -1.6031  -1.2665  -3.5964  -7.7420  -4.7289  -3.8948  -8.1944  -6.6774
 -8.9312  -1.7632  -5.6387  -2.3745  -4.0804  -6.3353 -16.5338  -3.3737
 -3.6920 -11.2735  -8.0969 -21.8768  -8.4519  -9.3253  -7.7393  -3.9392
-18.0420 -25.9950  -4.9786  -7.4110  -8.1046  -5.3807  -2.7113 -10.4737
-11.6782 -10.2865 -19.4879 -12.6585  -6.7090  -8.3757 -25.0797  -3.0206
 -3.7074  -2.6577  -8.1378  -1.7236  -2.7421  -8.5357 -16.2588  -5.0127
 -4.0424 -16.9476  -7.7909 -12.9338 -10.9678 -14.0273  -9.6242  -3.5645
-16.5477  -9.3139 -16.8687 -12.9020  -4.8307  -4.1579  -1.3502 -22.2180
 -2.7230  -4.4542  -6.5055  -2.6342  -3.3102  -2.2558  -4.8122 -26.7338
-10.7179  -5.0676 -10.7185  -3.0488 -16.8467  -8.9992 -47.9295  -5.3785
-15.6753  -4.7588 -42.9828 -17.6342 -10.1709 -17.6528  -4.3652  -6.4175
 -3.6511 -15.4838 -14.8125  -3.9897  -9.0669  -9.0663  -6.9524  -3.5697
 -2.3831  -6.7761  -3.0349 -12.1682  -7.2301 -35.5151  -9.4139 -34.5270
 -6.9278 -10.9455 -14.9227 -34.0244 -25.1577  -6.2519  -1.7962  -3.6220
 -3.8798 -72.3996  -5.5473 -79.3367 -81.1522 -16.9124  -4.8367  -9.6012
-11.2583  -4.8427  -5.2612  -7.7082  -2.0650 -27.6716 -21.5790  -5.8061
 -8.2422  -2.0360  -7.1440  -4.1802  -8.2595  -5.5484 -11.9118  -8.8826
 -4.3755 -30.1449  -5.8204  -5.0936  -9.4351 -22.8586 -43.0281  -9.2103
-10.9132  -8.9531  -3.2360  -8.9003 -42.1761 -25.8366  -9.8067  -3.1502
-18.4754 -39.0644  -2.9185  -7.6983 -50.4447  -6.3719  -8.2580  -8.3166
-10.3445 -15.5811 -11.2116 -13.9658 -11.5114 -11.0874 -17.5016  -5.8062
-15.5689 -19.3997  -8.6288  -8.2821  -3.8378  -2.5292  -7.1225  -8.2508
 -9.4980 -10.2242 -10.7148 -10.5431 -16.4530 -13.8504 -10.1742 -11.5698
-10.3128 -10.0879  -0.7854  -0.7515  -0.6854  -0.8092  -0.7011  -0.6275
 -0.5891  -0.8931  -0.5568  -0.4175  -0.3887  -0.4722  -0.4304  -0.4446
 -0.4242  -0.3915  -0.4281  -0.4796  -0.4566  -0.4705  -0.4148  -0.4379
 -0.5086  -0.4118  -0.5328  -0.5697
 -- Virtual --
 -0.0334  -0.0276  -0.0252  -0.0236  -0.0215  -0.0204  -0.0166  -0.0141
 -0.0129  -0.0119  -0.0103  -0.0097  -0.0086  -0.0079  -0.0073  -0.0048
 -0.0036  -0.0028  -0.0025  -0.0019   0.0003   0.0009   0.0014   0.0021
  0.0026   0.0032   0.0034   0.0040   0.0044   0.0057   0.0067   0.0072
  0.0077   0.0084   0.0086   0.0095   0.0100   0.0110   0.0113   0.0117
  0.0120   0.0130   0.0137   0.0150   0.0151   0.0152   0.0169   0.0172
  0.0178   0.0180   0.0189   0.0195   0.0204   0.0209   0.0216   0.0224
  0.0239   0.0242   0.0246   0.0254   0.0260   0.0267   0.0276   0.0279
  0.0285   0.0291   0.0291   0.0301   0.0303   0.0308   0.0310   0.0318
  0.0321   0.0332   0.0336   0.0341   0.0346   0.0348   0.0355   0.0360
  0.0371   0.0375   0.0384   0.0386   0.0393   0.0396   0.0403   0.0409
  0.0415   0.0420   0.0424   0.0436   0.0443   0.0445   0.0448   0.0461
  0.0470   0.0477   0.0482   0.0488   0.0491   0.0506   0.0508   0.0518
  0.0524   0.0524   0.0530   0.0536   0.0540   0.0545   0.0552   0.0558
  0.0563   0.0572   0.0578   0.0590   0.0593   0.0599   0.0600   0.0606
  0.0610   0.0614   0.0617   0.0620   0.0624   0.0634   0.0641   0.0647
  0.0651   0.0655   0.0655   0.0660   0.0672   0.0679   0.0686   0.0696
  0.0699   0.0704   0.0710   0.0713   0.0716   0.0729   0.0733   0.0735
  0.0740   0.0751   0.0755   0.0761   0.0764   0.0770   0.0780   0.0787
  0.0793   0.0811   0.0816   0.0817   0.0819   0.0832   0.0839   0.0843
  0.0853   0.0858   0.0863   0.0868   0.0873   0.0875   0.0880   0.0885
  0.0886   0.0898   0.0900   0.0909   0.0919   0.0922   0.0928   0.0933
  0.0938   0.0951   0.0958   0.0960   0.0969   0.0978   0.0984   0.0989
  0.0991   0.1002   0.1003   0.1006   0.1011   0.1016   0.1032   0.1034
  0.1037   0.1039   0.1050   0.1056   0.1059   0.1061   0.1071   0.1083
  0.1084   0.1090   0.1102   0.1102   0.1111   0.1116   0.1120   0.1122
  0.1130   0.1139   0.1141   0.1147   0.1153   0.1159   0.1163   0.1173
  0.1178   0.1184   0.1189   0.1195   0.1199   0.1207   0.1211   0.1221
  0.1223   0.1227   0.1240   0.1244   0.1246   0.1257   0.1262   0.1265
  0.1270   0.1275   0.1279   0.1285   0.1295   0.1302   0.1310   0.1315
  0.1324   0.1330   0.1334   0.1345   0.1346   0.1347   0.1356   0.1365
  0.1370   0.1376   0.1379   0.1384   0.1391   0.1396   0.1398   0.1400
  0.1407   0.1415   0.1419   0.1422   0.1432   0.1435   0.1436   0.1441
  0.1453   0.1464   0.1468   0.1469   0.1473   0.1488   0.1495   0.1500
  0.1504   0.1511   0.1515   0.1524   0.1529   0.1535   0.1543   0.1549
  0.1557   0.1562   0.1567   0.1571   0.1577   0.1584   0.1590   0.1592
  0.1606   0.1610   0.1619   0.1620   0.1623   0.1631   0.1635   0.1643
  0.1645   0.1651   0.1660   0.1661   0.1667   0.1672   0.1674   0.1679
  0.1690   0.1696   0.1700   0.1704   0.1710   0.1717   0.1722   0.1730
  0.1733   0.1737   0.1739   0.1750   0.1755   0.1757   0.1764   0.1772
  0.1778   0.1779   0.1789   0.1795   0.1801   0.1805   0.1810   0.1816
  0.1818   0.1820   0.1833   0.1834   0.1846   0.1850   0.1858   0.1865
  0.1866   0.1873   0.1875   0.1886   0.1895   0.1900   0.1905   0.1909
  0.1911   0.1921   0.1926   0.1935   0.1941   0.1946   0.1951   0.1953
  0.1963   0.1969   0.1978   0.1986   0.1991   0.1994   0.1999   0.2003
  0.2008   0.2009   0.2015   0.2022   0.2026   0.2030   0.2034   0.2039
  0.2042   0.2051   0.2055   0.2063   0.2074   0.2076   0.2085   0.2094
  0.2101   0.2108   0.2112   0.2118   0.2120   0.2129   0.2133   0.2140
  0.2147   0.2153   0.2167   0.2169   0.2178   0.2184   0.2191   0.2193
  0.2197   0.2204   0.2208   0.2211   0.2215   0.2228   0.2232   0.2236
  0.2239   0.2243   0.2248   0.2263   0.2268   0.2270   0.2277   0.2282
  0.2291   0.2298   0.2300   0.2310   0.2312   0.2323   0.2324   0.2328
  0.2337   0.2347   0.2354   0.2359   0.2362   0.2366   0.2368   0.2382
  0.2392   0.2398   0.2400   0.2410   0.2416   0.2418   0.2423   0.2432
  0.2440   0.2446   0.2450   0.2457   0.2462   0.2471   0.2472   0.2479
  0.2481   0.2487   0.2491   0.2504   0.2509   0.2516   0.2521   0.2531
  0.2535   0.2541   0.2547   0.2551   0.2558   0.2565   0.2572   0.2577
  0.2580   0.2586   0.2596   0.2602   0.2606   0.2612   0.2618   0.2626
  0.2630   0.2635   0.2644   0.2648   0.2655   0.2662   0.2666   0.2676
  0.2680   0.2689   0.2693   0.2703   0.2709   0.2713   0.2723   0.2732
  0.2738   0.2739   0.2747   0.2749   0.2759   0.2764   0.2771   0.2774
  0.2778   0.2792   0.2801   0.2805   0.2814   0.2816   0.2828   0.2830
  0.2846   0.2857   0.2860   0.2867   0.2873   0.2878   0.2886   0.2896
  0.2901   0.2903   0.2913   0.2921   0.2926   0.2932   0.2944   0.2957
  0.2962   0.2974   0.2977   0.2987   0.2995   0.2999   0.3007   0.3018
  0.3028   0.3030   0.3034   0.3048   0.3052   0.3060   0.3072   0.3081
  0.3085   0.3090   0.3100   0.3103   0.3114   0.3123   0.3129   0.3133
  0.3142   0.3151   0.3165   0.3168   0.3169   0.3170   0.3177   0.3190
  0.3209   0.3212   0.3218   0.3224   0.3237   0.3246   0.3253   0.3260
  0.3268   0.3272   0.3282   0.3289   0.3298   0.3301   0.3310   0.3313
  0.3327   0.3331   0.3342   0.3355   0.3364   0.3371   0.3376   0.3387
  0.3398   0.3403   0.3410   0.3413   0.3427   0.3434   0.3443   0.3457
  0.3462   0.3464   0.3472   0.3483   0.3492   0.3496   0.3503   0.3514
  0.3518   0.3524   0.3536   0.3544   0.3555   0.3559   0.3566   0.3570
  0.3581   0.3593   0.3601   0.3608   0.3616   0.3619   0.3627   0.3631
  0.3636   0.3640   0.3651   0.3659   0.3673   0.3678   0.3685   0.3691
  0.3694   0.3708   0.3710   0.3721   0.3732   0.3738   0.3751   0.3756
  0.3763   0.3775   0.3778   0.3783   0.3796   0.3806   0.3809   0.3818
  0.3828   0.3841   0.3850   0.3852   0.3863   0.3872   0.3887   0.3891
  0.3896   0.3904   0.3914   0.3919   0.3923   0.3931   0.3940   0.3948
  0.3958   0.3962   0.3968   0.3975   0.3987   0.4000   0.4001   0.4007
  0.4023   0.4032   0.4037   0.4047   0.4058   0.4072   0.4077   0.4079
  0.4088   0.4092   0.4110   0.4119   0.4125   0.4139   0.4145   0.4148
  0.4158   0.4169   0.4181   0.4184   0.4198   0.4199   0.4212   0.4225
  0.4229   0.4231   0.4242   0.4245   0.4255   0.4263   0.4273   0.4282
  0.4291   0.4299   0.4302   0.4317   0.4321   0.4338   0.4349   0.4359
  0.4365   0.4378   0.4391   0.4406   0.4409   0.4415   0.4422   0.4439
  0.4441   0.4458   0.4469   0.4476   0.4495   0.4504   0.4511   0.4522
  0.4526   0.4550   0.4560   0.4571   0.4572   0.4586   0.4605   0.4611
  0.4617   0.4627   0.4643   0.4657   0.4666   0.4676   0.4700   0.4706
  0.4711   0.4721   0.4723   0.4743   0.4749   0.4766   0.4777   0.4780
  0.4798   0.4805   0.4816   0.4835   0.4850   0.4866   0.4880   0.4883
  0.4888   0.4892   0.4907   0.4928   0.4947   0.4951   0.4962   0.4970
  0.4990   0.5005   0.5010   0.5029   0.5048   0.5057   0.5063   0.5073
  0.5088   0.5102   0.5116   0.5133   0.5141   0.5150   0.5160   0.5189
  0.5204   0.5215   0.5233   0.5240   0.5266   0.5288   0.5294   0.5315
  0.5318   0.5336   0.5345   0.5361   0.5368   0.5406   0.5414   0.5419
  0.5444   0.5469   0.5487   0.5503   0.5515   0.5534   0.5550   0.5563
  0.5574   0.5588   0.5607   0.5629   0.5631   0.5648   0.5663   0.5677
  0.5689   0.5698   0.5708   0.5718   0.5742   0.5756   0.5766   0.5784
  0.5794   0.5803   0.5817   0.5829   0.5857   0.5864   0.5876   0.5882
  0.5902   0.5909   0.5930   0.5940   0.5949   0.5969   0.5989   0.6008
  0.6025   0.6030   0.6047   0.6069   0.6084   0.6092   0.6112   0.6123
  0.6131   0.6149   0.6153   0.6161   0.6179   0.6198   0.6209   0.6215
  0.6228   0.6250   0.6260   0.6265   0.6281   0.6286   0.6303   0.6310
  0.6317   0.6335   0.6343   0.6357   0.6363   0.6370   0.6384   0.6399
  0.6400   0.6407   0.6428   0.6439   0.6449   0.6451   0.6474   0.6489
  0.6497   0.6515   0.6521   0.6527   0.6537   0.6545   0.6561   0.6578
  0.6591   0.6600   0.6605   0.6612   0.6625   0.6636   0.6647   0.6651
  0.6665   0.6668   0.6693   0.6699   0.6707   0.6711   0.6724   0.6734
  0.6742   0.6752   0.6762   0.6773   0.6777   0.6794   0.6796   0.6813
  0.6826   0.6828   0.6852   0.6858   0.6865   0.6878   0.6881   0.6887
  0.6912   0.6918   0.6920   0.6935   0.6953   0.6962   0.6972   0.6982
  0.6996   0.7000   0.7019   0.7020   0.7038   0.7045   0.7068   0.7073
  0.7082   0.7099   0.7105   0.7120   0.7124   0.7132   0.7143   0.7158
  0.7167   0.7180   0.7193   0.7204   0.7211   0.7235   0.7238   0.7250
  0.7252   0.7269   0.7271   0.7286   0.7295   0.7307   0.7316   0.7317
  0.7331   0.7337   0.7353   0.7379   0.7383   0.7390   0.7396   0.7412
  0.7425   0.7438   0.7448   0.7455   0.7458   0.7490   0.7504   0.7521
  0.7525   0.7545   0.7550   0.7564   0.7585   0.7614   0.7618   0.7624
  0.7634   0.7637   0.7651   0.7668   0.7673   0.7695   0.7711   0.7717
  0.7721   0.7737   0.7754   0.7771   0.7777   0.7798   0.7816   0.7836
  0.7840   0.7850   0.7856   0.7868   0.7888   0.7909   0.7938   0.7951
  0.7963   0.7980   0.7987   0.8005   0.8008   0.8028   0.8043   0.8051
  0.8060   0.8064   0.8100   0.8111   0.8137   0.8138   0.8153   0.8165
  0.8174   0.8185   0.8209   0.8215   0.8226   0.8238   0.8258   0.8266
  0.8275   0.8289   0.8301   0.8317   0.8325   0.8332   0.8340   0.8363
  0.8364   0.8382   0.8391   0.8402   0.8415   0.8421   0.8425   0.8442
  0.8456   0.8464   0.8475   0.8488   0.8508   0.8514   0.8529   0.8544
  0.8555   0.8562   0.8569   0.8595   0.8618   0.8630   0.8637   0.8646
  0.8662   0.8671   0.8680   0.8687   0.8700   0.8702   0.8716   0.8730
  0.8740   0.8753   0.8765   0.8782   0.8793   0.8809   0.8818   0.8828
  0.8834   0.8843   0.8862   0.8867   0.8875   0.8891   0.8902   0.8919
  0.8922   0.8935   0.8945   0.8965   0.8967   0.8983   0.8994   0.8998
  0.9017   0.9026   0.9038   0.9057   0.9063   0.9073   0.9086   0.9098
  0.9106   0.9118   0.9134   0.9154   0.9158   0.9165   0.9179   0.9195
  0.9203   0.9219   0.9231   0.9246   0.9266   0.9275   0.9280   0.9288
  0.9304   0.9311   0.9326   0.9336   0.9342   0.9367   0.9379   0.9386
  0.9397   0.9411   0.9426   0.9431   0.9448   0.9470   0.9471   0.9477
  0.9497   0.9504   0.9514   0.9534   0.9550   0.9557   0.9562   0.9571
  0.9584   0.9594   0.9604   0.9616   0.9621   0.9633   0.9636   0.9657
  0.9660   0.9674   0.9676   0.9689   0.9695   0.9706   0.9713   0.9733
  0.9736   0.9742   0.9753   0.9768   0.9770   0.9780   0.9792   0.9804
  0.9808   0.9818   0.9821   0.9844   0.9854   0.9867   0.9874   0.9876
  0.9884   0.9907   0.9910   0.9922   0.9928   0.9933   0.9938   0.9942
  0.9952   0.9967   0.9977   0.9983   0.9984   0.9997   1.0006   1.0012
  1.0027   1.0038   1.0048   1.0062   1.0068   1.0076   1.0084   1.0086
  1.0097   1.0103   1.0124   1.0131   1.0140   1.0148   1.0160   1.0171
  1.0175   1.0195   1.0202   1.0209   1.0229   1.0232   1.0239   1.0255
  1.0262   1.0268   1.0285   1.0293   1.0311   1.0323   1.0339   1.0351
  1.0355   1.0367   1.0373   1.0385   1.0405   1.0413   1.0418   1.0429
  1.0435   1.0437   1.0456   1.0465   1.0475   1.0485   1.0505   1.0513
  1.0522   1.0527   1.0539   1.0551   1.0559   1.0574   1.0595   1.0610
  1.0628   1.0633   1.0655   1.0668   1.0677   1.0682   1.0697   1.0710
  1.0721   1.0740   1.0742   1.0756   1.0769   1.0793   1.0803   1.0812
  1.0823   1.0836   1.0841   1.0862   1.0873   1.0881   1.0888   1.0898
  1.0911   1.0927   1.0937   1.0947   1.0958   1.0962   1.0982   1.0985
  1.1002   1.1021   1.1039   1.1043   1.1059   1.1076   1.1085   1.1110
  1.1117   1.1131   1.1154   1.1157   1.1165   1.1176   1.1189   1.1212
  1.1214   1.1235   1.1248   1.1260   1.1276   1.1288   1.1297   1.1320
  1.1327   1.1338   1.1348   1.1368   1.1375   1.1397   1.1402   1.1417
  1.1428   1.1437   1.1448   1.1453   1.1467   1.1476   1.1484   1.1491
  1.1502   1.1526   1.1537   1.1539   1.1563   1.1570   1.1576   1.1592
  1.1600   1.1602   1.1616   1.1627   1.1645   1.1662   1.1665   1.1684
  1.1701   1.1717   1.1741   1.1742   1.1755   1.1756   1.1777   1.1791
  1.1810   1.1818   1.1825   1.1837   1.1856   1.1860   1.1880   1.1888
  1.1901   1.1929   1.1949   1.1955   1.1972   1.1989   1.1995   1.2011
  1.2026   1.2030   1.2052   1.2063   1.2075   1.2107   1.2130   1.2145
  1.2158   1.2180   1.2189   1.2201   1.2211   1.2232   1.2244   1.2267
  1.2283   1.2292   1.2306   1.2316   1.2337   1.2347   1.2369   1.2386
  1.2396   1.2408   1.2428   1.2437   1.2478   1.2484   1.2509   1.2526
  1.2542   1.2562   1.2572   1.2603   1.2610   1.2623   1.2644   1.2667
  1.2688   1.2705   1.2727   1.2734   1.2760   1.2785   1.2811   1.2839
  1.2849   1.2869   1.2882   1.2898   1.2905   1.2922   1.2956   1.2963
  1.2987   1.3015   1.3041   1.3062   1.3084   1.3103   1.3114   1.3133
  1.3151   1.3164   1.3210   1.3217   1.3239   1.3279   1.3291   1.3300
  1.3308   1.3333   1.3345   1.3362   1.3396   1.3409   1.3428   1.3442
  1.3451   1.3479   1.3497   1.3510   1.3533   1.3550   1.3571   1.3588
  1.3615   1.3626   1.3635   1.3653   1.3682   1.3686   1.3716   1.3724
  1.3742   1.3781   1.3795   1.3806   1.3820   1.3829   1.3850   1.3855
  1.3881   1.3899   1.3923   1.3944   1.3955   1.3964   1.3971   1.3987
  1.4000   1.4024   1.4031   1.4049   1.4059   1.4063   1.4086   1.4094
  1.4105   1.4114   1.4125   1.4137   1.4144   1.4181   1.4184   1.4194
  1.4207   1.4209   1.4230   1.4247   1.4253   1.4274   1.4286   1.4293
  1.4324   1.4332   1.4351   1.4361   1.4374   1.4386   1.4393   1.4397
  1.4412   1.4437   1.4444   1.4465   1.4477   1.4500   1.4518   1.4532
  1.4542   1.4553   1.4574   1.4604   1.4621   1.4633   1.4650   1.4661
  1.4677   1.4698   1.4710   1.4729   1.4749   1.4762   1.4776   1.4781
  1.4811   1.4822   1.4835   1.4841   1.4868   1.4883   1.4914   1.4918
  1.4943   1.4955   1.4956   1.4975   1.5000   1.5022   1.5031   1.5045
  1.5069   1.5085   1.5107   1.5129   1.5137   1.5176   1.5183   1.5210
  1.5230   1.5243   1.5261   1.5273   1.5302   1.5317   1.5325   1.5349
  1.5357   1.5407   1.5434   1.5451   1.5473   1.5477   1.5502   1.5550
  1.5563   1.5592   1.5648   1.5672   1.5708   1.5721   1.5755   1.5772
  1.5787   1.5825   1.5833   1.5860   1.5894   1.5909   1.5938   1.5955
  1.5989   1.6013   1.6026   1.6109   1.6118   1.6121   1.6154   1.6172
  1.6218   1.6247   1.6304   1.6336   1.6370   1.6401   1.6463   1.6488
  1.6509   1.6543   1.6560   1.6574   1.6579   1.6605   1.6650   1.6681
  1.6689   1.6707   1.6711   1.6749   1.6755   1.6769   1.6780   1.6789
  1.6792   1.6805   1.6821   1.6845   1.6860   1.6881   1.6885   1.6896
  1.6905   1.6912   1.6928   1.6952   1.6963   1.6999   1.7001   1.7018
  1.7025   1.7029   1.7043   1.7060   1.7074   1.7076   1.7093   1.7101
  1.7116   1.7126   1.7128   1.7146   1.7156   1.7163   1.7185   1.7192
  1.7204   1.7211   1.7225   1.7238   1.7252   1.7263   1.7268   1.7278
  1.7282   1.7299   1.7306   1.7311   1.7327   1.7341   1.7359   1.7384
  1.7391   1.7411   1.7424   1.7447   1.7453   1.7465   1.7472   1.7496
  1.7501   1.7517   1.7530   1.7534   1.7560   1.7571   1.7589   1.7597
  1.7604   1.7629   1.7635   1.7650   1.7659   1.7662   1.7672   1.7685
  1.7708   1.7727   1.7738   1.7745   1.7754   1.7779   1.7794   1.7805
  1.7817   1.7823   1.7836   1.7866   1.7875   1.7877   1.7903   1.7915
  1.7952   1.7960   1.7970   1.7985   1.7986   1.8007   1.8027   1.8041
  1.8063   1.8076   1.8090   1.8108   1.8121   1.8172   1.8175   1.8205
  1.8246   1.8265   1.8291   1.8301   1.8372   1.8415   1.8430   1.8457
  1.8481   1.8498   1.8525   1.8550   1.8559   1.8581   1.8605   1.8614
  1.8631   1.8648   1.8666   1.8700   1.8726   1.8748   1.8770   1.8805
  1.8822   1.8839   1.8847   1.8861   1.8874   1.8885   1.8899   1.8908
  1.8917   1.8938   1.8944   1.8961   1.8972   1.8987   1.8996   1.8997
  1.9012   1.9022   1.9033   1.9044   1.9045   1.9079   1.9087   1.9090
  1.9104   1.9120   1.9130   1.9136   1.9149   1.9172   1.9182   1.9193
  1.9206   1.9220   1.9226   1.9235   1.9262   1.9276   1.9289   1.9295
  1.9302   1.9320   1.9328   1.9351   1.9361   1.9368   1.9383   1.9389
  1.9403   1.9411   1.9419   1.9431   1.9442   1.9469   1.9482   1.9503
  1.9525   1.9545   1.9561   1.9569   1.9607   1.9616   1.9647   1.9703
  1.9736   1.9751   1.9807   1.9830   1.9861   1.9916   1.9932   1.9969
  2.0019   2.0067   2.0115   2.0198   2.0260   2.0311   2.0436   2.0451
  2.0463   2.0506   2.0535   2.0557   2.0576   2.0601   2.0618   2.0673
  2.0693   2.0706   2.0724   2.0742   2.0755   2.0758   2.0773   2.0780
  2.0782   2.0787   2.0793   2.0809   2.0818   2.0824   2.0837   2.0852
  2.0860   2.0871   2.0887   2.0899   2.0910   2.0929   2.0933   2.0942
  2.0959   2.0968   2.0979   2.0986   2.1007   2.1013   2.1031   2.1047
  2.1058   2.1081   2.1087   2.1104   2.1110   2.1137   2.1149   2.1167
  2.1179   2.1203   2.1229   2.1268   2.1275   2.1294   2.1325   2.1343
  2.1367   2.1379   2.1416   2.1442   2.1453   2.1489   2.1523   2.1558
  2.1595   2.1636   2.1641   2.1662   2.1736   2.1746   2.1779   2.1800
  2.1836   2.1882   2.1913   2.1942   2.1977   2.1983   2.2039   2.2082
  2.2099   2.2108   2.2148   2.2158   2.2195   2.2208   2.2218   2.2224
  2.2248   2.2254   2.2262   2.2271   2.2287   2.2303   2.2306   2.2330
  2.2341   2.2349   2.2361   2.2364   2.2394   2.2396   2.2419   2.2440
  2.2447   2.2453   2.2459   2.2465   2.2478   2.2483   2.2488   2.2500
  2.2504   2.2511   2.2519   2.2529   2.2539   2.2548   2.2573   2.2584
  2.2588   2.2597   2.2608   2.2615   2.2624   2.2634   2.2643   2.2646
  2.2655   2.2663   2.2666   2.2677   2.2682   2.2701   2.2716   2.2723
  2.2736   2.2745   2.2753   2.2763   2.2768   2.2775   2.2778   2.2797
  2.2803   2.2811   2.2824   2.2839   2.2844   2.2857   2.2862   2.2871
  2.2878   2.2899   2.2903   2.2912   2.2928   2.2932   2.2938   2.2952
  2.2956   2.2965   2.2972   2.2989   2.3005   2.3010   2.3013   2.3021
  2.3032   2.3038   2.3045   2.3062   2.3068   2.3080   2.3088   2.3093
  2.3110   2.3123   2.3138   2.3142   2.3148   2.3151   2.3158   2.3170
  2.3175   2.3186   2.3201   2.3209   2.3219   2.3222   2.3236   2.3246
  2.3253   2.3266   2.3272   2.3283   2.3294   2.3297   2.3313   2.3321
  2.3330   2.3336   2.3355   2.3366   2.3389   2.3422   2.3440   2.3448
  2.3457   2.3462   2.3475   2.3483   2.3489   2.3513   2.3527   2.3541
  2.3561   2.3566   2.3589   2.3607   2.3613   2.3651   2.3672   2.3677
  2.3693   2.3722   2.3748   2.3785   2.3814   2.3822   2.3860   2.3895
  2.3900   2.3930   2.3951   2.3982   2.3985   2.4014   2.4041   2.4099
  2.4126   2.4145   2.4151   2.4170   2.4220   2.4248   2.4310   2.4596
  2.5022   2.5043   2.5257   2.5534   2.6190   2.6884   2.7347   2.7832
  2.7899   2.8117   2.8176   2.8220   2.8297   2.8347   2.8381   2.8441
  2.8495   2.8501   2.8509   2.8553   2.8557   2.8590   2.8626   2.8633
  2.8650   2.8677   2.8695   2.8703   2.8722   2.8735   2.8769   2.8783
  2.8804   2.8830   2.8840   2.8875   2.8889   2.8924   2.8933   2.8975
  2.9045   2.9098   2.9786   3.1117   3.2583   3.9515   3.9592   3.9610
  3.9688   3.9712   3.9776   3.9783   3.9789   3.9811   3.9882   3.9911
  3.9936   3.9972   3.9990   4.0001   4.0060   4.0079   4.0101   4.0120
  4.0160   4.0188   4.0218   4.0256   4.0285   4.0315   4.0371   4.0405
  4.0420   4.0518   4.2224   4.2337   4.2394   4.2414   4.2436   4.2467
  4.2506   4.2515   4.2528   4.2538   4.2559   4.2572   4.2690   4.2706
  4.2771   4.2775   4.2787   4.2815   4.2829   4.2832   4.2852   4.2860
  4.2885   4.2898   4.2912   4.2943   4.2981   4.2999   4.3010   4.3028
  4.3057   4.3060   4.3076   4.3094   4.3121   4.3143   4.3160   4.3180
  4.3187   4.3220   4.3286   4.3294   4.3330   4.3345   4.3381   4.3388
  4.3443   4.3444   4.3477   4.3505   4.3554   4.3566   4.3586   4.3611
  4.3652   4.3683   4.3704   4.3728   4.3745   4.3798   4.3817   4.3867
  4.3894   4.3910   4.3962   4.3983   4.4033   4.4054   4.4096   4.4162
  4.4190   4.4256   4.4281   4.4375   4.4447   4.4479   4.4515   4.4847
  4.5048   4.5111   4.5122   4.5218   4.5285   4.5326   4.5415   4.5549
  4.5659   4.5805   4.5928   4.6126   4.6417   4.6917   4.7086   4.7555
  4.7750   4.9596
 --------------------------------------------------------------
 
          Ground-State Mulliken Net Atomic Charges

     Atom                 Charge (a.u.)
  ----------------------------------------
      1 C                     0.165275
      2 C                    -0.291892
      3 C                    -0.310988
      4 C                    -0.272295
      5 C                    -0.955835
      6 C                    -1.042681
      7 H                     0.241862
      8 H                     0.235009
      9 H                     0.221105
     10 H                     0.234660
     11 H                     0.185082
     12 H                     0.213390
     13 H                     0.196755
     14 H                     0.220531
     15 H                     0.198056
     16 H                     0.219294
     17 H                     0.234029
     18 N                     0.164930
     19 H                     0.404438
     20 C                    -0.399084
     21 H                     0.215204
     22 O                    -0.175643
     23 C                    -0.858532
     24 H                     0.285880
     25 H                     0.208562
     26 H                     0.257773
     27 S                     1.052604
     28 C                    -1.244662
     29 H                     0.241995
     30 H                     0.303011
     31 H                     0.256314
     32 O                    -0.621138
     33 C                    -0.892828
     34 H                     0.243464
     35 H                     0.257841
     36 H                     0.218386
     37 S                     0.792040
     38 C                    -0.763813
     39 H                     0.282645
     40 H                     0.264082
     41 H                     0.243892
     42 O                    -0.675240
     43 C                    -0.993287
     44 H                     0.262350
     45 H                     0.263985
     46 H                     0.313081
     47 S                     1.065931
     48 C                    -0.875612
     49 H                     0.238705
     50 H                     0.239940
     51 H                     0.258923
     52 O                    -0.736546
     53 C                    -1.134034
     54 H                     0.278948
     55 H                     0.238255
     56 H                     0.252753
     57 S                     1.296313
     58 C                    -0.949373
     59 H                     0.251779
     60 H                     0.256494
     61 H                     0.252383
     62 O                    -0.690657
     63 C                    -0.870674
     64 H                     0.251712
     65 H                     0.233065
     66 H                     0.259603
     67 S                     1.057652
     68 C                    -0.877582
     69 H                     0.265614
     70 H                     0.253080
     71 H                     0.222354
     72 O                    -0.725042
     73 C                    -1.101421
     74 H                     0.256947
     75 H                     0.260387
     76 H                     0.253152
     77 S                     1.018803
     78 C                    -1.062072
     79 H                     0.296784
     80 H                     0.288638
     81 H                     0.263121
     82 O                    -0.578031
     83 C                    -0.872398
     84 H                     0.235334
     85 H                     0.289042
     86 H                     0.265984
     87 S                     0.739105
     88 C                    -0.794892
     89 H                     0.309429
     90 H                     0.283480
     91 H                     0.274751
     92 O                    -0.661505
     93 C                    -0.858614
     94 H                     0.272171
     95 H                     0.242454
     96 H                     0.258013
     97 S                     0.662798
     98 C                    -0.833976
     99 H                     0.253181
    100 H                     0.303751
    101 H                     0.287265
    102 O                    -0.554933
    103 C                    -1.061090
    104 H                     0.302259
    105 H                     0.280664
    106 H                     0.249586
    107 S                     0.959945
    108 C                    -0.761089
    109 H                     0.242125
    110 H                     0.273615
    111 H                     0.264622
    112 O                    -0.724259
    113 C                    -0.883051
    114 H                     0.267364
    115 H                     0.278334
    116 H                     0.243707
    117 S                     1.000236
    118 C                    -0.935408
    119 H                     0.252050
    120 H                     0.260968
    121 H                     0.248169
    122 O                    -0.739264
    123 C                    -0.972984
    124 H                     0.254747
    125 H                     0.278568
    126 H                     0.246413
    127 S                     0.892930
    128 C                    -0.899472
    129 H                     0.235588
    130 H                     0.255559
    131 H                     0.307331
    132 O                    -0.657922
    133 C                    -0.822208
    134 H                     0.252980
    135 H                     0.267496
    136 H                     0.209230
    137 S                     0.848708
    138 C                    -0.906067
    139 H                     0.304053
    140 H                     0.256101
    141 H                     0.233025
    142 O                    -0.662336
    143 C                    -0.786380
    144 H                     0.250556
    145 H                     0.256777
    146 H                     0.252578
    147 S                     0.385029
    148 C                    -0.554343
    149 H                     0.299374
    150 H                     0.249280
    151 H                     0.247822
    152 O                    -0.658458
    153 C                    -0.805371
    154 H                     0.264821
    155 H                     0.226412
    156 H                     0.251650
    157 S                     0.810220
    158 C                    -0.759518
    159 H                     0.261946
    160 H                     0.231026
    161 H                     0.276530
    162 O                    -0.674655
    163 C                    -0.885213
    164 H                     0.227401
    165 H                     0.300472
    166 H                     0.246769
    167 S                     0.863184
    168 C                    -0.969064
    169 H                     0.261570
    170 H                     0.271107
    171 H                     0.259558
    172 O                    -0.663630
    173 C                    -0.903148
    174 H                     0.291847
    175 H                     0.234878
    176 H                     0.260457
    177 S                     1.110587
    178 C                    -0.891715
    179 H                     0.230582
    180 H                     0.252788
    181 H                     0.252885
    182 O                    -0.759760
    183 C                    -0.649160
    184 H                     0.248182
    185 H                     0.281390
    186 H                     0.262332
    187 S                     0.590068
    188 C                    -0.870527
    189 H                     0.261401
    190 H                     0.239646
    191 H                     0.278971
    192 O                    -0.670627
    193 C                    -0.821979
    194 H                     0.286537
    195 H                     0.252901
    196 H                     0.236674
    197 S                     0.931532
    198 C                    -0.858067
    199 H                     0.286347
    200 H                     0.223663
    201 H                     0.259085
    202 O                    -0.739464
    203 C                    -0.778605
    204 H                     0.242169
    205 H                     0.312383
    206 H                     0.235014
    207 S                     0.645232
    208 C                    -0.719050
    209 H                     0.265222
    210 H                     0.240811
    211 H                     0.259606
    212 O                    -0.711808
    213 C                    -1.056142
    214 H                     0.253561
    215 H                     0.266240
    216 H                     0.261511
    217 S                     1.348386
    218 C                    -1.039228
    219 H                     0.260762
    220 H                     0.291994
    221 H                     0.247229
    222 O                    -0.697090
    223 C                    -0.962792
    224 H                     0.263551
    225 H                     0.291506
    226 H                     0.277540
    227 S                     0.748503
    228 C                    -0.825533
    229 H                     0.251725
    230 H                     0.264005
    231 H                     0.280436
    232 O                    -0.669826
    233 C                    -0.890631
    234 H                     0.302744
    235 H                     0.243546
    236 H                     0.235865
    237 S                     0.642775
    238 C                    -0.690227
    239 H                     0.257387
    240 H                     0.281644
    241 H                     0.246384
    242 O                    -0.659664
    243 C                    -0.861338
    244 H                     0.228939
    245 H                     0.264646
    246 H                     0.236257
    247 S                     1.057912
    248 C                    -0.832182
    249 H                     0.235616
    250 H                     0.207505
    251 H                     0.313824
    252 O                    -0.783308
    253 C                    -0.896748
[...]
    1  -0.0088476   0.0282916  -0.0122785   0.0949383   0.0057680   0.0136026
    2  -0.0137600  -0.0106392  -0.0062680   0.0003108   0.0055481   0.0339531
    3  -0.0278325   0.0110000   0.0286147  -0.0555575  -0.0082803  -0.0044360
          175         176         177         178         179         180
    1   0.0333650  -0.0124665   0.0115497  -0.0005401   0.0284385  -0.0231963
    2  -0.0000568  -0.0133824   0.0208266  -0.0092308  -0.0142620  -0.0123498
    3   0.0094223  -0.0249671   0.0447053  -0.0013940   0.0127376   0.0185472
          181         182         183         184         185         186
    1  -0.0035588  -0.0861943   0.0025864   0.0193635  -0.0261257   0.0343767
    2  -0.0059333   0.0173535   0.0039695  -0.0115936   0.0117159   0.0052949
    3  -0.0302818  -0.0648610  -0.0070362  -0.0255394  -0.0150378   0.0039543
          187         188         189         190         191         192
    1   0.0379981  -0.0047645   0.0141535  -0.0272783  -0.0131470  -0.0642872
    2  -0.0275973  -0.0039467  -0.0272864  -0.0098015   0.0141449   0.0816871
    3   0.0347515  -0.0051833  -0.0107033   0.0144904  -0.0240689   0.0249214
          193         194         195         196         197         198
    1  -0.0036665  -0.0255664   0.0227225   0.0091623   0.0330389  -0.0105227
    2  -0.0034863  -0.0143457  -0.0204039   0.0261191   0.0422144   0.0019858
    3   0.0088878   0.0175168   0.0081853   0.0197325  -0.0167386   0.0019451
          199         200         201         202         203         204
    1  -0.0187147  -0.0088267  -0.0081692  -0.0121660   0.0000350  -0.0108859
    2  -0.0194364   0.0263104  -0.0027933  -0.0930970   0.0025638   0.0190969
    3   0.0141446   0.0265784  -0.0325853  -0.0514854   0.0050382   0.0282630
          205         206         207         208         209         210
    1   0.0164779   0.0354586   0.0302409  -0.0022412  -0.0099719   0.0181709
    2  -0.0222135   0.0126894  -0.0289795   0.0071738   0.0284046   0.0238416
    3   0.0168389  -0.0005321  -0.0405424   0.0025679   0.0176767  -0.0194931
          211         212         213         214         215         216
    1  -0.0241486  -0.0923781  -0.0074342   0.0217265  -0.0174234  -0.0165173
    2  -0.0013532  -0.0448603   0.0008087   0.0183066  -0.0208699   0.0263266
    3  -0.0174224   0.0419078  -0.0073392  -0.0179507  -0.0140146   0.0092515
          217         218         219         220         221         222
    1  -0.0104220   0.0109966   0.0079157   0.0245830   0.0063718  -0.0013173
    2   0.0171915   0.0026446   0.0308473  -0.0104083  -0.0103462  -0.1049708
    3   0.0547844  -0.0010829   0.0077035   0.0162151  -0.0301336  -0.0313116
          223         224         225         226         227         228
    1  -0.0086710  -0.0048165  -0.0283037   0.0162256  -0.0014305   0.0033120
    2  -0.0082707  -0.0106306  -0.0108252  -0.0208792   0.0257791   0.0040439
    3   0.0022699   0.0317358  -0.0213767  -0.0035530  -0.0558548   0.0100160
          229         230         231         232         233         234
    1   0.0036464   0.0195105   0.0110691  -0.0674410   0.0057212   0.0223588
    2  -0.0248475   0.0040410   0.0326888   0.0401604  -0.0037308   0.0041907
    3   0.0223088  -0.0108270   0.0077699   0.0788926  -0.0041148  -0.0249460
          235         236         237         238         239         240
    1   0.0009706  -0.0123268  -0.0466910  -0.0039391  -0.0108818   0.0161083
    2  -0.0175758  -0.0278406  -0.0029437  -0.0001362   0.0300419   0.0022900
    3   0.0268554  -0.0149183   0.0348238  -0.0116755  -0.0097990  -0.0189510
          241         242         243         244         245         246
    1  -0.0189040   0.0787450  -0.0011398  -0.0162329   0.0270449  -0.0192040
    2  -0.0175295   0.0724349  -0.0052928  -0.0092375  -0.0133572  -0.0185068
    3  -0.0130796   0.0089554   0.0004542  -0.0284049  -0.0024154   0.0205875
          247         248         249         250         251         252
    1  -0.0379153   0.0079735   0.0115306  -0.0207006   0.0136763   0.0968421
    2   0.0289678   0.0059280  -0.0217391   0.0016428   0.0258010  -0.0180099
    3   0.0152252  -0.0047916  -0.0157796  -0.0289806   0.0034584   0.0488459
          253         254         255         256         257         258
    1  -0.0023050  -0.0072001  -0.0246612   0.0127607   0.0089816   0.0061403
    2  -0.0058646  -0.0284639   0.0151321   0.0009648   0.0500752  -0.0096744
    3  -0.0074856   0.0087127  -0.0075907  -0.0327355  -0.0008236  -0.0014360
          259         260         261         262         263         264
    1  -0.0172724   0.0133788   0.0187284  -0.0548043  -0.0081814  -0.0065933
    2  -0.0319784  -0.0014954   0.0099871  -0.0563357   0.0055660  -0.0268012
    3  -0.0153067  -0.0324646   0.0216987   0.0783764  -0.0033044  -0.0200308
          265         266         267         268         269         270
    1  -0.0223478   0.0097777  -0.0064150   0.0021909  -0.0162172   0.0277703
    2  -0.0044402   0.0314525  -0.0548264   0.0042822   0.0006599  -0.0054476
    3   0.0235872  -0.0108042   0.0247824   0.0052896   0.0282574   0.0137669
          271         272         273         274         275         276
    1  -0.0064815   0.0725566   0.0067199   0.0053492   0.0293565  -0.0032826
    2   0.0320990   0.0187388   0.0012743   0.0215042  -0.0151407   0.0115680
    3  -0.0092287  -0.0808246  -0.0019300   0.0236671  -0.0068274  -0.0287313
          277         278         279         280         281         282
    1  -0.0594625   0.0006463  -0.0136170  -0.0119160   0.0259596   0.0349614
    2   0.0207696  -0.0001114   0.0267483  -0.0255083  -0.0168459  -0.1006077
    3  -0.0223779   0.0042330   0.0096837   0.0198302   0.0195981  -0.0265647
          283         284         285         286         287         288
    1   0.0034754   0.0218250  -0.0203236   0.0070161  -0.0211590  -0.0050070
    2   0.0078077   0.0117457   0.0279516   0.0126896  -0.0174850  -0.0000109
    3   0.0018448  -0.0214969   0.0015476   0.0293045  -0.0473060   0.0097740
          289         290         291         292         293         294
    1  -0.0170257   0.0212649  -0.0243421   0.0904798  -0.0058048  -0.0006148
    2  -0.0288189  -0.0040646   0.0206070  -0.0445149   0.0059610   0.0309541
    3   0.0034490   0.0273645   0.0016508   0.0438814   0.0058699  -0.0072728
          295         296         297         298         299         300
    1  -0.0200136  -0.0165721  -0.0008934   0.0072522   0.0301239   0.0063399
    2  -0.0080168  -0.0124063  -0.0556652   0.0089932  -0.0060562   0.0270513
    3  -0.0154999   0.0274424   0.0087221   0.0089996  -0.0011009  -0.0090785
          301         302         303         304         305         306
    1  -0.0056097   0.0187691  -0.0078455  -0.0091593   0.0208982  -0.0261465
    2  -0.0142073   0.0476764   0.0011552  -0.0277917   0.0169600   0.0211548
    3   0.0282294  -0.0961452   0.0060932   0.0184287   0.0211081   0.0012486
          307         308         309         310         311         312
    1   0.0538737   0.0020820   0.0029555  -0.0377449   0.0389720  -0.0640201
    2  -0.0199300   0.0089759   0.0028446   0.0042101   0.0157319  -0.0276016
    3   0.0023105  -0.0027302  -0.0278427   0.0096941  -0.0029567  -0.0838494
  --- DONE ESP SUMMARY ---
Archival summary:
1\1\node029\SP\ProcedureUnspecified\6-31+G*\292958h22\ymao90\FriDec323:54:412021FriDec323:54:412021\0\\#,ProcedureUnspecified,6-31+G*,\\0,1\S\O,1,1.49665\C,1,1.80769,2,101.962\H,3,1.09256,1,116.622,2,-90.7231,0\H,3,1.09282,1,110.619,2,148.545,0\H,3,1.09309,1,107.917,2,28.7386,0\C,1,1.80791,2,99.4297,3,96.5016,0\H,7,1.09242,1,114.202,2,-31.2733,0\H,7,1.09265,1,102.19,2,-156.276,0\H,7,1.09316,1,104.212,2,84.9977,0\H,6,2.2164,3,150.474,1,0.383589,0\C,11,1.09282,6,127.755,3,112.21,0\H,12,1.09215,11,107.822,6,157.884,0\H,12,1.09339,11,110.18,6,-78.9704,0\S,12,1.80753,11,101.649,6,39.5449,0\O,15,1.49734,12,96.9139,11,-71.3492,0\C,15,1.8067,12,96.4532,11,-177.509,0\H,17,1.09321,15,112.344,12,-178.304,0\H,17,1.09325,15,100.245,12,-65.0307,0\H,17,1.09349,15,116.503,12,57.1278,0\H,9,2.35063,7,135.457,1,158.551,0\C,21,1.09341,9,168.486,7,-78.409,0\H,22,1.09243,21,115.897,9,172.797,0\H,22,1.0925,21,104.686,9,-72.0125,0\S,22,1.80645,21,112.622,9,46.9877,0\O,25,1.49663,22,99.7443,21,161.174,0\C,25,1.80686,22,99.8391,21,51.5729,0\H,27,1.09263,25,107.735,22,-148.921,0\H,27,1.09275,25,106.752,22,94.4042,0\H,27,1.09313,25,111.937,22,-34.7916,0\O,4,2.39989,3,150.264,1,139.906,0\S,31,1.49747,4,108.092,3,-91.6843,0\C,32,1.80619,31,105.921,4,132.668,0\H,33,1.09326,32,105.14,31,58.0421,0\H,33,1.09329,32,108.006,31,173.688,0\H,33,1.09376,32,106.414,31,-63.4924,0\C,32,1.8067,31,103.624,4,29.4097,0\H,37,1.09265,32,107.233,31,163.908,0\H,37,1.09353,32,104.478,31,-75.052,0\H,37,1.09387,32,111.282,31,49.783,0\Gh,9,2.43119,7,151.458,1,-28.063,0\Gh,41,1.09677,9,127.592,7,-94.0628,0\Gh,42,1.09719,41,104.988,9,-63.0398,0\Gh,42,1.53715,41,112.06,9,54.0951,0\Gh,44,1.09656,42,108.598,41,-167.418,0\Gh,44,1.09724,42,111.7,41,-56.7037,0\Gh,44,1.53748,42,112.777,41,62.2402,0\Gh,47,1.09671,44,107.225,42,-68.7315,0\Gh,47,1.4615,44,108.94,42,176.076,0\Gh,49,1.01289,47,122.099,44,-62.1019,0\Gh,49,1.37873,47,121.832,44,90.0175,0\Gh,51,1.1044,49,107.435,47,178.868,0\Gh,51,1.21817,49,122.918,47,3.17203,0\Gh,42,1.53776,41,107.503,9,174.431,0\Gh,54,1.0967,42,107.247,41,163.476,0\Gh,54,1.09684,42,112.084,41,47.1523,0\Gh,54,1.53759,42,114.167,41,-67.7201,0\Gh,57,1.09622,54,109.041,42,-171.128,0\Gh,57,1.09708,54,108.632,42,72.8939,0\Gh,57,1.53823,54,112.285,42,-49.0181,0\Gh,60,1.09598,57,111.776,54,173.685,0\Gh,60,1.09629,57,106.169,54,-67.8156,0\O,50,1.98488,49,156.687,47,159.894,0\S,63,1.49749,50,80.7096,49,-131.499,0\C,64,1.80698,63,104.417,50,112.934,0\H,65,1.09279,64,105.255,63,48.3174,0\H,65,1.0929,64,106.495,63,168.33,0\H,65,1.09344,64,116.055,63,-67.6547,0\C,64,1.80717,63,101.787,50,-146.805,0\H,69,1.09295,64,94.8552,63,38.292,0\H,69,1.09314,64,119.844,63,157.543,0\H,69,1.09314,64,103.141,63,-70.3472,0\H,55,2.27266,54,121.279,42,-73.1254,0\C,73,1.09338,55,114.188,54,147.588,0\H,74,1.09293,73,107.992,55,56.6275,0\H,74,1.09362,73,120.982,55,-177.596,0\S,74,1.80638,73,106.761,55,-58.2882,0\O,77,1.49762,74,107.12,73,-90.1725,0\C,77,1.80732,74,97.805,73,170.481,0\H,79,1.09295,77,106.246,74,48.5929,0\H,79,1.09299,77,105.755,74,160.752,0\H,79,1.09323,77,113.8,74,-72.5077,0\H,75,2.218,74,114.35,73,156.848,0\C,83,1.09282,75,150.476,74,-116.492,0\H,84,1.09296,83,98.6768,75,151.166,0\H,84,1.09322,83,111.578,75,29.8833,0\S,84,1.80717,83,123.033,75,-94.9036,0\O,87,1.49738,84,94.5273,83,89.7656,0\C,87,1.8068,84,96.0355,83,-31.319,0\H,89,1.09249,87,104.975,84,176.22,0\H,89,1.09334,87,103.312,84,-72.7966,0\H,89,1.09354,87,115.099,84,54.132,0\H,56,2.29516,54,165.954,42,-152.402,0\C,93,1.09354,56,164.965,54,106.863,0\H,94,1.09231,93,115.455,56,41.8002,0\H,94,1.09286,93,107.601,56,162.562,0\S,94,1.80743,93,103.268,56,-78.0425,0\O,97,1.49642,94,102.844,93,-66.0511,0\C,97,1.80628,94,93.8115,93,-172.981,0\H,99,1.09308,97,117,94,-25.4045,0\H,99,1.09329,97,111.871,94,-135.028,0\H,99,1.0934,97,104.146,94,98.2498,0\H,95,2.09821,94,98.7914,93,81.4895,0\C,103,1.09261,95,119.831,94,-132.331,0\H,104,1.09297,103,104.683,95,-13.9232,0\H,104,1.09337,103,103.291,95,-134.649,0\S,104,1.80696,103,101.701,95,99.6044,0\O,107,1.49677,104,107.591,103,22.8049,0\C,107,1.80741,104,100.354,103,129.955,0\H,109,1.09292,107,109.932,104,-56.7652,0\H,109,1.09302,107,108.176,104,-176.953,0\H,109,1.09383,107,109.874,104,63.1319,0\H,58,2.32139,57,126.676,54,40.334,0\C,113,1.09356,58,161.002,57,118.992,0\H,114,1.09241,113,116.652,58,163.938,0\H,114,1.09294,113,107.341,58,44.1733,0\S,114,1.80718,113,103.347,58,-74.1423,0\O,117,1.49759,114,102.655,113,-73.1237,0\C,117,1.80651,114,96.9927,113,179.568,0\H,119,1.09288,117,110.399,114,73.4826,0\H,119,1.09325,117,103.89,114,-46.0047,0\H,119,1.09347,117,109.149,114,-170.028,0\H,115,2.03479,114,136.739,113,11.9639,0\C,123,1.09262,115,100.635,114,-177.941,0\H,124,1.09293,123,116.662,115,-30.4136,0\H,124,1.0932,123,106.465,115,-166.806,0\S,124,1.80769,123,100.711,115,86.7157,0\O,127,1.49678,124,104.255,123,-60.5594,0\C,127,1.8066,124,101.658,123,47.8912,0\H,129,1.09221,127,105.309,124,77.2747,0\H,129,1.09343,127,106.062,124,-159.519,0\H,129,1.09389,127,105.572,124,-41.5162,0\H,59,2.35129,57,101.909,54,144.679,0\C,133,1.0929,59,177.241,57,124.261,0\H,134,1.09287,133,119.392,59,-173.504,0\H,134,1.0937,133,101.288,59,62.3277,0\S,134,1.80648,133,107.931,59,-49.4303,0\O,137,1.49726,134,99.8218,133,83.8352,0\C,137,1.80718,134,95.6762,133,-173.16,0\H,139,1.0927,137,103.285,134,-162.017,0\H,139,1.09299,137,111.405,134,-43.3853,0\H,139,1.09389,137,113.778,134,79.9209,0\H,70,2.36882,69,141.792,64,-60.2992,0\C,143,1.09349,70,109.319,69,-124.026,0\H,144,1.09307,143,116.763,70,52.7242,0\H,144,1.09332,143,107.086,70,-67.3207,0\S,144,1.80623,143,107.605,70,176.403,0\O,147,1.49736,144,100.318,143,68.6885,0\C,147,1.80767,144,87.5081,143,171.536,0\H,149,1.0927,147,107.691,144,65.8832,0\H,149,1.09284,147,113.758,144,-173.109,0\H,149,1.09296,147,109.793,144,-54.2337,0\H,143,2.18048,70,73.287,69,122.187,0\C,153,1.0923,143,115.278,70,-165.773,0\H,154,1.09306,153,105.183,143,106.714,0\H,154,1.09307,153,110.491,143,-8.49244,0\S,154,1.8071,153,112.876,143,-132.69,0\O,157,1.49686,154,109.487,153,-77.7819,0\C,157,1.80606,154,91.1085,153,178.363,0\H,159,1.09266,157,117.993,154,175.51,0\H,159,1.09268,157,106.358,154,-58.0253,0\H,159,1.0928,157,105.219,154,51.9656,0\H,161,2.15373,159,126.608,157,113.443,0\C,163,1.09287,161,125.198,159,-9.29202,0\H,164,1.09236,163,106.13,161,-40.4179,0\H,164,1.09407,163,107.43,161,75.854,0\S,164,1.80771,163,113.568,161,-166.823,0\O,167,1.49707,164,109.673,163,150.408,0\C,167,1.80735,164,92.3522,163,43.2489,0\H,169,1.09232,167,117.008,164,-48.7917,0\H,169,1.09293,167,106.358,164,-168.755,0\H,169,1.09338,167,105.741,164,67.669,0\H,171,2.12074,169,111.43,167,-71.576,0\C,173,1.09308,171,127.437,169,-146.075,0\H,174,1.0925,173,108.648,171,-35.2637,0\H,174,1.0929,173,114.854,171,-158.044,0\S,174,1.80777,173,109.899,171,79.0417,0\O,177,1.49624,174,101.904,173,164.875,0\C,177,1.80738,174,95.7506,173,65.4707,0\H,179,1.09247,177,108.891,174,44.7153,0\H,179,1.09288,177,110.721,174,-73.3626,0\H,179,1.09333,177,110.097,174,163.631,0\H,176,2.298,174,100.513,173,29.333,0\C,183,1.09316,176,111.967,174,130.073,0\H,184,1.09259,183,113.21,176,-87.9254,0\H,184,1.09319,183,106.988,176,31.0241,0\S,184,1.80707,183,110.296,176,149.307,0\O,187,1.49613,184,96.0572,183,168.506,0\C,187,1.80737,184,92.5077,183,65.5863,0\H,189,1.09282,187,118.275,184,-54.8415,0\H,189,1.09307,187,105.345,184,73.3452,0\H,189,1.09311,187,101.373,184,-177.529,0\H,190,2.3229,189,113.664,187,-125.235,0\C,193,1.09334,190,135.245,189,97.6199,0\H,194,1.09247,193,102.944,190,177.891,0\H,194,1.09322,193,114.926,190,54.6385,0\S,194,1.80697,193,107.394,190,-70.4514,0\O,197,1.49744,194,105.741,193,-25.1428,0\C,197,1.80778,194,98.6793,193,82.045,0\H,199,1.09246,197,106.105,194,-47.1344,0\H,199,1.09298,197,106.35,194,-154.376,0\H,199,1.0931,197,111.25,194,76.4076,0\H,180,2.37815,179,114.369,177,-104.26,0\C,203,1.09314,180,99.0574,179,-153.335,0\H,204,1.09255,203,113.345,180,-157.245,0\H,204,1.09324,203,115.667,180,-38.5154,0\S,204,1.80742,203,108.436,180,80.1086,0\O,207,1.49708,204,101.725,203,-88.1535,0\C,207,1.80668,204,96.4424,203,166.952,0\H,209,1.09306,207,106.606,204,172.92,0\H,209,1.0931,207,105.641,204,-67.9868,0\H,209,1.09327,207,105.763,204,54.604,0\H,102,2.37912,99,131.686,97,66.362,0\C,213,1.09356,102,144.55,99,19.3792,0\H,214,1.09165,213,111.646,102,143.041,0\H,214,1.09332,213,112.578,102,19.7566,0\S,214,1.80737,213,114.166,102,-90.7949,0\O,217,1.49734,214,104.336,213,-160.14,0\C,217,1.80655,214,93.2884,213,-55.7406,0\H,219,1.09263,217,101.626,214,-173.7,0\H,219,1.09283,217,118.774,214,-46.3085,0\H,219,1.09329,217,100.737,214,74.2366,0\O,205,2.4483,204,141.666,203,151.466,0\S,223,1.49771,205,163.566,204,-19.5008,0\C,224,1.80654,223,98.6674,205,-142.147,0\H,225,1.09265,224,108.945,223,178.084,0\H,225,1.09289,224,109.007,223,53.7951,0\H,225,1.09307,224,113.353,223,-70.2024,0\C,224,1.80701,223,110.591,205,-45.2032,0\H,229,1.09281,224,110.551,223,51.3469,0\H,229,1.09321,224,108.733,223,-69.6086,0\H,229,1.09352,224,105.565,223,171.908,0\O,101,2.45555,99,138.294,97,-48.2656,0\S,233,1.49714,101,129.529,99,13.8605,0\C,234,1.80727,233,104.028,101,111.115,0\H,235,1.09237,234,105.064,233,66.6893,0\H,235,1.09309,234,105.717,233,-174.805,0\H,235,1.0932,234,113.084,233,-57.2263,0\C,234,1.8074,233,109.816,101,-139.343,0\H,239,1.0925,234,110.168,233,-154.877,0\H,239,1.093,234,114.92,233,84.5631,0\H,239,1.09352,234,107.178,233,-35.3806,0\H,23,2.45698,22,158.944,21,-129.513,0\C,243,1.09248,23,132.046,22,-3.30332,0\H,244,1.09319,243,112.685,23,40.9296,0\H,244,1.0932,243,119.234,23,172.81,0\S,244,1.80687,243,100.427,23,-75.2271,0\O,247,1.49724,244,104.398,243,-64.7857,0\C,247,1.80652,244,101.133,243,-175.693,0\H,249,1.09254,247,103.033,244,94.0216,0\H,249,1.09325,247,114.837,244,-28.0617,0\H,249,1.0938,247,107.112,244,-147.507,0\H,138,2.4749,137,114.463,134,-100.007,0\C,253,1.0926,138,123.833,137,123.403,0\H,254,1.09304,253,101.28,138,-158.171,0\H,254,1.09369,253,116.94,138,-43.591,0\S,254,1.80674,253,114.217,138,86.8263,0\O,257,1.4968,254,104.146,253,33.3184,0\C,257,1.80673,254,97.0718,253,-70.4699,0\H,259,1.09293,257,104.386,254,-44.2154,0\H,259,1.09329,257,107.238,254,-164.043,0\H,259,1.09329,257,113,254,70.3399,0\H,262,2.23315,259,134.241,257,-5.40333,0\C,263,1.09271,262,121.812,259,163.433,0\H,264,1.09293,263,109.223,262,-14.9858,0\H,264,1.09377,263,102.113,262,114.098,0\S,264,1.80726,263,108.808,262,-132.297,0\O,267,1.49678,264,101.123,263,-61.3316,0\C,267,1.80635,264,91.7752,263,-162.622,0\H,269,1.09298,267,107.396,264,-44.8375,0\H,269,1.09334,267,105.268,264,-161.637,0\H,269,1.09354,267,109.559,264,81.0138,0\H,158,2.47595,157,122.754,154,141.451,0\C,273,1.09331,158,115.672,157,-16.5466,0\H,274,1.09223,273,104.404,158,99.6211,0\H,274,1.09352,273,107.71,158,-24.1344,0\S,274,1.80725,273,108.239,158,-146.807,0\O,277,1.49723,274,103.896,273,-78.9345,0\C,277,1.80734,274,103.456,273,170.614,0\H,279,1.09246,277,106.823,274,-64.5966,0\H,279,1.09256,277,108.587,274,172.02,0\H,279,1.0935,277,107.479,274,57.7002,0\H,31,2.51134,4,63.4491,3,34.2031,0\C,283,1.09285,31,148.755,4,142.113,0\H,284,1.09226,283,117.722,31,103.593,0\H,284,1.0934,283,114.511,31,-133.149,0\S,284,1.80643,283,106.255,31,-16.3793,0\O,287,1.4978,284,103.645,283,-175.896,0\C,287,1.80644,284,102.183,283,75.0134,0\H,289,1.09306,287,115.431,284,174.759,0\H,289,1.09323,287,109.898,284,56.3665,0\H,289,1.0934,287,109.118,284,-60.9169,0\O,66,2.5126,65,119.139,64,154.329,0\S,293,1.49715,66,87.512,65,91.3419,0\C,294,1.8069,293,95.259,66,150.245,0\H,295,1.09242,294,110.27,293,-75.3443,0\H,295,1.09258,294,107.461,293,155.112,0\H,295,1.09391,294,103.938,293,40.4326,0\C,294,1.80768,293,94.8582,66,-112.711,0\H,299,1.09271,294,105.656,293,-159.511,0\H,299,1.09278,294,112.749,293,-34.6109,0\H,299,1.09332,294,112.844,293,87.5036,0\H,302,2.20012,299,169.918,294,-84.9487,0\C,303,1.09273,302,101.505,299,176.925,0\H,304,1.09287,303,105.551,302,47.0269,0\H,304,1.09377,303,105.024,302,-70.8797,0\S,304,1.80682,303,107.121,302,171.204,0\O,307,1.49723,304,99.1828,303,169.402,0\C,307,1.80673,304,94.4516,303,-89.9209,0\H,309,1.09268,307,106.321,304,-160.279,0\H,309,1.09301,307,113.435,304,-45.3815,0\H,309,1.09358,307,108.897,304,82.7752,0\\\@

 Total job time:  71.77s(wall), 217.08s(cpu) 
 Fri Dec  3 23:54:41 2021

        *************************************************************
        *                                                           *
        *  Thank you very much for using Q-Chem.  Have a nice day.  *
        *                                                           *
        *************************************************************


