                  Welcome to Q-Chem
     A Quantum Leap Into The Future Of Chemistry


 Q-Chem 5.2 (devel), Q-Chem, Inc., Pleasanton, CA (2019)

 Yihan Shao,  Zhengting Gan,  E. Epifanovsky,  A. T. B. Gilbert,  M. Wormit,  
 J. Kussmann,  A. W. Lange,  A. Behn,  Jia Deng,  Xintian Feng,  D. Ghosh,  
 M. Goldey,  P. R. Horn,  L. D. Jacobson,  I. Kaliman,  T. Kus,  A. Landau,  
 Jie Liu,  E. I. Proynov,  R. M. Richard,  R. P. Steele,  E. J. Sundstrom,  
 H. L. Woodcock III,  P. M. Zimmerman,  D. Zuev,  B. Alam,  B. Albrecht,  
 E. Alguire,  S. A. Baeppler,  D. Barton,  Z. Benda,  Y. A. Bernard,  
 E. J. Berquist,  K. B. Bravaya,  H. Burton,  K. Carter-Fenk,  D. Casanova,  
 Chun-Min Chang,  Yunqing Chen,  A. Chien,  K. D. Closser,  M. P. Coons,  
 S. Coriani,  S. Dasgupta,  A. L. Dempwolff,  M. Diedenhofen,  Hainam Do,  
 R. G. Edgar,  Po-Tung Fang,  S. Faraji,  S. Fatehi,  Qingguo Feng,  
 J. Fosso-Tande,  J. Gayvert,  Qinghui Ge,  A. Ghysels,  G. Gidofalvi,  
 J. Gomes,  J. Gonthier,  A. Gunina,  D. Hait,  M. W. D. Hanson-Heine,  
 P. H. P. Harbach,  A. W. Hauser,  M. F. Herbst,  J. E. Herr,  
 E. G. Hohenstein,  Z. C. Holden,  Kerwin Hui,  B. C. Huynh,  T.-C. Jagau,  
 Hyunjun Ji,  B. Kaduk,  K. Khistyaev,  Jaehoon Kim,  P. Klunzinger,  K. Koh,  
 D. Kosenkov,  L. Koulias,  T. Kowalczyk,  C. M. Krauter,  A. Kunitsa,  
 Ka Un Lao,  A. Laurent,  K. V. Lawler,  Joonho Lee,  D. Lefrancois,  
 S. Lehtola,  D. S. Levine,  Yi-Pei Li,  You-Sheng Lin,  Fenglai Liu,  
 Kuan-Yu Liu,  E. Livshits,  M. Loipersberger,  A. Luenser,  P. Manohar,  
 E. Mansoor,  S. F. Manzer,  Shan-Ping Mao,  Yuezhi Mao,  N. Mardirossian,  
 A. V. Marenich,  T. Markovich,  L. A. Martinez-Martinez,  S. A. Maurer,  
 N. J. Mayhall,  S. C. McKenzie,  J.-M. Mewes,  P. Morgante,  A. F. Morrison,  
 J. W. Mullinax,  K. Nanda,  T. S. Nguyen-Beck,  R. Olivares-Amaya,  
 J. A. Parkhill,  S. K. Paul,  F. Pavosevic,  Zheng Pei,  T. M. Perrine,  
 F. Plasser,  P. Pokhilko,  S. Prager,  A. Prociuk,  E. Ramos,  B. Rana,  
 D. R. Rehn,  F. Rob,  M. Scheurer,  M. Schneider,  N. Sergueev,  
 S. M. Sharada,  S. Sharma,  D. W. Small,  T. Stauch,  C. J. Stein,  
 T. Stein,  Yu-Chuan Su,  S. P. Veccham,  Zhen Tao,  A. J. W. Thom,  
 A. Tkatchenko,  T. Tsuchimochi,  N. M. Tubman,  L. Vogt,  M. L. Vidal,  
 O. Vydrov,  M. A. Watson,  J. Wenzel,  M. de Wergifosse,  T. A. Wesolowski,  
 A. White,  J. Witte,  A. Yamada,  Jun Yang,  K. Yao,  S. Yeganeh,  
 S. R. Yost,  Zhi-Qiang You,  A. Zech,  Igor Ying Zhang,  Xing Zhang,  
 Yan Zhao,  Ying Zhu,  B. R. Brooks,  G. K. L. Chan,  C. J. Cramer,  
 M. S. Gordon,  W. J. Hehre,  A. Klamt,  M. W. Schmidt,  C. D. Sherrill,  
 D. G. Truhlar,  A. Aspuru-Guzik,  R. Baer,  A. T. Bell,  N. A. Besley,  
 Jeng-Da Chai,  A. E. DePrince, III,  R. A. DiStasio Jr.,  A. Dreuw,  
 B. D. Dunietz,  T. R. Furlani,  Chao-Ping Hsu,  Yousung Jung,  Jing Kong,  
 D. S. Lambrecht,  WanZhen Liang,  C. Ochsenfeld,  V. A. Rassolov,  
 L. V. Slipchenko,  J. E. Subotnik,  T. Van Voorhis,  J. M. Herbert,  
 A. I. Krylov,  P. M. W. Gill,  M. Head-Gordon

 Contributors to earlier versions of Q-Chem not listed above: 
 R. D. Adamson,  B. Austin,  J. Baker,  G. J. O. Beran,  K. Brandhorst,  
 S. T. Brown,  E. F. C. Byrd,  A. K. Chakraborty,  C.-L. Cheng,  
 Siu Hung Chien,  D. M. Chipman,  D. L. Crittenden,  H. Dachsel,  
 R. J. Doerksen,  A. D. Dutoi,  L. Fusti-Molnar,  W. A. Goddard III,  
 A. Golubeva-Zadorozhnaya,  S. R. Gwaltney,  G. Hawkins,  A. Heyden,  
 S. Hirata,  G. Kedziora,  F. J. Keil,  C. Kelley,  Jihan Kim,  R. A. King,  
 R. Z. Khaliullin,  P. P. Korambath,  W. Kurlancheek,  A. M. Lee,  M. S. Lee,  
 S. V. Levchenko,  Ching Yeh Lin,  D. Liotard,  R. C. Lochan,  I. Lotan,  
 P. E. Maslen,  N. Nair,  D. P. O'Neill,  D. Neuhauser,  E. Neuscamman,  
 C. M. Oana,  R. Olson,  B. Peters,  R. Peverati,  P. A. Pieniazek,  
 Y. M. Rhee,  J. Ritchie,  M. A. Rohrdanz,  E. Rosta,  N. J. Russ,  
 H. F. Schaefer III,  N. E. Schultz,  N. Shenvi,  A. C. Simmonett,  A. Sodt,  
 D. Stuck,  K. S. Thanthiriwatte,  V. Vanovschi,  Tao Wang,  A. Warshel,  
 C. F. Williams,  Q. Wu,  X. Xu,  W. Zhang

 Please cite Q-Chem as follows:
 Y. Shao et al., Mol. Phys. 113, 184-215 (2015)
 DOI: 10.1080/00268976.2014.952696

 Q-Chem 5.2.2 for Intel X86 EM64T Linux

 Parts of Q-Chem use Armadillo 9.800.1 (Horizon Scraper).
 http://arma.sourceforge.net/

 Q-Chem begins on Fri Dec  3 17:48:11 2021  

Host: node024
0

     Scratch files written to /home/ymao90/scratch/r7.00_frame_0050_spade_B3LYP_dp20211203120849//

Checking the input file for inconsistencies... 	...done.

--------------------------------------------------------------
User input:
--------------------------------------------------------------
$molecule
0 1
--
0 1
C    26.69000   20.41400   26.24200  
C    27.58400   21.25000   27.17400  
C    29.00700   20.76300   27.49300  
C    29.78800   20.24900   26.27300  
C    28.85400   19.27500   25.53500  
C    27.48000   19.79200   25.07900  
H    29.50200   21.65100   27.90500  
H    27.61600   22.23300   26.68900  
H    26.30600   19.63700   26.91500  
H    25.87300   21.01600   25.82700  
H    30.06300   21.13500   25.68700  
H    30.69500   19.70800   26.56900  
H    29.37900   18.96900   24.62200  
H    28.73800   18.34700   26.10700  
H    27.54800   20.50500   24.24800  
H    26.83400   18.94600   24.81400  
H    28.96000   19.92300   28.19600  
N    26.83900   21.37800   28.42500  
H    27.15300   20.85600   29.23500  
C    25.86000   22.30700   28.70500  
H    25.53400   22.31800   29.76100  
O    25.52900   23.07600   27.82000  
--
0 1
C    25.31100   28.48500   23.13400  
H    26.08000   27.94500   23.69200  
H    25.53400   28.31500   22.07700  
H    25.21000   29.56500   23.27400  
S    23.81400   27.57000   23.56400  
C    22.74200   28.76100   22.72700  
H    23.04300   29.75900   23.05300  
H    22.81400   28.64700   21.64200  
H    21.68700   28.56300   22.93200  
O    23.64500   27.85100   25.02400  
C    28.61400   22.76500   31.46600  
H    29.58200   22.85300   30.96600  
H    27.73100   22.82000   30.82500  
H    28.40900   23.50500   32.24400  
S    28.64400   21.22000   32.40300  
C    30.33200   21.60400   32.92000  
H    30.61900   20.76700   33.56100  
H    30.89400   21.52900   31.98500  
H    30.29600   22.47300   33.58100  
O    28.91400   20.37500   31.19700  
C    30.60800   25.18400   33.82300  
H    31.40300   24.49200   34.11400  
H    30.39000   25.97100   34.54900  
H    29.64100   24.69200   33.69500  
S    30.92800   26.12500   32.31400  
C    29.34900   26.99700   32.20000  
H    29.32200   27.55700   33.13800  
H    29.27800   27.68400   31.35300  
H    28.53800   26.26600   32.13900  
O    30.69000   25.09300   31.25600  
C    31.81300   23.25300   28.27400  
H    31.39100   23.71100   27.37600  
H    31.58500   22.18900   28.37600  
H    31.40600   23.80500   29.12600  
S    33.61900   23.23100   28.25500  
C    33.99000   24.99100   28.43400  
H    33.76100   25.34900   29.44100  
H    35.06300   25.09800   28.25800  
H    33.37400   25.61500   27.78100  
O    33.92200   22.80900   26.85200  
C    21.31500   22.11700   32.24100  
H    21.00600   22.88600   31.52900  
H    21.66800   22.66600   33.11700  
H    22.04700   21.44200   31.79000  
S    19.93500   21.06600   32.74800  
C    20.95900   19.78100   33.49900  
H    21.52500   20.11000   34.37400  
H    20.37500   18.91500   33.81900  
H    21.64700   19.50800   32.69500  
O    19.43600   20.45700   31.47400  
C    28.56700   13.12700   26.51900  
H    28.83500   12.08600   26.71500  
H    28.34600   13.57300   27.49200  
H    27.78300   13.27300   25.77200  
S    29.97600   13.98200   25.77700  
C    30.82200   14.03400   27.37300  
H    30.67900   13.06800   27.86300  
H    31.86900   14.30100   27.21000  
H    30.40600   14.83800   27.98600  
O    29.46300   15.35200   25.45800  
C    24.36800   18.27500   32.33100  
H    24.77800   17.56600   33.05500  
H    23.30500   18.52200   32.39400  
H    24.48900   17.79400   31.35700  
S    25.38700   19.76200   32.21200  
C    25.24800   20.13000   33.97600  
H    25.51400   19.17500   34.43600  
H    25.87300   21.00000   34.19500  
H    24.20900   20.29700   34.27300  
O    24.46600   20.77400   31.60600  
C    28.09600   25.54600   28.80800  
H    28.82600   26.33900   28.62700  
H    28.28800   25.23500   29.83800  
H    28.22300   24.67400   28.16100  
S    26.39900   26.15000   28.66000  
C    26.40500   26.07800   26.85500  
H    27.30500   26.51700   26.41700  
H    26.47400   25.01900   26.59200  
H    25.54300   26.61400   26.44900  
O    26.44000   27.63700   28.82600  
C    24.36300   22.16600   23.19700  
H    24.88700   23.12600   23.17500  
H    23.93400   22.10200   24.20000  
H    24.99100   21.32800   22.88400  
S    23.12000   22.63300   21.97100  
C    22.21800   21.08100   22.17400  
H    21.28200   21.09800   21.60900  
H    22.79500   20.21700   21.83500  
H    22.04700   20.82000   23.22100  
O    23.78300   22.46200   20.64000  
C    31.59900   15.77200   19.43700  
H    30.67000   16.29000   19.68900  
H    32.40800   16.44800   19.15000  
H    31.31500   15.02600   18.69100  
S    32.00800   14.70500   20.83700  
C    31.86800   16.13200   21.93700  
H    32.04800   15.74500   22.94300  
H    32.61400   16.87300   21.64000  
H    30.83200   16.48000   21.90900  
O    33.46300   14.48000   20.57000  
C    35.69800   18.76900   29.22400  
H    35.46100   17.79500   28.78900  
H    36.05800   18.52300   30.22600  
H    34.88700   19.50200   29.19900  
S    37.07200   19.47800   28.29000  
C    36.14600   19.71400   26.75700  
H    35.63200   20.67400   26.66700  
H    36.78000   19.54300   25.88300  
H    35.38500   18.93600   26.86200  
O    37.89400   18.24700   28.06400  
C    32.02900   17.52200   27.91900  
H    32.21800   18.47500   27.41800  
H    32.97100   17.21100   28.37600  
H    31.75800   16.75000   27.19500  
S    30.78400   17.64200   29.22300  
C    31.56700   18.96800   30.16700  
H    31.46600   19.96200   29.72400  
H    31.14200   19.13000   31.16100  
H    32.63000   18.74900   30.29800  
O    30.84700   16.33400   29.94800  
C    26.96800   24.39600   21.13600  
H    27.91100   24.02700   20.72400  
H    27.29700   24.89900   22.04900  
H    26.23000   23.59300   21.19900  
S    26.15800   25.55900   20.01500  
C    27.42200   26.84700   20.10700  
H    27.12100   27.88000   19.91800  
H    27.88100   26.74900   21.09400  
H    28.07200   26.63200   19.25400  
O    25.11000   26.13200   20.91800  
C    28.79400   24.52100   25.00100  
H    28.49700   23.70400   25.66400  
H    28.88600   25.49200   25.49600  
H    28.11100   24.65800   24.15900  
S    30.34400   23.94700   24.27100  
C    30.24400   25.06000   22.85100  
H    30.37600   26.11100   23.11900  
H    30.95000   24.81900   22.05200  
H    29.22600   25.07400   22.45400  
O    29.84600   22.65900   23.69400  
C    27.42700   16.40300   28.13800  
H    26.86200   15.54700   27.75900  
H    27.60600   17.06200   27.28500  
H    28.39700   16.00000   28.43900  
S    26.56200   17.48500   29.29800  
C    27.14300   16.53000   30.71800  
H    26.66200   15.55300   30.63300  
H    28.22600   16.40800   30.63400  
H    26.86200   17.07900   31.62100  
O    25.17400   16.95100   29.12500  
C    34.19300   23.90900   31.99600  
H    35.25300   24.07900   31.78800  
H    33.45800   24.18700   31.23600  
H    33.83900   24.41500   32.89800  
S    33.87700   22.14300   32.21400  
C    35.34500   21.70700   33.17300  
H    35.06500   22.06100   34.16900  
H    35.42000   20.61600   33.16000  
H    36.26400   22.14500   32.77600  
O    34.01200   21.65400   30.80600  
C    33.53400   21.74700   23.29700  
H    34.53200   21.62900   23.72900  
H    33.50100   22.08700   22.25900  
H    32.93100   22.34800   23.98300  
S    32.59400   20.20400   23.26600  
C    33.22700   19.60700   24.84900  
H    34.31300   19.64100   24.96500  
H    32.78400   20.28000   25.58800  
H    33.06000   18.53300   24.96400  
O    33.19700   19.20200   22.33100  
C    30.85100   19.74900   20.03200  
H    31.88700   19.81300   19.68900  
H    30.81000   19.27500   21.01600  
H    30.26200   19.27400   19.24400  
S    30.18500   21.38200   20.42500  
C    28.66800   20.77900   21.20000  
H    28.08200   20.22400   20.46300  
H    28.95900   20.10500   22.01000  
H    28.22900   21.70000   21.59200  
O    29.78400   22.05100   19.14700  
C    37.19300   15.83100   25.56300  
H    37.91100   15.75000   24.74200  
H    37.30200   16.82600   26.00300  
H    37.14500   14.99300   26.26200  
S    35.60700   15.96400   24.70600  
C    35.78400   17.41500   23.64400  
H    34.90100   17.48700   23.00400  
H    35.77600   18.30900   24.27300  
H    36.75700   17.38600   23.14600  
O    34.61200   16.34500   25.75800  
C    22.67900   25.52500   27.57800  
H    23.49600   25.83500   28.23500  
H    22.83900   24.50700   27.21400  
H    22.38400   26.14800   26.73000  
S    21.25300   25.27500   28.65900  
C    21.40300   26.76600   29.66900  
H    22.42900   26.78200   30.04500  
H    21.30200   27.69900   29.10900  
H    20.74800   26.65900   30.53800  
O    21.65700   24.06800   29.44700  
C    27.30700   16.34400   23.02100  
H    28.30200   16.76700   23.18200  
H    26.48000   17.05600   22.95800  
H    27.13800   15.65100   23.84800  
S    27.37300   15.47000   21.44000  
C    28.36600   14.10200   22.07700  
H    29.15900   14.51600   22.70500  
H    27.63200   13.59300   22.70700  
H    28.78600   13.53600   21.24200  
O    28.36100   16.28700   20.66800  
C    20.50300   20.45000   28.11700  
H    21.01700   21.00900   28.90400  
H    20.06400   21.14300   27.39400  
H    19.70700   19.83900   28.55000  
S    21.76600   19.57800   27.16300  
C    23.01600   20.84700   27.46200  
H    23.85200   20.58300   26.80900  
H    22.65000   21.84200   27.19600  
H    23.41900   20.74800   28.47300  
O    21.38300   20.01800   25.78400  
C    20.71900   23.31100   25.42900  
H    19.89500   22.59300   25.46000  
H    21.65900   22.75400   25.44800  
H    20.64400   23.93100   26.32600  
S    20.46600   24.32400   23.95400  
C    18.87500   25.11300   24.29000  
H    18.84600   25.73500   25.18800  
H    18.54800   25.68900   23.42000  
H    18.28600   24.20600   24.45000  
O    20.00600   23.24000   23.03000  
C    33.15500   27.16100   24.77400  
H    33.26800   28.24600   24.71500  
H    32.17800   26.83300   24.40800  
H    33.12300   26.91600   25.83800  
S    34.60700   26.47200   23.94700  
C    34.13300   24.72800   23.96800  
H    34.93700   24.14500   23.51200  
H    33.82500   24.37400   24.95500  
H    33.27300   24.62900   23.30100  
O    35.68100   26.66500   24.97100  
C    24.06200   24.57900   31.34500  
H    24.66400   24.37600   30.45600  
H    23.16100   23.96000   31.34100  
H    23.60600   25.57300   31.36200  
S    25.11700   24.43800   32.80500  
C    23.87000   25.20700   33.86300  
H    22.93100   24.65300   33.78300  
H    24.34900   25.29400   34.84100  
H    23.83300   26.25100   33.54200  
O    26.17100   25.49800   32.72800  
C    24.04000   16.90700   26.01300  
H    23.44800   16.12400   26.49500  
H    25.08200   16.63700   25.82700  
H    23.97600   17.83800   26.58100  
S    23.22900   17.14400   24.41600  
C    21.71000   16.24000   24.79200  
H    21.24000   16.68200   25.67500  
H    21.04600   16.36100   23.93300  
H    21.93100   15.18000   24.93800  
O    23.98400   16.08900   23.66800  
C    26.66300   16.78300   17.82500  
H    26.92900   16.26300   18.74900  
H    25.58100   16.66500   17.72300  
H    27.24800   16.61800   16.91600  
S    26.91400   18.54600   18.12700  
C    25.69700   18.59400   19.46300  
H    25.48300   19.63400   19.72300  
H    24.82500   18.04900   19.09200  
H    26.11300   18.00200   20.28200  
O    26.28500   19.16500   16.91800  
C    31.54200   28.19100   29.26800  
H    31.92200   29.05100   29.82600  
H    30.68700   27.72100   29.76000  
H    32.29000   27.39500   29.22200  
S    31.12300   28.55300   27.54800  
C    29.46400   29.19800   27.85900  
H    29.03300   29.48300   26.89600  
H    28.82100   28.40200   28.24400  
H    29.55100   30.07000   28.51300  
O    30.79400   27.16600   27.09100  
$end

$rem
JOBTYPE  SP
METHOD  B3LYP
BASIS  6-31+G(D)
SYMMETRY  FALSE
SYM_IGNORE  TRUE
MEM_TOTAL  16000
MEM_STATIC  8000
MAX_SUB_FILE_NUM  16000
BASIS_LIN_DEP_THRESH  6
THRESH  14
SCF_CONVERGENCE  8
GEN_SCFMAN  TRUE
SCF_GUESS  SAD
FD_MAT_VEC_PROD  FALSE
XC_GRID  000075000302
NL_GRID  1
MAX_SCF_CYCLES  200
ENV_METHOD  B3LYP
GEN_SCFMAN_EMBED  TRUE
SPADE_PARTITION  TRUE
$end

$development
embedding_early_stop  1
$end

--------------------------------------------------------------
 ----------------------------------------------------------------
             Standard Nuclear Orientation (Angstroms)
    I     Atom           X                Y                Z
 ----------------------------------------------------------------
    1      C      26.6900000000    20.4140000000    26.2420000000
    2      C      27.5840000000    21.2500000000    27.1740000000
    3      C      29.0070000000    20.7630000000    27.4930000000
    4      C      29.7880000000    20.2490000000    26.2730000000
    5      C      28.8540000000    19.2750000000    25.5350000000
    6      C      27.4800000000    19.7920000000    25.0790000000
    7      H      29.5020000000    21.6510000000    27.9050000000
    8      H      27.6160000000    22.2330000000    26.6890000000
    9      H      26.3060000000    19.6370000000    26.9150000000
   10      H      25.8730000000    21.0160000000    25.8270000000
   11      H      30.0630000000    21.1350000000    25.6870000000
   12      H      30.6950000000    19.7080000000    26.5690000000
   13      H      29.3790000000    18.9690000000    24.6220000000
   14      H      28.7380000000    18.3470000000    26.1070000000
   15      H      27.5480000000    20.5050000000    24.2480000000
   16      H      26.8340000000    18.9460000000    24.8140000000
   17      H      28.9600000000    19.9230000000    28.1960000000
   18      N      26.8390000000    21.3780000000    28.4250000000
   19      H      27.1530000000    20.8560000000    29.2350000000
   20      C      25.8600000000    22.3070000000    28.7050000000
   21      H      25.5340000000    22.3180000000    29.7610000000
   22      O      25.5290000000    23.0760000000    27.8200000000
   23      C      25.3110000000    28.4850000000    23.1340000000
   24      H      26.0800000000    27.9450000000    23.6920000000
   25      H      25.5340000000    28.3150000000    22.0770000000
   26      H      25.2100000000    29.5650000000    23.2740000000
   27      S      23.8140000000    27.5700000000    23.5640000000
   28      C      22.7420000000    28.7610000000    22.7270000000
   29      H      23.0430000000    29.7590000000    23.0530000000
   30      H      22.8140000000    28.6470000000    21.6420000000
   31      H      21.6870000000    28.5630000000    22.9320000000
   32      O      23.6450000000    27.8510000000    25.0240000000
   33      C      28.6140000000    22.7650000000    31.4660000000
   34      H      29.5820000000    22.8530000000    30.9660000000
   35      H      27.7310000000    22.8200000000    30.8250000000
   36      H      28.4090000000    23.5050000000    32.2440000000
   37      S      28.6440000000    21.2200000000    32.4030000000
   38      C      30.3320000000    21.6040000000    32.9200000000
   39      H      30.6190000000    20.7670000000    33.5610000000
   40      H      30.8940000000    21.5290000000    31.9850000000
   41      H      30.2960000000    22.4730000000    33.5810000000
   42      O      28.9140000000    20.3750000000    31.1970000000
   43      C      30.6080000000    25.1840000000    33.8230000000
   44      H      31.4030000000    24.4920000000    34.1140000000
   45      H      30.3900000000    25.9710000000    34.5490000000
   46      H      29.6410000000    24.6920000000    33.6950000000
   47      S      30.9280000000    26.1250000000    32.3140000000
   48      C      29.3490000000    26.9970000000    32.2000000000
   49      H      29.3220000000    27.5570000000    33.1380000000
   50      H      29.2780000000    27.6840000000    31.3530000000
   51      H      28.5380000000    26.2660000000    32.1390000000
   52      O      30.6900000000    25.0930000000    31.2560000000
   53      C      31.8130000000    23.2530000000    28.2740000000
   54      H      31.3910000000    23.7110000000    27.3760000000
   55      H      31.5850000000    22.1890000000    28.3760000000
   56      H      31.4060000000    23.8050000000    29.1260000000
   57      S      33.6190000000    23.2310000000    28.2550000000
   58      C      33.9900000000    24.9910000000    28.4340000000
   59      H      33.7610000000    25.3490000000    29.4410000000
   60      H      35.0630000000    25.0980000000    28.2580000000
   61      H      33.3740000000    25.6150000000    27.7810000000
   62      O      33.9220000000    22.8090000000    26.8520000000
   63      C      21.3150000000    22.1170000000    32.2410000000
   64      H      21.0060000000    22.8860000000    31.5290000000
   65      H      21.6680000000    22.6660000000    33.1170000000
   66      H      22.0470000000    21.4420000000    31.7900000000
   67      S      19.9350000000    21.0660000000    32.7480000000
   68      C      20.9590000000    19.7810000000    33.4990000000
   69      H      21.5250000000    20.1100000000    34.3740000000
   70      H      20.3750000000    18.9150000000    33.8190000000
   71      H      21.6470000000    19.5080000000    32.6950000000
   72      O      19.4360000000    20.4570000000    31.4740000000
   73      C      28.5670000000    13.1270000000    26.5190000000
   74      H      28.8350000000    12.0860000000    26.7150000000
   75      H      28.3460000000    13.5730000000    27.4920000000
   76      H      27.7830000000    13.2730000000    25.7720000000
   77      S      29.9760000000    13.9820000000    25.7770000000
   78      C      30.8220000000    14.0340000000    27.3730000000
   79      H      30.6790000000    13.0680000000    27.8630000000
   80      H      31.8690000000    14.3010000000    27.2100000000
   81      H      30.4060000000    14.8380000000    27.9860000000
   82      O      29.4630000000    15.3520000000    25.4580000000
   83      C      24.3680000000    18.2750000000    32.3310000000
   84      H      24.7780000000    17.5660000000    33.0550000000
   85      H      23.3050000000    18.5220000000    32.3940000000
   86      H      24.4890000000    17.7940000000    31.3570000000
   87      S      25.3870000000    19.7620000000    32.2120000000
   88      C      25.2480000000    20.1300000000    33.9760000000
   89      H      25.5140000000    19.1750000000    34.4360000000
   90      H      25.8730000000    21.0000000000    34.1950000000
   91      H      24.2090000000    20.2970000000    34.2730000000
   92      O      24.4660000000    20.7740000000    31.6060000000
   93      C      28.0960000000    25.5460000000    28.8080000000
   94      H      28.8260000000    26.3390000000    28.6270000000
   95      H      28.2880000000    25.2350000000    29.8380000000
   96      H      28.2230000000    24.6740000000    28.1610000000
   97      S      26.3990000000    26.1500000000    28.6600000000
   98      C      26.4050000000    26.0780000000    26.8550000000
   99      H      27.3050000000    26.5170000000    26.4170000000
  100      H      26.4740000000    25.0190000000    26.5920000000
  101      H      25.5430000000    26.6140000000    26.4490000000
  102      O      26.4400000000    27.6370000000    28.8260000000
  103      C      24.3630000000    22.1660000000    23.1970000000
  104      H      24.8870000000    23.1260000000    23.1750000000
  105      H      23.9340000000    22.1020000000    24.2000000000
  106      H      24.9910000000    21.3280000000    22.8840000000
  107      S      23.1200000000    22.6330000000    21.9710000000
  108      C      22.2180000000    21.0810000000    22.1740000000
  109      H      21.2820000000    21.0980000000    21.6090000000
  110      H      22.7950000000    20.2170000000    21.8350000000
  111      H      22.0470000000    20.8200000000    23.2210000000
  112      O      23.7830000000    22.4620000000    20.6400000000
  113      C      31.5990000000    15.7720000000    19.4370000000
  114      H      30.6700000000    16.2900000000    19.6890000000
  115      H      32.4080000000    16.4480000000    19.1500000000
  116      H      31.3150000000    15.0260000000    18.6910000000
  117      S      32.0080000000    14.7050000000    20.8370000000
  118      C      31.8680000000    16.1320000000    21.9370000000
  119      H      32.0480000000    15.7450000000    22.9430000000
  120      H      32.6140000000    16.8730000000    21.6400000000
  121      H      30.8320000000    16.4800000000    21.9090000000
  122      O      33.4630000000    14.4800000000    20.5700000000
  123      C      35.6980000000    18.7690000000    29.2240000000
  124      H      35.4610000000    17.7950000000    28.7890000000
  125      H      36.0580000000    18.5230000000    30.2260000000
  126      H      34.8870000000    19.5020000000    29.1990000000
  127      S      37.0720000000    19.4780000000    28.2900000000
  128      C      36.1460000000    19.7140000000    26.7570000000
  129      H      35.6320000000    20.6740000000    26.6670000000
  130      H      36.7800000000    19.5430000000    25.8830000000
  131      H      35.3850000000    18.9360000000    26.8620000000
  132      O      37.8940000000    18.2470000000    28.0640000000
  133      C      32.0290000000    17.5220000000    27.9190000000
  134      H      32.2180000000    18.4750000000    27.4180000000
  135      H      32.9710000000    17.2110000000    28.3760000000
  136      H      31.7580000000    16.7500000000    27.1950000000
  137      S      30.7840000000    17.6420000000    29.2230000000
  138      C      31.5670000000    18.9680000000    30.1670000000
  139      H      31.4660000000    19.9620000000    29.7240000000
  140      H      31.1420000000    19.1300000000    31.1610000000
  141      H      32.6300000000    18.7490000000    30.2980000000
  142      O      30.8470000000    16.3340000000    29.9480000000
  143      C      26.9680000000    24.3960000000    21.1360000000
  144      H      27.9110000000    24.0270000000    20.7240000000
  145      H      27.2970000000    24.8990000000    22.0490000000
  146      H      26.2300000000    23.5930000000    21.1990000000
  147      S      26.1580000000    25.5590000000    20.0150000000
  148      C      27.4220000000    26.8470000000    20.1070000000
  149      H      27.1210000000    27.8800000000    19.9180000000
  150      H      27.8810000000    26.7490000000    21.0940000000
  151      H      28.0720000000    26.6320000000    19.2540000000
  152      O      25.1100000000    26.1320000000    20.9180000000
  153      C      28.7940000000    24.5210000000    25.0010000000
  154      H      28.4970000000    23.7040000000    25.6640000000
  155      H      28.8860000000    25.4920000000    25.4960000000
  156      H      28.1110000000    24.6580000000    24.1590000000
  157      S      30.3440000000    23.9470000000    24.2710000000
  158      C      30.2440000000    25.0600000000    22.8510000000
  159      H      30.3760000000    26.1110000000    23.1190000000
  160      H      30.9500000000    24.8190000000    22.0520000000
  161      H      29.2260000000    25.0740000000    22.4540000000
  162      O      29.8460000000    22.6590000000    23.6940000000
  163      C      27.4270000000    16.4030000000    28.1380000000
  164      H      26.8620000000    15.5470000000    27.7590000000
  165      H      27.6060000000    17.0620000000    27.2850000000
  166      H      28.3970000000    16.0000000000    28.4390000000
  167      S      26.5620000000    17.4850000000    29.2980000000
  168      C      27.1430000000    16.5300000000    30.7180000000
  169      H      26.6620000000    15.5530000000    30.6330000000
  170      H      28.2260000000    16.4080000000    30.6340000000
  171      H      26.8620000000    17.0790000000    31.6210000000
  172      O      25.1740000000    16.9510000000    29.1250000000
  173      C      34.1930000000    23.9090000000    31.9960000000
  174      H      35.2530000000    24.0790000000    31.7880000000
  175      H      33.4580000000    24.1870000000    31.2360000000
  176      H      33.8390000000    24.4150000000    32.8980000000
  177      S      33.8770000000    22.1430000000    32.2140000000
  178      C      35.3450000000    21.7070000000    33.1730000000
  179      H      35.0650000000    22.0610000000    34.1690000000
  180      H      35.4200000000    20.6160000000    33.1600000000
  181      H      36.2640000000    22.1450000000    32.7760000000
  182      O      34.0120000000    21.6540000000    30.8060000000
  183      C      33.5340000000    21.7470000000    23.2970000000
  184      H      34.5320000000    21.6290000000    23.7290000000
  185      H      33.5010000000    22.0870000000    22.2590000000
  186      H      32.9310000000    22.3480000000    23.9830000000
  187      S      32.5940000000    20.2040000000    23.2660000000
  188      C      33.2270000000    19.6070000000    24.8490000000
  189      H      34.3130000000    19.6410000000    24.9650000000
  190      H      32.7840000000    20.2800000000    25.5880000000
  191      H      33.0600000000    18.5330000000    24.9640000000
  192      O      33.1970000000    19.2020000000    22.3310000000
  193      C      30.8510000000    19.7490000000    20.0320000000
  194      H      31.8870000000    19.8130000000    19.6890000000
  195      H      30.8100000000    19.2750000000    21.0160000000
  196      H      30.2620000000    19.2740000000    19.2440000000
  197      S      30.1850000000    21.3820000000    20.4250000000
  198      C      28.6680000000    20.7790000000    21.2000000000
  199      H      28.0820000000    20.2240000000    20.4630000000
  200      H      28.9590000000    20.1050000000    22.0100000000
  201      H      28.2290000000    21.7000000000    21.5920000000
  202      O      29.7840000000    22.0510000000    19.1470000000
  203      C      37.1930000000    15.8310000000    25.5630000000
  204      H      37.9110000000    15.7500000000    24.7420000000
  205      H      37.3020000000    16.8260000000    26.0030000000
  206      H      37.1450000000    14.9930000000    26.2620000000
  207      S      35.6070000000    15.9640000000    24.7060000000
  208      C      35.7840000000    17.4150000000    23.6440000000
  209      H      34.9010000000    17.4870000000    23.0040000000
  210      H      35.7760000000    18.3090000000    24.2730000000
  211      H      36.7570000000    17.3860000000    23.1460000000
  212      O      34.6120000000    16.3450000000    25.7580000000
  213      C      22.6790000000    25.5250000000    27.5780000000
  214      H      23.4960000000    25.8350000000    28.2350000000
  215      H      22.8390000000    24.5070000000    27.2140000000
  216      H      22.3840000000    26.1480000000    26.7300000000
  217      S      21.2530000000    25.2750000000    28.6590000000
  218      C      21.4030000000    26.7660000000    29.6690000000
  219      H      22.4290000000    26.7820000000    30.0450000000
  220      H      21.3020000000    27.6990000000    29.1090000000
  221      H      20.7480000000    26.6590000000    30.5380000000
  222      O      21.6570000000    24.0680000000    29.4470000000
  223      C      27.3070000000    16.3440000000    23.0210000000
  224      H      28.3020000000    16.7670000000    23.1820000000
  225      H      26.4800000000    17.0560000000    22.9580000000
  226      H      27.1380000000    15.6510000000    23.8480000000
  227      S      27.3730000000    15.4700000000    21.4400000000
  228      C      28.3660000000    14.1020000000    22.0770000000
  229      H      29.1590000000    14.5160000000    22.7050000000
  230      H      27.6320000000    13.5930000000    22.7070000000
  231      H      28.7860000000    13.5360000000    21.2420000000
  232      O      28.3610000000    16.2870000000    20.6680000000
  233      C      20.5030000000    20.4500000000    28.1170000000
  234      H      21.0170000000    21.0090000000    28.9040000000
  235      H      20.0640000000    21.1430000000    27.3940000000
  236      H      19.7070000000    19.8390000000    28.5500000000
  237      S      21.7660000000    19.5780000000    27.1630000000
  238      C      23.0160000000    20.8470000000    27.4620000000
  239      H      23.8520000000    20.5830000000    26.8090000000
  240      H      22.6500000000    21.8420000000    27.1960000000
  241      H      23.4190000000    20.7480000000    28.4730000000
  242      O      21.3830000000    20.0180000000    25.7840000000
  243      C      20.7190000000    23.3110000000    25.4290000000
  244      H      19.8950000000    22.5930000000    25.4600000000
  245      H      21.6590000000    22.7540000000    25.4480000000
  246      H      20.6440000000    23.9310000000    26.3260000000
  247      S      20.4660000000    24.3240000000    23.9540000000
  248      C      18.8750000000    25.1130000000    24.2900000000
  249      H      18.8460000000    25.7350000000    25.1880000000
  250      H      18.5480000000    25.6890000000    23.4200000000
  251      H      18.2860000000    24.2060000000    24.4500000000
  252      O      20.0060000000    23.2400000000    23.0300000000
  253      C      33.1550000000    27.1610000000    24.7740000000
  254      H      33.2680000000    28.2460000000    24.7150000000
  255      H      32.1780000000    26.8330000000    24.4080000000
  256      H      33.1230000000    26.9160000000    25.8380000000
  257      S      34.6070000000    26.4720000000    23.9470000000
  258      C      34.1330000000    24.7280000000    23.9680000000
  259      H      34.9370000000    24.1450000000    23.5120000000
  260      H      33.8250000000    24.3740000000    24.9550000000
  261      H      33.2730000000    24.6290000000    23.3010000000
  262      O      35.6810000000    26.6650000000    24.9710000000
  263      C      24.0620000000    24.5790000000    31.3450000000
  264      H      24.6640000000    24.3760000000    30.4560000000
  265      H      23.1610000000    23.9600000000    31.3410000000
  266      H      23.6060000000    25.5730000000    31.3620000000
  267      S      25.1170000000    24.4380000000    32.8050000000
  268      C      23.8700000000    25.2070000000    33.8630000000
  269      H      22.9310000000    24.6530000000    33.7830000000
  270      H      24.3490000000    25.2940000000    34.8410000000
  271      H      23.8330000000    26.2510000000    33.5420000000
  272      O      26.1710000000    25.4980000000    32.7280000000
  273      C      24.0400000000    16.9070000000    26.0130000000
  274      H      23.4480000000    16.1240000000    26.4950000000
  275      H      25.0820000000    16.6370000000    25.8270000000
  276      H      23.9760000000    17.8380000000    26.5810000000
  277      S      23.2290000000    17.1440000000    24.4160000000
  278      C      21.7100000000    16.2400000000    24.7920000000
  279      H      21.2400000000    16.6820000000    25.6750000000
  280      H      21.0460000000    16.3610000000    23.9330000000
  281      H      21.9310000000    15.1800000000    24.9380000000
  282      O      23.9840000000    16.0890000000    23.6680000000
  283      C      26.6630000000    16.7830000000    17.8250000000
  284      H      26.9290000000    16.2630000000    18.7490000000
  285      H      25.5810000000    16.6650000000    17.7230000000
  286      H      27.2480000000    16.6180000000    16.9160000000
  287      S      26.9140000000    18.5460000000    18.1270000000
  288      C      25.6970000000    18.5940000000    19.4630000000
  289      H      25.4830000000    19.6340000000    19.7230000000
  290      H      24.8250000000    18.0490000000    19.0920000000
  291      H      26.1130000000    18.0020000000    20.2820000000
  292      O      26.2850000000    19.1650000000    16.9180000000
  293      C      31.5420000000    28.1910000000    29.2680000000
  294      H      31.9220000000    29.0510000000    29.8260000000
  295      H      30.6870000000    27.7210000000    29.7600000000
  296      H      32.2900000000    27.3950000000    29.2220000000
  297      S      31.1230000000    28.5530000000    27.5480000000
  298      C      29.4640000000    29.1980000000    27.8590000000
  299      H      29.0330000000    29.4830000000    26.8960000000
  300      H      28.8210000000    28.4020000000    28.2440000000
  301      H      29.5510000000    30.0700000000    28.5130000000
  302      O      30.7940000000    27.1660000000    27.0910000000
 ----------------------------------------------------------------
 Nuclear Repulsion Energy =       50811.05746510 hartrees
 There are      623 alpha and      623 beta electrons
 Requested basis set is 6-31+G(d)
 There are 995 shells and 2773 basis functions

 Total QAlloc Memory Limit  16000 MB
 Mega-Array Size      7821 MB
 MEM_STATIC part      8000 MB
 A cutoff of  1.0D-14 yielded 185943 shell pairs
 There are   1612043 function pairs
 Smallest overlap matrix eigenvalue = 5.12E-07
 Linear dependence detected in AO basis
 Tighter screening thresholds may be required for diffuse basis sets
 Use S2THRESH > 14 and THRESH = 14 in case of SCF convergence issues
 Number of orthogonalized atomic orbitals = 2771
 Maximum deviation from orthogonality = 1.058E-10

 Scale SEOQF with 1.000000e-03/1.000000e-03/1.000000e-03

 Standard Electronic Orientation quadrupole field applied
 Nucleus-field energy     =    -0.0000001742 hartrees
 Guess from superposition of atomic densities
 Warning:  Energy on first SCF cycle will be non-variational
 SAD guess density has 1246.000002 electrons

 -----------------------------------------------------------------------
  General SCF calculation program by
  Eric Jon Sundstrom, Paul Horn, Yuezhi Mao, Dmitri Zuev, Alec White,
  David Stuck, Shaama M.S., Shane Yost, Joonho Lee, David Small,
  Daniel Levine, Susi Lehtola, Hugh Burton, Evgeny Epifanovsky,
  Bang C. Huynh
 -----------------------------------------------------------------------
=================================================
        Doing projection-based embedding         
      F. Manby et al. JCTC, 8, 2564 (2012)       
=================================================

****************************************************
   Low-level SCF calculation for the whole system   
****************************************************
----------------------------------------------
 Summary of the low-level theory: 
 Exchange:     0.2000 Hartree-Fock + 0.0800 Slater + 0.7200 B88
 Correlation:  0.1900 VWN1RPA + 0.8100 LYP
 Using Euler-Maclaurin-Lebedev (75,302) quadrature formula
----------------------------------------------
 using 16 threads for integral computing
 -------------------------------------------------------
 OpenMP Integral computing Module                
 Release: version 2.0, May 2017, Q-Chem Inc. Pleasanton 
 -------------------------------------------------------
 A restricted SCF calculation will be
 performed using DIIS
 SCF converges when DIIS error is below 1.0e-08
 ---------------------------------------
  Cycle       Energy         DIIS error
 ---------------------------------------
    1  -15913.7824801398      1.33e-02  
    2  -15888.8305885034      2.48e-03  
    3  -15868.3642036283      5.06e-03  
    4  -15878.5680458105      2.45e-03  
    5  -15891.4861260467      1.15e-03  
    6  -15893.7842022223      3.32e-04  
    7  -15893.8350368784      2.89e-04  
    8  -15893.8905389706      1.03e-04  
    9  -15893.8983486136      4.34e-05  
   10  -15893.9001443085      2.74e-05  
   11  -15893.9008086657      1.37e-05  
   12  -15893.9010204735      6.01e-06  
   13  -15893.9010531427      1.90e-06  
   14  -15893.9010559003      6.74e-07  
   15  -15893.9010562684      2.23e-07  
   16  -15893.9010563086      7.17e-08  
   17  -15893.9010563122      3.43e-08  
   18  -15893.9010563133      7.74e-09  Convergence criterion met
 ---------------------------------------
 SCF time:   CPU 252946.92s  wall 15989.00s 
 SCF   energy in the final basis set =   -15893.9010563133
 Total energy in the final basis set =   -15893.9010563133

****************************************************
             Start embedding calculation            
****************************************************
----------------------------------------------
 Summary of the high-level theory: 
 Exchange:     0.2000 Hartree-Fock + 0.0800 Slater + 0.7200 B88
 Correlation:  0.1900 VWN1RPA + 0.8100 LYP
 Using Euler-Maclaurin-Lebedev (75,302) quadrature formula
----------------------------------------------
Doing R-in-R Embedding Calculation
Number of fragments: 2
Embedded fragment(s): 1 
NOcc for each fragment
           35
          588
NBasis for each fragment
          197
         2576
Variational space of the embedded problem: 
NOcc (active)  = 35
NOcc (fixed)   = 588
NVir (total)   = 2148
Read converged orbitals from disk
=========================================================
       Doing SPADE partition for the orbital space       
     D. CLaudino and N. Mayhall JCTC 15, 1053 (2019)     
=========================================================
SPADE singular values:
 1.0000 1.0000 1.0000 1.0000 1.0000 1.0000 1.0000 1.0000 1.0000 0.9999
 0.9998 0.9998 0.9997 0.9996 0.9995 0.9993 0.9993 0.9990 0.9983 0.9979
 0.9976 0.9971 0.9965 0.9963 0.9958 0.9947 0.9942 0.9941 0.9931 0.9923
 0.9917 0.9905 0.9894 0.9856 0.9800 0.2129 0.1909 0.1628 0.1576 0.1452
 0.1382 0.1255 0.1215 0.1177 0.1126 0.1032 0.0955 0.0832 0.0737 0.0706
 0.0580 0.0541 0.0529 0.0512 0.0434 0.0423 0.0403 0.0382 0.0371 0.0339
 0.0305 0.0294 0.0267 0.0246 0.0227 0.0218 0.0210 0.0198 0.0191 0.0178
 0.0170 0.0160 0.0150 0.0134 0.0131 0.0129 0.0124 0.0118 0.0116 0.0107
 0.0102 0.0095 0.0090 0.0082 0.0076 0.0075 0.0070 0.0069 0.0067 0.0065
 0.0060 0.0057 0.0056 0.0051 0.0050 0.0045 0.0044 0.0042 0.0041 0.0037
 0.0035 0.0034 0.0032 0.0032 0.0031 0.0029 0.0026 0.0025 0.0024 0.0023
 0.0022 0.0022 0.0021 0.0020 0.0019 0.0019 0.0018 0.0017 0.0016 0.0015
 0.0015 0.0015 0.0014 0.0013 0.0013 0.0013 0.0012 0.0011 0.0011 0.0011
 0.0010 0.0009 0.0009 0.0009 0.0008 0.0008 0.0007 0.0007 0.0007 0.0006
 0.0006 0.0006 0.0006 0.0006 0.0005 0.0005 0.0005 0.0005 0.0004 0.0004
 0.0004 0.0004 0.0003 0.0003 0.0003 0.0003 0.0003 0.0003 0.0003 0.0003
 0.0003 0.0002 0.0002 0.0002 0.0002 0.0002 0.0002 0.0002 0.0002 0.0002
 0.0002 0.0002 0.0002 0.0002 0.0002 0.0002 0.0002 0.0001 0.0001 0.0001
 0.0001 0.0001 0.0001 0.0001 0.0001 0.0001 0.0001 0.0001 0.0001 0.0001
 0.0001 0.0001 0.0001 0.0001 0.0001 0.0000 0.0000
Early stop requested!
588 environment occs will be part of frozen-core in future post-HF calculations
 
 --------------------------------------------------------------
 
                    Orbital Energies (a.u.)
 --------------------------------------------------------------
 
 Alpha MOs
 -- Occupied --
 -0.5017  -0.5299  -0.5009  -0.4877  -0.4808  -0.4810  -0.4715  -0.4652
 -0.4770  -0.4586  -0.4376  -0.4580  -0.4647  -0.4282  -0.4372  -0.4703
 -0.4797  -0.4543  -0.4312  -0.4627  -0.5175  -0.4604  -0.4846  -0.5296
 -0.5741  -0.5481  -0.5953  -0.5399  -0.5423  -0.6577  -0.5131  -0.6404
 -0.5862  -0.5315  -0.5300  -0.5310  -0.5560  -0.5625  -0.5303  -0.5436
 -0.6069  -0.5573  -0.5346  -0.5381  -0.4880  -0.5063  -0.6097  -0.5099
 -0.5690  -0.5489  -0.5724  -0.5981  -0.5645  -0.5503  -0.5840  -0.5756
 -0.6190  -0.5910  -0.6536  -0.6955  -0.6286  -0.6150  -0.7184  -0.8495
 -0.6931  -0.8017  -0.9309  -0.8014  -0.7206  -0.8658  -0.8866  -0.8933
 -0.9790  -1.1545  -0.9840  -0.8682  -1.0574  -1.2203  -0.8564  -0.9272
 -0.9838  -0.9694  -0.8122  -0.9863  -1.1764  -1.0166  -0.9600  -0.9096
 -0.9593  -1.3556  -1.0771  -1.2848  -1.0228  -1.3804  -1.1132  -1.2308
 -1.1189  -0.8769  -1.1293  -0.8608  -1.4029  -1.5977  -0.9825  -0.9842
 -1.2379  -1.2160  -1.0536  -1.3656  -1.4382  -1.5321  -1.3047  -1.1528
 -1.2057  -1.6985  -1.4777  -1.0754  -1.0564  -1.1934  -1.0149  -1.1912
 -1.2544  -1.5035  -1.2452  -1.0704  -1.4359  -1.0382  -1.5465  -1.8643
 -1.2345  -1.3505  -1.3975  -1.1675  -1.8934  -1.3615  -1.2628  -1.2064
 -1.5211  -1.4086  -1.7472  -1.5331  -1.9894  -2.1058  -1.4026  -1.3832
 -1.5267  -2.1027  -2.3454  -1.9127  -1.5910  -1.5742  -1.3662  -1.3073
 -2.1269  -1.5169  -2.0710  -1.9802  -1.8694  -1.8750  -1.9224  -2.0354
 -1.7650  -2.3560  -5.8706  -5.9982  -5.9837  -5.9971  -5.9811  -5.9929
 -5.9823  -5.9886  -6.0087  -6.0089  -5.9658  -5.9014  -5.9913  -5.9963
 -5.9901  -5.9582  -5.9827  -5.9452  -5.8999  -6.0165  -5.9910  -5.9990
 -5.9719  -5.9840  -5.9650  -5.9952  -6.0058  -5.9689  -5.9476  -5.9633
 -5.9771  -5.9605  -5.9814  -5.9623  -5.9610  -5.9721  -2.0778 -46.1099
-10.1693  -1.9088  -6.0825  -1.8202  -2.7471 -13.0935  -2.9433 -11.5637
 -8.6329 -10.5850  -6.2027  -1.2280  -6.8397  -1.2162  -1.4654  -6.7582
 -4.8797  -1.2551  -8.5639  -1.7917  -1.4686  -2.0949  -5.8291  -4.6667
 -5.2896  -1.5552  -1.3926 -73.3657  -1.8762  -1.4723  -9.4990 -23.6343
-59.6995  -4.0832  -1.8592 -12.9007  -5.2515  -2.7442  -1.3728  -8.6877
-14.1248 -17.3707 -12.1467 -11.6791  -4.5960  -1.1689  -4.4799  -1.4167
 -6.6177  -1.7440 -14.4541  -2.0662 -10.0719  -6.7571 -15.7447  -1.3413
 -1.0945  -1.5700  -1.2248 -77.1816  -3.0354  -1.3165 -17.5602 -67.4750
-13.7972  -4.2546 -11.2890  -3.8799  -1.2839  -5.5201  -2.3812 -12.5398
 -9.1351  -2.9258  -1.9022  -3.1854  -8.1811  -3.2528  -1.4491  -6.6925
-16.3221 -18.3050  -9.2527  -6.6915 -11.4304  -1.7147  -1.5865  -2.6063
-54.9882  -8.8293  -8.0768  -7.2251  -2.2064 -11.6060  -3.7624 -72.4811
-11.6497  -5.5399  -4.4808  -8.0578  -3.1326  -6.8537  -3.7051  -7.3422
 -2.7511  -2.4023  -7.0660  -0.9615  -6.2983  -5.9889  -6.6524  -9.7606
-55.5655  -1.4238 -14.4001  -4.4241  -3.0020 -70.3373  -3.5304 -51.2204
 -7.6364  -6.7211  -1.7024  -4.3269  -4.4269  -2.5492  -4.9803  -2.8008
-17.3158  -3.9152  -6.7416  -3.5758  -1.5778 -35.8956  -2.9508 -14.3056
 -3.0549  -7.0846  -7.6464 -15.2674  -4.1666  -6.6616 -22.8982  -4.2014
-14.0290  -9.5938 -15.2658  -2.0000  -4.6007 -11.4152 -18.8987 -12.2927
 -8.1186 -10.5131  -9.9567  -9.4445  -4.4805  -6.4769  -2.9024  -4.7102
-16.3268 -11.0089  -3.7044  -8.4108  -6.6202  -6.2826  -6.6954 -13.5859
 -9.9711  -5.2066  -7.1124  -8.6539  -4.7141  -4.5104  -4.2732  -7.3408
 -7.4579 -10.3941 -14.4932  -3.3712  -5.2380  -3.2933  -9.0331  -1.4364
 -6.8918  -6.9571  -3.3137 -46.0605  -5.4751 -16.6850  -2.8500  -9.5315
-12.6037  -5.0909 -19.6319  -7.8339 -12.2319 -12.4041  -5.2870  -5.9087
 -9.8646  -3.6718  -4.9901  -3.8705  -3.4595  -5.8656  -5.8189  -6.5472
 -5.6619  -5.4491  -6.4650  -8.4137  -9.6213 -19.3041  -6.9195  -5.7625
 -4.1987  -7.3931  -9.7884  -7.0546  -7.3070  -4.7701  -4.1306  -5.4754
 -4.0472  -9.6144  -6.8854  -9.6729  -8.5670  -5.5184 -10.1460  -9.1716
 -5.6962  -6.7552  -3.5293 -11.8559 -23.5224  -3.2374  -8.6963  -4.8715
 -4.6641  -9.9351  -8.1227  -1.7475 -13.9864  -8.8219  -4.3646  -3.7897
 -8.7594 -12.5065  -6.0078  -5.7273  -6.3075 -13.7287  -5.4808  -5.8613
 -7.4693  -9.3175  -9.5962  -5.7853  -5.4806  -6.8526 -10.1484 -11.9433
 -9.0768  -6.4148  -6.0687 -22.3831 -19.7118  -2.7941 -10.8527 -10.5468
 -5.8051 -12.2019  -2.2507  -4.7586  -4.4034 -62.5891  -3.8047 -14.5966
 -7.8212  -5.9790  -3.4764 -11.4842  -3.6259  -4.1644 -18.0500 -25.8501
-10.7362  -1.7460  -8.2673  -3.7622 -24.8926  -7.9449  -9.8185 -33.5342
-16.6511 -46.4977  -3.5213  -9.3591 -12.0480 -14.2970  -1.0739  -5.5959
 -2.6147 -20.4341 -10.3758 -19.5876 -58.8239  -1.6738  -2.7738  -1.0836
-17.6242 -13.3986  -5.9500 -53.9747 -10.4266  -8.3269  -8.7151 -12.3102
 -2.3860  -1.2710  -1.5387  -9.2222  -1.6191  -7.6032 -76.7316 -76.6582
 -1.9492  -2.8650  -3.1755 -73.6172  -9.6719  -6.3081  -3.6704 -15.2474
 -5.6020 -11.4430 -11.9227 -18.8166 -16.5397  -8.4591  -3.0433 -49.1069
-18.7433 -10.1221  -6.3655 -15.9380  -9.3384 -14.9457  -3.7483 -10.1199
 -5.9869  -5.7981  -3.3802 -48.2937 -33.7168  -8.0820 -11.3505 -11.5636
-13.7418  -3.2815 -19.8245 -11.9234 -14.1819  -6.5412 -11.3198 -27.0509
-20.8622  -3.6311 -12.4398 -17.6705  -2.7177  -5.8916 -13.7635  -6.3136
 -8.1633  -4.7102  -5.6917  -4.7542  -8.9575  -4.5193 -11.7062  -2.7084
-22.3756  -3.3568  -9.4302  -3.9101 -14.2162 -10.3125 -10.4219 -10.2911
-10.5710 -17.3301 -10.1826 -10.2503 -10.7798  -0.7146  -0.6834  -0.6990
 -0.6895  -0.7714  -0.6365  -0.7898  -0.8105  -0.4073  -0.4658  -0.4766
 -0.5031  -0.4460  -0.4677  -0.4089  -0.4533  -0.4077  -0.4531  -0.4437
 -0.4625  -0.4412  -0.4595  -0.4235  -0.4321  -0.5723  -0.5524
 -- Virtual --
 -0.0546  -0.0448  -0.0434  -0.0393  -0.0351  -0.0314  -0.0307  -0.0273
 -0.0263  -0.0261  -0.0221  -0.0206  -0.0182  -0.0175  -0.0156  -0.0149
 -0.0128  -0.0117  -0.0112  -0.0101  -0.0098  -0.0077  -0.0074  -0.0050
 -0.0046  -0.0039  -0.0027  -0.0020  -0.0012  -0.0006   0.0005   0.0015
  0.0022   0.0031   0.0036   0.0049   0.0054   0.0068   0.0075   0.0082
  0.0085   0.0088   0.0098   0.0104   0.0108   0.0119   0.0124   0.0129
  0.0137   0.0137   0.0145   0.0147   0.0155   0.0157   0.0159   0.0168
  0.0174   0.0175   0.0189   0.0195   0.0211   0.0217   0.0222   0.0227
  0.0234   0.0250   0.0253   0.0258   0.0260   0.0272   0.0275   0.0279
  0.0287   0.0291   0.0297   0.0303   0.0315   0.0324   0.0331   0.0338
  0.0341   0.0351   0.0354   0.0361   0.0366   0.0370   0.0380   0.0381
  0.0394   0.0409   0.0417   0.0419   0.0425   0.0428   0.0430   0.0437
  0.0440   0.0445   0.0455   0.0462   0.0464   0.0471   0.0481   0.0486
  0.0488   0.0495   0.0500   0.0510   0.0517   0.0523   0.0533   0.0536
  0.0538   0.0543   0.0557   0.0563   0.0569   0.0577   0.0582   0.0585
  0.0588   0.0599   0.0602   0.0603   0.0608   0.0615   0.0616   0.0628
  0.0642   0.0651   0.0654   0.0658   0.0659   0.0665   0.0670   0.0674
  0.0682   0.0685   0.0692   0.0697   0.0706   0.0707   0.0716   0.0723
  0.0726   0.0736   0.0743   0.0745   0.0756   0.0758   0.0763   0.0771
  0.0781   0.0788   0.0795   0.0799   0.0805   0.0807   0.0817   0.0826
  0.0832   0.0835   0.0844   0.0849   0.0852   0.0860   0.0865   0.0878
  0.0884   0.0889   0.0892   0.0900   0.0908   0.0913   0.0915   0.0923
  0.0926   0.0929   0.0943   0.0950   0.0959   0.0961   0.0964   0.0968
  0.0975   0.0981   0.0984   0.0990   0.0996   0.0998   0.1004   0.1011
  0.1018   0.1033   0.1034   0.1038   0.1045   0.1057   0.1057   0.1063
  0.1066   0.1080   0.1083   0.1093   0.1095   0.1103   0.1107   0.1110
  0.1113   0.1121   0.1123   0.1135   0.1142   0.1150   0.1152   0.1163
  0.1176   0.1180   0.1186   0.1190   0.1197   0.1201   0.1209   0.1213
  0.1216   0.1218   0.1223   0.1236   0.1239   0.1247   0.1256   0.1259
  0.1267   0.1270   0.1280   0.1283   0.1294   0.1296   0.1301   0.1304
  0.1313   0.1319   0.1322   0.1330   0.1336   0.1345   0.1349   0.1350
  0.1352   0.1361   0.1368   0.1372   0.1375   0.1377   0.1393   0.1399
  0.1407   0.1410   0.1418   0.1422   0.1428   0.1430   0.1438   0.1444
  0.1450   0.1452   0.1462   0.1469   0.1478   0.1479   0.1491   0.1494
  0.1505   0.1513   0.1517   0.1525   0.1528   0.1535   0.1540   0.1545
  0.1547   0.1557   0.1564   0.1566   0.1569   0.1579   0.1586   0.1588
  0.1590   0.1595   0.1604   0.1606   0.1610   0.1615   0.1619   0.1627
  0.1632   0.1641   0.1644   0.1648   0.1653   0.1663   0.1664   0.1672
  0.1681   0.1687   0.1695   0.1701   0.1707   0.1717   0.1720   0.1728
  0.1733   0.1736   0.1739   0.1747   0.1753   0.1759   0.1766   0.1769
  0.1776   0.1781   0.1783   0.1788   0.1794   0.1798   0.1802   0.1808
  0.1816   0.1818   0.1827   0.1838   0.1842   0.1850   0.1858   0.1866
  0.1873   0.1878   0.1887   0.1888   0.1898   0.1900   0.1909   0.1921
  0.1928   0.1933   0.1939   0.1941   0.1953   0.1956   0.1960   0.1961
  0.1976   0.1980   0.1981   0.1988   0.1998   0.2001   0.2005   0.2008
  0.2011   0.2016   0.2029   0.2033   0.2039   0.2042   0.2045   0.2055
  0.2058   0.2063   0.2066   0.2072   0.2074   0.2080   0.2086   0.2096
  0.2100   0.2110   0.2120   0.2121   0.2128   0.2139   0.2141   0.2146
  0.2153   0.2162   0.2171   0.2182   0.2183   0.2191   0.2195   0.2201
  0.2209   0.2215   0.2223   0.2226   0.2239   0.2246   0.2247   0.2252
  0.2259   0.2267   0.2271   0.2277   0.2281   0.2288   0.2293   0.2296
  0.2301   0.2306   0.2316   0.2325   0.2334   0.2340   0.2348   0.2351
  0.2360   0.2365   0.2377   0.2381   0.2382   0.2392   0.2396   0.2401
  0.2405   0.2412   0.2420   0.2432   0.2436   0.2441   0.2443   0.2457
  0.2458   0.2462   0.2465   0.2468   0.2477   0.2490   0.2497   0.2500
  0.2508   0.2519   0.2528   0.2529   0.2537   0.2543   0.2554   0.2560
  0.2566   0.2570   0.2580   0.2593   0.2597   0.2600   0.2613   0.2614
  0.2620   0.2624   0.2629   0.2639   0.2644   0.2649   0.2658   0.2664
  0.2668   0.2674   0.2681   0.2689   0.2700   0.2702   0.2710   0.2716
  0.2728   0.2731   0.2740   0.2745   0.2749   0.2759   0.2767   0.2775
  0.2789   0.2793   0.2798   0.2809   0.2819   0.2822   0.2830   0.2843
  0.2845   0.2849   0.2855   0.2865   0.2871   0.2886   0.2893   0.2897
  0.2905   0.2908   0.2913   0.2922   0.2927   0.2933   0.2940   0.2955
  0.2964   0.2967   0.2970   0.2981   0.2986   0.2996   0.3003   0.3006
  0.3027   0.3031   0.3037   0.3051   0.3052   0.3072   0.3073   0.3082
  0.3088   0.3098   0.3099   0.3105   0.3109   0.3117   0.3127   0.3136
  0.3138   0.3145   0.3156   0.3162   0.3165   0.3174   0.3184   0.3199
  0.3203   0.3207   0.3219   0.3224   0.3235   0.3238   0.3246   0.3249
  0.3270   0.3276   0.3280   0.3287   0.3292   0.3300   0.3305   0.3318
  0.3327   0.3342   0.3349   0.3359   0.3363   0.3369   0.3386   0.3390
  0.3395   0.3411   0.3417   0.3427   0.3430   0.3435   0.3444   0.3459
  0.3465   0.3476   0.3486   0.3490   0.3503   0.3508   0.3515   0.3523
  0.3535   0.3536   0.3550   0.3559   0.3572   0.3575   0.3579   0.3594
  0.3604   0.3607   0.3620   0.3626   0.3629   0.3638   0.3654   0.3667
  0.3675   0.3678   0.3693   0.3695   0.3701   0.3709   0.3726   0.3730
  0.3731   0.3749   0.3756   0.3760   0.3771   0.3776   0.3782   0.3792
  0.3800   0.3811   0.3818   0.3821   0.3826   0.3838   0.3850   0.3855
  0.3860   0.3869   0.3885   0.3886   0.3894   0.3907   0.3917   0.3921
  0.3932   0.3941   0.3946   0.3960   0.3962   0.3975   0.3979   0.3997
  0.4012   0.4020   0.4026   0.4031   0.4039   0.4054   0.4058   0.4073
  0.4076   0.4082   0.4097   0.4100   0.4112   0.4116   0.4135   0.4139
  0.4146   0.4151   0.4158   0.4163   0.4174   0.4183   0.4193   0.4197
  0.4203   0.4226   0.4233   0.4241   0.4246   0.4252   0.4264   0.4275
  0.4279   0.4287   0.4292   0.4304   0.4317   0.4328   0.4343   0.4355
  0.4377   0.4379   0.4385   0.4404   0.4421   0.4426   0.4433   0.4441
  0.4454   0.4456   0.4457   0.4473   0.4483   0.4495   0.4508   0.4516
  0.4524   0.4531   0.4539   0.4552   0.4566   0.4569   0.4587   0.4603
  0.4611   0.4629   0.4634   0.4649   0.4656   0.4674   0.4689   0.4695
  0.4709   0.4725   0.4736   0.4742   0.4747   0.4763   0.4774   0.4798
  0.4814   0.4829   0.4848   0.4855   0.4866   0.4872   0.4887   0.4909
  0.4925   0.4935   0.4944   0.4951   0.4958   0.4972   0.4978   0.4994
  0.5011   0.5018   0.5025   0.5039   0.5049   0.5082   0.5096   0.5099
  0.5114   0.5130   0.5166   0.5174   0.5188   0.5197   0.5213   0.5218
  0.5239   0.5257   0.5257   0.5273   0.5284   0.5304   0.5327   0.5353
  0.5364   0.5380   0.5392   0.5399   0.5412   0.5414   0.5451   0.5476
  0.5495   0.5508   0.5511   0.5538   0.5542   0.5551   0.5573   0.5578
  0.5589   0.5618   0.5633   0.5642   0.5650   0.5660   0.5662   0.5685
  0.5692   0.5719   0.5730   0.5732   0.5748   0.5772   0.5774   0.5793
  0.5810   0.5827   0.5833   0.5842   0.5872   0.5892   0.5904   0.5913
  0.5921   0.5934   0.5952   0.5963   0.5966   0.5997   0.6003   0.6016
  0.6019   0.6032   0.6056   0.6059   0.6086   0.6089   0.6102   0.6117
  0.6127   0.6136   0.6148   0.6163   0.6174   0.6192   0.6201   0.6208
  0.6224   0.6228   0.6255   0.6268   0.6277   0.6295   0.6299   0.6306
  0.6314   0.6339   0.6349   0.6360   0.6369   0.6387   0.6393   0.6405
  0.6414   0.6422   0.6430   0.6447   0.6452   0.6467   0.6483   0.6498
  0.6512   0.6525   0.6525   0.6535   0.6551   0.6552   0.6569   0.6580
  0.6587   0.6594   0.6604   0.6613   0.6627   0.6630   0.6643   0.6657
  0.6666   0.6673   0.6680   0.6694   0.6703   0.6713   0.6722   0.6730
  0.6735   0.6757   0.6779   0.6789   0.6797   0.6804   0.6815   0.6829
  0.6829   0.6840   0.6858   0.6879   0.6883   0.6888   0.6909   0.6921
  0.6927   0.6946   0.6962   0.6975   0.6984   0.6991   0.6999   0.7007
  0.7013   0.7024   0.7030   0.7044   0.7051   0.7058   0.7069   0.7079
  0.7090   0.7092   0.7106   0.7115   0.7132   0.7142   0.7146   0.7154
  0.7165   0.7179   0.7184   0.7199   0.7209   0.7234   0.7240   0.7243
  0.7270   0.7279   0.7285   0.7298   0.7304   0.7318   0.7332   0.7345
  0.7350   0.7360   0.7382   0.7397   0.7402   0.7412   0.7419   0.7439
  0.7453   0.7476   0.7484   0.7500   0.7511   0.7531   0.7542   0.7557
  0.7570   0.7580   0.7601   0.7610   0.7620   0.7633   0.7647   0.7659
  0.7668   0.7702   0.7710   0.7721   0.7754   0.7771   0.7773   0.7793
  0.7808   0.7818   0.7832   0.7840   0.7858   0.7882   0.7890   0.7909
  0.7926   0.7948   0.7967   0.7990   0.7992   0.8000   0.8008   0.8035
  0.8042   0.8060   0.8079   0.8096   0.8105   0.8115   0.8153   0.8155
  0.8164   0.8179   0.8185   0.8203   0.8212   0.8218   0.8230   0.8249
  0.8288   0.8301   0.8314   0.8324   0.8335   0.8350   0.8367   0.8381
  0.8401   0.8413   0.8416   0.8446   0.8464   0.8470   0.8482   0.8495
  0.8514   0.8525   0.8542   0.8545   0.8549   0.8580   0.8597   0.8616
  0.8616   0.8627   0.8638   0.8642   0.8664   0.8668   0.8687   0.8696
  0.8704   0.8718   0.8731   0.8735   0.8751   0.8765   0.8772   0.8782
  0.8789   0.8807   0.8807   0.8832   0.8850   0.8859   0.8872   0.8877
  0.8886   0.8906   0.8913   0.8919   0.8925   0.8931   0.8936   0.8945
  0.8959   0.8969   0.8986   0.8987   0.9011   0.9023   0.9028   0.9032
  0.9037   0.9057   0.9078   0.9084   0.9102   0.9119   0.9131   0.9141
  0.9146   0.9163   0.9173   0.9182   0.9204   0.9207   0.9212   0.9223
  0.9259   0.9278   0.9282   0.9293   0.9306   0.9323   0.9328   0.9331
  0.9344   0.9360   0.9368   0.9380   0.9385   0.9398   0.9403   0.9417
  0.9441   0.9451   0.9459   0.9466   0.9475   0.9487   0.9493   0.9500
  0.9510   0.9523   0.9537   0.9547   0.9554   0.9559   0.9576   0.9588
  0.9606   0.9608   0.9618   0.9629   0.9635   0.9640   0.9657   0.9665
  0.9673   0.9687   0.9692   0.9705   0.9717   0.9726   0.9739   0.9743
  0.9765   0.9780   0.9792   0.9795   0.9805   0.9810   0.9821   0.9829
  0.9837   0.9847   0.9860   0.9880   0.9886   0.9891   0.9900   0.9918
  0.9933   0.9940   0.9953   0.9957   0.9964   0.9976   0.9978   0.9992
  1.0013   1.0017   1.0023   1.0030   1.0033   1.0044   1.0057   1.0059
  1.0079   1.0092   1.0097   1.0108   1.0121   1.0127   1.0139   1.0142
  1.0160   1.0172   1.0191   1.0198   1.0208   1.0228   1.0232   1.0244
  1.0247   1.0260   1.0268   1.0275   1.0284   1.0295   1.0307   1.0315
  1.0338   1.0351   1.0363   1.0366   1.0378   1.0393   1.0396   1.0408
  1.0420   1.0446   1.0463   1.0474   1.0487   1.0497   1.0504   1.0522
  1.0540   1.0546   1.0556   1.0586   1.0595   1.0603   1.0611   1.0629
  1.0637   1.0655   1.0662   1.0676   1.0685   1.0693   1.0709   1.0715
  1.0728   1.0755   1.0763   1.0777   1.0783   1.0813   1.0827   1.0835
  1.0848   1.0858   1.0863   1.0870   1.0894   1.0902   1.0931   1.0943
  1.0956   1.0959   1.0982   1.0987   1.1001   1.1012   1.1015   1.1031
  1.1046   1.1054   1.1077   1.1087   1.1108   1.1121   1.1134   1.1141
  1.1147   1.1162   1.1169   1.1177   1.1185   1.1197   1.1217   1.1227
  1.1242   1.1253   1.1271   1.1282   1.1297   1.1308   1.1312   1.1327
  1.1336   1.1351   1.1358   1.1367   1.1370   1.1380   1.1389   1.1391
  1.1417   1.1421   1.1442   1.1457   1.1471   1.1487   1.1493   1.1499
  1.1515   1.1524   1.1542   1.1556   1.1564   1.1581   1.1583   1.1600
  1.1604   1.1612   1.1637   1.1665   1.1671   1.1691   1.1695   1.1704
  1.1725   1.1730   1.1743   1.1767   1.1771   1.1798   1.1799   1.1817
  1.1843   1.1851   1.1871   1.1898   1.1903   1.1917   1.1941   1.1951
  1.1967   1.1992   1.2007   1.2015   1.2041   1.2055   1.2062   1.2093
  1.2104   1.2109   1.2128   1.2152   1.2174   1.2188   1.2193   1.2209
  1.2221   1.2238   1.2265   1.2275   1.2291   1.2322   1.2347   1.2359
  1.2382   1.2394   1.2421   1.2451   1.2481   1.2492   1.2498   1.2515
  1.2543   1.2598   1.2615   1.2631   1.2647   1.2669   1.2689   1.2704
  1.2705   1.2731   1.2765   1.2778   1.2793   1.2811   1.2828   1.2869
  1.2880   1.2884   1.2892   1.2940   1.2953   1.2979   1.3014   1.3016
  1.3039   1.3058   1.3094   1.3120   1.3136   1.3155   1.3170   1.3209
  1.3219   1.3256   1.3272   1.3277   1.3288   1.3314   1.3344   1.3360
  1.3397   1.3405   1.3416   1.3429   1.3450   1.3477   1.3496   1.3502
  1.3531   1.3544   1.3562   1.3569   1.3584   1.3606   1.3620   1.3641
  1.3645   1.3661   1.3683   1.3693   1.3713   1.3744   1.3758   1.3772
  1.3790   1.3798   1.3810   1.3811   1.3832   1.3843   1.3861   1.3879
  1.3914   1.3916   1.3934   1.3943   1.3973   1.3988   1.4002   1.4020
  1.4044   1.4057   1.4081   1.4091   1.4105   1.4127   1.4146   1.4159
  1.4164   1.4170   1.4178   1.4197   1.4208   1.4229   1.4235   1.4244
  1.4269   1.4285   1.4286   1.4290   1.4314   1.4332   1.4342   1.4359
  1.4372   1.4387   1.4396   1.4400   1.4407   1.4437   1.4452   1.4460
  1.4469   1.4482   1.4502   1.4520   1.4524   1.4543   1.4554   1.4576
  1.4586   1.4594   1.4616   1.4623   1.4643   1.4663   1.4672   1.4682
  1.4707   1.4724   1.4734   1.4750   1.4764   1.4776   1.4794   1.4812
  1.4821   1.4849   1.4855   1.4869   1.4882   1.4905   1.4913   1.4947
  1.4956   1.4975   1.5014   1.5039   1.5049   1.5051   1.5073   1.5102
  1.5129   1.5132   1.5143   1.5154   1.5163   1.5188   1.5201   1.5233
  1.5254   1.5296   1.5299   1.5313   1.5337   1.5362   1.5379   1.5405
  1.5425   1.5452   1.5464   1.5477   1.5498   1.5547   1.5562   1.5579
  1.5591   1.5615   1.5656   1.5675   1.5710   1.5736   1.5765   1.5785
  1.5848   1.5863   1.5893   1.5927   1.5979   1.6002   1.6033   1.6089
  1.6108   1.6169   1.6201   1.6235   1.6297   1.6315   1.6316   1.6344
  1.6375   1.6397   1.6432   1.6471   1.6488   1.6512   1.6542   1.6599
  1.6602   1.6637   1.6671   1.6697   1.6710   1.6725   1.6743   1.6755
  1.6776   1.6787   1.6803   1.6810   1.6817   1.6849   1.6862   1.6882
  1.6887   1.6908   1.6910   1.6929   1.6950   1.6953   1.6968   1.6975
  1.6987   1.6994   1.7007   1.7016   1.7032   1.7039   1.7057   1.7074
  1.7091   1.7102   1.7108   1.7120   1.7132   1.7138   1.7148   1.7158
  1.7170   1.7193   1.7193   1.7208   1.7213   1.7218   1.7236   1.7242
  1.7250   1.7270   1.7276   1.7298   1.7304   1.7317   1.7332   1.7348
  1.7357   1.7374   1.7379   1.7387   1.7409   1.7422   1.7435   1.7444
  1.7451   1.7468   1.7486   1.7487   1.7503   1.7522   1.7537   1.7548
  1.7559   1.7571   1.7587   1.7597   1.7605   1.7617   1.7635   1.7659
  1.7665   1.7684   1.7693   1.7723   1.7767   1.7774   1.7786   1.7799
  1.7813   1.7822   1.7828   1.7851   1.7854   1.7874   1.7884   1.7901
  1.7906   1.7909   1.7938   1.7947   1.7962   1.7969   1.7994   1.8037
  1.8051   1.8072   1.8082   1.8132   1.8169   1.8192   1.8219   1.8268
  1.8296   1.8373   1.8394   1.8402   1.8429   1.8447   1.8484   1.8494
  1.8512   1.8558   1.8573   1.8583   1.8600   1.8645   1.8692   1.8710
  1.8722   1.8733   1.8737   1.8759   1.8770   1.8778   1.8783   1.8800
  1.8817   1.8823   1.8844   1.8858   1.8873   1.8890   1.8894   1.8900
  1.8923   1.8938   1.8945   1.8958   1.8970   1.8981   1.8987   1.9001
  1.9020   1.9031   1.9043   1.9052   1.9067   1.9078   1.9090   1.9096
  1.9106   1.9115   1.9119   1.9129   1.9154   1.9157   1.9177   1.9198
  1.9205   1.9228   1.9236   1.9245   1.9260   1.9264   1.9280   1.9300
  1.9306   1.9317   1.9323   1.9337   1.9352   1.9370   1.9383   1.9395
  1.9406   1.9416   1.9435   1.9442   1.9463   1.9491   1.9512   1.9538
  1.9589   1.9613   1.9636   1.9677   1.9684   1.9728   1.9733   1.9759
  1.9799   1.9851   1.9894   1.9915   1.9957   2.0101   2.0297   2.0318
  2.0378   2.0391   2.0409   2.0439   2.0480   2.0518   2.0527   2.0548
  2.0566   2.0573   2.0605   2.0615   2.0625   2.0639   2.0651   2.0663
  2.0672   2.0721   2.0750   2.0758   2.0779   2.0784   2.0787   2.0806
  2.0810   2.0817   2.0835   2.0845   2.0859   2.0873   2.0886   2.0901
  2.0930   2.0936   2.0943   2.0959   2.0962   2.0979   2.1000   2.1010
  2.1026   2.1039   2.1054   2.1064   2.1073   2.1076   2.1083   2.1099
  2.1124   2.1135   2.1160   2.1171   2.1197   2.1236   2.1300   2.1365
  2.1370   2.1388   2.1420   2.1481   2.1526   2.1555   2.1587   2.1595
  2.1634   2.1684   2.1720   2.1761   2.1765   2.1809   2.1844   2.1848
  2.1889   2.1899   2.1921   2.1932   2.1951   2.1988   2.1994   2.2009
  2.2025   2.2040   2.2048   2.2066   2.2087   2.2099   2.2105   2.2135
  2.2175   2.2200   2.2206   2.2247   2.2259   2.2260   2.2294   2.2297
  2.2312   2.2321   2.2332   2.2339   2.2363   2.2374   2.2377   2.2384
  2.2396   2.2417   2.2426   2.2437   2.2451   2.2468   2.2470   2.2486
  2.2492   2.2505   2.2520   2.2535   2.2536   2.2541   2.2556   2.2559
  2.2566   2.2584   2.2585   2.2607   2.2612   2.2617   2.2627   2.2635
  2.2642   2.2648   2.2656   2.2667   2.2673   2.2687   2.2689   2.2696
  2.2709   2.2716   2.2735   2.2742   2.2763   2.2764   2.2780   2.2787
  2.2793   2.2807   2.2809   2.2822   2.2826   2.2839   2.2851   2.2857
  2.2860   2.2874   2.2888   2.2893   2.2900   2.2909   2.2917   2.2927
  2.2939   2.2941   2.2953   2.2965   2.2970   2.2982   2.2991   2.2995
  2.3011   2.3022   2.3034   2.3039   2.3047   2.3048   2.3051   2.3073
  2.3079   2.3096   2.3097   2.3104   2.3111   2.3130   2.3150   2.3163
  2.3179   2.3188   2.3193   2.3212   2.3219   2.3225   2.3231   2.3236
  2.3247   2.3257   2.3265   2.3270   2.3306   2.3311   2.3332   2.3353
  2.3363   2.3378   2.3395   2.3399   2.3423   2.3443   2.3444   2.3474
  2.3504   2.3512   2.3531   2.3541   2.3587   2.3595   2.3598   2.3622
  2.3630   2.3640   2.3663   2.3673   2.3710   2.3728   2.3740   2.3751
  2.3785   2.3814   2.3815   2.3843   2.3862   2.3879   2.3910   2.3940
  2.3951   2.3967   2.4001   2.4080   2.4187   2.4245   2.4541   2.4729
  2.4810   2.5050   2.5287   2.5417   2.6559   2.7465   2.7635   2.7743
  2.8106   2.8163   2.8180   2.8229   2.8265   2.8315   2.8363   2.8406
  2.8412   2.8439   2.8459   2.8474   2.8511   2.8518   2.8537   2.8569
  2.8598   2.8613   2.8634   2.8643   2.8657   2.8701   2.8728   2.8740
  2.8755   2.8769   2.8810   2.8817   2.8852   2.8918   2.8960   2.8973
  2.9496   3.1073   3.2288   3.9483   3.9508   3.9575   3.9617   3.9640
  3.9685   3.9699   3.9727   3.9766   3.9777   3.9821   3.9839   3.9865
  3.9877   3.9942   3.9950   3.9981   4.0017   4.0019   4.0056   4.0071
  4.0093   4.0109   4.0143   4.0157   4.0190   4.0244   4.0346   4.2153
  4.2186   4.2253   4.2340   4.2351   4.2374   4.2416   4.2469   4.2480
  4.2509   4.2512   4.2550   4.2563   4.2586   4.2620   4.2643   4.2670
  4.2689   4.2708   4.2715   4.2737   4.2785   4.2821   4.2840   4.2851
  4.2889   4.2915   4.2936   4.2965   4.2988   4.3034   4.3055   4.3073
  4.3089   4.3118   4.3130   4.3166   4.3196   4.3201   4.3228   4.3241
  4.3253   4.3307   4.3335   4.3354   4.3365   4.3411   4.3444   4.3477
  4.3500   4.3513   4.3547   4.3579   4.3604   4.3631   4.3662   4.3669
  4.3719   4.3770   4.3775   4.3785   4.3823   4.3874   4.3954   4.3998
  4.4025   4.4047   4.4095   4.4118   4.4127   4.4147   4.4225   4.4253
  4.4303   4.4339   4.4466   4.4536   4.4651   4.4728   4.4805   4.4956
  4.5070   4.5110   4.5163   4.5248   4.5458   4.5490   4.5958   4.6713
  4.7016   4.7267   4.7598   4.9277
 --------------------------------------------------------------
 
          Ground-State Mulliken Net Atomic Charges

     Atom                 Charge (a.u.)
  ----------------------------------------
      1 C                    -0.538781
      2 C                    -0.316840
      3 C                     0.037193
      4 C                    -0.423208
      5 C                    -0.277441
      6 C                    -1.086670
      7 H                     0.196178
      8 H                     0.195810
      9 H                     0.217824
     10 H                     0.233074
     11 H                     0.247119
     12 H                     0.189289
     13 H                     0.210290
     14 H                     0.215345
     15 H                     0.234869
     16 H                     0.203790
     17 H                     0.252078
     18 N                     0.226418
     19 H                     0.465071
     20 C                    -0.637432
     21 H                     0.206949
     22 O                    -0.205289
     23 C                    -0.838698
     24 H                     0.228287
     25 H                     0.276403
     26 H                     0.229264
     27 S                     1.094905
     28 C                    -0.956123
     29 H                     0.229211
     30 H                     0.259110
     31 H                     0.242929
     32 O                    -0.736206
     33 C                    -0.967241
     34 H                     0.292356
     35 H                     0.281458
     36 H                     0.240762
     37 S                     0.808438
     38 C                    -0.797387
     39 H                     0.260556
     40 H                     0.280321
     41 H                     0.221269
     42 O                    -0.728347
     43 C                    -0.819642
     44 H                     0.249895
     45 H                     0.239926
     46 H                     0.266885
     47 S                     1.037881
     48 C                    -0.874766
     49 H                     0.220115
     50 H                     0.263995
     51 H                     0.322822
     52 O                    -0.752525
     53 C                    -0.897698
     54 H                     0.279107
     55 H                     0.251048
     56 H                     0.294660
     57 S                     0.760172
     58 C                    -0.905573
     59 H                     0.223788
     60 H                     0.275454
     61 H                     0.255260
     62 O                    -0.576182
     63 C                    -0.792566
     64 H                     0.306569
     65 H                     0.207398
     66 H                     0.279797
     67 S                     0.642695
     68 C                    -0.723374
     69 H                     0.224427
     70 H                     0.253808
     71 H                     0.228645
     72 O                    -0.697769
     73 C                    -0.813225
     74 H                     0.245033
     75 H                     0.252594
     76 H                     0.248069
     77 S                     0.863343
     78 C                    -0.845556
     79 H                     0.231255
     80 H                     0.277533
     81 H                     0.285635
     82 O                    -0.650300
     83 C                    -0.807131
     84 H                     0.238680
     85 H                     0.253576
     86 H                     0.310147
     87 S                     0.403616
     88 C                    -0.761873
     89 H                     0.228955
     90 H                     0.251147
     91 H                     0.264409
     92 O                    -0.553616
     93 C                    -0.772992
     94 H                     0.278928
     95 H                     0.286255
     96 H                     0.250290
     97 S                     0.830912
     98 C                    -1.020366
     99 H                     0.247178
    100 H                     0.288197
    101 H                     0.307712
    102 O                    -0.603115
    103 C                    -0.978731
    104 H                     0.244482
    105 H                     0.241893
    106 H                     0.261370
    107 S                     0.932632
    108 C                    -0.908219
    109 H                     0.268417
    110 H                     0.253263
    111 H                     0.286051
    112 O                    -0.650562
    113 C                    -0.854708
    114 H                     0.277316
    115 H                     0.264632
    116 H                     0.230124
    117 S                     0.858354
    118 C                    -0.879420
    119 H                     0.244343
    120 H                     0.296409
    121 H                     0.261928
    122 O                    -0.715191
    123 C                    -0.923180
    124 H                     0.280117
    125 H                     0.242870
    126 H                     0.263236
    127 S                     1.007817
    128 C                    -1.027414
    129 H                     0.303921
    130 H                     0.260823
    131 H                     0.296979
    132 O                    -0.729552
    133 C                    -0.828244
    134 H                     0.247090
    135 H                     0.279796
    136 H                     0.294697
    137 S                     0.763458
    138 C                    -1.020609
    139 H                     0.272375
    140 H                     0.280615
    141 H                     0.250651
    142 O                    -0.632173
    143 C                    -0.772486
    144 H                     0.275305
    145 H                     0.193382
    146 H                     0.289154
    147 S                     0.919452
    148 C                    -0.845325
    149 H                     0.255447
    150 H                     0.214280
    151 H                     0.245159
    152 O                    -0.769994
    153 C                    -0.645977
    154 H                     0.247245
    155 H                     0.270152
    156 H                     0.233212
    157 S                     0.480564
    158 C                    -0.909075
    159 H                     0.249567
    160 H                     0.280787
    161 H                     0.220351
    162 O                    -0.515284
    163 C                    -1.166990
    164 H                     0.285151
    165 H                     0.265889
    166 H                     0.259110
    167 S                     1.252406
    168 C                    -0.945109
    169 H                     0.265373
    170 H                     0.289596
    171 H                     0.223594
    172 O                    -0.656907
    173 C                    -0.788459
    174 H                     0.257068
    175 H                     0.270787
    176 H                     0.226674
    177 S                     0.749998
    178 C                    -0.824245
    179 H                     0.236216
    180 H                     0.263088
    181 H                     0.254570
    182 O                    -0.626541
    183 C                    -1.004894
    184 H                     0.270655
    185 H                     0.264913
    186 H                     0.266531
    187 S                     1.104363
    188 C                    -1.084231
    189 H                     0.255378
    190 H                     0.249754
    191 H                     0.312207
    192 O                    -0.625294
    193 C                    -0.796067
    194 H                     0.267610
    195 H                     0.231658
    196 H                     0.275296
    197 S                     0.669675
    198 C                    -0.785388
    199 H                     0.266269
    200 H                     0.253877
    201 H                     0.253718
    202 O                    -0.609141
    203 C                    -0.740965
    204 H                     0.222254
    205 H                     0.294721
    206 H                     0.249530
    207 S                     0.727581
    208 C                    -0.740245
    209 H                     0.313799
    210 H                     0.222461
    211 H                     0.231325
    212 O                    -0.683162
    213 C                    -1.018790
    214 H                     0.249993
    215 H                     0.282961
    216 H                     0.299051
    217 S                     0.985484
    218 C                    -0.893278
    219 H                     0.252460
    220 H                     0.261890
    221 H                     0.250444
    222 O                    -0.634154
    223 C                    -0.910991
    224 H                     0.293589
    225 H                     0.271816
    226 H                     0.268281
    227 S                     0.883806
    228 C                    -0.938611
    229 H                     0.285130
    230 H                     0.229927
    231 H                     0.259649
    232 O                    -0.728685
    233 C                    -0.995424
    234 H                     0.273913
    235 H                     0.268427
    236 H                     0.265671
    237 S                     1.325592
    238 C                    -1.062358
    239 H                     0.267091
    240 H                     0.276462
    241 H                     0.264352
    242 O                    -0.726905
    243 C                    -0.923993
    244 H                     0.278554
    245 H                     0.269023
    246 H                     0.220322
    247 S                     1.054425
    248 C                    -0.907623
    249 H                     0.225783
    250 H                     0.254635
    251 H                     0.253249
    252 O                    -0.713334
    253 C                    -0.819911
    254 H                     0.244997
    255 H                     0.226254
    256 H                     0.267854
    257 S                     0.805816
    258 C                    -0.836857
    259 H                     0.254638
    260 H                     0.312081
    261 H                     0.234556
    262 O                    -0.684529
    263 C                    -0.928497
    264 H                     0.265524
    265 H                     0.319148
    266 H                     0.233497
    267 S                     1.136386
    268 C                    -1.031686
    269 H                     0.229272
    270 H                     0.245897
    271 H                     0.270988
    272 O                    -0.701478
    273 C                    -0.984683
    274 H                     0.257537
    275 H                     0.271039
    276 H                     0.244836
    277 S                     1.302530
    278 C                    -1.005013
    279 H                     0.239347
    280 H                     0.252457
    281 H                     0.261948
    282 O                    -0.792356
    283 C                    -0.860000
    284 H                     0.255983
    285 H                     0.237795
    286 H                     0.238748
    287 S                     0.946308
    288 C                    -0.891454
    289 H                     0.274790
    290 H                     0.243658
    291 H                     0.237382
    292 O                    -0.697265
    293 C                    -0.755429
    294 H                     0.236841
    295 H                     0.228269
    296 H                     0.258021
    297 S                     0.833232
[...]
    1   0.0344798  -0.0788044  -0.0036068  -0.0108950   0.0101434  -0.0244890
    2  -0.0073332   0.0402779   0.0021257  -0.0232711   0.0240389  -0.0077202
    3  -0.0180135   0.0632783   0.0011307   0.0159304   0.0201197  -0.0192222
          157         158         159         160         161         162
    1   0.0434153  -0.0022439   0.0125020   0.0185583  -0.0228339  -0.0349368
    2   0.0037159   0.0046964   0.0320137  -0.0133323  -0.0143232  -0.0984223
    3   0.0319378  -0.0085580   0.0115225  -0.0217513  -0.0159589  -0.0399356
          163         164         165         166         167         168
    1   0.0072131  -0.0304050   0.0142665   0.0297950   0.0191858   0.0055592
    2  -0.0027070  -0.0158768   0.0105245  -0.0011625   0.0500992  -0.0030482
    3  -0.0093441  -0.0015596  -0.0328155   0.0130006  -0.0006687   0.0036415
          169         170         171         172         173         174
    1  -0.0177425   0.0340558  -0.0020996  -0.0996658  -0.0006400   0.0259478
    2  -0.0254202  -0.0017643   0.0090990  -0.0390391   0.0056219   0.0103797
    3   0.0004395   0.0064511   0.0282632  -0.0139757  -0.0017642  -0.0133594
          175         176         177         178         179         180
    1  -0.0124712  -0.0011000  -0.0469923   0.0060906   0.0058452   0.0045798
    2   0.0105897   0.0213269  -0.0093496  -0.0023818   0.0065098  -0.0311004
    3  -0.0262229   0.0287071   0.0309007   0.0016935   0.0358641   0.0021781
          181         182         183         184         185         186
    1   0.0277889   0.0079532   0.0028705   0.0287233   0.0043887  -0.0125144
    2   0.0118733  -0.0345261   0.0034847  -0.0038105   0.0180157   0.0251254
    3  -0.0102456  -0.1046503   0.0013277   0.0062286  -0.0263371   0.0169407
          187         188         189         190         191         192
    1  -0.0574770   0.0027111   0.0287969  -0.0114390  -0.0192720   0.0402300
    2   0.0105923  -0.0034827   0.0115124   0.0102085  -0.0295194  -0.0741200
    3   0.0049697   0.0080010  -0.0062771   0.0330260   0.0057141  -0.0679764
          193         194         195         196         197         198
    1   0.0020625   0.0300653   0.0077731  -0.0219010   0.0345772  -0.0051138
    2  -0.0071028   0.0022749  -0.0320321  -0.0160752   0.0240644  -0.0029896
    3  -0.0020577  -0.0043051   0.0201461  -0.0184742   0.0408239   0.0028970
          199         200         201         202         203         204
    1  -0.0198720   0.0031315  -0.0215718  -0.0276876   0.0057654   0.0325215
    2  -0.0096883  -0.0155199   0.0164943   0.0495453   0.0074579  -0.0113533
    3  -0.0212103   0.0299374   0.0157790  -0.0941033   0.0038575  -0.0147056
          205         206         207         208         209         210
    1   0.0151185   0.0031126  -0.0087700  -0.0018206  -0.0207974  -0.0011493
    2   0.0201641  -0.0200222  -0.0520775   0.0093672   0.0029020   0.0239954
    3   0.0323313   0.0209838  -0.0364474  -0.0036546  -0.0249399   0.0183116
          211         212         213         214         215         216
    1   0.0227911  -0.0741795   0.0020323   0.0251971   0.0091444   0.0046469
    2   0.0002569   0.0246173   0.0032883   0.0160766  -0.0229997   0.0305591
    3  -0.0260290   0.0765538  -0.0051829   0.0080175  -0.0116994  -0.0255960
          217         218         219         220         221         222
    1  -0.0525504   0.0039495   0.0294139  -0.0124553  -0.0240574   0.0248918
    2   0.0031370   0.0058892   0.0040339   0.0268931   0.0033965  -0.0913443
    3  -0.0351056   0.0071453   0.0156742  -0.0171286   0.0223013   0.0557394
          223         224         225         226         227         228
    1   0.0014657   0.0263025  -0.0216228  -0.0091303  -0.0488135   0.0048777
    2   0.0049171   0.0174361   0.0206240  -0.0158185  -0.0168821  -0.0021970
    3   0.0094573   0.0036952   0.0052029   0.0269700  -0.0158059   0.0036405
          229         230         231         232         233         234
    1   0.0241296  -0.0125621   0.0097138   0.0710272  -0.0077953   0.0023517
    2   0.0110715  -0.0319869  -0.0204574   0.0595481   0.0064824   0.0174795
    3   0.0172010   0.0180170  -0.0203815  -0.0573398   0.0062016   0.0282575
          235         236         237         238         239         240
    1  -0.0120202  -0.0202600   0.0123448   0.0059032   0.0220713  -0.0168948
    2   0.0171265  -0.0197385  -0.0458682  -0.0003520  -0.0070877   0.0195503
    3  -0.0200142   0.0155964   0.0169441   0.0042835  -0.0204429  -0.0003158
          241         242         243         244         245         246
    1   0.0118588  -0.0301724  -0.0059100  -0.0206283   0.0203051  -0.0049706
    2   0.0039972   0.0307366  -0.0069336  -0.0261921  -0.0180273   0.0148446
    3   0.0384143  -0.1010509   0.0073186  -0.0060160  -0.0111869   0.0297199
          247         248         249         250         251         252
    1   0.0431740  -0.0088958  -0.0017274  -0.0095984  -0.0318669  -0.0337294
    2   0.0340701  -0.0015699   0.0201851   0.0105362  -0.0197239  -0.0809133
    3  -0.0140696   0.0031832   0.0275136  -0.0271601  -0.0019358  -0.0690869
          253         254         255         256         257         258
    1  -0.0061822  -0.0006827  -0.0264007   0.0070866   0.0046333  -0.0030148
    2   0.0014363   0.0319003  -0.0057634  -0.0117075   0.0175725  -0.0089253
    3   0.0076604  -0.0029845  -0.0149951   0.0295130  -0.0540001   0.0042270
          259         260         261         262         263         264
    1   0.0252228   0.0022350  -0.0251541   0.0815552  -0.0068427   0.0106934
    2  -0.0177140  -0.0151320  -0.0054398   0.0154784  -0.0021413  -0.0058874
    3  -0.0051144   0.0319258  -0.0212434   0.0738166  -0.0075013  -0.0220765
          265         266         267         268         269         270
    1  -0.0171618  -0.0005852   0.0074812  -0.0009299  -0.0292380   0.0033739
    2  -0.0320147   0.0332782  -0.0580302   0.0051787  -0.0106064  -0.0053920
    3  -0.0024036  -0.0061107   0.0134010   0.0033547   0.0079297   0.0358855
          271         272         273         274         275         276
    1  -0.0076342   0.0771761   0.0030192  -0.0016674   0.0262336   0.0034248
    2   0.0295339   0.0758388  -0.0004353  -0.0233199  -0.0111841   0.0190372
    3  -0.0138878  -0.0033608   0.0076134   0.0242565  -0.0068065   0.0275700
          277         278         279         280         281         282
    1  -0.0054207  -0.0056276  -0.0200114  -0.0212193   0.0124469   0.0556476
    2   0.0502448  -0.0039766   0.0102420   0.0013781  -0.0299688  -0.0777674
    3  -0.0149499   0.0017303   0.0250612  -0.0238309   0.0014907  -0.0548375
          283         284         285         286         287         288
    1  -0.0019951   0.0239263  -0.0291791   0.0121297   0.0521835  -0.0051711
    2  -0.0049076  -0.0224069  -0.0064812  -0.0194782   0.0106332  -0.0000669
    3   0.0021544   0.0181595  -0.0187805  -0.0236536   0.0179431   0.0028964
          289         290         291         292         293         294
    1  -0.0112290  -0.0326754   0.0119204  -0.0434560   0.0020338   0.0121482
    2   0.0275286  -0.0049712  -0.0108435   0.0473592  -0.0040861   0.0248694
    3   0.0083859  -0.0079830   0.0294902  -0.0900380   0.0075914   0.0180048
          295         296         297         298         299         300
    1  -0.0245509   0.0243437   0.0316788  -0.0098861  -0.0142356  -0.0203935
    2  -0.0116127  -0.0195755   0.0354639   0.0001028   0.0126405  -0.0165381
    3   0.0098597  -0.0011499  -0.0234242   0.0023834  -0.0261283   0.0154258
          301         302
    1  -0.0086989  -0.0228065
    2   0.0273601  -0.1015928
    3   0.0206002  -0.0337835
  --- DONE ESP SUMMARY ---
Archival summary:
1\1\node024\SP\ProcedureUnspecified\6-31+G*\282856h22\ymao90\FriDec322:26:472021FriDec322:26:472021\0\\#,ProcedureUnspecified,6-31+G*,\\0,1\S\O,1,1.49662\C,1,1.8069,2,98.2625\H,3,1.0928,1,105.348,2,-62.8712,0\H,3,1.09328,1,103.925,2,56.2032,0\H,3,1.09377,1,113.123,2,-179.241,0\C,1,1.80698,2,102.046,3,-96.1888,0\H,7,1.09263,1,113.144,2,168.287,0\H,7,1.09276,1,110.178,2,56.1731,0\H,7,1.09312,1,113.757,2,-67.6272,0\H,9,1.97881,7,168.919,1,8.95048,0\C,11,1.09308,9,120.335,7,-119.748,0\H,12,1.09244,11,119.565,9,128.036,0\H,12,1.09323,11,102.15,9,5.26937,0\S,12,1.80702,11,110.911,9,-113.909,0\O,15,1.49734,12,100.714,11,-54.3078,0\C,15,1.80696,12,96.5237,11,47.9489,0\H,17,1.09243,15,118.195,12,-153.81,0\H,17,1.09291,15,106.013,12,-28.7131,0\H,17,1.09377,15,103.644,12,93.807,0\Gh,5,1.99766,3,168.886,1,-128.142,0\Gh,21,1.0966,5,154.142,3,138.542,0\Gh,22,1.46165,21,108.355,5,139.78,0\Gh,23,1.0135,22,118.752,21,-141.881,0\Gh,23,1.37836,22,126.506,21,26.8023,0\Gh,25,1.10523,23,114.224,22,-171.455,0\Gh,25,1.21826,23,118.089,22,3.0639,0\Gh,22,1.53748,21,110.407,5,20.7467,0\Gh,28,1.09637,22,109.636,21,165.46,0\Gh,28,1.09696,22,103.837,21,43.8663,0\Gh,28,1.53706,22,114.3,21,-75.7958,0\Gh,31,1.09679,28,111.773,22,-167.085,0\Gh,31,1.09728,28,106.333,22,73.3683,0\Gh,31,1.53808,28,106.502,22,-48.5996,0\Gh,34,1.09628,31,110.485,28,-71.5512,0\Gh,34,1.09674,31,106.585,28,175.593,0\Gh,34,1.53724,31,118.172,28,56.5993,0\Gh,37,1.09693,34,109.795,31,-165.233,0\Gh,37,1.09707,34,112.822,31,70.6756,0\Gh,37,1.53739,34,111.775,31,-53.9049,0\Gh,40,1.09641,37,108.585,34,163.676,0\Gh,40,1.09732,37,110.934,34,-73.9477,0\H,35,2.07854,34,151.242,31,108.564,0\C,43,1.09267,35,154.757,34,-133.89,0\H,44,1.09266,43,106.982,35,-26.9709,0\H,44,1.09344,43,106.631,35,-139.36,0\S,44,1.80681,43,102.618,35,97.8416,0\O,47,1.49721,44,98.9779,43,104.583,0\C,47,1.8072,44,91.9538,43,-153.392,0\H,49,1.0923,47,105.661,44,-66.4833,0\H,49,1.09308,47,108.489,44,50.6236,0\H,49,1.09351,47,107.514,44,171.899,0\H,6,2.09724,3,124.695,1,178.319,0\C,53,1.09296,6,126.901,3,26.917,0\H,54,1.09324,53,107.669,6,-129.893,0\H,54,1.09335,53,103.927,6,-6.54756,0\S,54,1.80645,53,112.777,6,108.039,0\O,57,1.4968,54,98.6455,53,61.4721,0\C,57,1.80735,54,93.7489,53,-46.661,0\H,59,1.09292,57,109.707,54,-165.07,0\H,59,1.09294,57,111.784,54,79.8658,0\H,59,1.09322,57,109.098,54,-46.8466,0\H,61,2.09826,59,137.903,57,3.82918,0\C,63,1.09329,61,141.143,59,-162.719,0\H,64,1.09287,63,105.559,61,110.262,0\H,64,1.09347,63,114.632,61,-127.878,0\S,64,1.80694,63,109.919,61,-5.58679,0\O,67,1.49695,64,100.457,63,34.9098,0\C,67,1.80693,64,96.9255,63,-65.5856,0\H,69,1.0927,67,109.471,64,43.174,0\H,69,1.09327,67,105.335,64,154.406,0\H,69,1.09333,67,114.131,64,-83.7385,0\H,70,2.12704,69,149.657,67,-125.283,0\C,73,1.09289,70,123.252,69,-103.036,0\H,74,1.09278,73,109.968,70,126.095,0\H,74,1.09353,73,109.196,70,-110.83,0\S,74,1.80738,73,114.137,70,11.6946,0\O,77,1.49701,74,98.5764,73,-78.1244,0\C,77,1.80692,74,98.5813,73,178.553,0\H,79,1.09249,77,107.064,74,50.0337,0\H,79,1.09269,77,102.422,74,-57.9817,0\H,79,1.09342,77,115.029,74,176.422,0\H,32,2.13556,31,169.063,28,45.1318,0\C,83,1.09313,32,124.212,31,25.7581,0\H,84,1.09222,83,106.911,32,-171.381,0\H,84,1.09252,83,110.806,32,72.5285,0\S,84,1.80689,83,113.079,32,-52.4912,0\O,87,1.49682,84,105.22,83,-169.789,0\C,87,1.80624,84,97.31,83,-54.8522,0\H,89,1.09293,87,114.568,84,75.7959,0\H,89,1.09312,87,114.551,84,-167.588,0\H,89,1.0932,87,109.699,84,-46.7611,0\H,30,2.20231,28,134.82,22,-168.049,0\C,93,1.09292,30,114.53,28,149.241,0\H,94,1.09282,93,113.837,30,-43.2218,0\H,94,1.09374,93,109.938,30,76.224,0\S,94,1.80623,93,101.403,30,-164.272,0\O,97,1.4961,94,102.463,93,78.7033,0\C,97,1.80756,94,101.088,93,-168.748,0\H,99,1.09259,97,106.318,94,-170.326,0\H,99,1.093,97,111.54,94,71.2254,0\H,99,1.09327,97,112.393,94,-45.3805,0\H,101,2.15965,99,128.237,97,17.2811,0\C,103,1.09321,101,128.339,99,93.0165,0\H,104,1.09314,103,103.781,101,116.042,0\H,104,1.09351,103,118.683,101,-10.9973,0\S,104,1.80725,103,102.403,101,-132.479,0\O,107,1.4966,104,100.954,103,54.9166,0\C,107,1.80688,104,99.0767,103,167.812,0\H,109,1.09271,107,113.188,104,-44.7461,0\H,109,1.0935,107,101.378,104,78.5109,0\H,109,1.09365,107,106.865,104,-165.673,0\H,80,2.24326,79,143.149,77,45.4568,0\C,113,1.09312,80,135.69,79,33.2518,0\H,114,1.09252,113,103.411,80,-158.175,0\H,114,1.09305,113,115.922,80,-29.6671,0\S,114,1.80718,113,102.289,80,86.2685,0\O,117,1.49712,114,93.8912,113,179.494,0\C,117,1.80668,114,88.9784,113,-80.0657,0\H,119,1.09242,117,108.146,114,67.6467,0\H,119,1.09262,117,104.506,114,179.407,0\H,119,1.09348,117,102.764,114,-67.5593,0\H,41,2.28829,40,113.066,37,131.429,0\C,123,1.09316,41,152.384,40,107.635,0\H,124,1.09285,123,104.402,41,-72.9114,0\H,124,1.09304,123,109.302,41,51.2482,0\S,124,1.80617,123,105.112,41,171.114,0\O,127,1.49731,124,97.0668,123,-70.7648,0\C,127,1.80712,124,93.2833,123,-170.802,0\H,129,1.0929,127,116.643,124,-154.524,0\H,129,1.09348,127,103.73,124,85.7684,0\H,129,1.09364,127,107.341,124,-30.5628,0\H,126,2.20666,124,136.003,123,65.8974,0\C,133,1.0928,126,127.642,124,125.18,0\H,134,1.09299,133,109.505,126,37.9267,0\H,134,1.09337,133,108.243,126,-78.7589,0\S,134,1.80715,133,114.855,126,162.277,0\O,137,1.49681,134,98.1012,133,80.1756,0\C,137,1.8074,134,102.486,133,-178.437,0\H,139,1.09276,137,115.126,134,60.1667,0\H,139,1.09324,137,98.0071,134,-56.1031,0\H,139,1.09344,137,110.2,134,-174.394,0\H,8,2.33024,7,121.812,1,50.8026,0\C,143,1.09365,8,165.668,7,81.1855,0\H,144,1.09231,143,103.447,8,-156.845,0\H,144,1.09246,143,111.851,8,89.3085,0\S,144,1.80747,143,116.757,8,-32.6235,0\O,147,1.49643,144,102.374,143,-158.657,0\C,147,1.80739,144,98.733,143,-48.2105,0\H,149,1.09281,147,108.48,144,-178.659,0\H,149,1.09284,147,106.661,144,67.5295,0\H,149,1.09286,147,113.389,144,-50.5512,0\H,26,2.33993,25,113.716,23,154.273,0\C,153,1.09267,26,127.582,25,163.706,0\H,154,1.09315,153,110.238,26,-57.1222,0\H,154,1.09374,153,114.279,26,-168.609,0\S,154,1.80679,153,108.738,26,71.2163,0\O,157,1.49681,154,108.321,153,63.6361,0\C,157,1.80713,154,92.1179,153,167.436,0\H,159,1.09247,157,104.8,154,-175.952,0\H,159,1.09286,157,104.946,154,-69.3055,0\H,159,1.09318,157,109.525,154,55.4983,0\H,156,2.14044,154,137.14,153,50.5329,0\C,163,1.09284,156,136.028,154,70.8691,0\H,164,1.09284,163,104.511,156,173.629,0\H,164,1.09345,163,106.881,156,50.3603,0\S,164,1.80712,163,106.398,156,-65.1734,0\O,167,1.497,164,110.404,163,54.5815,0\C,167,1.8068,164,98.9002,163,-52.2059,0\H,169,1.09282,167,109.274,164,-85.9829,0\H,169,1.0929,167,100.715,164,160.272,0\H,169,1.09327,167,105.634,164,44.932,0\H,45,2.36464,44,151.969,43,-56.18,0\C,173,1.09327,45,142.38,44,-31.4999,0\H,174,1.09257,173,110.423,45,-86.0878,0\H,174,1.09273,173,105.577,45,150.123,0\S,174,1.80711,173,109.769,45,32.9004,0\O,177,1.49727,174,108.798,173,27.1377,0\C,177,1.80745,174,90.9165,173,-78.7022,0\H,179,1.09267,177,109.458,174,-74.5494,0\H,179,1.09269,177,102.443,174,162.731,0\H,179,1.09293,177,109.273,174,41.3407,0\H,32,2.3777,31,119.771,28,-129.181,0\C,183,1.0933,32,119.13,31,-106.44,0\H,184,1.09271,183,108.168,32,-145.633,0\H,184,1.09297,183,118.155,32,-33.2958,0\S,184,1.80637,183,104.295,32,90.8798,0\O,187,1.49728,184,100.658,183,-177.722,0\C,187,1.80704,184,94.8694,183,68.9122,0\H,189,1.09276,187,103.513,184,162.904,0\H,189,1.09335,187,101.142,184,-78.7148,0\H,189,1.09387,187,112.908,184,36.8433,0\H,185,2.09606,184,129.708,183,162.716,0\C,193,1.09313,185,135.626,184,5.05323,0\H,194,1.09292,193,106.091,185,24.6792,0\H,194,1.09342,193,106.874,185,150.218,0\S,194,1.80681,193,108.533,185,-91.7901,0\O,197,1.49729,194,105.886,193,39.4421,0\C,197,1.80763,194,104.584,193,-71.8232,0\H,199,1.09231,197,108.74,194,177.557,0\H,199,1.09339,197,102.198,194,53.907,0\H,199,1.09368,197,103.036,194,-57.768,0\H,193,2.26338,185,74.235,184,-162.71,0\C,203,1.09319,193,113.374,185,41.6249,0\H,204,1.09266,203,110.145,193,-95.0009,0\H,204,1.09336,203,111.662,193,24.7371,0\S,204,1.80645,203,111.146,193,136.081,0\O,207,1.49737,204,105.113,203,-42.703,0\C,207,1.80635,204,95.7482,203,-144.662,0\H,209,1.09274,207,107.999,204,67.4098,0\H,209,1.09276,207,108.173,204,178.979,0\H,209,1.09345,207,106.812,204,-57.1861,0\H,155,2.41513,154,170.742,153,-150.135,0\C,213,1.09261,155,96.394,154,-109.415,0\H,214,1.09242,213,105.084,155,60.0962,0\H,214,1.09309,213,110.802,155,-64.8651,0\S,214,1.80722,213,112.097,155,177.513,0\O,217,1.49765,214,104.611,213,59.3359,0\C,217,1.8066,214,95.5924,213,166.103,0\H,219,1.09243,217,112.495,214,-173.79,0\H,219,1.0928,217,114.348,214,64.7954,0\H,219,1.09284,217,103.22,214,-54.3902,0\H,222,1.95237,219,140.734,217,166.618,0\C,223,1.09314,222,161.588,219,-83.2377,0\H,224,1.09301,223,104.978,222,-133.087,0\H,224,1.09314,223,118.236,222,109.978,0\S,224,1.80657,223,111.488,222,-21.1536,0\O,227,1.49654,224,103.66,223,-25.7452,0\C,227,1.80733,224,93.4355,223,77.6285,0\H,229,1.09288,227,102.367,224,50.322,0\H,229,1.09338,227,108.273,224,175.853,0\H,229,1.09344,227,111.671,224,-60.9615,0\H,13,2.4344,12,124.091,11,13.5707,0\C,233,1.09392,13,116.675,12,-166.054,0\H,234,1.09277,233,104.946,13,173.08,0\H,234,1.09298,233,113.07,13,45.2994,0\S,234,1.80727,233,95.1086,13,-72.9642,0\O,237,1.49679,234,105.609,233,80.7766,0\C,237,1.80652,234,92.5898,233,-175.08,0\H,239,1.09251,237,113.022,234,47.4392,0\H,239,1.09286,237,112.379,234,-66.1038,0\H,239,1.09344,237,110.854,234,173.325,0\H,188,2.49832,187,134.636,184,80.6277,0\C,243,1.09261,188,135.756,187,-5.52278,0\H,244,1.0928,243,112.206,188,-68.7933,0\H,244,1.09324,243,115.098,188,53.8877,0\S,244,1.80719,243,108.492,188,174.995,0\O,247,1.49631,244,107.619,243,38.5962,0\C,247,1.80714,244,89.3005,243,-61.4915,0\H,249,1.09256,247,100.641,244,-162.429,0\H,249,1.09262,247,113.654,244,73.091,0\H,249,1.0931,247,107.07,244,-52.8868,0\H,14,2.50389,12,107.013,11,92.3481,0\C,253,1.09299,14,135.218,12,145.99,0\H,254,1.09297,253,117.025,14,-75.9394,0\H,254,1.09319,253,111.143,14,157.649,0\S,254,1.80708,253,102.111,14,43.3178,0\O,257,1.49721,254,106.878,253,-75.2082,0\C,257,1.80685,254,95.8042,253,173.463,0\H,259,1.09247,257,110.556,254,69.6561,0\H,259,1.09298,257,100.504,254,-53.5809,0\H,259,1.09318,257,111.386,254,-170.178,0\H,16,2.5077,15,119.572,12,97.1262,0\C,263,1.09356,16,123.201,15,-135.031,0\H,264,1.09285,263,105.856,16,73.7836,0\H,264,1.09371,263,107.221,16,-157.998,0\S,264,1.80641,263,108.683,16,-35.3594,0\O,267,1.49637,264,103.34,263,178.402,0\C,267,1.80783,264,92.7224,263,-75.3455,0\H,269,1.09219,267,107.48,264,-48.2474,0\H,269,1.09282,267,111.484,264,-171.42,0\H,269,1.09335,267,110.592,264,74.1942,0\O,252,2.50797,249,150.677,247,-41.4899,0\S,273,1.49653,252,144.08,249,7.60817,0\C,274,1.80644,273,103.44,252,13.0934,0\H,275,1.09269,274,109.517,273,-61.1152,0\H,275,1.09299,274,108.336,273,59.9369,0\H,275,1.09304,274,100.764,273,174.739,0\C,274,1.8077,273,102.2,252,110.766,0\H,279,1.09213,274,111.17,273,-146.825,0\H,279,1.09309,274,106.986,273,93.2145,0\H,279,1.0931,274,106.42,273,-31.9,0\H,273,2.39453,252,103.754,249,-103.55,0\C,283,1.09313,273,144.902,252,-57.3841,0\H,284,1.09318,283,105.567,273,-144.017,0\H,284,1.09349,283,120.047,273,82.8571,0\S,284,1.8062,283,106.808,273,-32.6416,0\O,287,1.49682,284,102.134,283,-169.743,0\C,287,1.80784,284,93.2062,283,-60.9296,0\H,289,1.09283,287,106.451,284,67.5035,0\H,289,1.09316,287,109.439,284,-168.484,0\H,289,1.09318,287,105.839,284,-45.814,0\H,123,2.75724,41,96.4986,40,-49.5419,0\C,293,1.09247,123,153.386,41,-61.1466,0\H,294,1.09236,293,110.796,123,88.0324,0\H,294,1.09356,293,110.445,123,-144.035,0\S,294,1.80674,293,108.753,123,-30.6037,0\O,297,1.49752,294,97.053,293,154.775,0\C,297,1.80719,294,97.3408,293,-104.038,0\H,299,1.09244,297,106.971,294,175.069,0\H,299,1.09259,297,110.065,294,-65.9265,0\H,299,1.0936,297,109.09,294,57.0668,0\\\@

 Total job time:  60.79s(wall), 197.51s(cpu) 
 Fri Dec  3 22:26:47 2021

        *************************************************************
        *                                                           *
        *  Thank you very much for using Q-Chem.  Have a nice day.  *
        *                                                           *
        *************************************************************


