                  Welcome to Q-Chem
     A Quantum Leap Into The Future Of Chemistry


 Q-Chem 5.2 (devel), Q-Chem, Inc., Pleasanton, CA (2019)

 Yihan Shao,  Zhengting Gan,  E. Epifanovsky,  A. T. B. Gilbert,  M. Wormit,  
 J. Kussmann,  A. W. Lange,  A. Behn,  Jia Deng,  Xintian Feng,  D. Ghosh,  
 M. Goldey,  P. R. Horn,  L. D. Jacobson,  I. Kaliman,  T. Kus,  A. Landau,  
 Jie Liu,  E. I. Proynov,  R. M. Richard,  R. P. Steele,  E. J. Sundstrom,  
 H. L. Woodcock III,  P. M. Zimmerman,  D. Zuev,  B. Alam,  B. Albrecht,  
 E. Alguire,  S. A. Baeppler,  D. Barton,  Z. Benda,  Y. A. Bernard,  
 E. J. Berquist,  K. B. Bravaya,  H. Burton,  K. Carter-Fenk,  D. Casanova,  
 Chun-Min Chang,  Yunqing Chen,  A. Chien,  K. D. Closser,  M. P. Coons,  
 S. Coriani,  S. Dasgupta,  A. L. Dempwolff,  M. Diedenhofen,  Hainam Do,  
 R. G. Edgar,  Po-Tung Fang,  S. Faraji,  S. Fatehi,  Qingguo Feng,  
 J. Fosso-Tande,  J. Gayvert,  Qinghui Ge,  A. Ghysels,  G. Gidofalvi,  
 J. Gomes,  J. Gonthier,  A. Gunina,  D. Hait,  M. W. D. Hanson-Heine,  
 P. H. P. Harbach,  A. W. Hauser,  M. F. Herbst,  J. E. Herr,  
 E. G. Hohenstein,  Z. C. Holden,  Kerwin Hui,  B. C. Huynh,  T.-C. Jagau,  
 Hyunjun Ji,  B. Kaduk,  K. Khistyaev,  Jaehoon Kim,  P. Klunzinger,  K. Koh,  
 D. Kosenkov,  L. Koulias,  T. Kowalczyk,  C. M. Krauter,  A. Kunitsa,  
 Ka Un Lao,  A. Laurent,  K. V. Lawler,  Joonho Lee,  D. Lefrancois,  
 S. Lehtola,  D. S. Levine,  Yi-Pei Li,  You-Sheng Lin,  Fenglai Liu,  
 Kuan-Yu Liu,  E. Livshits,  M. Loipersberger,  A. Luenser,  P. Manohar,  
 E. Mansoor,  S. F. Manzer,  Shan-Ping Mao,  Yuezhi Mao,  N. Mardirossian,  
 A. V. Marenich,  T. Markovich,  L. A. Martinez-Martinez,  S. A. Maurer,  
 N. J. Mayhall,  S. C. McKenzie,  J.-M. Mewes,  P. Morgante,  A. F. Morrison,  
 J. W. Mullinax,  K. Nanda,  T. S. Nguyen-Beck,  R. Olivares-Amaya,  
 J. A. Parkhill,  S. K. Paul,  F. Pavosevic,  Zheng Pei,  T. M. Perrine,  
 F. Plasser,  P. Pokhilko,  S. Prager,  A. Prociuk,  E. Ramos,  B. Rana,  
 D. R. Rehn,  F. Rob,  M. Scheurer,  M. Schneider,  N. Sergueev,  
 S. M. Sharada,  S. Sharma,  D. W. Small,  T. Stauch,  C. J. Stein,  
 T. Stein,  Yu-Chuan Su,  S. P. Veccham,  Zhen Tao,  A. J. W. Thom,  
 A. Tkatchenko,  T. Tsuchimochi,  N. M. Tubman,  L. Vogt,  M. L. Vidal,  
 O. Vydrov,  M. A. Watson,  J. Wenzel,  M. de Wergifosse,  T. A. Wesolowski,  
 A. White,  J. Witte,  A. Yamada,  Jun Yang,  K. Yao,  S. Yeganeh,  
 S. R. Yost,  Zhi-Qiang You,  A. Zech,  Igor Ying Zhang,  Xing Zhang,  
 Yan Zhao,  Ying Zhu,  B. R. Brooks,  G. K. L. Chan,  C. J. Cramer,  
 M. S. Gordon,  W. J. Hehre,  A. Klamt,  M. W. Schmidt,  C. D. Sherrill,  
 D. G. Truhlar,  A. Aspuru-Guzik,  R. Baer,  A. T. Bell,  N. A. Besley,  
 Jeng-Da Chai,  A. E. DePrince, III,  R. A. DiStasio Jr.,  A. Dreuw,  
 B. D. Dunietz,  T. R. Furlani,  Chao-Ping Hsu,  Yousung Jung,  Jing Kong,  
 D. S. Lambrecht,  WanZhen Liang,  C. Ochsenfeld,  V. A. Rassolov,  
 L. V. Slipchenko,  J. E. Subotnik,  T. Van Voorhis,  J. M. Herbert,  
 A. I. Krylov,  P. M. W. Gill,  M. Head-Gordon

 Contributors to earlier versions of Q-Chem not listed above: 
 R. D. Adamson,  B. Austin,  J. Baker,  G. J. O. Beran,  K. Brandhorst,  
 S. T. Brown,  E. F. C. Byrd,  A. K. Chakraborty,  C.-L. Cheng,  
 Siu Hung Chien,  D. M. Chipman,  D. L. Crittenden,  H. Dachsel,  
 R. J. Doerksen,  A. D. Dutoi,  L. Fusti-Molnar,  W. A. Goddard III,  
 A. Golubeva-Zadorozhnaya,  S. R. Gwaltney,  G. Hawkins,  A. Heyden,  
 S. Hirata,  G. Kedziora,  F. J. Keil,  C. Kelley,  Jihan Kim,  R. A. King,  
 R. Z. Khaliullin,  P. P. Korambath,  W. Kurlancheek,  A. M. Lee,  M. S. Lee,  
 S. V. Levchenko,  Ching Yeh Lin,  D. Liotard,  R. C. Lochan,  I. Lotan,  
 P. E. Maslen,  N. Nair,  D. P. O'Neill,  D. Neuhauser,  E. Neuscamman,  
 C. M. Oana,  R. Olson,  B. Peters,  R. Peverati,  P. A. Pieniazek,  
 Y. M. Rhee,  J. Ritchie,  M. A. Rohrdanz,  E. Rosta,  N. J. Russ,  
 H. F. Schaefer III,  N. E. Schultz,  N. Shenvi,  A. C. Simmonett,  A. Sodt,  
 D. Stuck,  K. S. Thanthiriwatte,  V. Vanovschi,  Tao Wang,  A. Warshel,  
 C. F. Williams,  Q. Wu,  X. Xu,  W. Zhang

 Please cite Q-Chem as follows:
 Y. Shao et al., Mol. Phys. 113, 184-215 (2015)
 DOI: 10.1080/00268976.2014.952696

 Q-Chem 5.2.2 for Intel X86 EM64T Linux

 Parts of Q-Chem use Armadillo 9.800.1 (Horizon Scraper).
 http://arma.sourceforge.net/

 Q-Chem begins on Fri Dec  3 18:19:31 2021  

Host: node027
0

     Scratch files written to /home/ymao90/scratch/r7.00_frame_0051_spade_B3LYP_dp20211203120849//

Checking the input file for inconsistencies... 	...done.

--------------------------------------------------------------
User input:
--------------------------------------------------------------
$molecule
0 1
--
0 1
C    26.27900   20.16000   27.31400  
C    26.24200   21.67600   27.05700  
C    27.62200   22.08000   26.51400  
C    28.03400   21.29300   25.25900  
C    27.96900   19.77400   25.48400  
C    26.60400   19.34800   26.05000  
H    27.73700   23.16600   26.41500  
H    25.53600   21.77900   26.22400  
H    27.04200   19.97000   28.08000  
H    25.34400   19.82400   27.77900  
H    27.37500   21.49300   24.40500  
H    29.03200   21.63300   24.95400  
H    28.25100   19.12500   24.64600  
H    28.66700   19.53400   26.29500  
H    25.78200   19.56400   25.35700  
H    26.66300   18.28900   26.33000  
H    28.33000   21.91900   27.33600  
N    25.91500   22.49500   28.22300  
H    26.00400   22.11400   29.15700  
C    25.48600   23.80600   28.22400  
H    25.26200   24.10200   29.26500  
O    25.36800   24.46500   27.20700  
--
0 1
C    23.99500   29.92400   24.15700  
H    23.99200   30.41200   23.18000  
H    23.30500   30.43200   24.83600  
H    24.97400   29.71800   24.59600  
S    23.23500   28.30500   23.89600  
C    21.72200   28.96400   23.16000  
H    21.01400   28.23100   22.76500  
H    21.17500   29.54400   23.90800  
H    22.14300   29.62500   22.39800  
O    22.71000   27.99900   25.26400  
C    28.79200   27.19500   31.00800  
H    27.85900   27.41600   30.48400  
H    28.98600   27.77400   31.91400  
H    29.59600   27.37600   30.29000  
S    29.10700   25.44400   31.32400  
C    29.79000   25.60700   32.98900  
H    30.25400   24.63300   33.16600  
H    30.61000   26.32300   32.89700  
H    29.07800   25.82000   33.79100  
O    30.35400   25.14500   30.55100  
C    29.49900   21.03900   32.26900  
H    28.63000   20.72900   31.68400  
H    29.59000   22.08000   31.94800  
H    30.31800   20.32100   32.18800  
S    28.90700   21.02300   33.97600  
C    30.56500   21.16700   34.68000  
H    30.40500   21.43700   35.72700  
H    30.95000   20.14800   34.58600  
H    31.02500   22.03200   34.19600  
O    28.64400   19.57000   34.22500  
C    31.54800   21.12100   29.60000  
H    31.02100   21.50200   28.72000  
H    31.52100   20.03000   29.66000  
H    31.22100   21.69800   30.46900  
S    33.25400   21.67400   29.37800  
C    32.77300   23.41300   29.28000  
H    32.29200   23.64900   28.32800  
H    32.10800   23.77400   30.06900  
H    33.75300   23.89600   29.22500  
O    33.38200   21.29000   27.93700  
C    30.54200   14.83100   27.33100  
H    31.58400   15.12000   27.17400  
H    29.94100   15.52300   27.92600  
H    30.47400   13.85100   27.81000  
S    29.79100   14.81200   25.68700  
C    30.37400   16.47600   25.29500  
H    31.46100   16.48800   25.17900  
H    29.82900   16.75000   24.38800  
H    30.11900   17.16000   26.10900  
O    28.32800   15.05000   25.90000  
C    24.38700   18.81800   30.15200  
H    23.91400   19.68800   29.69100  
H    25.06300   18.33000   29.44600  
H    23.68200   18.15800   30.66500  
S    25.51900   19.56500   31.34700  
C    24.03300   20.09400   32.22900  
H    23.56900   19.17000   32.58400  
H    24.29900   20.64500   33.13500  
H    23.39900   20.66300   31.54500  
O    26.04300   20.76300   30.61800  
C    24.91700   21.01000   22.88200  
H    25.99800   20.85100   22.86700  
H    24.69600   21.93300   23.42400  
H    24.46700   20.13700   23.36000  
S    24.51400   21.32700   21.14900  
C    22.80600   20.79200   21.39300  
H    22.76900   19.82600   21.90200  
H    22.37900   21.63300   21.94500  
H    22.33500   20.63900   20.41900  
O    25.31000   20.30600   20.39700  
C    26.60600   27.90100   27.34400  
H    26.41500   28.01400   26.27400  
H    27.20500   28.74300   27.70000  
H    27.16100   26.97800   27.53100  
S    25.00900   27.74400   28.17300  
C    24.66500   29.51100   28.02100  
H    25.56800   29.98800   28.41100  
H    24.47500   29.60200   26.94900  
H    23.74600   29.72800   28.57100  
O    25.32700   27.61300   29.63000  
C    21.27100   16.45100   29.91900  
H    22.34400   16.24000   29.89000  
H    20.67100   15.55000   29.77200  
H    20.94000   17.25100   29.25400  
S    20.80500   17.14700   31.52000  
C    19.03600   17.19400   31.15300  
H    18.49500   17.58300   32.01900  
H    18.83000   17.93500   30.37600  
H    18.61900   16.22700   30.86300  
O    21.31100   18.54600   31.35500  
C    33.10100   15.61300   31.32700  
H    32.50000   16.19600   32.02900  
H    32.68200   14.66100   30.99000  
H    34.14900   15.52900   31.62500  
S    33.02400   16.65400   29.85100  
C    33.86000   18.15000   30.42300  
H    34.82500   17.85300   30.84200  
H    33.99300   18.90700   29.64600  
H    33.25300   18.55700   31.23500  
O    31.55900   16.91400   30.01800  
C    26.04200   24.75800   24.20800  
H    26.88200   25.00100   24.86400  
H    25.17300   25.41600   24.29800  
H    25.70100   23.73400   24.38200  
S    26.64400   24.72500   22.50500  
C    26.46800   26.49100   22.16400  
H    25.44100   26.65400   21.82700  
H    26.54500   27.02400   23.11500  
H    27.24200   26.68200   21.41700  
O    25.47900   24.15600   21.75700  
C    29.47800   25.97300   26.12100  
H    28.72300   26.56300   25.59400  
H    29.17200   25.03300   26.58700  
H    29.93900   26.56700   26.91400  
S    30.88200   25.49200   25.09000  
C    30.61200   26.93900   24.04100  
H    29.57500   26.85100   23.70900  
H    30.56200   27.89800   24.56300  
H    31.23000   26.97500   23.14000  
O    30.27100   24.45800   24.19600  
C    24.97300   29.75800   32.37500  
H    24.85500   29.13200   31.48700  
H    24.02400   29.92700   32.89100  
H    25.49000   30.67600   32.08600  
S    26.22200   29.11800   33.51400  
C    25.29200   27.80900   34.34200  
H    24.32700   28.16000   34.71700  
H    25.14800   27.02200   33.59800  
H    25.86100   27.48500   35.21800  
O    26.52200   30.15200   34.55400  
C    28.18900   14.93900   30.13800  
H    27.50100   15.09800   30.97300  
H    28.03200   13.99100   29.61800  
H    29.21700   14.97400   30.50600  
S    27.83600   16.32800   29.03600  
C    28.19600   17.58200   30.28600  
H    27.77000   17.39700   31.27600  
H    29.28700   17.54900   30.34300  
H    27.85500   18.55300   29.91900  
O    26.34200   16.31900   28.95600  
C    31.99700   21.37300   24.21000  
H    32.99100   21.40000   23.75400  
H    31.27100   21.86700   23.56000  
H    31.90700   21.89500   25.16500  
S    31.47500   19.66000   24.45500  
C    33.06900   19.40400   25.26800  
H    33.84300   19.92700   24.70000  
H    32.92300   19.83200   26.26300  
H    33.25200   18.32700   25.25600  
O    31.65400   19.02900   23.11000  
C    28.97600   19.67200   19.95900  
H    29.03900   18.81500   20.63400  
H    27.99900   20.16100   19.90600  
H    29.26300   19.36900   18.94900  
S    30.18000   20.93500   20.42800  
C    29.16300   21.67700   21.72400  
H    28.23800   22.12700   21.35600  
H    29.02700   20.80000   22.36400  
H    29.73700   22.34800   22.36900  
O    30.07500   21.87600   19.26900  
C    22.18300   25.76100   29.23300  
H    21.65600   26.56500   28.71300  
H    23.26500   25.91500   29.20500  
H    21.88400   24.80400   28.79800  
S    21.68700   25.84600   30.96900  
C    22.79200   27.12700   31.60400  
H    22.44700   28.03100   31.09600  
H    22.65500   27.11900   32.68800  
H    23.83500   26.96800   31.31900  
O    22.55300   24.71400   31.42800  
C    24.34100   13.66300   28.83800  
H    23.75900   13.60900   29.76200  
H    25.13400   14.41600   28.83000  
H    23.66700   14.04900   28.06900  
S    25.00200   12.13700   28.13300  
C    25.80200   12.98300   26.75000  
H    25.14900   13.78800   26.40500  
H    26.67600   13.41900   27.24000  
H    26.03800   12.24800   25.97600  
O    23.67500   11.61200   27.68200  
C    27.45400   17.91300   22.46500  
H    28.46900   17.85600   22.86500  
H    27.30000   18.80000   21.84500  
H    26.79300   17.86400   23.33400  
S    26.96500   16.57600   21.35300  
C    27.13200   15.09100   22.37000  
H    28.19500   14.84000   22.34600  
H    26.71800   15.27800   23.36400  
H    26.67000   14.24600   21.85400  
O    28.21600   16.55900   20.53200  
C    22.65900   21.84100   28.08200  
H    21.86600   22.52400   28.39600  
H    22.99700   21.15000   28.85800  
H    23.43000   22.49800   27.67100  
S    22.18600   20.87200   26.63200  
C    21.75500   19.35200   27.50900  
H    20.72200   19.44100   27.85500  
H    21.81300   18.48200   26.85000  
H    22.48700   19.17500   28.30200  
O    23.41700   20.35500   25.95600  
C    17.91100   24.85300   30.83200  
H    17.25300   23.98600   30.73600  
H    18.74100   24.55800   31.47900  
H    17.49500   25.78500   31.22300  
S    18.68100   25.24100   29.24400  
C    17.15100   25.04600   28.30200  
H    16.82200   24.00600   28.37200  
H    16.51900   25.72800   28.87700  
H    17.41700   25.34900   27.28600  
O    19.45000   24.04300   28.78000  
C    22.66200   24.12800   25.23300  
H    23.47200   23.54400   24.78900  
H    22.84700   25.19800   25.35400  
H    22.32700   23.72400   26.19200  
S    21.22000   24.10100   24.14400  
C    20.15700   24.90900   25.36100  
H    20.32700   25.98600   25.45000  
H    19.10900   24.74400   25.09800  
H    20.27500   24.45200   26.34700  
O    20.79200   22.67600   24.31000  
C    35.36600   23.13100   25.74900  
H    35.83900   22.69800   24.86400  
H    36.23700   23.11500   26.41000  
H    34.66200   22.42300   26.19300  
S    34.68200   24.79400   25.56800  
C    34.10400   24.43600   23.89400  
H    33.43900   25.23800   23.56400  
H    35.01700   24.52800   23.30100  
H    33.59800   23.46800   23.94600  
O    35.77900   25.80200   25.41700  
C    25.84400   23.57900   32.34700  
H    26.84900   23.39500   31.96100  
H    25.13400   22.80100   32.05500  
H    25.48900   24.47300   31.82700  
S    25.75800   23.68100   34.14900  
C    24.06900   24.23900   34.46400  
H    23.51300   24.36800   33.53200  
H    23.46500   23.67800   35.18200  
H    24.32400   25.18900   34.93900  
O    26.64400   24.84500   34.46800  
C    24.27700   16.62700   24.87900  
H    24.57900   17.46500   25.51300  
H    23.38100   16.11000   25.23000  
H    25.05000   15.89000   24.65000  
S    23.83900   17.39800   23.30400  
C    22.07100   17.60000   23.62200  
H    21.83200   18.34600   24.38500  
H    21.67600   17.92200   22.65500  
H    21.69000   16.60600   23.86800  
O    23.88500   16.24700   22.34900  
C    31.76600   24.62300   20.63700  
H    32.30200   25.22000   19.89500  
H    32.10800   24.70000   21.67300  
H    31.70300   23.60000   20.25900  
S    30.08500   25.27700   20.51400  
C    29.95200   25.23300   18.71300  
H    30.80100   25.84200   18.39200  
H    30.03000   24.19700   18.37400  
H    28.96800   25.64200   18.46700  
O    30.11000   26.76600   20.66200  
$end

$rem
JOBTYPE  SP
METHOD  B3LYP
BASIS  6-31+G(D)
SYMMETRY  FALSE
SYM_IGNORE  TRUE
MEM_TOTAL  16000
MEM_STATIC  8000
MAX_SUB_FILE_NUM  16000
BASIS_LIN_DEP_THRESH  6
THRESH  14
SCF_CONVERGENCE  8
GEN_SCFMAN  TRUE
SCF_GUESS  SAD
FD_MAT_VEC_PROD  FALSE
XC_GRID  000075000302
NL_GRID  1
MAX_SCF_CYCLES  200
ENV_METHOD  B3LYP
GEN_SCFMAN_EMBED  TRUE
SPADE_PARTITION  TRUE
$end

$development
embedding_early_stop  1
$end

--------------------------------------------------------------
 ----------------------------------------------------------------
             Standard Nuclear Orientation (Angstroms)
    I     Atom           X                Y                Z
 ----------------------------------------------------------------
    1      C      26.2790000000    20.1600000000    27.3140000000
    2      C      26.2420000000    21.6760000000    27.0570000000
    3      C      27.6220000000    22.0800000000    26.5140000000
    4      C      28.0340000000    21.2930000000    25.2590000000
    5      C      27.9690000000    19.7740000000    25.4840000000
    6      C      26.6040000000    19.3480000000    26.0500000000
    7      H      27.7370000000    23.1660000000    26.4150000000
    8      H      25.5360000000    21.7790000000    26.2240000000
    9      H      27.0420000000    19.9700000000    28.0800000000
   10      H      25.3440000000    19.8240000000    27.7790000000
   11      H      27.3750000000    21.4930000000    24.4050000000
   12      H      29.0320000000    21.6330000000    24.9540000000
   13      H      28.2510000000    19.1250000000    24.6460000000
   14      H      28.6670000000    19.5340000000    26.2950000000
   15      H      25.7820000000    19.5640000000    25.3570000000
   16      H      26.6630000000    18.2890000000    26.3300000000
   17      H      28.3300000000    21.9190000000    27.3360000000
   18      N      25.9150000000    22.4950000000    28.2230000000
   19      H      26.0040000000    22.1140000000    29.1570000000
   20      C      25.4860000000    23.8060000000    28.2240000000
   21      H      25.2620000000    24.1020000000    29.2650000000
   22      O      25.3680000000    24.4650000000    27.2070000000
   23      C      23.9950000000    29.9240000000    24.1570000000
   24      H      23.9920000000    30.4120000000    23.1800000000
   25      H      23.3050000000    30.4320000000    24.8360000000
   26      H      24.9740000000    29.7180000000    24.5960000000
   27      S      23.2350000000    28.3050000000    23.8960000000
   28      C      21.7220000000    28.9640000000    23.1600000000
   29      H      21.0140000000    28.2310000000    22.7650000000
   30      H      21.1750000000    29.5440000000    23.9080000000
   31      H      22.1430000000    29.6250000000    22.3980000000
   32      O      22.7100000000    27.9990000000    25.2640000000
   33      C      28.7920000000    27.1950000000    31.0080000000
   34      H      27.8590000000    27.4160000000    30.4840000000
   35      H      28.9860000000    27.7740000000    31.9140000000
   36      H      29.5960000000    27.3760000000    30.2900000000
   37      S      29.1070000000    25.4440000000    31.3240000000
   38      C      29.7900000000    25.6070000000    32.9890000000
   39      H      30.2540000000    24.6330000000    33.1660000000
   40      H      30.6100000000    26.3230000000    32.8970000000
   41      H      29.0780000000    25.8200000000    33.7910000000
   42      O      30.3540000000    25.1450000000    30.5510000000
   43      C      29.4990000000    21.0390000000    32.2690000000
   44      H      28.6300000000    20.7290000000    31.6840000000
   45      H      29.5900000000    22.0800000000    31.9480000000
   46      H      30.3180000000    20.3210000000    32.1880000000
   47      S      28.9070000000    21.0230000000    33.9760000000
   48      C      30.5650000000    21.1670000000    34.6800000000
   49      H      30.4050000000    21.4370000000    35.7270000000
   50      H      30.9500000000    20.1480000000    34.5860000000
   51      H      31.0250000000    22.0320000000    34.1960000000
   52      O      28.6440000000    19.5700000000    34.2250000000
   53      C      31.5480000000    21.1210000000    29.6000000000
   54      H      31.0210000000    21.5020000000    28.7200000000
   55      H      31.5210000000    20.0300000000    29.6600000000
   56      H      31.2210000000    21.6980000000    30.4690000000
   57      S      33.2540000000    21.6740000000    29.3780000000
   58      C      32.7730000000    23.4130000000    29.2800000000
   59      H      32.2920000000    23.6490000000    28.3280000000
   60      H      32.1080000000    23.7740000000    30.0690000000
   61      H      33.7530000000    23.8960000000    29.2250000000
   62      O      33.3820000000    21.2900000000    27.9370000000
   63      C      30.5420000000    14.8310000000    27.3310000000
   64      H      31.5840000000    15.1200000000    27.1740000000
   65      H      29.9410000000    15.5230000000    27.9260000000
   66      H      30.4740000000    13.8510000000    27.8100000000
   67      S      29.7910000000    14.8120000000    25.6870000000
   68      C      30.3740000000    16.4760000000    25.2950000000
   69      H      31.4610000000    16.4880000000    25.1790000000
   70      H      29.8290000000    16.7500000000    24.3880000000
   71      H      30.1190000000    17.1600000000    26.1090000000
   72      O      28.3280000000    15.0500000000    25.9000000000
   73      C      24.3870000000    18.8180000000    30.1520000000
   74      H      23.9140000000    19.6880000000    29.6910000000
   75      H      25.0630000000    18.3300000000    29.4460000000
   76      H      23.6820000000    18.1580000000    30.6650000000
   77      S      25.5190000000    19.5650000000    31.3470000000
   78      C      24.0330000000    20.0940000000    32.2290000000
   79      H      23.5690000000    19.1700000000    32.5840000000
   80      H      24.2990000000    20.6450000000    33.1350000000
   81      H      23.3990000000    20.6630000000    31.5450000000
   82      O      26.0430000000    20.7630000000    30.6180000000
   83      C      24.9170000000    21.0100000000    22.8820000000
   84      H      25.9980000000    20.8510000000    22.8670000000
   85      H      24.6960000000    21.9330000000    23.4240000000
   86      H      24.4670000000    20.1370000000    23.3600000000
   87      S      24.5140000000    21.3270000000    21.1490000000
   88      C      22.8060000000    20.7920000000    21.3930000000
   89      H      22.7690000000    19.8260000000    21.9020000000
   90      H      22.3790000000    21.6330000000    21.9450000000
   91      H      22.3350000000    20.6390000000    20.4190000000
   92      O      25.3100000000    20.3060000000    20.3970000000
   93      C      26.6060000000    27.9010000000    27.3440000000
   94      H      26.4150000000    28.0140000000    26.2740000000
   95      H      27.2050000000    28.7430000000    27.7000000000
   96      H      27.1610000000    26.9780000000    27.5310000000
   97      S      25.0090000000    27.7440000000    28.1730000000
   98      C      24.6650000000    29.5110000000    28.0210000000
   99      H      25.5680000000    29.9880000000    28.4110000000
  100      H      24.4750000000    29.6020000000    26.9490000000
  101      H      23.7460000000    29.7280000000    28.5710000000
  102      O      25.3270000000    27.6130000000    29.6300000000
  103      C      21.2710000000    16.4510000000    29.9190000000
  104      H      22.3440000000    16.2400000000    29.8900000000
  105      H      20.6710000000    15.5500000000    29.7720000000
  106      H      20.9400000000    17.2510000000    29.2540000000
  107      S      20.8050000000    17.1470000000    31.5200000000
  108      C      19.0360000000    17.1940000000    31.1530000000
  109      H      18.4950000000    17.5830000000    32.0190000000
  110      H      18.8300000000    17.9350000000    30.3760000000
  111      H      18.6190000000    16.2270000000    30.8630000000
  112      O      21.3110000000    18.5460000000    31.3550000000
  113      C      33.1010000000    15.6130000000    31.3270000000
  114      H      32.5000000000    16.1960000000    32.0290000000
  115      H      32.6820000000    14.6610000000    30.9900000000
  116      H      34.1490000000    15.5290000000    31.6250000000
  117      S      33.0240000000    16.6540000000    29.8510000000
  118      C      33.8600000000    18.1500000000    30.4230000000
  119      H      34.8250000000    17.8530000000    30.8420000000
  120      H      33.9930000000    18.9070000000    29.6460000000
  121      H      33.2530000000    18.5570000000    31.2350000000
  122      O      31.5590000000    16.9140000000    30.0180000000
  123      C      26.0420000000    24.7580000000    24.2080000000
  124      H      26.8820000000    25.0010000000    24.8640000000
  125      H      25.1730000000    25.4160000000    24.2980000000
  126      H      25.7010000000    23.7340000000    24.3820000000
  127      S      26.6440000000    24.7250000000    22.5050000000
  128      C      26.4680000000    26.4910000000    22.1640000000
  129      H      25.4410000000    26.6540000000    21.8270000000
  130      H      26.5450000000    27.0240000000    23.1150000000
  131      H      27.2420000000    26.6820000000    21.4170000000
  132      O      25.4790000000    24.1560000000    21.7570000000
  133      C      29.4780000000    25.9730000000    26.1210000000
  134      H      28.7230000000    26.5630000000    25.5940000000
  135      H      29.1720000000    25.0330000000    26.5870000000
  136      H      29.9390000000    26.5670000000    26.9140000000
  137      S      30.8820000000    25.4920000000    25.0900000000
  138      C      30.6120000000    26.9390000000    24.0410000000
  139      H      29.5750000000    26.8510000000    23.7090000000
  140      H      30.5620000000    27.8980000000    24.5630000000
  141      H      31.2300000000    26.9750000000    23.1400000000
  142      O      30.2710000000    24.4580000000    24.1960000000
  143      C      24.9730000000    29.7580000000    32.3750000000
  144      H      24.8550000000    29.1320000000    31.4870000000
  145      H      24.0240000000    29.9270000000    32.8910000000
  146      H      25.4900000000    30.6760000000    32.0860000000
  147      S      26.2220000000    29.1180000000    33.5140000000
  148      C      25.2920000000    27.8090000000    34.3420000000
  149      H      24.3270000000    28.1600000000    34.7170000000
  150      H      25.1480000000    27.0220000000    33.5980000000
  151      H      25.8610000000    27.4850000000    35.2180000000
  152      O      26.5220000000    30.1520000000    34.5540000000
  153      C      28.1890000000    14.9390000000    30.1380000000
  154      H      27.5010000000    15.0980000000    30.9730000000
  155      H      28.0320000000    13.9910000000    29.6180000000
  156      H      29.2170000000    14.9740000000    30.5060000000
  157      S      27.8360000000    16.3280000000    29.0360000000
  158      C      28.1960000000    17.5820000000    30.2860000000
  159      H      27.7700000000    17.3970000000    31.2760000000
  160      H      29.2870000000    17.5490000000    30.3430000000
  161      H      27.8550000000    18.5530000000    29.9190000000
  162      O      26.3420000000    16.3190000000    28.9560000000
  163      C      31.9970000000    21.3730000000    24.2100000000
  164      H      32.9910000000    21.4000000000    23.7540000000
  165      H      31.2710000000    21.8670000000    23.5600000000
  166      H      31.9070000000    21.8950000000    25.1650000000
  167      S      31.4750000000    19.6600000000    24.4550000000
  168      C      33.0690000000    19.4040000000    25.2680000000
  169      H      33.8430000000    19.9270000000    24.7000000000
  170      H      32.9230000000    19.8320000000    26.2630000000
  171      H      33.2520000000    18.3270000000    25.2560000000
  172      O      31.6540000000    19.0290000000    23.1100000000
  173      C      28.9760000000    19.6720000000    19.9590000000
  174      H      29.0390000000    18.8150000000    20.6340000000
  175      H      27.9990000000    20.1610000000    19.9060000000
  176      H      29.2630000000    19.3690000000    18.9490000000
  177      S      30.1800000000    20.9350000000    20.4280000000
  178      C      29.1630000000    21.6770000000    21.7240000000
  179      H      28.2380000000    22.1270000000    21.3560000000
  180      H      29.0270000000    20.8000000000    22.3640000000
  181      H      29.7370000000    22.3480000000    22.3690000000
  182      O      30.0750000000    21.8760000000    19.2690000000
  183      C      22.1830000000    25.7610000000    29.2330000000
  184      H      21.6560000000    26.5650000000    28.7130000000
  185      H      23.2650000000    25.9150000000    29.2050000000
  186      H      21.8840000000    24.8040000000    28.7980000000
  187      S      21.6870000000    25.8460000000    30.9690000000
  188      C      22.7920000000    27.1270000000    31.6040000000
  189      H      22.4470000000    28.0310000000    31.0960000000
  190      H      22.6550000000    27.1190000000    32.6880000000
  191      H      23.8350000000    26.9680000000    31.3190000000
  192      O      22.5530000000    24.7140000000    31.4280000000
  193      C      24.3410000000    13.6630000000    28.8380000000
  194      H      23.7590000000    13.6090000000    29.7620000000
  195      H      25.1340000000    14.4160000000    28.8300000000
  196      H      23.6670000000    14.0490000000    28.0690000000
  197      S      25.0020000000    12.1370000000    28.1330000000
  198      C      25.8020000000    12.9830000000    26.7500000000
  199      H      25.1490000000    13.7880000000    26.4050000000
  200      H      26.6760000000    13.4190000000    27.2400000000
  201      H      26.0380000000    12.2480000000    25.9760000000
  202      O      23.6750000000    11.6120000000    27.6820000000
  203      C      27.4540000000    17.9130000000    22.4650000000
  204      H      28.4690000000    17.8560000000    22.8650000000
  205      H      27.3000000000    18.8000000000    21.8450000000
  206      H      26.7930000000    17.8640000000    23.3340000000
  207      S      26.9650000000    16.5760000000    21.3530000000
  208      C      27.1320000000    15.0910000000    22.3700000000
  209      H      28.1950000000    14.8400000000    22.3460000000
  210      H      26.7180000000    15.2780000000    23.3640000000
  211      H      26.6700000000    14.2460000000    21.8540000000
  212      O      28.2160000000    16.5590000000    20.5320000000
  213      C      22.6590000000    21.8410000000    28.0820000000
  214      H      21.8660000000    22.5240000000    28.3960000000
  215      H      22.9970000000    21.1500000000    28.8580000000
  216      H      23.4300000000    22.4980000000    27.6710000000
  217      S      22.1860000000    20.8720000000    26.6320000000
  218      C      21.7550000000    19.3520000000    27.5090000000
  219      H      20.7220000000    19.4410000000    27.8550000000
  220      H      21.8130000000    18.4820000000    26.8500000000
  221      H      22.4870000000    19.1750000000    28.3020000000
  222      O      23.4170000000    20.3550000000    25.9560000000
  223      C      17.9110000000    24.8530000000    30.8320000000
  224      H      17.2530000000    23.9860000000    30.7360000000
  225      H      18.7410000000    24.5580000000    31.4790000000
  226      H      17.4950000000    25.7850000000    31.2230000000
  227      S      18.6810000000    25.2410000000    29.2440000000
  228      C      17.1510000000    25.0460000000    28.3020000000
  229      H      16.8220000000    24.0060000000    28.3720000000
  230      H      16.5190000000    25.7280000000    28.8770000000
  231      H      17.4170000000    25.3490000000    27.2860000000
  232      O      19.4500000000    24.0430000000    28.7800000000
  233      C      22.6620000000    24.1280000000    25.2330000000
  234      H      23.4720000000    23.5440000000    24.7890000000
  235      H      22.8470000000    25.1980000000    25.3540000000
  236      H      22.3270000000    23.7240000000    26.1920000000
  237      S      21.2200000000    24.1010000000    24.1440000000
  238      C      20.1570000000    24.9090000000    25.3610000000
  239      H      20.3270000000    25.9860000000    25.4500000000
  240      H      19.1090000000    24.7440000000    25.0980000000
  241      H      20.2750000000    24.4520000000    26.3470000000
  242      O      20.7920000000    22.6760000000    24.3100000000
  243      C      35.3660000000    23.1310000000    25.7490000000
  244      H      35.8390000000    22.6980000000    24.8640000000
  245      H      36.2370000000    23.1150000000    26.4100000000
  246      H      34.6620000000    22.4230000000    26.1930000000
  247      S      34.6820000000    24.7940000000    25.5680000000
  248      C      34.1040000000    24.4360000000    23.8940000000
  249      H      33.4390000000    25.2380000000    23.5640000000
  250      H      35.0170000000    24.5280000000    23.3010000000
  251      H      33.5980000000    23.4680000000    23.9460000000
  252      O      35.7790000000    25.8020000000    25.4170000000
  253      C      25.8440000000    23.5790000000    32.3470000000
  254      H      26.8490000000    23.3950000000    31.9610000000
  255      H      25.1340000000    22.8010000000    32.0550000000
  256      H      25.4890000000    24.4730000000    31.8270000000
  257      S      25.7580000000    23.6810000000    34.1490000000
  258      C      24.0690000000    24.2390000000    34.4640000000
  259      H      23.5130000000    24.3680000000    33.5320000000
  260      H      23.4650000000    23.6780000000    35.1820000000
  261      H      24.3240000000    25.1890000000    34.9390000000
  262      O      26.6440000000    24.8450000000    34.4680000000
  263      C      24.2770000000    16.6270000000    24.8790000000
  264      H      24.5790000000    17.4650000000    25.5130000000
  265      H      23.3810000000    16.1100000000    25.2300000000
  266      H      25.0500000000    15.8900000000    24.6500000000
  267      S      23.8390000000    17.3980000000    23.3040000000
  268      C      22.0710000000    17.6000000000    23.6220000000
  269      H      21.8320000000    18.3460000000    24.3850000000
  270      H      21.6760000000    17.9220000000    22.6550000000
  271      H      21.6900000000    16.6060000000    23.8680000000
  272      O      23.8850000000    16.2470000000    22.3490000000
  273      C      31.7660000000    24.6230000000    20.6370000000
  274      H      32.3020000000    25.2200000000    19.8950000000
  275      H      32.1080000000    24.7000000000    21.6730000000
  276      H      31.7030000000    23.6000000000    20.2590000000
  277      S      30.0850000000    25.2770000000    20.5140000000
  278      C      29.9520000000    25.2330000000    18.7130000000
  279      H      30.8010000000    25.8420000000    18.3920000000
  280      H      30.0300000000    24.1970000000    18.3740000000
  281      H      28.9680000000    25.6420000000    18.4670000000
  282      O      30.1100000000    26.7660000000    20.6620000000
 ----------------------------------------------------------------
 Nuclear Repulsion Energy =       45176.53825339 hartrees
 There are      581 alpha and      581 beta electrons
 Requested basis set is 6-31+G(d)
 There are 929 shells and 2589 basis functions

 Total QAlloc Memory Limit  16000 MB
 Mega-Array Size      7821 MB
 MEM_STATIC part      8000 MB
 A cutoff of  1.0D-14 yielded 167316 shell pairs
 There are   1448536 function pairs
 Smallest overlap matrix eigenvalue = 4.91E-07
 Linear dependence detected in AO basis
 Tighter screening thresholds may be required for diffuse basis sets
 Use S2THRESH > 14 and THRESH = 14 in case of SCF convergence issues
 Number of orthogonalized atomic orbitals = 2587
 Maximum deviation from orthogonality = 8.656E-11

 Scale SEOQF with 1.000000e-03/1.000000e-03/1.000000e-03

 Standard Electronic Orientation quadrupole field applied
 Nucleus-field energy     =    -0.0000002232 hartrees
 Guess from superposition of atomic densities
 Warning:  Energy on first SCF cycle will be non-variational
 SAD guess density has 1162.000002 electrons

 -----------------------------------------------------------------------
  General SCF calculation program by
  Eric Jon Sundstrom, Paul Horn, Yuezhi Mao, Dmitri Zuev, Alec White,
  David Stuck, Shaama M.S., Shane Yost, Joonho Lee, David Small,
  Daniel Levine, Susi Lehtola, Hugh Burton, Evgeny Epifanovsky,
  Bang C. Huynh
 -----------------------------------------------------------------------
=================================================
        Doing projection-based embedding         
      F. Manby et al. JCTC, 8, 2564 (2012)       
=================================================

****************************************************
   Low-level SCF calculation for the whole system   
****************************************************
----------------------------------------------
 Summary of the low-level theory: 
 Exchange:     0.2000 Hartree-Fock + 0.0800 Slater + 0.7200 B88
 Correlation:  0.1900 VWN1RPA + 0.8100 LYP
 Using Euler-Maclaurin-Lebedev (75,302) quadrature formula
----------------------------------------------
 using 16 threads for integral computing
 -------------------------------------------------------
 OpenMP Integral computing Module                
 Release: version 2.0, May 2017, Q-Chem Inc. Pleasanton 
 -------------------------------------------------------
 A restricted SCF calculation will be
 performed using DIIS
 SCF converges when DIIS error is below 1.0e-08
 ---------------------------------------
  Cycle       Energy         DIIS error
 ---------------------------------------
    1  -14806.2417667949      1.38e-02  
    2  -14782.8093020125      2.55e-03  
    3  -14765.8109134176      5.06e-03  
    4  -14779.5540444345      2.11e-03  
    5  -14787.0626548837      7.43e-04  
    6  -14787.4475218832      2.92e-04  
    7  -14787.4854708115      1.67e-04  
    8  -14787.5052784220      2.76e-05  
    9  -14787.5057153153      1.54e-05  
   10  -14787.5058594543      6.31e-06  
   11  -14787.5058857974      1.58e-06  
   12  -14787.5058874175      6.83e-07  
   13  -14787.5058877114      2.70e-07  
   14  -14787.5058877595      8.07e-08  
   15  -14787.5058877643      2.81e-08  
   16  -14787.5058877647      1.39e-08  
   17  -14787.5058877649      4.87e-09  Convergence criterion met
 ---------------------------------------
 SCF time:   CPU 190964.81s  wall 12070.00s 
 SCF   energy in the final basis set =   -14787.5058877649
 Total energy in the final basis set =   -14787.5058877649

****************************************************
             Start embedding calculation            
****************************************************
----------------------------------------------
 Summary of the high-level theory: 
 Exchange:     0.2000 Hartree-Fock + 0.0800 Slater + 0.7200 B88
 Correlation:  0.1900 VWN1RPA + 0.8100 LYP
 Using Euler-Maclaurin-Lebedev (75,302) quadrature formula
----------------------------------------------
Doing R-in-R Embedding Calculation
Number of fragments: 2
Embedded fragment(s): 1 
NOcc for each fragment
           35
          546
NBasis for each fragment
          197
         2392
Variational space of the embedded problem: 
NOcc (active)  = 35
NOcc (fixed)   = 546
NVir (total)   = 2006
Read converged orbitals from disk
=========================================================
       Doing SPADE partition for the orbital space       
     D. CLaudino and N. Mayhall JCTC 15, 1053 (2019)     
=========================================================
SPADE singular values:
 1.0000 1.0000 1.0000 1.0000 1.0000 1.0000 1.0000 1.0000 1.0000 0.9999
 0.9998 0.9998 0.9997 0.9995 0.9994 0.9993 0.9991 0.9987 0.9986 0.9976
 0.9969 0.9964 0.9962 0.9959 0.9950 0.9949 0.9942 0.9935 0.9927 0.9915
 0.9908 0.9892 0.9865 0.9850 0.9767 0.2176 0.2041 0.1852 0.1714 0.1582
 0.1439 0.1357 0.1265 0.1169 0.1090 0.0926 0.0896 0.0747 0.0712 0.0672
 0.0601 0.0567 0.0530 0.0493 0.0458 0.0442 0.0409 0.0400 0.0369 0.0326
 0.0318 0.0302 0.0285 0.0256 0.0247 0.0246 0.0240 0.0224 0.0223 0.0200
 0.0191 0.0175 0.0158 0.0157 0.0152 0.0140 0.0138 0.0127 0.0120 0.0112
 0.0107 0.0095 0.0088 0.0087 0.0084 0.0078 0.0074 0.0065 0.0064 0.0063
 0.0058 0.0056 0.0054 0.0053 0.0050 0.0048 0.0046 0.0044 0.0043 0.0040
 0.0039 0.0036 0.0032 0.0031 0.0030 0.0029 0.0027 0.0026 0.0024 0.0024
 0.0023 0.0021 0.0020 0.0020 0.0019 0.0019 0.0018 0.0017 0.0016 0.0015
 0.0015 0.0015 0.0014 0.0013 0.0012 0.0012 0.0012 0.0011 0.0011 0.0010
 0.0010 0.0009 0.0009 0.0009 0.0008 0.0008 0.0008 0.0008 0.0007 0.0007
 0.0007 0.0007 0.0006 0.0006 0.0006 0.0006 0.0005 0.0005 0.0005 0.0005
 0.0004 0.0004 0.0004 0.0004 0.0004 0.0004 0.0004 0.0003 0.0003 0.0003
 0.0003 0.0003 0.0003 0.0003 0.0003 0.0003 0.0002 0.0002 0.0002 0.0002
 0.0002 0.0002 0.0002 0.0002 0.0002 0.0002 0.0002 0.0001 0.0001 0.0001
 0.0001 0.0001 0.0001 0.0001 0.0001 0.0001 0.0001 0.0001 0.0001 0.0001
 0.0001 0.0001 0.0001 0.0001 0.0001 0.0001 0.0000
Early stop requested!
546 environment occs will be part of frozen-core in future post-HF calculations
 
 --------------------------------------------------------------
 
                    Orbital Energies (a.u.)
 --------------------------------------------------------------
 
 Alpha MOs
 -- Occupied --
 -0.5388  -0.5445  -0.4830  -0.5041  -0.5262  -0.4909  -0.5077  -0.4901
 -0.4821  -0.4721  -0.4618  -0.4599  -0.4505  -0.4673  -0.4722  -0.4950
 -0.4396  -0.4457  -0.4925  -0.5326  -0.4736  -0.4776  -0.5279  -0.4765
 -0.6321  -0.4909  -0.5955  -0.5575  -0.4912  -0.5735  -0.5531  -0.5732
 -0.4746  -0.5709  -0.5997  -0.6009  -0.6095  -0.5698  -0.5346  -0.5557
 -0.5699  -0.5745  -0.5351  -0.5124  -0.5200  -0.4729  -0.6205  -0.6153
 -0.5978  -0.5981  -0.6246  -0.5578  -0.6148  -0.5595  -0.6352  -0.6273
 -0.6416  -0.6262  -0.6838  -0.7746  -0.7232  -0.7598  -0.7822  -0.6082
 -0.7719  -0.6474  -0.8332  -0.8002  -0.9282  -0.7657  -0.7149  -0.9935
 -1.0155  -0.8666  -0.9739  -1.0016  -1.1134  -1.0562  -0.9358  -0.8241
 -0.9754  -1.2182  -1.0452  -1.1676  -1.0053  -1.0294  -1.3153  -1.3751
 -2.1602  -1.2737  -0.9850  -1.2008  -1.3415  -0.9987  -1.2614  -1.2577
 -1.7018  -2.1927  -1.1835  -1.9933  -1.1378  -1.1326  -1.8707  -1.4230
 -1.7809  -1.6388  -2.2475  -2.5739  -1.5148  -1.5230  -1.3300  -1.7631
 -2.1587  -1.4248  -1.7373  -3.3743  -2.2613  -1.8611  -1.8238  -2.2781
 -1.9276  -1.0808  -1.4260  -1.7020  -1.5114  -1.4249  -1.5565  -2.3388
 -1.5083  -1.6452  -1.4968  -1.1891  -1.3742  -2.2769  -1.6407  -1.3320
 -1.6439  -1.4485  -1.6549  -1.8034  -1.7253  -1.5245  -1.7052  -2.4905
 -2.0253  -2.2004  -1.6414  -2.0562  -1.9714  -1.8999  -1.8894  -2.0885
 -2.3521  -1.3903  -2.2790  -2.1048  -1.9650  -2.3321  -2.3212  -2.0875
 -2.1025  -2.2961  -5.6236  -5.9707  -5.9870  -5.9746  -5.9782  -5.8595
 -5.9804  -5.9872  -5.9686  -5.9624  -5.9466  -5.9838  -5.9039  -5.9822
 -5.8093  -5.9448  -5.9459  -5.9371  -5.9022  -5.9635  -2.5526  -1.8206
 -5.2606 -25.7338  -1.6807  -1.9530  -2.2054 -34.4964  -3.6514  -9.3512
 -3.2969  -1.7188 -16.8524  -2.9645  -4.2941 -36.1567  -1.1354  -1.4505
 -5.6851 -10.0265  -5.2910  -4.7087  -1.5660  -1.6337  -5.3379  -7.0637
 -5.3074 -72.1101  -1.4882  -1.1969  -5.0221  -1.4317 -80.3828  -1.7836
-16.3854  -3.9500  -7.2689  -2.0570  -2.9084  -6.1968  -2.7156  -5.8888
 -2.4163  -1.5350  -7.5763 -17.6716  -3.1298  -5.5664  -8.1006  -3.0148
 -8.5779  -1.2555  -7.2015  -1.0530  -1.2400  -8.4841  -0.9139  -5.5090
 -8.3210  -1.1624  -3.6892 -72.5910  -3.3396 -77.4591  -2.0135  -4.0434
 -2.6632 -10.5465  -3.2865 -13.3099 -16.7761  -6.5462 -10.1219  -1.1947
-10.2941 -15.6177 -11.4263  -8.0386  -1.5077  -1.6525 -10.6966 -11.2699
 -6.0190  -1.1995  -1.3197  -9.5999 -54.6510  -1.4294  -2.2593  -4.0543
 -6.4283  -3.7068 -27.6848  -2.4452  -9.3473  -3.3572  -4.6557  -6.9991
 -5.2471 -41.5015 -18.7154 -19.7779  -0.9173  -9.2425  -8.3720  -1.9174
 -7.6080  -0.9972 -59.2856 -11.5497  -9.7982 -16.2436 -46.4470 -67.0992
 -2.7872  -1.0748  -5.0562  -1.5796  -1.7494  -2.6215  -3.3172  -3.4683
 -2.9709  -6.2919  -6.5814  -9.9251  -3.6683  -4.0084  -1.0128  -4.5875
-16.5583  -3.0229 -15.0298 -10.3071 -21.9882  -5.2938  -7.9873 -13.7055
 -4.1296  -4.1933  -4.5607  -1.8782 -10.3577  -2.9144  -2.6444  -5.6702
 -3.0052 -11.1894 -12.8325  -9.2321  -6.3899  -2.8009 -11.7673  -2.6477
 -6.6573  -2.5154  -7.7123 -14.8245  -3.9017  -4.3059 -11.8942  -7.0154
 -6.8841  -8.4205  -0.7339  -2.4721  -5.0135  -6.6200  -2.9634 -18.3789
 -8.6977  -4.5148 -19.5843  -4.5993  -6.1508  -2.8889  -7.9803  -9.9485
 -1.8201  -8.6649  -7.1127 -10.0825 -10.7155 -12.1833  -4.2359 -10.7668
 -2.8257 -23.9525  -3.1124  -3.7835  -4.8501 -11.8331  -1.5214 -11.0238
-11.6428  -5.7718  -8.7492 -10.9901  -5.7524  -1.8133 -15.1395  -9.7412
-23.2826  -4.4020  -4.1586  -4.1018  -8.9603  -4.7706  -4.6595 -10.1258
 -7.8271  -9.2446  -4.9032  -7.0855 -12.1917 -10.5791 -11.1212  -5.5543
 -7.8190  -6.7694  -8.4076  -5.4401  -4.3378  -8.7022  -9.1115  -8.6163
 -6.2255  -7.2129 -11.8537 -23.8477 -10.8533 -11.3348  -9.5631 -11.5784
-11.2347  -8.8589  -6.6684  -1.6230  -6.2545  -6.5697  -3.6408  -4.3120
-10.0333 -12.3378 -10.2533  -8.1401  -5.7014 -11.0299  -5.5039 -16.2208
 -7.9402  -6.7144  -7.3282  -6.5143 -14.9808 -14.7911 -10.0398 -17.0421
-12.5267  -2.0774  -9.5677  -1.9330  -8.5124  -1.9157 -11.8805  -7.0548
-31.7127  -8.6657  -0.9501  -1.8168  -2.0434  -4.9741 -14.5122  -8.7945
 -9.9575 -11.4826 -20.8543  -8.2014  -9.5447  -5.8045  -4.0195 -52.3922
-32.8037  -8.3702 -15.5244 -24.6246 -15.2749  -9.5674  -9.5881  -1.0234
 -8.4085  -7.1599  -7.6965  -7.8081  -4.1246 -13.2461 -10.3946 -18.5993
 -7.1675 -22.4645 -35.1172  -1.8155  -2.4926 -75.3767  -8.8609  -8.7726
-68.4299 -14.4399 -71.3025  -7.7769  -2.9340 -71.5690  -2.2531  -1.5815
 -9.8315  -5.2747 -49.3438  -4.8586 -14.5821 -13.6944 -20.3380 -20.3010
 -5.1920  -8.9459  -3.8782 -10.3894  -2.7847 -21.1771 -13.7680  -3.9014
 -2.4998 -17.4424 -24.9969 -11.1493 -10.5417 -12.8654  -7.4386 -10.8597
 -9.2050 -44.3102 -15.0402 -13.0311 -13.4194  -2.8784  -6.1479  -4.8710
 -3.9494 -27.7695 -12.4217 -14.3959 -18.3432 -11.7582  -6.2213  -7.0605
 -1.9934 -11.0548 -34.3412 -11.0623 -14.7186  -8.1995  -6.3981 -12.9397
-10.5721 -12.3591 -11.2563 -11.2541 -11.7668 -18.0689 -10.1079 -10.1028
-10.1966 -10.1546 -10.9986  -0.6972  -0.7352  -0.9047  -0.7874  -0.8460
 -0.7616  -0.6435  -0.5999  -0.4097  -0.4859  -0.3680  -0.4625  -0.4361
 -0.4486  -0.4534  -0.4368  -0.4490  -0.3919  -0.3936  -0.4115  -0.4502
 -0.4456  -0.4345  -0.5323  -0.6025  -0.5424
 -- Virtual --
 -0.0413  -0.0355  -0.0336  -0.0330  -0.0298  -0.0279  -0.0273  -0.0263
 -0.0245  -0.0234  -0.0221  -0.0203  -0.0194  -0.0184  -0.0175  -0.0157
 -0.0154  -0.0145  -0.0117  -0.0104  -0.0083  -0.0070  -0.0065  -0.0056
 -0.0050  -0.0041  -0.0036  -0.0014  -0.0005   0.0004   0.0008   0.0014
  0.0018   0.0030   0.0034   0.0047   0.0056   0.0060   0.0074   0.0082
  0.0093   0.0099   0.0109   0.0113   0.0115   0.0122   0.0138   0.0139
  0.0149   0.0152   0.0167   0.0172   0.0178   0.0185   0.0190   0.0194
  0.0200   0.0212   0.0214   0.0221   0.0228   0.0234   0.0240   0.0247
  0.0256   0.0269   0.0276   0.0279   0.0288   0.0294   0.0296   0.0307
  0.0315   0.0319   0.0322   0.0328   0.0334   0.0342   0.0344   0.0347
  0.0361   0.0371   0.0374   0.0378   0.0386   0.0390   0.0395   0.0405
  0.0413   0.0424   0.0428   0.0435   0.0446   0.0459   0.0462   0.0472
  0.0474   0.0486   0.0493   0.0506   0.0507   0.0512   0.0519   0.0534
  0.0539   0.0543   0.0552   0.0559   0.0567   0.0570   0.0571   0.0584
  0.0592   0.0596   0.0602   0.0607   0.0619   0.0620   0.0626   0.0629
  0.0636   0.0636   0.0646   0.0650   0.0655   0.0656   0.0663   0.0677
  0.0681   0.0687   0.0693   0.0696   0.0705   0.0710   0.0718   0.0726
  0.0727   0.0739   0.0743   0.0744   0.0751   0.0763   0.0771   0.0780
  0.0781   0.0786   0.0794   0.0800   0.0804   0.0815   0.0816   0.0835
  0.0844   0.0850   0.0853   0.0856   0.0871   0.0872   0.0878   0.0884
  0.0901   0.0904   0.0910   0.0914   0.0926   0.0936   0.0942   0.0944
  0.0950   0.0957   0.0962   0.0972   0.0979   0.0989   0.0994   0.0998
  0.1006   0.1010   0.1013   0.1023   0.1028   0.1033   0.1038   0.1044
  0.1054   0.1059   0.1064   0.1070   0.1079   0.1083   0.1085   0.1091
  0.1092   0.1102   0.1107   0.1115   0.1117   0.1125   0.1131   0.1136
  0.1142   0.1157   0.1162   0.1169   0.1176   0.1180   0.1185   0.1189
  0.1194   0.1203   0.1208   0.1221   0.1224   0.1235   0.1241   0.1245
  0.1254   0.1256   0.1264   0.1274   0.1275   0.1280   0.1287   0.1295
  0.1302   0.1306   0.1314   0.1331   0.1336   0.1343   0.1345   0.1351
  0.1353   0.1358   0.1363   0.1376   0.1383   0.1394   0.1399   0.1403
  0.1411   0.1416   0.1422   0.1430   0.1438   0.1443   0.1455   0.1458
  0.1463   0.1466   0.1474   0.1486   0.1489   0.1490   0.1501   0.1503
  0.1504   0.1513   0.1520   0.1526   0.1529   0.1541   0.1542   0.1548
  0.1558   0.1564   0.1578   0.1579   0.1587   0.1595   0.1601   0.1610
  0.1618   0.1620   0.1630   0.1633   0.1641   0.1643   0.1649   0.1653
  0.1661   0.1664   0.1672   0.1675   0.1687   0.1690   0.1697   0.1704
  0.1712   0.1713   0.1716   0.1720   0.1730   0.1731   0.1735   0.1739
  0.1748   0.1756   0.1766   0.1772   0.1773   0.1774   0.1781   0.1791
  0.1795   0.1798   0.1807   0.1813   0.1819   0.1826   0.1838   0.1840
  0.1844   0.1846   0.1856   0.1861   0.1871   0.1879   0.1880   0.1890
  0.1898   0.1905   0.1914   0.1918   0.1922   0.1929   0.1931   0.1942
  0.1945   0.1952   0.1959   0.1962   0.1977   0.1978   0.1983   0.1989
  0.1998   0.2005   0.2010   0.2017   0.2022   0.2029   0.2035   0.2044
  0.2048   0.2055   0.2056   0.2061   0.2066   0.2074   0.2080   0.2086
  0.2097   0.2102   0.2109   0.2110   0.2116   0.2122   0.2132   0.2134
  0.2137   0.2143   0.2156   0.2164   0.2165   0.2180   0.2188   0.2192
  0.2194   0.2197   0.2208   0.2214   0.2222   0.2231   0.2238   0.2247
  0.2255   0.2261   0.2271   0.2279   0.2284   0.2289   0.2298   0.2309
  0.2312   0.2321   0.2324   0.2331   0.2340   0.2344   0.2351   0.2358
  0.2367   0.2378   0.2383   0.2389   0.2391   0.2396   0.2399   0.2418
  0.2421   0.2425   0.2432   0.2439   0.2447   0.2459   0.2465   0.2470
  0.2473   0.2488   0.2491   0.2500   0.2503   0.2506   0.2526   0.2533
  0.2539   0.2551   0.2554   0.2566   0.2574   0.2576   0.2582   0.2591
  0.2598   0.2605   0.2609   0.2622   0.2634   0.2638   0.2645   0.2657
  0.2658   0.2672   0.2678   0.2689   0.2702   0.2707   0.2711   0.2713
  0.2717   0.2725   0.2735   0.2746   0.2748   0.2764   0.2766   0.2780
  0.2785   0.2785   0.2801   0.2810   0.2817   0.2822   0.2832   0.2841
  0.2843   0.2855   0.2858   0.2863   0.2880   0.2884   0.2888   0.2902
  0.2910   0.2914   0.2927   0.2933   0.2938   0.2941   0.2952   0.2954
  0.2960   0.2973   0.2986   0.2986   0.2994   0.3004   0.3016   0.3017
  0.3031   0.3037   0.3051   0.3053   0.3061   0.3067   0.3072   0.3080
  0.3084   0.3095   0.3106   0.3110   0.3124   0.3129   0.3137   0.3148
  0.3157   0.3163   0.3175   0.3186   0.3194   0.3197   0.3202   0.3204
  0.3208   0.3227   0.3243   0.3254   0.3260   0.3268   0.3281   0.3294
  0.3305   0.3308   0.3316   0.3325   0.3330   0.3343   0.3350   0.3355
  0.3369   0.3379   0.3390   0.3394   0.3399   0.3414   0.3424   0.3429
  0.3434   0.3441   0.3448   0.3457   0.3468   0.3479   0.3490   0.3494
  0.3503   0.3510   0.3516   0.3521   0.3538   0.3546   0.3552   0.3554
  0.3568   0.3573   0.3578   0.3592   0.3598   0.3609   0.3617   0.3630
  0.3633   0.3649   0.3666   0.3669   0.3684   0.3693   0.3700   0.3708
  0.3719   0.3729   0.3734   0.3743   0.3755   0.3760   0.3771   0.3779
  0.3782   0.3791   0.3812   0.3821   0.3823   0.3839   0.3847   0.3855
  0.3864   0.3874   0.3879   0.3885   0.3901   0.3908   0.3921   0.3924
  0.3927   0.3937   0.3950   0.3966   0.3977   0.3982   0.3995   0.4000
  0.4010   0.4023   0.4029   0.4043   0.4046   0.4058   0.4060   0.4068
  0.4078   0.4082   0.4095   0.4104   0.4117   0.4128   0.4133   0.4139
  0.4151   0.4158   0.4169   0.4174   0.4187   0.4205   0.4217   0.4227
  0.4232   0.4248   0.4255   0.4267   0.4272   0.4295   0.4300   0.4306
  0.4318   0.4326   0.4332   0.4349   0.4368   0.4372   0.4382   0.4388
  0.4391   0.4402   0.4422   0.4434   0.4436   0.4447   0.4449   0.4464
  0.4478   0.4488   0.4516   0.4520   0.4530   0.4556   0.4559   0.4577
  0.4589   0.4599   0.4619   0.4643   0.4652   0.4660   0.4665   0.4681
  0.4693   0.4706   0.4709   0.4715   0.4740   0.4753   0.4765   0.4776
  0.4802   0.4814   0.4828   0.4832   0.4841   0.4863   0.4869   0.4895
  0.4903   0.4907   0.4920   0.4933   0.4955   0.4963   0.4967   0.4989
  0.5009   0.5019   0.5031   0.5063   0.5069   0.5075   0.5097   0.5123
  0.5131   0.5160   0.5164   0.5179   0.5194   0.5209   0.5224   0.5233
  0.5259   0.5270   0.5289   0.5316   0.5324   0.5338   0.5362   0.5377
  0.5409   0.5422   0.5428   0.5443   0.5450   0.5482   0.5492   0.5498
  0.5509   0.5512   0.5536   0.5559   0.5568   0.5579   0.5607   0.5613
  0.5625   0.5635   0.5651   0.5662   0.5697   0.5701   0.5726   0.5733
  0.5746   0.5756   0.5779   0.5797   0.5804   0.5812   0.5822   0.5857
  0.5864   0.5881   0.5883   0.5913   0.5921   0.5933   0.5936   0.5956
  0.5979   0.6000   0.6015   0.6020   0.6038   0.6055   0.6061   0.6072
  0.6084   0.6096   0.6108   0.6114   0.6132   0.6145   0.6152   0.6163
  0.6180   0.6191   0.6200   0.6239   0.6250   0.6252   0.6272   0.6280
  0.6294   0.6312   0.6319   0.6328   0.6354   0.6368   0.6374   0.6401
  0.6413   0.6423   0.6430   0.6444   0.6473   0.6478   0.6482   0.6504
  0.6519   0.6527   0.6532   0.6556   0.6559   0.6568   0.6573   0.6592
  0.6605   0.6614   0.6621   0.6635   0.6645   0.6658   0.6665   0.6677
  0.6688   0.6704   0.6714   0.6726   0.6729   0.6755   0.6766   0.6772
  0.6773   0.6788   0.6801   0.6812   0.6825   0.6839   0.6843   0.6859
  0.6865   0.6888   0.6896   0.6907   0.6925   0.6931   0.6935   0.6952
  0.6971   0.6977   0.6990   0.6992   0.7010   0.7017   0.7032   0.7043
  0.7053   0.7063   0.7086   0.7093   0.7102   0.7111   0.7128   0.7143
  0.7152   0.7164   0.7189   0.7199   0.7211   0.7212   0.7233   0.7245
  0.7253   0.7280   0.7285   0.7290   0.7304   0.7312   0.7337   0.7340
  0.7353   0.7363   0.7378   0.7407   0.7418   0.7429   0.7435   0.7464
  0.7486   0.7499   0.7506   0.7519   0.7541   0.7560   0.7567   0.7586
  0.7601   0.7608   0.7626   0.7629   0.7646   0.7654   0.7679   0.7689
  0.7700   0.7715   0.7720   0.7731   0.7751   0.7763   0.7771   0.7789
  0.7808   0.7815   0.7841   0.7862   0.7866   0.7880   0.7890   0.7911
  0.7928   0.7948   0.7960   0.7977   0.7989   0.7996   0.8020   0.8027
  0.8032   0.8045   0.8056   0.8083   0.8094   0.8120   0.8134   0.8144
  0.8146   0.8172   0.8187   0.8194   0.8204   0.8209   0.8233   0.8238
  0.8248   0.8272   0.8292   0.8298   0.8317   0.8335   0.8340   0.8357
  0.8363   0.8379   0.8391   0.8402   0.8417   0.8443   0.8450   0.8468
  0.8485   0.8494   0.8503   0.8511   0.8525   0.8556   0.8574   0.8591
  0.8608   0.8613   0.8638   0.8653   0.8658   0.8678   0.8689   0.8699
  0.8707   0.8723   0.8733   0.8736   0.8760   0.8781   0.8786   0.8794
  0.8803   0.8816   0.8837   0.8852   0.8882   0.8891   0.8898   0.8909
  0.8924   0.8938   0.8958   0.8970   0.8986   0.8987   0.9010   0.9018
  0.9025   0.9037   0.9049   0.9066   0.9077   0.9089   0.9097   0.9108
  0.9115   0.9126   0.9138   0.9142   0.9153   0.9163   0.9174   0.9181
  0.9194   0.9220   0.9223   0.9237   0.9245   0.9254   0.9264   0.9274
  0.9288   0.9290   0.9303   0.9307   0.9329   0.9344   0.9365   0.9368
  0.9377   0.9396   0.9400   0.9409   0.9424   0.9441   0.9447   0.9452
  0.9475   0.9500   0.9504   0.9517   0.9528   0.9535   0.9558   0.9572
  0.9582   0.9589   0.9607   0.9616   0.9630   0.9649   0.9660   0.9668
  0.9670   0.9679   0.9684   0.9690   0.9701   0.9715   0.9728   0.9739
  0.9750   0.9753   0.9770   0.9788   0.9804   0.9819   0.9831   0.9837
  0.9850   0.9853   0.9869   0.9877   0.9884   0.9897   0.9915   0.9927
  0.9931   0.9947   0.9964   0.9969   0.9990   0.9991   1.0002   1.0024
  1.0026   1.0041   1.0050   1.0053   1.0078   1.0088   1.0099   1.0108
  1.0119   1.0125   1.0146   1.0162   1.0173   1.0178   1.0195   1.0201
  1.0220   1.0224   1.0240   1.0252   1.0260   1.0274   1.0285   1.0304
  1.0314   1.0332   1.0349   1.0353   1.0377   1.0384   1.0387   1.0401
  1.0413   1.0418   1.0442   1.0446   1.0457   1.0484   1.0488   1.0499
  1.0519   1.0532   1.0547   1.0572   1.0574   1.0600   1.0612   1.0618
  1.0635   1.0660   1.0665   1.0683   1.0688   1.0716   1.0719   1.0725
  1.0746   1.0753   1.0769   1.0777   1.0785   1.0793   1.0812   1.0830
  1.0846   1.0855   1.0866   1.0873   1.0890   1.0897   1.0913   1.0938
  1.0941   1.0943   1.0965   1.0979   1.1000   1.1021   1.1032   1.1039
  1.1053   1.1056   1.1079   1.1092   1.1094   1.1115   1.1128   1.1144
  1.1153   1.1165   1.1176   1.1180   1.1196   1.1221   1.1237   1.1251
  1.1258   1.1266   1.1277   1.1289   1.1300   1.1318   1.1341   1.1344
  1.1354   1.1363   1.1374   1.1383   1.1395   1.1402   1.1430   1.1437
  1.1449   1.1468   1.1491   1.1497   1.1501   1.1533   1.1540   1.1550
  1.1562   1.1574   1.1585   1.1609   1.1621   1.1643   1.1644   1.1654
  1.1670   1.1684   1.1686   1.1704   1.1729   1.1743   1.1747   1.1774
  1.1784   1.1802   1.1820   1.1838   1.1853   1.1867   1.1872   1.1901
  1.1916   1.1946   1.1955   1.1969   1.1986   1.2001   1.2017   1.2022
  1.2059   1.2083   1.2092   1.2114   1.2122   1.2146   1.2183   1.2195
  1.2234   1.2250   1.2263   1.2288   1.2297   1.2317   1.2336   1.2366
  1.2379   1.2387   1.2405   1.2453   1.2463   1.2499   1.2521   1.2549
  1.2580   1.2593   1.2617   1.2648   1.2658   1.2676   1.2690   1.2703
  1.2728   1.2759   1.2764   1.2827   1.2843   1.2848   1.2856   1.2905
  1.2920   1.2946   1.2971   1.2987   1.3003   1.3032   1.3064   1.3105
  1.3132   1.3148   1.3164   1.3192   1.3198   1.3219   1.3263   1.3267
  1.3301   1.3306   1.3333   1.3344   1.3360   1.3378   1.3384   1.3403
  1.3423   1.3443   1.3463   1.3469   1.3499   1.3514   1.3545   1.3553
  1.3563   1.3578   1.3590   1.3591   1.3620   1.3639   1.3663   1.3671
  1.3683   1.3717   1.3739   1.3752   1.3784   1.3788   1.3813   1.3822
  1.3837   1.3853   1.3862   1.3871   1.3895   1.3909   1.3922   1.3932
  1.3944   1.3955   1.3964   1.3996   1.4004   1.4011   1.4021   1.4034
  1.4043   1.4066   1.4074   1.4085   1.4097   1.4118   1.4137   1.4150
  1.4159   1.4186   1.4206   1.4223   1.4234   1.4247   1.4266   1.4283
  1.4299   1.4326   1.4348   1.4369   1.4376   1.4404   1.4408   1.4412
  1.4427   1.4453   1.4465   1.4481   1.4506   1.4523   1.4542   1.4553
  1.4558   1.4588   1.4599   1.4615   1.4624   1.4633   1.4643   1.4654
  1.4669   1.4694   1.4751   1.4756   1.4774   1.4784   1.4813   1.4823
  1.4838   1.4852   1.4863   1.4896   1.4914   1.4929   1.4939   1.4971
  1.4993   1.5001   1.5016   1.5070   1.5087   1.5121   1.5146   1.5165
  1.5177   1.5216   1.5235   1.5252   1.5274   1.5321   1.5327   1.5335
  1.5394   1.5426   1.5432   1.5452   1.5471   1.5483   1.5523   1.5550
  1.5577   1.5601   1.5652   1.5681   1.5723   1.5747   1.5771   1.5804
  1.5817   1.5888   1.5899   1.5931   1.5949   1.6010   1.6016   1.6056
  1.6101   1.6192   1.6225   1.6279   1.6290   1.6334   1.6376   1.6387
  1.6406   1.6432   1.6441   1.6463   1.6471   1.6504   1.6518   1.6530
  1.6548   1.6588   1.6599   1.6609   1.6639   1.6674   1.6682   1.6721
  1.6746   1.6758   1.6765   1.6771   1.6788   1.6808   1.6822   1.6835
  1.6842   1.6857   1.6864   1.6876   1.6909   1.6933   1.6943   1.6966
  1.6993   1.7001   1.7011   1.7016   1.7035   1.7040   1.7050   1.7070
  1.7097   1.7124   1.7134   1.7138   1.7178   1.7186   1.7193   1.7198
  1.7211   1.7234   1.7240   1.7241   1.7260   1.7276   1.7284   1.7290
  1.7298   1.7304   1.7317   1.7327   1.7351   1.7363   1.7368   1.7377
  1.7417   1.7420   1.7446   1.7454   1.7471   1.7479   1.7499   1.7510
  1.7537   1.7544   1.7562   1.7585   1.7591   1.7602   1.7613   1.7623
  1.7634   1.7645   1.7663   1.7680   1.7688   1.7702   1.7730   1.7750
  1.7763   1.7769   1.7800   1.7804   1.7821   1.7831   1.7846   1.7867
  1.7892   1.7914   1.7932   1.7947   1.7977   1.8011   1.8028   1.8044
  1.8051   1.8061   1.8072   1.8098   1.8139   1.8143   1.8156   1.8192
  1.8199   1.8230   1.8235   1.8277   1.8305   1.8350   1.8367   1.8396
  1.8420   1.8465   1.8485   1.8527   1.8558   1.8574   1.8610   1.8628
  1.8637   1.8657   1.8680   1.8713   1.8726   1.8758   1.8769   1.8779
  1.8785   1.8792   1.8799   1.8813   1.8822   1.8828   1.8836   1.8843
  1.8869   1.8889   1.8906   1.8913   1.8939   1.8961   1.8983   1.8993
  1.9002   1.9022   1.9050   1.9064   1.9075   1.9091   1.9105   1.9122
  1.9147   1.9175   1.9187   1.9216   1.9219   1.9227   1.9242   1.9259
  1.9269   1.9282   1.9315   1.9321   1.9345   1.9349   1.9356   1.9380
  1.9385   1.9398   1.9421   1.9435   1.9471   1.9489   1.9503   1.9549
  1.9559   1.9596   1.9616   1.9663   1.9698   1.9712   1.9740   1.9773
  1.9783   1.9832   1.9912   1.9944   1.9975   2.0048   2.0134   2.0259
  2.0302   2.0321   2.0352   2.0364   2.0412   2.0437   2.0464   2.0496
  2.0562   2.0570   2.0573   2.0599   2.0611   2.0628   2.0643   2.0646
  2.0675   2.0683   2.0689   2.0697   2.0721   2.0736   2.0767   2.0792
  2.0837   2.0844   2.0849   2.0883   2.0893   2.0917   2.0927   2.0946
  2.0949   2.0957   2.0970   2.0975   2.0984   2.0990   2.0996   2.1023
  2.1034   2.1055   2.1092   2.1108   2.1136   2.1157   2.1182   2.1210
  2.1231   2.1256   2.1289   2.1291   2.1320   2.1345   2.1411   2.1419
  2.1435   2.1464   2.1491   2.1519   2.1550   2.1569   2.1587   2.1605
  2.1664   2.1697   2.1717   2.1740   2.1778   2.1792   2.1853   2.1881
  2.1913   2.1917   2.1923   2.1958   2.1987   2.2002   2.2012   2.2043
  2.2051   2.2074   2.2100   2.2114   2.2121   2.2137   2.2144   2.2152
  2.2165   2.2174   2.2177   2.2193   2.2201   2.2204   2.2229   2.2246
  2.2248   2.2265   2.2293   2.2339   2.2343   2.2373   2.2376   2.2407
  2.2422   2.2429   2.2446   2.2457   2.2465   2.2484   2.2500   2.2511
  2.2518   2.2520   2.2529   2.2530   2.2536   2.2551   2.2563   2.2569
  2.2591   2.2598   2.2617   2.2622   2.2631   2.2641   2.2657   2.2664
  2.2669   2.2679   2.2694   2.2704   2.2724   2.2740   2.2751   2.2754
  2.2768   2.2776   2.2788   2.2803   2.2805   2.2819   2.2827   2.2832
  2.2835   2.2841   2.2854   2.2870   2.2872   2.2877   2.2890   2.2898
  2.2909   2.2913   2.2933   2.2949   2.2967   2.2978   2.2991   2.3012
  2.3019   2.3028   2.3035   2.3050   2.3066   2.3073   2.3076   2.3085
  2.3098   2.3109   2.3113   2.3122   2.3126   2.3134   2.3159   2.3171
  2.3176   2.3186   2.3206   2.3215   2.3218   2.3251   2.3268   2.3273
  2.3292   2.3297   2.3303   2.3321   2.3332   2.3348   2.3361   2.3392
  2.3398   2.3412   2.3421   2.3442   2.3458   2.3473   2.3496   2.3502
  2.3524   2.3539   2.3566   2.3582   2.3609   2.3631   2.3661   2.3672
  2.3693   2.3708   2.3728   2.3744   2.3792   2.3796   2.3864   2.3898
  2.3912   2.3959   2.4012   2.4046   2.4098   2.4155   2.4180   2.4241
  2.4377   2.4443   2.4683   2.4834   2.4928   2.5570   2.5769   2.5873
  2.6748   2.7454   2.7620   2.7869   2.8152   2.8179   2.8210   2.8227
  2.8252   2.8332   2.8371   2.8377   2.8416   2.8439   2.8467   2.8491
  2.8514   2.8523   2.8560   2.8586   2.8610   2.8616   2.8693   2.8746
  2.8759   2.8797   2.8881   2.8891   2.8935   2.8954   2.8997   2.9026
  2.9080   2.9108   2.9698   3.1155   3.2636   3.9401   3.9465   3.9542
  3.9585   3.9601   3.9628   3.9641   3.9680   3.9702   3.9759   3.9766
  3.9828   3.9853   3.9878   3.9915   4.0000   4.0045   4.0070   4.0109
  4.0120   4.0165   4.0235   4.0244   4.0328   4.0419   4.0466   4.1594
  4.1883   4.1933   4.1984   4.2116   4.2149   4.2279   4.2313   4.2356
  4.2415   4.2440   4.2565   4.2602   4.2636   4.2645   4.2651   4.2675
  4.2715   4.2748   4.2759   4.2795   4.2845   4.2863   4.2917   4.2969
  4.2976   4.3008   4.3051   4.3061   4.3072   4.3097   4.3136   4.3151
  4.3174   4.3198   4.3204   4.3230   4.3256   4.3278   4.3333   4.3346
  4.3370   4.3408   4.3422   4.3452   4.3501   4.3514   4.3535   4.3551
  4.3613   4.3632   4.3675   4.3730   4.3750   4.3763   4.3813   4.3860
  4.3883   4.3930   4.3970   4.4014   4.4046   4.4138   4.4162   4.4194
  4.4287   4.4344   4.4420   4.4670   4.4725   4.4825   4.4856   4.5028
  4.5078   4.5203   4.5354   4.5429   4.5497   4.5733   4.5908   4.5964
  4.6186   4.6805   4.7290   4.7716   4.8151   4.9135
 --------------------------------------------------------------
 
          Ground-State Mulliken Net Atomic Charges

     Atom                 Charge (a.u.)
  ----------------------------------------
      1 C                    -0.756971
      2 C                    -0.664735
      3 C                    -0.889979
      4 C                    -0.373735
      5 C                     0.785016
      6 C                    -1.052235
      7 H                     0.208878
      8 H                     0.268435
      9 H                     0.208273
     10 H                     0.239780
     11 H                     0.219240
     12 H                     0.231154
     13 H                     0.204859
     14 H                     0.207338
     15 H                     0.257778
     16 H                     0.231726
     17 H                     0.211148
     18 N                     0.045777
     19 H                     0.502122
     20 C                     0.166275
     21 H                     0.171783
     22 O                    -0.122529
     23 C                    -0.810038
     24 H                     0.239933
     25 H                     0.267020
     26 H                     0.244766
     27 S                     0.944067
     28 C                    -0.863903
     29 H                     0.264088
     30 H                     0.265813
     31 H                     0.212148
     32 O                    -0.737965
     33 C                    -1.171918
     34 H                     0.295395
     35 H                     0.267953
     36 H                     0.274755
     37 S                     1.338063
     38 C                    -0.929786
     39 H                     0.227016
     40 H                     0.252172
     41 H                     0.297586
     42 O                    -0.784371
     43 C                    -1.023427
     44 H                     0.314235
     45 H                     0.243374
     46 H                     0.250063
     47 S                     1.028508
     48 C                    -0.883735
     49 H                     0.252747
     50 H                     0.262737
     51 H                     0.220339
     52 O                    -0.700820
     53 C                    -0.860067
     54 H                     0.270759
     55 H                     0.265942
     56 H                     0.216383
     57 S                     1.032984
     58 C                    -0.923404
     59 H                     0.280244
     60 H                     0.294499
     61 H                     0.249891
     62 O                    -0.751947
     63 C                    -0.791173
     64 H                     0.229075
     65 H                     0.268679
     66 H                     0.243315
     67 S                     0.713593
     68 C                    -0.888127
     69 H                     0.239702
     70 H                     0.277213
     71 H                     0.278212
     72 O                    -0.685232
     73 C                    -0.667325
     74 H                     0.206625
     75 H                     0.323215
     76 H                     0.241635
     77 S                     0.628257
     78 C                    -0.845215
     79 H                     0.265753
     80 H                     0.243439
     81 H                     0.275747
     82 O                    -0.675201
     83 C                    -1.184602
     84 H                     0.261740
     85 H                     0.233939
     86 H                     0.270923
     87 S                     1.128314
     88 C                    -0.903488
     89 H                     0.222994
     90 H                     0.253903
     91 H                     0.244732
     92 O                    -0.654411
     93 C                    -0.822797
     94 H                     0.235642
     95 H                     0.247277
     96 H                     0.284745
     97 S                     0.850952
     98 C                    -0.855777
     99 H                     0.244465
    100 H                     0.237937
    101 H                     0.252082
    102 O                    -0.642313
    103 C                    -0.799481
    104 H                     0.266105
    105 H                     0.231892
    106 H                     0.258442
    107 S                     0.928931
    108 C                    -0.847469
    109 H                     0.251698
    110 H                     0.259738
    111 H                     0.238280
    112 O                    -0.725595
    113 C                    -0.767707
    114 H                     0.264986
    115 H                     0.250290
    116 H                     0.222678
    117 S                     0.889617
    118 C                    -0.826306
    119 H                     0.238444
    120 H                     0.279004
    121 H                     0.256904
    122 O                    -0.799004
    123 C                    -1.248351
    124 H                     0.261802
    125 H                     0.275896
    126 H                     0.281318
    127 S                     1.359917
    128 C                    -1.135737
    129 H                     0.278583
    130 H                     0.219055
    131 H                     0.282682
    132 O                    -0.651331
    133 C                    -0.677317
    134 H                     0.236628
    135 H                     0.268984
    136 H                     0.253977
    137 S                     0.230594
    138 C                    -0.684493
    139 H                     0.266280
    140 H                     0.240371
    141 H                     0.289307
    142 O                    -0.563398
    143 C                    -0.768992
    144 H                     0.284561
    145 H                     0.236395
    146 H                     0.244247
    147 S                     0.823740
    148 C                    -0.854708
    149 H                     0.239674
    150 H                     0.248964
    151 H                     0.285664
    152 O                    -0.692358
    153 C                    -1.018311
    154 H                     0.261929
    155 H                     0.255435
    156 H                     0.269170
    157 S                     1.087998
    158 C                    -1.097407
    159 H                     0.274205
    160 H                     0.305116
    161 H                     0.264639
    162 O                    -0.605108
    163 C                    -1.033611
    164 H                     0.230385
    165 H                     0.280853
    166 H                     0.276990
    167 S                     1.045954
    168 C                    -0.986833
    169 H                     0.231146
    170 H                     0.291798
    171 H                     0.227923
    172 O                    -0.563809
    173 C                    -0.955246
    174 H                     0.284664
    175 H                     0.293765
    176 H                     0.259472
    177 S                     1.292576
    178 C                    -1.174004
    179 H                     0.288392
    180 H                     0.244800
    181 H                     0.272517
    182 O                    -0.759403
    183 C                    -0.990022
    184 H                     0.241780
    185 H                     0.265857
    186 H                     0.305041
    187 S                     0.644802
    188 C                    -0.821449
    189 H                     0.227025
    190 H                     0.253417
    191 H                     0.334249
    192 O                    -0.654764
    193 C                    -0.907229
    194 H                     0.230009
    195 H                     0.289588
    196 H                     0.262239
    197 S                     0.907143
    198 C                    -0.803777
    199 H                     0.249647
    200 H                     0.251610
    201 H                     0.246734
    202 O                    -0.741336
    203 C                    -1.079689
    204 H                     0.255478
    205 H                     0.295456
    206 H                     0.220894
    207 S                     1.159513
    208 C                    -0.898394
    209 H                     0.257305
    210 H                     0.235756
    211 H                     0.255693
    212 O                    -0.732231
    213 C                    -0.608947
    214 H                     0.297179
    215 H                     0.224417
    216 H                     0.271973
    217 S                     0.460410
    218 C                    -0.730372
    219 H                     0.236597
    220 H                     0.262405
    221 H                     0.238440
    222 O                    -0.589769
    223 C                    -0.907910
    224 H                     0.250043
    225 H                     0.270032
    226 H                     0.242709
    227 S                     1.108771
    228 C                    -0.877350
    229 H                     0.268531
    230 H                     0.219477
    231 H                     0.247836
    232 O                    -0.735120
    233 C                    -0.967071
    234 H                     0.280903
    235 H                     0.276141
    236 H                     0.251514
    237 S                     0.878450
    238 C                    -0.885798
    239 H                     0.247922
    240 H                     0.241469
    241 H                     0.286735
    242 O                    -0.712266
    243 C                    -1.007122
    244 H                     0.249664
    245 H                     0.258343
    246 H                     0.310333
    247 S                     0.991723
    248 C                    -0.814302
    249 H                     0.236530
    250 H                     0.269783
    251 H                     0.241941
    252 O                    -0.692323
    253 C                    -0.980358
    254 H                     0.272483
    255 H                     0.278846
    256 H                     0.289976
    257 S                     1.048482
    258 C                    -1.041651
    259 H                     0.328007
    260 H                     0.247274
    261 H                     0.263945
    262 O                    -0.738096
    263 C                    -1.022503
    264 H                     0.275698
    265 H                     0.228973
    266 H                     0.268088
    267 S                     1.201838
    268 C                    -1.060555
    269 H                     0.249495
    270 H                     0.252457
    271 H                     0.246864
    272 O                    -0.676708
    273 C                    -0.861235
    274 H                     0.232323
    275 H                     0.233383
    276 H                     0.290011
    277 S                     0.974333
    278 C                    -0.882915
    279 H                     0.230074
    280 H                     0.300210
    281 H                     0.239416
    282 O                    -0.709763
  ----------------------------------------
  Sum of atomic charges =     0.000000

 -----------------------------------------------------------------
                    Cartesian Multipole Moments
 -----------------------------------------------------------------
    Charge (ESU x 10^10)
                -0.0000
    Dipole Moment (Debye)
         X     -10.5225      Y      11.9204      Z      22.4365
       Tot      27.4994
    Quadrupole Moments (Debye-Ang)
        XX   -1334.6490     XY     -80.9387     YY    -414.1863
        XZ     339.6546     YZ     667.4629     ZZ     115.3120
    Octopole Moments (Debye-Ang^2)
       XXX  -85844.1900    XXY  -29988.0735    XYY  -23694.1697
       YYY  -43119.0296    XXZ  -17900.8888    XYZ    7538.2913
       YYZ   -7055.7353    XZZ   -3619.1947    YZZ    3356.4912
       ZZZ  -39410.0599
    Hexadecapole Moments (Debye-Ang^3)
      XXXX ************   XXXY ************   XXYY ************
      XYYY ************   YYYY ************   XXXZ ************
      XXYZ -521235.6326   XYYZ -516437.7834   YYYZ ************
      XXZZ -822678.3998   XYZZ -182409.0467   YYZZ -643560.5361
      XZZZ ************   YZZZ -956279.9434   ZZZZ ************
 -----------------------------------------------------------------
Archival summary:
[...]
    2  -0.0275807  -0.0126650  -0.0241760   0.0073714  -0.0017072   0.0163422
    3   0.0018097   0.0193859  -0.0442680   0.0050935   0.0111448  -0.0261750
          121         122         123         124         125         126
    1  -0.0195408  -0.1079367   0.0001922   0.0243265  -0.0232775  -0.0045687
    2   0.0143290   0.0171424  -0.0035617   0.0040359   0.0189667  -0.0334471
    3   0.0235736   0.0127348  -0.0040204   0.0181617  -0.0033779   0.0047370
          127         128         129         130         131         132
    1   0.0541258  -0.0008018  -0.0271627   0.0143553   0.0206934  -0.0831904
    2  -0.0195754   0.0040378  -0.0028739   0.0249062   0.0224724  -0.0444584
    3  -0.0057214  -0.0058690  -0.0206059   0.0198187  -0.0213432  -0.0594573
          133         134         135         136         137         138
    1   0.0009343  -0.0191445  -0.0175886   0.0080974   0.0448919  -0.0032780
    2  -0.0006375   0.0077932  -0.0253746   0.0214558  -0.0021575   0.0074480
    3   0.0059876  -0.0158157   0.0125701   0.0304433   0.0251548  -0.0106972
          139         140         141         142         143         144
    1  -0.0230046   0.0153641   0.0164869  -0.0435312  -0.0046748   0.0006634
    2  -0.0126145   0.0312830   0.0030058  -0.0764389   0.0017685  -0.0217274
    3  -0.0244011   0.0167495  -0.0258475  -0.0657727  -0.0038646  -0.0248146
          145         146         147         148         149         150
    1  -0.0267402   0.0015313   0.0453258  -0.0030317  -0.0286481   0.0004791
    2   0.0123058   0.0348353  -0.0278046  -0.0066084   0.0141663  -0.0315760
    3   0.0142525  -0.0117243  -0.0312610   0.0048378   0.0113232  -0.0124140
          151         152         153         154         155         156
    1   0.0204413   0.0264905   0.0002709  -0.0220127  -0.0093348   0.0310849
    2  -0.0167231   0.0753143  -0.0035227  -0.0046734  -0.0262438   0.0031476
    3   0.0175847   0.0773552   0.0065702   0.0230083  -0.0123716   0.0108968
          157         158         159         160         161         162
    1   0.0362726   0.0044935  -0.0155015   0.0348391  -0.0080990  -0.1083188
    2   0.0077332   0.0061818  -0.0062242   0.0098447   0.0310429   0.0015663
    3  -0.0442017   0.0053663   0.0259017   0.0076198  -0.0122040  -0.0088331
          163         164         165         166         167         168
    1  -0.0029318   0.0231898  -0.0167597   0.0042554  -0.0389968   0.0050189
    2   0.0082470  -0.0002821   0.0159916   0.0182289  -0.0047908  -0.0004830
    3  -0.0033325  -0.0149794  -0.0177613   0.0284993   0.0327010   0.0051278
          169         170         171         172         173         174
    1   0.0242765   0.0122051   0.0107736   0.0119939  -0.0074430  -0.0010499
    2   0.0071878   0.0100525  -0.0302745  -0.0477942  -0.0085782  -0.0304270
    3  -0.0125930   0.0358462   0.0046180  -0.0990422  -0.0016843   0.0101682
          175         176         177         178         179         180
    1  -0.0325919   0.0056638   0.0464223  -0.0035936  -0.0248127  -0.0205929
    2   0.0070718  -0.0130686  -0.0234069   0.0016216   0.0096756  -0.0231811
    3  -0.0032533  -0.0277557   0.0205645   0.0052225  -0.0138001   0.0248683
          181         182         183         184         185         186
    1   0.0124089  -0.0078072   0.0028659  -0.0128110   0.0273486  -0.0136616
    2   0.0287938   0.0655758  -0.0006224   0.0230771  -0.0024606  -0.0280941
    3   0.0099119  -0.0863391  -0.0061332  -0.0253900   0.0042938  -0.0006301
          187         188         189         190         191         192
    1  -0.0440401   0.0077856  -0.0035925  -0.0028663   0.0267951   0.0663713
    2   0.0052812   0.0046075   0.0405445   0.0047082  -0.0146235  -0.0851187
    3   0.0089349  -0.0007207  -0.0009193   0.0302792  -0.0123135   0.0323148
          193         194         195         196         197         198
    1   0.0015231  -0.0083280   0.0213940  -0.0248906   0.0322825   0.0022806
    2   0.0135270  -0.0110205   0.0318041   0.0026625  -0.0247402   0.0060334
    3  -0.0020319   0.0280953   0.0151853  -0.0230283   0.0291727  -0.0042371
          199         200         201         202         203         204
    1  -0.0155178   0.0342895   0.0096000  -0.0986958   0.0002528   0.0336963
    2   0.0216910   0.0206546  -0.0152662  -0.0388064   0.0047306  -0.0074220
    3  -0.0173936  -0.0056515  -0.0243603  -0.0311273   0.0069027   0.0001708
          205         206         207         208         209         210
    1  -0.0085810  -0.0210798  -0.0538051   0.0040451   0.0337184  -0.0063927
    2   0.0268390   0.0128837   0.0091073  -0.0044799  -0.0006196  -0.0060933
    3  -0.0082707   0.0276587  -0.0227067   0.0041178   0.0060057   0.0314630
          211         212         213         214         215         216
    1  -0.0237637   0.0914074   0.0054409  -0.0302874   0.0169070   0.0299850
    2  -0.0203289  -0.0006664   0.0007709   0.0082994  -0.0074829   0.0065605
    3  -0.0124163  -0.0614396   0.0077510   0.0174816   0.0270479   0.0039768
          217         218         219         220         221         222
    1  -0.0484533   0.0009113  -0.0279666   0.0048909   0.0165006   0.0930919
    2   0.0217054  -0.0058499  -0.0006403  -0.0177755  -0.0062494  -0.0401698
    3  -0.0295988   0.0048805   0.0199926  -0.0252134   0.0234823  -0.0500733
          223         224         225         226         227         228
    1   0.0007041  -0.0234873   0.0222798  -0.0203926   0.0160393  -0.0040241
    2  -0.0046836  -0.0223478  -0.0100683   0.0217370   0.0503170  -0.0017409
    3   0.0071276   0.0012254   0.0231759   0.0169646  -0.0024642  -0.0019840
          229         230         231         232         233         234
    1  -0.0077710  -0.0391637  -0.0060334   0.0551587  -0.0009020   0.0184319
    2  -0.0299810   0.0202150   0.0078539  -0.0884471  -0.0011676  -0.0186356
    3  -0.0013589  -0.0021209  -0.0306282  -0.0347916   0.0019527  -0.0133171
          235         236         237         238         239         240
    1   0.0164372  -0.0114602   0.0064022  -0.0059655   0.0068030  -0.0297898
    2   0.0307491  -0.0168573   0.0228777   0.0016746   0.0328643  -0.0083370
    3   0.0077952   0.0222261  -0.0439289   0.0082092   0.0018274  -0.0138704
          241         242         243         244         245         246
    1   0.0020884  -0.0319123   0.0050297   0.0056698   0.0215979  -0.0251658
    2  -0.0187279  -0.1069114  -0.0110147  -0.0083788   0.0103205  -0.0198699
    3   0.0276312   0.0118424   0.0026461  -0.0355386   0.0283203   0.0143260
          247         248         249         250         251         252
    1  -0.0458617   0.0006394  -0.0194870   0.0249857  -0.0134288   0.0792476
    2   0.0073051  -0.0005145   0.0204023  -0.0064836  -0.0255473   0.0764470
    3   0.0374884  -0.0065080  -0.0104096  -0.0234524  -0.0120679  -0.0083844
          253         254         255         256         257         258
    1  -0.0042435   0.0255207  -0.0107083  -0.0127123   0.0122890  -0.0093415
    2  -0.0031274  -0.0154514  -0.0284054   0.0271369  -0.0587333   0.0075108
    3  -0.0159866  -0.0075526  -0.0240875  -0.0109571   0.0204932  -0.0029932
          259         260         261         262         263         264
    1  -0.0190195  -0.0097152  -0.0023091   0.0656319   0.0021212   0.0129445
    2   0.0067690  -0.0256716   0.0318555   0.0820434  -0.0010391   0.0157038
    3  -0.0300334   0.0190553   0.0113797   0.0243788   0.0057236   0.0305791
          265         266         267         268         269         270
    1  -0.0206907   0.0246328   0.0287069  -0.0061185  -0.0034737  -0.0186446
    2  -0.0175338  -0.0170602   0.0493956  -0.0002894   0.0232979   0.0064372
    3   0.0173483   0.0003409  -0.0064740   0.0010911   0.0215137  -0.0250453
          271         272         273         274         275         276
    1  -0.0146176   0.0053194   0.0056980   0.0301227   0.0123573   0.0014188
    2  -0.0286497  -0.0832722  -0.0032701   0.0173981   0.0001066  -0.0342808
    3   0.0035221  -0.0721439  -0.0037691  -0.0127781   0.0246550  -0.0094062
          277         278         279         280         281         282
    1  -0.0402879   0.0014291   0.0170836   0.0009606  -0.0231911  -0.0001148
    2  -0.0371575  -0.0056529   0.0224817  -0.0333530   0.0145938   0.1088793
    3   0.0247932  -0.0080682  -0.0185486  -0.0134139  -0.0113105   0.0085008
  --- DONE ESP SUMMARY ---
Archival summary:
1\1\node027\SP\ProcedureUnspecified\6-31+G*\262652h22\ymao90\FriDec321:50:442021FriDec321:50:442021\0\\#,ProcedureUnspecified,6-31+G*,\\0,1\S\O,1,1.49654\C,1,1.80698,2,109.415\H,3,1.09266,1,108.164,2,-73.4181,0\H,3,1.09267,1,112.075,2,159.34,0\H,3,1.09317,1,101.842,2,48.5888,0\C,1,1.80701,2,97.1709,3,-100.191,0\H,7,1.09295,1,111.364,2,-46.4627,0\H,7,1.09304,1,108.093,2,-164.71,0\H,7,1.09362,1,109.173,2,70.0378,0\H,4,1.9163,3,159.921,1,45.6992,0\C,11,1.09231,4,176.68,3,-89.2271,0\H,12,1.0925,11,110.547,4,95.9091,0\H,12,1.09352,11,113.549,4,-35.941,0\S,12,1.80761,11,102.77,4,-154.787,0\O,15,1.49707,12,103.178,11,-38.6406,0\C,15,1.8072,12,85.9099,11,67.8059,0\H,17,1.09251,15,108.909,12,-55.1679,0\H,17,1.0932,15,105.075,12,66.6416,0\H,17,1.09325,15,110.605,12,179.54,0\Gh,16,1.99029,15,153.353,12,15.4989,0\Gh,21,1.01264,16,159.095,15,-43.8013,0\Gh,22,1.37941,21,112.597,16,152.326,0\Gh,23,1.1052,22,108.558,21,-4.54421,0\Gh,23,1.21758,22,122.952,21,176.867,0\Gh,22,1.46193,21,120.345,16,-28.2992,0\Gh,26,1.09678,22,114.152,21,138.056,0\Gh,26,1.53703,22,109.593,21,-102.532,0\Gh,28,1.09655,26,112.729,22,-47.3314,0\Gh,28,1.09675,26,106.035,22,59.1894,0\Gh,28,1.53758,26,113.228,22,-178.461,0\Gh,31,1.09709,28,112.402,26,64.4296,0\Gh,31,1.09756,28,108.174,26,-179.046,0\Gh,31,1.53695,28,112.027,26,-54.2766,0\Gh,34,1.0966,31,107.317,28,-60.7297,0\Gh,34,1.0968,31,117.522,28,-179.651,0\Gh,34,1.53787,31,111.419,28,51.8221,0\Gh,37,1.09663,34,112.22,31,62.8257,0\Gh,37,1.09698,34,108.277,31,-171.682,0\Gh,37,1.5371,34,110.12,31,-53.6267,0\Gh,40,1.09697,37,111.53,34,-175.835,0\Gh,40,1.09774,37,109.598,34,-61.0963,0\H,32,2.16188,31,151.915,28,-121.246,0\C,43,1.09273,32,125.249,31,105.215,0\H,44,1.0923,43,107.293,32,-91.2394,0\H,44,1.09295,43,109.252,32,30.3855,0\S,44,1.80726,43,103.471,32,143.412,0\O,47,1.49718,44,104.091,43,43.0922,0\C,47,1.80638,44,91.6829,43,155.895,0\H,49,1.09252,47,110.905,44,-49.6342,0\H,49,1.09267,47,109.186,44,-166.169,0\H,49,1.09285,47,102.108,44,74.0604,0\H,36,2.19769,34,170.524,31,-86.8855,0\C,53,1.09246,36,100.046,34,1.46736,0\H,54,1.09292,53,105.572,36,-40.1242,0\H,54,1.09311,53,112.39,36,84.3699,0\S,54,1.80644,53,115.994,36,-158.403,0\O,57,1.49644,54,96.8826,53,-45.1863,0\C,57,1.8076,54,103.691,53,59.8642,0\H,59,1.0925,57,105.443,54,-81.2262,0\H,59,1.09258,57,109.305,54,168.756,0\H,59,1.09289,57,109.643,54,43.5194,0\H,56,2.11917,54,102.372,53,45.3748,0\C,63,1.09272,56,108.134,54,179.366,0\H,64,1.09283,63,109.774,56,-135.366,0\H,64,1.09383,63,115.597,56,-12.5522,0\S,64,1.80686,63,110.454,56,109.325,0\O,67,1.49659,64,101.054,63,171.12,0\C,67,1.80678,64,95.6341,63,-82.4283,0\H,69,1.0925,67,113.836,64,-63.6962,0\H,69,1.0935,67,112.311,64,166.317,0\H,69,1.09418,67,99.2277,64,58.926,0\H,71,2.00075,69,127.305,67,-63.0603,0\C,73,1.09253,71,166.497,69,-25.9345,0\H,74,1.09207,73,104.441,71,-116.24,0\H,74,1.09394,73,110.16,71,119.363,0\S,74,1.80745,73,108.498,71,-1.12409,0\O,77,1.4964,74,104.079,73,68.1883,0\C,77,1.80758,74,86.5896,73,171.6,0\H,79,1.0925,77,106.403,74,-160.243,0\H,79,1.09294,77,103.663,74,78.3962,0\H,79,1.09327,77,108.838,74,-41.3641,0\H,76,2.16378,74,103.975,73,72.3518,0\C,83,1.09351,76,166.319,74,-172.365,0\H,84,1.09256,83,119.146,76,1.72368,0\H,84,1.09285,83,112.483,76,127.261,0\S,84,1.8068,83,106.223,76,-113.315,0\O,87,1.49742,84,105.921,83,159.178,0\C,87,1.80726,84,91.8075,83,47.1234,0\H,89,1.09271,87,113.145,84,-91.8445,0\H,89,1.09291,87,116.568,84,38.004,0\H,89,1.09353,87,112.052,84,149.732,0\H,62,2.1933,59,150.355,57,55.8115,0\C,93,1.09231,62,148.144,59,-51.0817,0\H,94,1.09239,93,109.177,62,143.574,0\H,94,1.09335,93,116.311,62,-86.0397,0\S,94,1.80746,93,106.058,62,29.2423,0\O,97,1.49631,94,102.743,93,38.2993,0\C,97,1.80769,94,97.5496,93,143.731,0\H,99,1.09257,97,106.201,94,-55.7018,0\H,99,1.09307,97,103.34,94,-171.426,0\H,99,1.09353,97,114.377,94,69.3614,0\H,6,2.2152,3,103.442,1,64.0184,0\C,103,1.09322,6,129.616,3,-145.819,0\H,104,1.0926,103,108.46,6,-104.411,0\H,104,1.09284,103,112.709,6,25.8141,0\S,104,1.80721,103,106.175,6,146.051,0\O,107,1.49712,104,100.109,103,-51.7378,0\C,107,1.80663,104,93.2608,103,49.5733,0\H,109,1.09302,107,109.545,104,-161.699,0\H,109,1.09315,107,110.923,104,-46.3476,0\H,109,1.09396,107,113.808,104,76.6641,0\O,81,2.26687,79,153.78,77,-118.934,0\S,113,1.49677,81,149.164,79,-164.345,0\C,114,1.80695,113,102.56,81,-132.549,0\H,115,1.09241,114,111.863,113,24.1025,0\H,115,1.09319,114,116.142,113,147.11,0\H,115,1.09394,114,100.905,113,-86.8374,0\C,114,1.80708,113,96.9208,81,-38.0462,0\H,119,1.09298,114,109.605,113,75.0307,0\H,119,1.09317,114,102.623,113,-158.286,0\H,119,1.09421,114,104.438,113,-45.5028,0\H,121,2.23462,119,146.584,114,-175.357,0\C,123,1.09316,121,95.2971,119,54.1231,0\H,124,1.09217,123,122.809,121,24.9475,0\H,124,1.09247,123,100.323,121,-99.4662,0\S,124,1.80681,123,108.248,121,151.878,0\O,127,1.49746,124,102.899,123,172.375,0\C,127,1.80702,124,93.8265,123,-86.4447,0\H,129,1.09274,127,106.067,124,52.6366,0\H,129,1.09303,127,104.985,124,165.584,0\H,129,1.09335,127,102.435,124,-77.992,0\H,106,2.27381,104,138.995,103,-108.991,0\C,133,1.09322,106,114.364,104,-30.3054,0\H,134,1.09315,133,110.634,106,127.508,0\H,134,1.09372,133,107.613,106,0.728977,0\S,134,1.80657,133,103.702,106,-116.591,0\O,137,1.49683,134,102.63,133,52.9577,0\C,137,1.80721,134,97.3291,133,156.661,0\H,139,1.0925,137,103.348,134,151.487,0\H,139,1.09289,137,107.79,134,26.5673,0\H,139,1.0931,137,107.181,134,-86.1963,0\O,117,2.27782,115,145.075,114,-143.197,0\S,143,1.49731,117,150.545,115,145.225,0\C,144,1.80695,143,104.383,117,167.034,0\H,145,1.09257,144,109.728,143,-109.355,0\H,145,1.09266,144,115.386,143,117.011,0\H,145,1.09302,144,98.4598,143,4.46404,0\C,144,1.80701,143,100.307,117,65.8979,0\H,149,1.09248,144,105.38,143,51.9138,0\H,149,1.0933,144,103.251,143,-59.3099,0\H,149,1.0934,144,116.57,143,-179.189,0\H,5,2.31524,3,131.286,1,-127.249,0\C,153,1.09292,5,158.994,3,-55.4401,0\H,154,1.09295,153,108.836,5,172.902,0\H,154,1.09326,153,112.576,5,49.165,0\S,154,1.80747,153,110.388,5,-70.1153,0\O,157,1.49735,154,95.7482,153,63.4657,0\C,157,1.80699,154,101.715,153,159.055,0\H,159,1.09265,157,105.472,154,-171.27,0\H,159,1.09284,157,103.298,154,67.3066,0\H,159,1.09287,157,112.882,154,-48.4662,0\H,53,2.32215,36,78.557,34,-141.905,0\C,163,1.09305,53,162.869,36,-0.909135,0\H,164,1.09324,163,113.889,53,-116.58,0\H,164,1.09338,163,110.161,53,4.53926,0\S,164,1.80623,163,104.483,53,122.466,0\O,167,1.49746,164,101.525,163,-61.0711,0\C,167,1.80751,164,93.0727,163,-168.042,0\H,169,1.09267,167,105.564,164,-51.6364,0\H,169,1.09274,167,105.866,164,71.6518,0\H,169,1.09292,167,111.306,164,-172.244,0\H,158,2.3384,157,128.69,154,151.416,0\C,173,1.09289,158,173.528,157,-105.666,0\H,174,1.09231,173,112.765,158,75.478,0\H,174,1.09319,173,109.852,158,-165.475,0\S,174,1.80646,173,111.31,158,-32.618,0\O,177,1.49722,174,106.021,173,108.943,0\C,177,1.80693,174,103.641,173,0.642876,0\H,179,1.09219,177,113.939,174,171.442,0\H,179,1.093,177,106.003,174,-64.2444,0\H,179,1.09346,177,114.371,174,49.8739,0\O,162,2.3441,159,139.053,157,93.5506,0\S,183,1.49704,162,126.167,159,-39.6454,0\C,184,1.80618,183,105.456,162,-167.661,0\H,185,1.09277,184,107.69,183,-179.189,0\H,185,1.09293,184,113.707,183,-57.5772,0\H,185,1.09313,184,107.278,183,62.3307,0\C,184,1.80658,183,102.001,162,96.2417,0\H,189,1.0925,184,101.37,183,177.777,0\H,189,1.09277,184,108.181,183,-67.2949,0\H,189,1.09318,184,103.856,183,55.7643,0\H,29,2.36104,28,147.173,26,143.73,0\C,193,1.09288,29,145.01,28,138.07,0\H,194,1.0928,193,106.035,29,158.503,0\H,194,1.09355,193,118.439,29,33.9564,0\S,194,1.80708,193,103.407,29,-93.1046,0\O,197,1.49724,194,101.972,193,58.1781,0\C,197,1.80751,194,90.1128,193,156.748,0\H,199,1.0924,197,104.696,194,-55.8351,0\H,199,1.09301,197,115.599,194,53.0264,0\H,199,1.09317,197,114.85,194,-172.612,0\H,86,2.37421,84,114.541,83,-46.2756,0\C,203,1.0937,86,161.033,84,-96.1844,0\H,204,1.09242,203,114.313,86,116.197,0\H,204,1.09283,203,116.828,86,-10.9214,0\S,204,1.80793,203,109.252,86,-126.297,0\O,207,1.49655,204,109.734,203,71.6146,0\C,207,1.80644,204,97.3237,203,171.926,0\H,209,1.09284,207,109.093,204,62.7001,0\H,209,1.09303,207,102.829,204,-56.8396,0\H,209,1.09364,207,106.343,204,-178.2,0\H,162,2.39823,159,104.854,157,157.832,0\C,213,1.09286,162,128.295,159,62.4344,0\H,214,1.09249,213,108.51,162,179.594,0\H,214,1.09335,213,112.228,162,-53.6063,0\S,214,1.80746,213,112.571,162,72.3847,0\O,217,1.49692,214,109.373,213,168.794,0\C,217,1.80664,214,100.932,213,-79.1283,0\H,219,1.09254,217,106.121,214,70.3101,0\H,219,1.09318,217,112.271,214,-50.3818,0\H,219,1.09367,217,108.296,214,-167.36,0\H,190,2.40812,189,157.933,184,-75.4014,0\C,223,1.09252,190,102.476,189,-175.387,0\H,224,1.0921,223,116.5,190,156.07,0\H,224,1.09325,223,113.804,190,26.0676,0\S,224,1.80745,223,105.422,190,-87.1606,0\O,227,1.49689,224,101.456,223,81.2147,0\C,227,1.80697,224,94.831,223,-178.769,0\H,229,1.09297,227,116.424,224,174.225,0\H,229,1.09307,227,100.486,224,50.8745,0\H,229,1.09321,227,109.497,224,-65.3509,0\O,13,2.43312,12,145.547,11,-164.927,0\S,233,1.49617,13,120.608,12,-109.281,0\C,234,1.80682,233,103.894,13,29.0365,0\H,235,1.09262,234,108.797,233,-64.0845,0\H,235,1.09299,234,102.357,233,178.566,0\H,235,1.09353,234,115.55,233,59.4497,0\C,234,1.80785,233,102.882,13,126.698,0\H,239,1.09244,234,111.374,233,-164.938,0\H,239,1.09259,234,110.394,233,74.0008,0\H,239,1.09355,234,103.349,233,-47.7279,0\H,233,2.25755,13,115.256,12,58.1066,0\C,243,1.09358,233,165.473,13,-2.83746,0\H,244,1.09299,243,101.469,233,60.5279,0\H,244,1.09335,243,115.226,233,-54.0344,0\S,244,1.80627,243,108.27,233,170.1,0\O,247,1.49665,244,95.135,243,-154.581,0\C,247,1.80787,244,93.7367,243,-45.0776,0\H,249,1.09246,247,108.778,244,-38.5374,0\H,249,1.09274,247,101.397,244,76.2628,0\H,249,1.09316,247,108.817,244,-162.814,0\O,237,2.38135,235,162.417,234,-6.13604,0\S,253,1.49724,237,174.307,235,156.777,0\C,254,1.80668,253,105.882,237,6.31163,0\H,255,1.09245,254,106.661,253,33.3474,0\H,255,1.09292,254,113.876,253,-87.8709,0\H,255,1.09316,254,107.75,253,148.946,0\C,254,1.80781,253,92.9007,237,109.09,0\H,259,1.09265,254,101.179,253,-43.362,0\H,259,1.09278,254,107.924,253,-162.394,0\H,259,1.09336,254,103.498,253,78.0426,0\H,14,2.46365,12,132.256,11,88.6042,0\C,263,1.09393,14,111.975,12,-113.78,0\H,264,1.09169,263,114.999,14,63.7028,0\H,264,1.09243,263,112.091,14,-168.487,0\S,264,1.80687,263,110.534,14,-48.9948,0\O,267,1.49682,264,100.088,263,76.4723,0\C,267,1.80728,264,94.7339,263,-175.807,0\H,269,1.09228,267,113.864,264,55.8821,0\H,269,1.09268,267,109.447,264,179.01,0\H,269,1.09327,267,110.266,264,-68.1038,0\O,153,2.55026,5,72.3918,3,169.272,0\S,273,1.49728,153,104.433,5,171.593,0\C,274,1.80698,273,108.626,153,-114.802,0\H,275,1.09264,274,110.474,273,-58.4484,0\H,275,1.09295,274,104.749,273,56.6451,0\H,275,1.09296,274,107.066,273,171.062,0\C,274,1.80729,273,100.774,153,146.931,0\H,279,1.09304,274,108.911,273,45.8403,0\H,279,1.09308,274,104.392,273,-75.5341,0\H,279,1.09324,274,98.5082,273,163.465,0\\\@

 Total job time:  52.39s(wall), 168.55s(cpu) 
 Fri Dec  3 21:50:44 2021

        *************************************************************
        *                                                           *
        *  Thank you very much for using Q-Chem.  Have a nice day.  *
        *                                                           *
        *************************************************************


