                  Welcome to Q-Chem
     A Quantum Leap Into The Future Of Chemistry


 Q-Chem 5.2 (devel), Q-Chem, Inc., Pleasanton, CA (2019)

 Yihan Shao,  Zhengting Gan,  E. Epifanovsky,  A. T. B. Gilbert,  M. Wormit,  
 J. Kussmann,  A. W. Lange,  A. Behn,  Jia Deng,  Xintian Feng,  D. Ghosh,  
 M. Goldey,  P. R. Horn,  L. D. Jacobson,  I. Kaliman,  T. Kus,  A. Landau,  
 Jie Liu,  E. I. Proynov,  R. M. Richard,  R. P. Steele,  E. J. Sundstrom,  
 H. L. Woodcock III,  P. M. Zimmerman,  D. Zuev,  B. Alam,  B. Albrecht,  
 E. Alguire,  S. A. Baeppler,  D. Barton,  Z. Benda,  Y. A. Bernard,  
 E. J. Berquist,  K. B. Bravaya,  H. Burton,  K. Carter-Fenk,  D. Casanova,  
 Chun-Min Chang,  Yunqing Chen,  A. Chien,  K. D. Closser,  M. P. Coons,  
 S. Coriani,  S. Dasgupta,  A. L. Dempwolff,  M. Diedenhofen,  Hainam Do,  
 R. G. Edgar,  Po-Tung Fang,  S. Faraji,  S. Fatehi,  Qingguo Feng,  
 J. Fosso-Tande,  J. Gayvert,  Qinghui Ge,  A. Ghysels,  G. Gidofalvi,  
 J. Gomes,  J. Gonthier,  A. Gunina,  D. Hait,  M. W. D. Hanson-Heine,  
 P. H. P. Harbach,  A. W. Hauser,  M. F. Herbst,  J. E. Herr,  
 E. G. Hohenstein,  Z. C. Holden,  Kerwin Hui,  B. C. Huynh,  T.-C. Jagau,  
 Hyunjun Ji,  B. Kaduk,  K. Khistyaev,  Jaehoon Kim,  P. Klunzinger,  K. Koh,  
 D. Kosenkov,  L. Koulias,  T. Kowalczyk,  C. M. Krauter,  A. Kunitsa,  
 Ka Un Lao,  A. Laurent,  K. V. Lawler,  Joonho Lee,  D. Lefrancois,  
 S. Lehtola,  D. S. Levine,  Yi-Pei Li,  You-Sheng Lin,  Fenglai Liu,  
 Kuan-Yu Liu,  E. Livshits,  M. Loipersberger,  A. Luenser,  P. Manohar,  
 E. Mansoor,  S. F. Manzer,  Shan-Ping Mao,  Yuezhi Mao,  N. Mardirossian,  
 A. V. Marenich,  T. Markovich,  L. A. Martinez-Martinez,  S. A. Maurer,  
 N. J. Mayhall,  S. C. McKenzie,  J.-M. Mewes,  P. Morgante,  A. F. Morrison,  
 J. W. Mullinax,  K. Nanda,  T. S. Nguyen-Beck,  R. Olivares-Amaya,  
 J. A. Parkhill,  S. K. Paul,  F. Pavosevic,  Zheng Pei,  T. M. Perrine,  
 F. Plasser,  P. Pokhilko,  S. Prager,  A. Prociuk,  E. Ramos,  B. Rana,  
 D. R. Rehn,  F. Rob,  M. Scheurer,  M. Schneider,  N. Sergueev,  
 S. M. Sharada,  S. Sharma,  D. W. Small,  T. Stauch,  C. J. Stein,  
 T. Stein,  Yu-Chuan Su,  S. P. Veccham,  Zhen Tao,  A. J. W. Thom,  
 A. Tkatchenko,  T. Tsuchimochi,  N. M. Tubman,  L. Vogt,  M. L. Vidal,  
 O. Vydrov,  M. A. Watson,  J. Wenzel,  M. de Wergifosse,  T. A. Wesolowski,  
 A. White,  J. Witte,  A. Yamada,  Jun Yang,  K. Yao,  S. Yeganeh,  
 S. R. Yost,  Zhi-Qiang You,  A. Zech,  Igor Ying Zhang,  Xing Zhang,  
 Yan Zhao,  Ying Zhu,  B. R. Brooks,  G. K. L. Chan,  C. J. Cramer,  
 M. S. Gordon,  W. J. Hehre,  A. Klamt,  M. W. Schmidt,  C. D. Sherrill,  
 D. G. Truhlar,  A. Aspuru-Guzik,  R. Baer,  A. T. Bell,  N. A. Besley,  
 Jeng-Da Chai,  A. E. DePrince, III,  R. A. DiStasio Jr.,  A. Dreuw,  
 B. D. Dunietz,  T. R. Furlani,  Chao-Ping Hsu,  Yousung Jung,  Jing Kong,  
 D. S. Lambrecht,  WanZhen Liang,  C. Ochsenfeld,  V. A. Rassolov,  
 L. V. Slipchenko,  J. E. Subotnik,  T. Van Voorhis,  J. M. Herbert,  
 A. I. Krylov,  P. M. W. Gill,  M. Head-Gordon

 Contributors to earlier versions of Q-Chem not listed above: 
 R. D. Adamson,  B. Austin,  J. Baker,  G. J. O. Beran,  K. Brandhorst,  
 S. T. Brown,  E. F. C. Byrd,  A. K. Chakraborty,  C.-L. Cheng,  
 Siu Hung Chien,  D. M. Chipman,  D. L. Crittenden,  H. Dachsel,  
 R. J. Doerksen,  A. D. Dutoi,  L. Fusti-Molnar,  W. A. Goddard III,  
 A. Golubeva-Zadorozhnaya,  S. R. Gwaltney,  G. Hawkins,  A. Heyden,  
 S. Hirata,  G. Kedziora,  F. J. Keil,  C. Kelley,  Jihan Kim,  R. A. King,  
 R. Z. Khaliullin,  P. P. Korambath,  W. Kurlancheek,  A. M. Lee,  M. S. Lee,  
 S. V. Levchenko,  Ching Yeh Lin,  D. Liotard,  R. C. Lochan,  I. Lotan,  
 P. E. Maslen,  N. Nair,  D. P. O'Neill,  D. Neuhauser,  E. Neuscamman,  
 C. M. Oana,  R. Olson,  B. Peters,  R. Peverati,  P. A. Pieniazek,  
 Y. M. Rhee,  J. Ritchie,  M. A. Rohrdanz,  E. Rosta,  N. J. Russ,  
 H. F. Schaefer III,  N. E. Schultz,  N. Shenvi,  A. C. Simmonett,  A. Sodt,  
 D. Stuck,  K. S. Thanthiriwatte,  V. Vanovschi,  Tao Wang,  A. Warshel,  
 C. F. Williams,  Q. Wu,  X. Xu,  W. Zhang

 Please cite Q-Chem as follows:
 Y. Shao et al., Mol. Phys. 113, 184-215 (2015)
 DOI: 10.1080/00268976.2014.952696

 Q-Chem 5.2.2 for Intel X86 EM64T Linux

 Parts of Q-Chem use Armadillo 9.800.1 (Horizon Scraper).
 http://arma.sourceforge.net/

 Q-Chem begins on Fri Dec  3 18:25:39 2021  

Host: node025
0

     Scratch files written to /home/ymao90/scratch/r7.00_frame_0053_spade_B3LYP_dp20211203120852//

Checking the input file for inconsistencies... 	...done.

--------------------------------------------------------------
User input:
--------------------------------------------------------------
$molecule
0 1
--
0 1
C    25.51900   21.40700   25.35100  
C    25.44300   22.28000   26.61500  
C    26.53100   21.95100   27.65000  
C    27.90100   21.73000   26.98700  
C    28.01800   20.89200   25.70400  
C    26.89400   21.18700   24.69800  
H    26.65500   22.81200   28.32000  
H    25.64900   23.34500   26.45700  
H    25.06600   20.42000   25.50600  
H    24.96800   21.95100   24.57500  
H    28.20800   22.74700   26.71200  
H    28.61700   21.34700   27.72500  
H    28.99300   21.17700   25.29100  
H    28.00000   19.82400   25.95300  
H    27.17100   22.06500   24.10200  
H    26.90200   20.34600   23.99300  
H    26.24900   21.10000   28.28100  
N    24.12000   22.07200   27.20000  
H    23.95600   21.42100   27.95900  
C    22.99800   22.75200   26.77600  
H    22.10500   22.52800   27.38600  
O    23.13500   23.56800   25.88100  
--
0 1
C    21.84700   27.12300   26.28600  
H    22.58000   26.41200   26.67500  
H    21.45100   26.55600   25.44000  
H    22.33400   28.07000   26.03900  
S    20.72700   27.44200   27.66800  
C    19.54500   28.43300   26.72500  
H    20.09000   29.31500   26.38100  
H    19.35300   27.82600   25.83700  
H    18.64500   28.69800   27.28600  
O    21.45900   28.42200   28.53200  
C    21.98500   28.62400   21.37900  
H    21.53400   28.37400   20.41500  
H    22.77400   29.36500   21.22600  
H    22.41700   27.77900   21.92000  
S    20.63500   29.27400   22.38900  
C    21.61800   30.16600   23.61500  
H    20.76600   30.42300   24.25000  
H    22.16900   29.40600   24.17400  
H    22.18300   31.02400   23.24200  
O    20.19300   28.08200   23.18000  
C    25.46500   17.57600   21.55400  
H    25.10600   16.93400   22.36300  
H    26.18700   18.25500   22.01500  
H    24.63600   17.96600   20.95900  
S    26.32700   16.42300   20.46200  
C    26.13900   17.30300   18.89500  
H    26.34500   16.68900   18.01500  
H    25.10200   17.61000   18.73500  
H    26.76400   18.18900   19.03100  
O    25.27100   15.36400   20.39400  
C    28.70500   18.73400   31.99500  
H    29.31900   18.99400   32.86100  
H    27.65600   18.87400   32.26900  
H    28.95700   17.72500   31.65800  
S    29.03700   19.87200   30.63100  
C    28.47200   21.39200   31.42900  
H    27.61200   21.05000   32.01000  
H    29.26900   21.85400   32.01700  
H    28.13700   21.97100   30.56400  
O    27.97600   19.46700   29.65600  
C    30.40900   24.27500   29.10800  
H    30.56400   24.45000   30.17500  
H    30.75600   25.13200   28.52400  
H    29.38100   23.99000   28.87000  
S    31.42800   22.84800   28.67000  
C    32.89500   23.83000   29.05600  
H    33.64300   23.31300   28.45000  
H    32.65700   24.86900   28.81300  
H    33.06200   23.77300   30.13500  
O    31.38200   22.68400   27.18200  
C    31.10900   18.66000   27.55100  
H    31.76300   19.45400   27.18000  
H    30.58800   18.32700   26.65000  
H    30.50300   18.99100   28.39900  
S    32.11300   17.22500   27.99500  
C    33.25900   17.11400   26.60300  
H    32.68300   16.73800   25.75300  
H    33.70200   18.07700   26.33300  
H    34.17500   16.53800   26.75800  
O    31.21200   16.04300   27.81200  
C    24.52500   18.78000   30.21600  
H    23.60900   18.40300   30.67800  
H    24.42500   18.90700   29.13500  
H    25.40100   18.16500   30.43800  
S    24.80900   20.48300   30.74900  
C    24.85900   20.13000   32.52000  
H    24.91100   21.09500   33.03100  
H    24.09000   19.43300   32.86400  
H    25.78800   19.57100   32.65600  
O    23.60300   21.31200   30.43200  
C    25.49500   26.57100   26.90900  
H    26.45300   26.91200   26.50800  
H    25.04700   25.83600   26.23600  
H    24.96800   27.51800   27.05400  
S    25.70700   25.80200   28.53100  
C    23.94400   25.93800   28.90400  
H    23.44300   25.30200   28.17100  
H    23.82800   25.50200   29.90000  
H    23.59400   26.95800   28.72900  
O    26.32800   26.94500   29.27200  
C    22.59700   22.86700   18.84100  
H    21.60900   22.52000   18.52500  
H    22.79200   23.91100   19.09700  
H    23.28800   22.48400   18.08600  
S    22.99300   21.95500   20.35000  
C    24.69400   22.48400   20.04600  
H    25.09700   22.05100   19.12700  
H    24.77600   23.57000   19.95900  
H    25.25700   22.19000   20.93600  
O    22.95500   20.47600   20.12000  
C    34.49700   21.33400   25.97400  
H    35.13900   21.79800   25.22000  
H    34.02200   20.42100   25.60500  
H    33.70100   22.00100   26.31400  
S    35.59600   21.04100   27.37800  
C    34.31000   20.30100   28.40900  
H    34.47200   19.23000   28.25900  
H    34.62100   20.58400   29.41800  
H    33.29900   20.68600   28.25900  
O    35.84500   22.40800   27.93700  
C    24.69200   24.97400   23.16700  
H    24.28900   25.47400   24.05100  
H    24.04000   25.01200   22.29000  
H    24.98500   23.93900   23.36000  
S    26.23900   25.85200   22.85300  
C    25.52100   27.44700   22.39800  
H    24.91400   27.86900   23.20200  
H    26.28100   28.18400   22.12600  
H    24.88400   27.21600   21.54000  
O    26.53900   25.35100   21.47400  
C    31.08000   25.75300   25.20200  
H    31.10200   26.65800   24.59000  
H    31.51200   26.02900   26.16700  
H    31.71600   24.98500   24.75400  
S    29.40000   25.11500   25.39300  
C    29.48900   24.34100   23.76300  
H    29.65800   25.14600   23.04300  
H    30.21200   23.52300   23.71000  
H    28.48900   23.91100   23.65900  
O    28.33800   26.15400   25.20400  
C    17.97300   20.22600   23.90100  
H    17.84300   20.95000   23.09200  
H    18.30800   20.67200   24.84000  
H    18.75600   19.55200   23.54400  
S    16.44300   19.30000   24.15800  
C    16.96500   18.59400   25.73700  
H    16.86100   19.40600   26.46200  
H    16.37100   17.68600   25.87200  
H    18.01600   18.34300   25.57500  
O    16.83200   18.16100   23.26700  
C    26.81000   17.44800   27.52000  
H    26.33800   18.28200   28.04600  
H    27.60500   17.78900   26.85400  
H    26.06900   16.93300   26.90300  
S    27.39900   16.40000   28.86900  
C    28.07600   15.24000   27.66000  
H    28.68700   15.72800   26.89600  
H    28.75000   14.52200   28.13400  
H    27.25600   14.74300   27.13600  
O    26.18200   15.83100   29.53100  
C    34.04100   22.55900   32.27300  
H    33.83200   21.67700   31.66300  
H    34.39100   23.38200   31.64500  
H    34.80600   22.48900   33.05100  
S    32.45300   23.08200   32.95900  
C    32.14300   21.53500   33.84100  
H    31.07800   21.63200   34.07000  
H    32.36100   20.74400   33.11900  
H    32.73800   21.56300   34.75800  
O    31.51300   22.93400   31.80300  
C    31.03200   20.55400   23.06500  
H    30.13300   19.96000   23.24900  
H    31.22300   21.05900   24.01500  
H    30.92000   21.29500   22.27000  
S    32.47900   19.49900   22.81800  
C    31.54800   18.51100   21.62500  
H    32.16000   17.97800   20.89200  
H    30.91100   17.78300   22.13300  
H    30.76000   19.07900   21.12400  
O    32.60000   18.75800   24.11200  
C    28.43900   23.30300   19.89600  
H    27.81200   23.66600   19.07800  
H    27.84800   23.00800   20.76700  
H    29.10700   24.11900   20.18400  
S    29.34000   21.85600   19.29500  
C    28.32000   20.61900   20.12800  
H    28.32200   20.75800   21.21200  
H    27.36100   20.76000   19.62200  
H    28.64600   19.59700   19.91800  
O    30.68300   21.74600   19.94800  
C    20.63600   23.86100   30.36300  
H    20.76800   24.37000   29.40500  
H    21.61300   23.46300   30.65200  
H    19.87800   23.08900   30.21200  
S    20.31900   25.00600   31.72500  
C    18.79900   25.65200   30.99200  
H    18.34700   26.08500   31.88800  
H    19.16700   26.46900   30.36600  
H    18.17100   24.91400   30.48600  
O    21.16300   26.24200   31.67100  
C    27.16600   16.11500   24.25900  
H    26.93300   16.93500   24.94300  
H    26.33200   15.97700   23.56600  
H    27.28200   15.23500   24.89600  
S    28.64600   16.57100   23.32800  
C    29.89900   16.62400   24.63000  
H    29.55300   17.29900   25.41700  
H    30.11100   15.62500   25.01900  
H    30.80700   16.94400   24.11300  
O    28.35800   17.96200   22.85600  
C    19.37900   21.40000   28.34200  
H    18.83700   21.21100   29.27300  
H    20.25800   22.02700   28.51400  
H    18.71300   21.86500   27.61100  
S    19.89300   19.81100   27.65400  
C    20.91800   19.41100   29.08700  
H    21.92200   19.83300   29.17500  
H    20.31600   19.70200   29.95200  
H    20.92500   18.31800   29.04600  
O    20.95400   20.26900   26.70200  
C    16.65900   26.39000   27.39400  
H    16.65700   25.92900   28.38500  
H    17.22100   27.32400   27.47300  
H    15.63000   26.56800   27.07000  
S    17.54300   25.14300   26.43100  
C    16.21800   23.96400   26.77500  
H    15.90900   24.07300   27.81800  
H    15.37500   24.15100   26.10600  
H    16.61900   22.97300   26.54600  
O    18.67900   24.64500   27.27000  
C    21.20700   21.55700   23.67500  
H    21.28700   20.69600   23.00700  
H    22.16000   21.84200   24.12700  
H    20.52700   21.35600   24.50700  
S    20.63000   23.05700   22.84900  
C    20.30300   24.10400   24.28500  
H    19.37600   23.77400   24.76000  
H    21.11200   23.95200   25.00500  
H    20.37200   25.13400   23.92800  
O    19.25800   22.69000   22.37600  
C    35.22500   23.18100   21.96200  
H    36.14500   23.23900   22.54800  
H    35.20800   22.17400   21.53700  
H    35.20300   23.94400   21.17900  
S    33.69600   23.55700   22.84800  
C    32.54600   23.67800   21.45900  
H    31.53400   23.84600   21.83500  
H    32.80100   24.55200   20.85500  
H    32.68700   22.76500   20.87400  
O    33.85200   24.97700   23.29800  
C    25.10600   25.58100   32.95500  
H    25.30800   25.62100   34.02900  
H    25.91100   25.99700   32.34400  
H    24.17100   26.08500   32.70000  
S    25.00400   23.86600   32.39400  
C    23.63400   23.55200   33.53000  
H    23.56100   22.46200   33.51700  
H    23.93800   23.99600   34.48100  
H    22.70600   23.91500   33.08000  
O    26.21300   23.31200   33.08100  
C    23.10100   17.80700   26.65000  
H    22.11700   18.09300   27.02900  
H    23.54500   17.04600   27.29800  
H    23.69800   18.71700   26.75200  
S    22.96000   17.33500   24.91200  
C    21.63400   16.11200   25.00800  
H    20.84100   16.42900   25.69000  
H    21.20300   15.91700   24.02200  
H    22.08700   15.20200   25.40900  
O    24.20700   16.53800   24.68300  
C    31.74500   27.47000   28.96000  
H    32.67500   27.92600   29.30700  
H    31.22400   26.84700   29.69100  
H    31.95100   27.04000   27.97600  
S    30.67300   28.91600   28.81100  
C    29.20400   27.96000   28.37100  
H    28.81500   27.22800   29.08200  
H    28.45100   28.72300   28.15600  
H    29.41700   27.38700   27.46400  
O    31.08600   29.55900   27.52400  
$end

$rem
JOBTYPE  SP
METHOD  B3LYP
BASIS  6-31+G(D)
SYMMETRY  FALSE
SYM_IGNORE  TRUE
MEM_TOTAL  16000
MEM_STATIC  8000
MAX_SUB_FILE_NUM  16000
BASIS_LIN_DEP_THRESH  6
THRESH  14
SCF_CONVERGENCE  8
GEN_SCFMAN  TRUE
SCF_GUESS  SAD
FD_MAT_VEC_PROD  FALSE
XC_GRID  000075000302
NL_GRID  1
MAX_SCF_CYCLES  200
ENV_METHOD  B3LYP
GEN_SCFMAN_EMBED  TRUE
SPADE_PARTITION  TRUE
$end

$development
embedding_early_stop  1
$end

--------------------------------------------------------------
 ----------------------------------------------------------------
             Standard Nuclear Orientation (Angstroms)
    I     Atom           X                Y                Z
 ----------------------------------------------------------------
    1      C      25.5190000000    21.4070000000    25.3510000000
    2      C      25.4430000000    22.2800000000    26.6150000000
    3      C      26.5310000000    21.9510000000    27.6500000000
    4      C      27.9010000000    21.7300000000    26.9870000000
    5      C      28.0180000000    20.8920000000    25.7040000000
    6      C      26.8940000000    21.1870000000    24.6980000000
    7      H      26.6550000000    22.8120000000    28.3200000000
    8      H      25.6490000000    23.3450000000    26.4570000000
    9      H      25.0660000000    20.4200000000    25.5060000000
   10      H      24.9680000000    21.9510000000    24.5750000000
   11      H      28.2080000000    22.7470000000    26.7120000000
   12      H      28.6170000000    21.3470000000    27.7250000000
   13      H      28.9930000000    21.1770000000    25.2910000000
   14      H      28.0000000000    19.8240000000    25.9530000000
   15      H      27.1710000000    22.0650000000    24.1020000000
   16      H      26.9020000000    20.3460000000    23.9930000000
   17      H      26.2490000000    21.1000000000    28.2810000000
   18      N      24.1200000000    22.0720000000    27.2000000000
   19      H      23.9560000000    21.4210000000    27.9590000000
   20      C      22.9980000000    22.7520000000    26.7760000000
   21      H      22.1050000000    22.5280000000    27.3860000000
   22      O      23.1350000000    23.5680000000    25.8810000000
   23      C      21.8470000000    27.1230000000    26.2860000000
   24      H      22.5800000000    26.4120000000    26.6750000000
   25      H      21.4510000000    26.5560000000    25.4400000000
   26      H      22.3340000000    28.0700000000    26.0390000000
   27      S      20.7270000000    27.4420000000    27.6680000000
   28      C      19.5450000000    28.4330000000    26.7250000000
   29      H      20.0900000000    29.3150000000    26.3810000000
   30      H      19.3530000000    27.8260000000    25.8370000000
   31      H      18.6450000000    28.6980000000    27.2860000000
   32      O      21.4590000000    28.4220000000    28.5320000000
   33      C      21.9850000000    28.6240000000    21.3790000000
   34      H      21.5340000000    28.3740000000    20.4150000000
   35      H      22.7740000000    29.3650000000    21.2260000000
   36      H      22.4170000000    27.7790000000    21.9200000000
   37      S      20.6350000000    29.2740000000    22.3890000000
   38      C      21.6180000000    30.1660000000    23.6150000000
   39      H      20.7660000000    30.4230000000    24.2500000000
   40      H      22.1690000000    29.4060000000    24.1740000000
   41      H      22.1830000000    31.0240000000    23.2420000000
   42      O      20.1930000000    28.0820000000    23.1800000000
   43      C      25.4650000000    17.5760000000    21.5540000000
   44      H      25.1060000000    16.9340000000    22.3630000000
   45      H      26.1870000000    18.2550000000    22.0150000000
   46      H      24.6360000000    17.9660000000    20.9590000000
   47      S      26.3270000000    16.4230000000    20.4620000000
   48      C      26.1390000000    17.3030000000    18.8950000000
   49      H      26.3450000000    16.6890000000    18.0150000000
   50      H      25.1020000000    17.6100000000    18.7350000000
   51      H      26.7640000000    18.1890000000    19.0310000000
   52      O      25.2710000000    15.3640000000    20.3940000000
   53      C      28.7050000000    18.7340000000    31.9950000000
   54      H      29.3190000000    18.9940000000    32.8610000000
   55      H      27.6560000000    18.8740000000    32.2690000000
   56      H      28.9570000000    17.7250000000    31.6580000000
   57      S      29.0370000000    19.8720000000    30.6310000000
   58      C      28.4720000000    21.3920000000    31.4290000000
   59      H      27.6120000000    21.0500000000    32.0100000000
   60      H      29.2690000000    21.8540000000    32.0170000000
   61      H      28.1370000000    21.9710000000    30.5640000000
   62      O      27.9760000000    19.4670000000    29.6560000000
   63      C      30.4090000000    24.2750000000    29.1080000000
   64      H      30.5640000000    24.4500000000    30.1750000000
   65      H      30.7560000000    25.1320000000    28.5240000000
   66      H      29.3810000000    23.9900000000    28.8700000000
   67      S      31.4280000000    22.8480000000    28.6700000000
   68      C      32.8950000000    23.8300000000    29.0560000000
   69      H      33.6430000000    23.3130000000    28.4500000000
   70      H      32.6570000000    24.8690000000    28.8130000000
   71      H      33.0620000000    23.7730000000    30.1350000000
   72      O      31.3820000000    22.6840000000    27.1820000000
   73      C      31.1090000000    18.6600000000    27.5510000000
   74      H      31.7630000000    19.4540000000    27.1800000000
   75      H      30.5880000000    18.3270000000    26.6500000000
   76      H      30.5030000000    18.9910000000    28.3990000000
   77      S      32.1130000000    17.2250000000    27.9950000000
   78      C      33.2590000000    17.1140000000    26.6030000000
   79      H      32.6830000000    16.7380000000    25.7530000000
   80      H      33.7020000000    18.0770000000    26.3330000000
   81      H      34.1750000000    16.5380000000    26.7580000000
   82      O      31.2120000000    16.0430000000    27.8120000000
   83      C      24.5250000000    18.7800000000    30.2160000000
   84      H      23.6090000000    18.4030000000    30.6780000000
   85      H      24.4250000000    18.9070000000    29.1350000000
   86      H      25.4010000000    18.1650000000    30.4380000000
   87      S      24.8090000000    20.4830000000    30.7490000000
   88      C      24.8590000000    20.1300000000    32.5200000000
   89      H      24.9110000000    21.0950000000    33.0310000000
   90      H      24.0900000000    19.4330000000    32.8640000000
   91      H      25.7880000000    19.5710000000    32.6560000000
   92      O      23.6030000000    21.3120000000    30.4320000000
   93      C      25.4950000000    26.5710000000    26.9090000000
   94      H      26.4530000000    26.9120000000    26.5080000000
   95      H      25.0470000000    25.8360000000    26.2360000000
   96      H      24.9680000000    27.5180000000    27.0540000000
   97      S      25.7070000000    25.8020000000    28.5310000000
   98      C      23.9440000000    25.9380000000    28.9040000000
   99      H      23.4430000000    25.3020000000    28.1710000000
  100      H      23.8280000000    25.5020000000    29.9000000000
  101      H      23.5940000000    26.9580000000    28.7290000000
  102      O      26.3280000000    26.9450000000    29.2720000000
  103      C      22.5970000000    22.8670000000    18.8410000000
  104      H      21.6090000000    22.5200000000    18.5250000000
  105      H      22.7920000000    23.9110000000    19.0970000000
  106      H      23.2880000000    22.4840000000    18.0860000000
  107      S      22.9930000000    21.9550000000    20.3500000000
  108      C      24.6940000000    22.4840000000    20.0460000000
  109      H      25.0970000000    22.0510000000    19.1270000000
  110      H      24.7760000000    23.5700000000    19.9590000000
  111      H      25.2570000000    22.1900000000    20.9360000000
  112      O      22.9550000000    20.4760000000    20.1200000000
  113      C      34.4970000000    21.3340000000    25.9740000000
  114      H      35.1390000000    21.7980000000    25.2200000000
  115      H      34.0220000000    20.4210000000    25.6050000000
  116      H      33.7010000000    22.0010000000    26.3140000000
  117      S      35.5960000000    21.0410000000    27.3780000000
  118      C      34.3100000000    20.3010000000    28.4090000000
  119      H      34.4720000000    19.2300000000    28.2590000000
  120      H      34.6210000000    20.5840000000    29.4180000000
  121      H      33.2990000000    20.6860000000    28.2590000000
  122      O      35.8450000000    22.4080000000    27.9370000000
  123      C      24.6920000000    24.9740000000    23.1670000000
  124      H      24.2890000000    25.4740000000    24.0510000000
  125      H      24.0400000000    25.0120000000    22.2900000000
  126      H      24.9850000000    23.9390000000    23.3600000000
  127      S      26.2390000000    25.8520000000    22.8530000000
  128      C      25.5210000000    27.4470000000    22.3980000000
  129      H      24.9140000000    27.8690000000    23.2020000000
  130      H      26.2810000000    28.1840000000    22.1260000000
  131      H      24.8840000000    27.2160000000    21.5400000000
  132      O      26.5390000000    25.3510000000    21.4740000000
  133      C      31.0800000000    25.7530000000    25.2020000000
  134      H      31.1020000000    26.6580000000    24.5900000000
  135      H      31.5120000000    26.0290000000    26.1670000000
  136      H      31.7160000000    24.9850000000    24.7540000000
  137      S      29.4000000000    25.1150000000    25.3930000000
  138      C      29.4890000000    24.3410000000    23.7630000000
  139      H      29.6580000000    25.1460000000    23.0430000000
  140      H      30.2120000000    23.5230000000    23.7100000000
  141      H      28.4890000000    23.9110000000    23.6590000000
  142      O      28.3380000000    26.1540000000    25.2040000000
  143      C      17.9730000000    20.2260000000    23.9010000000
  144      H      17.8430000000    20.9500000000    23.0920000000
  145      H      18.3080000000    20.6720000000    24.8400000000
  146      H      18.7560000000    19.5520000000    23.5440000000
  147      S      16.4430000000    19.3000000000    24.1580000000
  148      C      16.9650000000    18.5940000000    25.7370000000
  149      H      16.8610000000    19.4060000000    26.4620000000
  150      H      16.3710000000    17.6860000000    25.8720000000
  151      H      18.0160000000    18.3430000000    25.5750000000
  152      O      16.8320000000    18.1610000000    23.2670000000
  153      C      26.8100000000    17.4480000000    27.5200000000
  154      H      26.3380000000    18.2820000000    28.0460000000
  155      H      27.6050000000    17.7890000000    26.8540000000
  156      H      26.0690000000    16.9330000000    26.9030000000
  157      S      27.3990000000    16.4000000000    28.8690000000
  158      C      28.0760000000    15.2400000000    27.6600000000
  159      H      28.6870000000    15.7280000000    26.8960000000
  160      H      28.7500000000    14.5220000000    28.1340000000
  161      H      27.2560000000    14.7430000000    27.1360000000
  162      O      26.1820000000    15.8310000000    29.5310000000
  163      C      34.0410000000    22.5590000000    32.2730000000
  164      H      33.8320000000    21.6770000000    31.6630000000
  165      H      34.3910000000    23.3820000000    31.6450000000
  166      H      34.8060000000    22.4890000000    33.0510000000
  167      S      32.4530000000    23.0820000000    32.9590000000
  168      C      32.1430000000    21.5350000000    33.8410000000
  169      H      31.0780000000    21.6320000000    34.0700000000
  170      H      32.3610000000    20.7440000000    33.1190000000
  171      H      32.7380000000    21.5630000000    34.7580000000
  172      O      31.5130000000    22.9340000000    31.8030000000
  173      C      31.0320000000    20.5540000000    23.0650000000
  174      H      30.1330000000    19.9600000000    23.2490000000
  175      H      31.2230000000    21.0590000000    24.0150000000
  176      H      30.9200000000    21.2950000000    22.2700000000
  177      S      32.4790000000    19.4990000000    22.8180000000
  178      C      31.5480000000    18.5110000000    21.6250000000
  179      H      32.1600000000    17.9780000000    20.8920000000
  180      H      30.9110000000    17.7830000000    22.1330000000
  181      H      30.7600000000    19.0790000000    21.1240000000
  182      O      32.6000000000    18.7580000000    24.1120000000
  183      C      28.4390000000    23.3030000000    19.8960000000
  184      H      27.8120000000    23.6660000000    19.0780000000
  185      H      27.8480000000    23.0080000000    20.7670000000
  186      H      29.1070000000    24.1190000000    20.1840000000
  187      S      29.3400000000    21.8560000000    19.2950000000
  188      C      28.3200000000    20.6190000000    20.1280000000
  189      H      28.3220000000    20.7580000000    21.2120000000
  190      H      27.3610000000    20.7600000000    19.6220000000
  191      H      28.6460000000    19.5970000000    19.9180000000
  192      O      30.6830000000    21.7460000000    19.9480000000
  193      C      20.6360000000    23.8610000000    30.3630000000
  194      H      20.7680000000    24.3700000000    29.4050000000
  195      H      21.6130000000    23.4630000000    30.6520000000
  196      H      19.8780000000    23.0890000000    30.2120000000
  197      S      20.3190000000    25.0060000000    31.7250000000
  198      C      18.7990000000    25.6520000000    30.9920000000
  199      H      18.3470000000    26.0850000000    31.8880000000
  200      H      19.1670000000    26.4690000000    30.3660000000
  201      H      18.1710000000    24.9140000000    30.4860000000
  202      O      21.1630000000    26.2420000000    31.6710000000
  203      C      27.1660000000    16.1150000000    24.2590000000
  204      H      26.9330000000    16.9350000000    24.9430000000
  205      H      26.3320000000    15.9770000000    23.5660000000
  206      H      27.2820000000    15.2350000000    24.8960000000
  207      S      28.6460000000    16.5710000000    23.3280000000
  208      C      29.8990000000    16.6240000000    24.6300000000
  209      H      29.5530000000    17.2990000000    25.4170000000
  210      H      30.1110000000    15.6250000000    25.0190000000
  211      H      30.8070000000    16.9440000000    24.1130000000
  212      O      28.3580000000    17.9620000000    22.8560000000
  213      C      19.3790000000    21.4000000000    28.3420000000
  214      H      18.8370000000    21.2110000000    29.2730000000
  215      H      20.2580000000    22.0270000000    28.5140000000
  216      H      18.7130000000    21.8650000000    27.6110000000
  217      S      19.8930000000    19.8110000000    27.6540000000
  218      C      20.9180000000    19.4110000000    29.0870000000
  219      H      21.9220000000    19.8330000000    29.1750000000
  220      H      20.3160000000    19.7020000000    29.9520000000
  221      H      20.9250000000    18.3180000000    29.0460000000
  222      O      20.9540000000    20.2690000000    26.7020000000
  223      C      16.6590000000    26.3900000000    27.3940000000
  224      H      16.6570000000    25.9290000000    28.3850000000
  225      H      17.2210000000    27.3240000000    27.4730000000
  226      H      15.6300000000    26.5680000000    27.0700000000
  227      S      17.5430000000    25.1430000000    26.4310000000
  228      C      16.2180000000    23.9640000000    26.7750000000
  229      H      15.9090000000    24.0730000000    27.8180000000
  230      H      15.3750000000    24.1510000000    26.1060000000
  231      H      16.6190000000    22.9730000000    26.5460000000
  232      O      18.6790000000    24.6450000000    27.2700000000
  233      C      21.2070000000    21.5570000000    23.6750000000
  234      H      21.2870000000    20.6960000000    23.0070000000
  235      H      22.1600000000    21.8420000000    24.1270000000
  236      H      20.5270000000    21.3560000000    24.5070000000
  237      S      20.6300000000    23.0570000000    22.8490000000
  238      C      20.3030000000    24.1040000000    24.2850000000
  239      H      19.3760000000    23.7740000000    24.7600000000
  240      H      21.1120000000    23.9520000000    25.0050000000
  241      H      20.3720000000    25.1340000000    23.9280000000
  242      O      19.2580000000    22.6900000000    22.3760000000
  243      C      35.2250000000    23.1810000000    21.9620000000
  244      H      36.1450000000    23.2390000000    22.5480000000
  245      H      35.2080000000    22.1740000000    21.5370000000
  246      H      35.2030000000    23.9440000000    21.1790000000
  247      S      33.6960000000    23.5570000000    22.8480000000
  248      C      32.5460000000    23.6780000000    21.4590000000
  249      H      31.5340000000    23.8460000000    21.8350000000
  250      H      32.8010000000    24.5520000000    20.8550000000
  251      H      32.6870000000    22.7650000000    20.8740000000
  252      O      33.8520000000    24.9770000000    23.2980000000
  253      C      25.1060000000    25.5810000000    32.9550000000
  254      H      25.3080000000    25.6210000000    34.0290000000
  255      H      25.9110000000    25.9970000000    32.3440000000
  256      H      24.1710000000    26.0850000000    32.7000000000
  257      S      25.0040000000    23.8660000000    32.3940000000
  258      C      23.6340000000    23.5520000000    33.5300000000
  259      H      23.5610000000    22.4620000000    33.5170000000
  260      H      23.9380000000    23.9960000000    34.4810000000
  261      H      22.7060000000    23.9150000000    33.0800000000
  262      O      26.2130000000    23.3120000000    33.0810000000
  263      C      23.1010000000    17.8070000000    26.6500000000
  264      H      22.1170000000    18.0930000000    27.0290000000
  265      H      23.5450000000    17.0460000000    27.2980000000
  266      H      23.6980000000    18.7170000000    26.7520000000
  267      S      22.9600000000    17.3350000000    24.9120000000
  268      C      21.6340000000    16.1120000000    25.0080000000
  269      H      20.8410000000    16.4290000000    25.6900000000
  270      H      21.2030000000    15.9170000000    24.0220000000
  271      H      22.0870000000    15.2020000000    25.4090000000
  272      O      24.2070000000    16.5380000000    24.6830000000
  273      C      31.7450000000    27.4700000000    28.9600000000
  274      H      32.6750000000    27.9260000000    29.3070000000
  275      H      31.2240000000    26.8470000000    29.6910000000
  276      H      31.9510000000    27.0400000000    27.9760000000
  277      S      30.6730000000    28.9160000000    28.8110000000
  278      C      29.2040000000    27.9600000000    28.3710000000
  279      H      28.8150000000    27.2280000000    29.0820000000
  280      H      28.4510000000    28.7230000000    28.1560000000
  281      H      29.4170000000    27.3870000000    27.4640000000
  282      O      31.0860000000    29.5590000000    27.5240000000
 ----------------------------------------------------------------
 Nuclear Repulsion Energy =       45317.14395326 hartrees
 There are      581 alpha and      581 beta electrons
 Requested basis set is 6-31+G(d)
 There are 929 shells and 2589 basis functions

 Total QAlloc Memory Limit  16000 MB
 Mega-Array Size      7821 MB
 MEM_STATIC part      8000 MB
 A cutoff of  1.0D-14 yielded 168460 shell pairs
 There are   1452865 function pairs
 Smallest overlap matrix eigenvalue = 5.20E-07
 Linear dependence detected in AO basis
 Tighter screening thresholds may be required for diffuse basis sets
 Use S2THRESH > 14 and THRESH = 14 in case of SCF convergence issues
 Number of orthogonalized atomic orbitals = 2587
 Maximum deviation from orthogonality = 1.244E-10

 Scale SEOQF with 1.000000e-03/1.000000e-03/1.000000e-03

 Standard Electronic Orientation quadrupole field applied
 Nucleus-field energy     =    -0.0000001596 hartrees
 Guess from superposition of atomic densities
 Warning:  Energy on first SCF cycle will be non-variational
 SAD guess density has 1162.000002 electrons

 -----------------------------------------------------------------------
  General SCF calculation program by
  Eric Jon Sundstrom, Paul Horn, Yuezhi Mao, Dmitri Zuev, Alec White,
  David Stuck, Shaama M.S., Shane Yost, Joonho Lee, David Small,
  Daniel Levine, Susi Lehtola, Hugh Burton, Evgeny Epifanovsky,
  Bang C. Huynh
 -----------------------------------------------------------------------
=================================================
        Doing projection-based embedding         
      F. Manby et al. JCTC, 8, 2564 (2012)       
=================================================

****************************************************
   Low-level SCF calculation for the whole system   
****************************************************
----------------------------------------------
 Summary of the low-level theory: 
 Exchange:     0.2000 Hartree-Fock + 0.0800 Slater + 0.7200 B88
 Correlation:  0.1900 VWN1RPA + 0.8100 LYP
 Using Euler-Maclaurin-Lebedev (75,302) quadrature formula
----------------------------------------------
 using 16 threads for integral computing
 -------------------------------------------------------
 OpenMP Integral computing Module                
 Release: version 2.0, May 2017, Q-Chem Inc. Pleasanton 
 -------------------------------------------------------
 A restricted SCF calculation will be
 performed using DIIS
 SCF converges when DIIS error is below 1.0e-08
 ---------------------------------------
  Cycle       Energy         DIIS error
 ---------------------------------------
    1  -14806.1758256571      1.37e-02  
    2  -14782.8824362550      2.54e-03  
    3  -14771.2898676350      4.82e-03  
    4  -14786.7285152385      1.01e-03  
    5  -14787.4953106896      2.04e-04  
    6  -14787.5159169138      1.23e-04  
    7  -14787.5252062204      4.19e-05  
    8  -14787.5264322352      7.78e-06  
    9  -14787.5264714060      3.69e-06  
   10  -14787.5264801675      1.33e-06  
   11  -14787.5264813360      3.87e-07  
   12  -14787.5264814358      1.21e-07  
   13  -14787.5264814456      4.52e-08  
   14  -14787.5264814468      1.95e-08  
   15  -14787.5264814471      5.91e-09  Convergence criterion met
 ---------------------------------------
 SCF time:   CPU 171596.51s  wall 10837.00s 
 SCF   energy in the final basis set =   -14787.5264814471
 Total energy in the final basis set =   -14787.5264814471

****************************************************
             Start embedding calculation            
****************************************************
----------------------------------------------
 Summary of the high-level theory: 
 Exchange:     0.2000 Hartree-Fock + 0.0800 Slater + 0.7200 B88
 Correlation:  0.1900 VWN1RPA + 0.8100 LYP
 Using Euler-Maclaurin-Lebedev (75,302) quadrature formula
----------------------------------------------
Doing R-in-R Embedding Calculation
Number of fragments: 2
Embedded fragment(s): 1 
NOcc for each fragment
           35
          546
NBasis for each fragment
          197
         2392
Variational space of the embedded problem: 
NOcc (active)  = 35
NOcc (fixed)   = 546
NVir (total)   = 2006
Read converged orbitals from disk
=========================================================
       Doing SPADE partition for the orbital space       
     D. CLaudino and N. Mayhall JCTC 15, 1053 (2019)     
=========================================================
SPADE singular values:
 1.0000 1.0000 1.0000 1.0000 1.0000 1.0000 1.0000 1.0000 1.0000 0.9999
 0.9999 0.9998 0.9997 0.9996 0.9995 0.9994 0.9994 0.9991 0.9987 0.9980
 0.9979 0.9972 0.9968 0.9964 0.9955 0.9950 0.9945 0.9941 0.9933 0.9931
 0.9912 0.9908 0.9896 0.9865 0.9813 0.1960 0.1820 0.1601 0.1562 0.1508
 0.1381 0.1277 0.1215 0.1115 0.1042 0.0891 0.0824 0.0809 0.0765 0.0660
 0.0596 0.0553 0.0507 0.0481 0.0438 0.0419 0.0401 0.0375 0.0355 0.0323
 0.0290 0.0268 0.0257 0.0248 0.0236 0.0223 0.0219 0.0204 0.0197 0.0190
 0.0170 0.0160 0.0156 0.0137 0.0135 0.0128 0.0115 0.0106 0.0101 0.0098
 0.0092 0.0089 0.0084 0.0080 0.0072 0.0071 0.0068 0.0064 0.0062 0.0059
 0.0055 0.0054 0.0048 0.0046 0.0044 0.0042 0.0041 0.0038 0.0037 0.0035
 0.0035 0.0032 0.0030 0.0029 0.0028 0.0027 0.0026 0.0025 0.0022 0.0021
 0.0020 0.0020 0.0019 0.0019 0.0018 0.0017 0.0017 0.0016 0.0016 0.0015
 0.0015 0.0014 0.0014 0.0013 0.0012 0.0012 0.0011 0.0011 0.0010 0.0010
 0.0010 0.0009 0.0009 0.0009 0.0008 0.0008 0.0008 0.0007 0.0007 0.0007
 0.0006 0.0006 0.0006 0.0006 0.0005 0.0005 0.0005 0.0004 0.0004 0.0004
 0.0004 0.0004 0.0003 0.0003 0.0003 0.0003 0.0003 0.0003 0.0003 0.0003
 0.0003 0.0002 0.0002 0.0002 0.0002 0.0002 0.0002 0.0002 0.0002 0.0002
 0.0002 0.0002 0.0002 0.0002 0.0002 0.0002 0.0001 0.0001 0.0001 0.0001
 0.0001 0.0001 0.0001 0.0001 0.0001 0.0001 0.0001 0.0001 0.0001 0.0001
 0.0001 0.0001 0.0001 0.0001 0.0001 0.0001 0.0000
Early stop requested!
546 environment occs will be part of frozen-core in future post-HF calculations
 
 --------------------------------------------------------------
 
                    Orbital Energies (a.u.)
 --------------------------------------------------------------
 
 Alpha MOs
 -- Occupied --
 -0.4873  -0.5096  -0.4919  -0.4616  -0.4693  -0.4550  -0.4169  -0.4872
 -0.4535  -0.4750  -0.4412  -0.4531  -0.4437  -0.4389  -0.4403  -0.4561
 -0.5138  -0.4422  -0.5398  -0.5459  -0.5612  -0.4792  -0.4928  -0.5478
 -0.5337  -0.6797  -0.4895  -0.5467  -0.5015  -0.4655  -0.5208  -0.5095
 -0.6013  -0.5850  -0.5688  -0.5373  -0.5521  -0.5782  -0.5600  -0.5613
 -0.5944  -0.5988  -0.5727  -0.5409  -0.5362  -0.6190  -0.5730  -0.6012
 -0.5316  -0.5747  -0.6124  -0.6801  -0.6600  -0.5828  -0.6164  -0.6523
 -0.6023  -0.6455  -0.6163  -0.6626  -0.7669  -0.9401  -0.7491  -0.6108
 -0.7259  -0.6596  -1.0707  -0.7960  -0.7368  -0.8750  -1.0648  -1.1538
 -0.9303  -0.9806  -0.9709  -0.8685  -1.1793  -0.7219  -0.9016  -1.0377
 -0.9021  -1.0993  -0.8665  -0.8401  -1.0747  -1.0850  -0.7961  -0.8860
 -1.0435  -1.0188  -0.9467  -1.0721  -1.0422  -1.0187  -0.9389  -0.9203
 -0.9635  -1.2132  -1.0430  -1.1404  -1.0038  -1.1738  -1.0650  -1.1320
 -1.0174  -1.0069  -0.9992  -1.3245  -1.0281  -1.0103  -1.0115  -1.1683
 -1.0829  -1.2722  -0.9848  -1.0394  -1.1567  -0.9584  -1.3113  -1.3677
 -1.2115  -1.4675  -1.1044  -1.2743  -1.1364  -1.7040  -1.4522  -1.3571
 -1.2333  -1.5465  -1.5874  -1.3450  -1.2825  -1.2197  -1.5120  -1.1495
 -1.6374  -1.4410  -1.3786  -1.3687  -1.6938  -1.4565  -1.5536  -1.8397
 -1.3983  -1.4335  -1.5966  -1.5489  -1.2762  -1.7419  -1.9764  -2.1310
 -1.7026  -1.7659  -1.6199  -1.9276  -1.8796  -1.6991  -1.8609  -1.8681
 -2.2498  -1.9801  -5.8248  -5.9408  -5.9931  -5.9869  -5.9345  -5.9539
 -5.9458  -5.8658  -5.9063  -5.9632  -5.9870  -5.7827  -5.9656  -5.9770
 -5.9641  -5.9734  -5.9775  -5.9734  -5.9744  -5.9631 -46.6049  -2.0557
 -2.7273  -7.3978  -1.2170 -10.9455 -11.5288  -4.8668  -2.2608  -1.8879
 -7.0715  -2.7601  -7.4255  -2.6419  -7.6416  -5.4289 -10.7998  -8.7939
 -3.1271  -2.1221  -4.1882  -1.5253  -8.9443  -1.1197  -1.4675  -4.3837
 -3.4762 -72.2863  -1.9112  -1.6807  -7.0043 -79.1892 -11.9295  -1.1894
 -3.8278  -4.4490  -9.0631  -2.5160  -6.5545  -2.3118  -2.1715  -4.2480
-11.5648  -2.8224  -7.7354  -7.9020  -9.2520  -1.3537  -4.6995  -9.4156
 -1.5748 -13.9308  -1.4508  -8.6308  -3.1257  -0.9709  -1.1450 -49.7418
-33.2406  -1.7661 -57.6523 -27.5319 -15.8406  -8.6774  -3.0305  -4.7636
-11.4045  -4.4338  -1.1897  -1.9022  -5.5849  -7.9199  -2.5487  -4.7070
 -2.0814  -6.2124  -7.8925 -11.9555  -7.7680  -9.9249  -2.4918 -11.9520
 -5.1688 -43.4065 -10.6257 -16.6705  -1.3210  -1.2179 -27.0687 -63.2700
 -5.4642 -10.9936  -3.4223  -5.2081  -5.6419  -9.4825  -3.1151  -3.9247
 -6.5212  -2.4877  -2.8058  -1.7713  -3.1135  -5.3981  -5.1659 -10.4307
 -8.4676  -5.7715 -54.9080  -2.4255 -10.6808  -3.4329 -55.6877 -57.2515
 -1.0067  -1.5753  -6.4555  -7.2549  -1.4507  -4.7192  -8.3783  -1.8645
 -2.3698  -0.8450 -11.7329 -18.4663 -29.0808  -6.8987  -8.3861  -3.8039
-26.4473  -9.5692  -7.1588  -6.5487  -2.6035  -9.6588  -6.4159  -6.5952
 -4.1321  -4.1189  -6.1191 -11.8512  -8.7958 -19.5840  -9.5913  -6.4814
 -8.3128 -16.4749  -5.8205  -6.1959  -6.4307 -22.4167 -12.8269  -4.6512
-16.5287  -6.0121  -7.1351  -6.2077  -5.4674  -4.0443  -8.6552  -3.5998
 -8.0023  -4.5142  -5.6169  -5.9706  -7.8764 -15.0884  -8.5310  -5.7791
 -5.9382 -10.2993  -4.9643  -9.1961  -6.0014  -8.2798 -11.8886  -8.7560
 -9.2950  -3.6227  -6.1075  -4.3093  -8.2296  -9.6355  -7.9966 -11.5711
-17.8089  -9.4035  -4.6896  -9.6141  -7.1931 -19.7063  -7.3499  -3.8840
 -9.7853  -3.9528  -8.8746 -11.2561  -4.2178 -19.4349 -23.3056  -4.7201
 -6.8099  -8.1109 -12.4756  -6.1975  -3.8138  -8.6472  -4.1702  -3.6094
 -2.0235  -5.8930 -11.9396 -17.8523  -7.5733  -4.1475  -3.2611  -6.1524
-38.7577  -3.7393  -3.2838  -2.6602  -1.8191  -7.7354  -4.6500  -4.4667
 -6.3551  -1.9279  -6.0919  -6.6148  -6.6924  -6.8458  -7.1522 -11.1131
 -7.8150  -5.7840  -8.6931 -17.9783  -8.4239 -19.9359  -6.2232  -4.4429
 -1.8193  -6.2793  -7.2169  -5.5448  -9.2689  -5.6776  -2.7305  -7.3201
 -7.8577 -11.8661 -12.7382 -15.2066  -7.7908 -11.0598 -11.6171  -3.3311
 -3.1407 -44.2831  -6.0656  -6.4466  -7.7164  -5.7744  -9.7043 -10.2634
-44.9225  -1.3256 -10.2646  -8.3590 -11.5511  -9.0853  -5.5253  -5.5113
-10.1391 -12.4768 -10.7274  -7.3736  -9.6887  -3.8590 -29.2766 -11.0764
-11.1279 -28.7478  -3.8330  -9.1386  -5.4117  -8.4717 -18.7972  -7.4632
 -9.5334  -8.7218  -7.9262  -9.0002 -10.8431 -12.9741 -13.5141 -12.3471
-10.2099  -1.2451 -23.5610  -8.0798 -47.0423 -72.0485 -11.4007  -4.5780
 -4.6571 -76.3454 -70.8367  -2.2275 -77.7969 -23.3992  -4.2535  -1.3744
-12.2093  -6.3493 -17.5791  -6.9891  -8.1698  -9.6029 -39.7043 -10.6217
-13.4435 -11.7469 -16.0841  -8.7593  -6.6350  -5.2229 -11.3778  -4.6096
 -4.8401  -8.6408  -5.6218 -27.0033  -3.0669 -69.6492  -3.8824 -10.2923
-20.4393 -17.4646  -5.7142  -4.1574  -7.7164  -5.9133  -7.6077  -8.8181
-10.3438 -11.5629 -10.2026  -8.7470 -13.3404 -13.0562 -11.2888 -13.8234
-15.4390  -6.0463 -29.0418 -10.4887  -3.9176  -9.9667  -4.9473  -5.1464
-10.4967 -10.3912 -12.4519 -12.2586 -10.1813 -10.4996 -15.3060 -10.7394
-10.5088 -11.0280 -11.2295  -0.8200  -0.5909  -0.6790  -0.8089  -0.8473
 -0.6836  -0.7001  -0.8170  -0.4135  -0.4661  -0.4668  -0.4454  -0.4486
 -0.5146  -0.4440  -0.4456  -0.4022  -0.4212  -0.4075  -0.4565  -0.3727
 -0.4474  -0.4144  -0.4352  -0.5481  -0.5369
 -- Virtual --
 -0.0355  -0.0319  -0.0303  -0.0278  -0.0257  -0.0241  -0.0219  -0.0197
 -0.0174  -0.0147  -0.0140  -0.0130  -0.0120  -0.0100  -0.0093  -0.0078
 -0.0074  -0.0057  -0.0050  -0.0045  -0.0036  -0.0035  -0.0019  -0.0014
 -0.0006   0.0003   0.0006   0.0006   0.0020   0.0033   0.0038   0.0043
  0.0044   0.0063   0.0066   0.0073   0.0079   0.0080   0.0088   0.0101
  0.0110   0.0114   0.0118   0.0122   0.0140   0.0145   0.0151   0.0157
  0.0166   0.0176   0.0184   0.0187   0.0195   0.0203   0.0207   0.0219
  0.0225   0.0232   0.0239   0.0247   0.0251   0.0258   0.0267   0.0274
  0.0282   0.0283   0.0296   0.0300   0.0305   0.0316   0.0319   0.0324
  0.0332   0.0343   0.0344   0.0354   0.0362   0.0369   0.0372   0.0376
  0.0387   0.0390   0.0398   0.0401   0.0409   0.0411   0.0423   0.0431
  0.0432   0.0438   0.0445   0.0447   0.0459   0.0461   0.0466   0.0468
  0.0479   0.0484   0.0499   0.0504   0.0509   0.0514   0.0520   0.0530
  0.0531   0.0537   0.0553   0.0559   0.0565   0.0569   0.0575   0.0584
  0.0587   0.0594   0.0600   0.0604   0.0610   0.0620   0.0626   0.0631
  0.0632   0.0646   0.0648   0.0656   0.0660   0.0664   0.0680   0.0686
  0.0695   0.0703   0.0706   0.0708   0.0712   0.0721   0.0733   0.0745
  0.0748   0.0754   0.0757   0.0760   0.0769   0.0778   0.0779   0.0797
  0.0800   0.0810   0.0818   0.0820   0.0824   0.0833   0.0841   0.0848
  0.0852   0.0856   0.0868   0.0873   0.0878   0.0886   0.0890   0.0893
  0.0898   0.0912   0.0917   0.0931   0.0936   0.0942   0.0950   0.0954
  0.0958   0.0962   0.0972   0.0976   0.0980   0.0987   0.0993   0.1001
  0.1012   0.1018   0.1025   0.1030   0.1038   0.1039   0.1055   0.1057
  0.1060   0.1073   0.1078   0.1088   0.1089   0.1095   0.1100   0.1109
  0.1113   0.1118   0.1129   0.1131   0.1138   0.1144   0.1146   0.1151
  0.1158   0.1163   0.1168   0.1175   0.1184   0.1187   0.1192   0.1198
  0.1206   0.1212   0.1216   0.1219   0.1226   0.1231   0.1241   0.1249
  0.1251   0.1260   0.1265   0.1271   0.1284   0.1289   0.1293   0.1303
  0.1305   0.1308   0.1319   0.1325   0.1331   0.1343   0.1347   0.1360
  0.1363   0.1367   0.1369   0.1373   0.1382   0.1388   0.1402   0.1408
  0.1411   0.1415   0.1419   0.1427   0.1433   0.1438   0.1446   0.1456
  0.1461   0.1473   0.1476   0.1484   0.1485   0.1492   0.1501   0.1513
  0.1515   0.1518   0.1525   0.1539   0.1541   0.1547   0.1550   0.1553
  0.1565   0.1568   0.1574   0.1577   0.1581   0.1587   0.1596   0.1607
  0.1619   0.1622   0.1628   0.1636   0.1640   0.1642   0.1648   0.1654
  0.1657   0.1665   0.1670   0.1676   0.1677   0.1692   0.1696   0.1697
  0.1709   0.1712   0.1715   0.1726   0.1737   0.1741   0.1745   0.1758
  0.1768   0.1770   0.1774   0.1783   0.1786   0.1793   0.1800   0.1805
  0.1812   0.1819   0.1821   0.1827   0.1831   0.1843   0.1850   0.1850
  0.1856   0.1861   0.1866   0.1875   0.1885   0.1890   0.1896   0.1905
  0.1908   0.1920   0.1922   0.1932   0.1937   0.1938   0.1945   0.1947
  0.1960   0.1963   0.1969   0.1978   0.1982   0.1985   0.1991   0.1997
  0.2003   0.2010   0.2018   0.2025   0.2033   0.2039   0.2050   0.2054
  0.2063   0.2066   0.2071   0.2074   0.2076   0.2084   0.2092   0.2096
  0.2105   0.2109   0.2119   0.2125   0.2130   0.2133   0.2143   0.2148
  0.2152   0.2160   0.2165   0.2170   0.2178   0.2184   0.2192   0.2194
  0.2207   0.2208   0.2224   0.2228   0.2230   0.2238   0.2245   0.2254
  0.2257   0.2268   0.2275   0.2278   0.2287   0.2288   0.2298   0.2302
  0.2313   0.2316   0.2327   0.2339   0.2344   0.2347   0.2354   0.2359
  0.2365   0.2376   0.2379   0.2386   0.2392   0.2395   0.2403   0.2416
  0.2419   0.2426   0.2441   0.2446   0.2452   0.2467   0.2470   0.2472
  0.2485   0.2491   0.2493   0.2502   0.2504   0.2509   0.2524   0.2531
  0.2531   0.2542   0.2556   0.2558   0.2571   0.2580   0.2588   0.2591
  0.2601   0.2603   0.2610   0.2617   0.2623   0.2630   0.2642   0.2645
  0.2656   0.2667   0.2676   0.2682   0.2687   0.2695   0.2706   0.2713
  0.2720   0.2725   0.2730   0.2737   0.2747   0.2753   0.2763   0.2773
  0.2784   0.2790   0.2793   0.2798   0.2802   0.2825   0.2829   0.2841
  0.2847   0.2856   0.2860   0.2862   0.2874   0.2882   0.2891   0.2900
  0.2909   0.2917   0.2926   0.2928   0.2936   0.2949   0.2957   0.2962
  0.2965   0.2980   0.2986   0.2992   0.3007   0.3012   0.3015   0.3026
  0.3035   0.3041   0.3054   0.3057   0.3067   0.3071   0.3082   0.3084
  0.3095   0.3102   0.3114   0.3124   0.3135   0.3152   0.3154   0.3165
  0.3169   0.3183   0.3189   0.3191   0.3199   0.3206   0.3214   0.3222
  0.3233   0.3241   0.3244   0.3250   0.3258   0.3266   0.3273   0.3284
  0.3294   0.3301   0.3308   0.3315   0.3327   0.3334   0.3344   0.3350
  0.3360   0.3362   0.3370   0.3377   0.3383   0.3403   0.3407   0.3409
  0.3415   0.3431   0.3433   0.3448   0.3463   0.3469   0.3476   0.3481
  0.3495   0.3505   0.3507   0.3517   0.3520   0.3529   0.3535   0.3552
  0.3569   0.3579   0.3587   0.3594   0.3607   0.3612   0.3626   0.3643
  0.3643   0.3657   0.3663   0.3671   0.3681   0.3683   0.3691   0.3698
  0.3711   0.3727   0.3732   0.3740   0.3751   0.3757   0.3768   0.3771
  0.3787   0.3796   0.3813   0.3815   0.3819   0.3832   0.3838   0.3843
  0.3848   0.3856   0.3866   0.3875   0.3876   0.3897   0.3900   0.3921
  0.3929   0.3935   0.3939   0.3946   0.3957   0.3972   0.3985   0.4004
  0.4013   0.4018   0.4024   0.4032   0.4049   0.4058   0.4061   0.4076
  0.4081   0.4084   0.4097   0.4107   0.4126   0.4133   0.4143   0.4153
  0.4159   0.4167   0.4174   0.4182   0.4191   0.4201   0.4219   0.4221
  0.4234   0.4239   0.4246   0.4258   0.4268   0.4277   0.4304   0.4319
  0.4321   0.4328   0.4342   0.4347   0.4357   0.4368   0.4385   0.4395
  0.4399   0.4403   0.4414   0.4434   0.4443   0.4448   0.4462   0.4480
  0.4490   0.4501   0.4510   0.4513   0.4528   0.4543   0.4545   0.4559
  0.4581   0.4583   0.4604   0.4621   0.4627   0.4637   0.4649   0.4657
  0.4682   0.4686   0.4705   0.4711   0.4714   0.4739   0.4745   0.4770
  0.4785   0.4786   0.4798   0.4816   0.4832   0.4835   0.4842   0.4859
  0.4864   0.4905   0.4909   0.4915   0.4943   0.4951   0.4975   0.4977
  0.5006   0.5024   0.5046   0.5061   0.5071   0.5078   0.5094   0.5107
  0.5134   0.5161   0.5163   0.5176   0.5200   0.5210   0.5220   0.5230
  0.5268   0.5293   0.5331   0.5335   0.5343   0.5369   0.5386   0.5409
  0.5430   0.5438   0.5443   0.5457   0.5475   0.5487   0.5496   0.5513
  0.5530   0.5544   0.5552   0.5554   0.5565   0.5594   0.5614   0.5622
  0.5627   0.5652   0.5689   0.5698   0.5706   0.5717   0.5725   0.5747
  0.5761   0.5770   0.5781   0.5791   0.5809   0.5816   0.5822   0.5851
  0.5854   0.5868   0.5883   0.5893   0.5912   0.5922   0.5932   0.5943
  0.5959   0.5974   0.5994   0.6009   0.6025   0.6045   0.6046   0.6053
  0.6087   0.6100   0.6122   0.6143   0.6159   0.6163   0.6174   0.6194
  0.6203   0.6222   0.6232   0.6242   0.6252   0.6267   0.6284   0.6292
  0.6294   0.6306   0.6319   0.6351   0.6361   0.6362   0.6378   0.6381
  0.6394   0.6405   0.6411   0.6419   0.6436   0.6441   0.6458   0.6464
  0.6483   0.6501   0.6505   0.6535   0.6541   0.6545   0.6566   0.6576
  0.6578   0.6589   0.6591   0.6606   0.6621   0.6630   0.6637   0.6653
  0.6669   0.6680   0.6695   0.6715   0.6723   0.6744   0.6750   0.6758
  0.6770   0.6781   0.6787   0.6794   0.6820   0.6824   0.6831   0.6862
  0.6864   0.6878   0.6886   0.6889   0.6896   0.6919   0.6926   0.6941
  0.6948   0.6956   0.6987   0.6991   0.6997   0.7017   0.7018   0.7036
  0.7043   0.7049   0.7062   0.7085   0.7107   0.7119   0.7130   0.7138
  0.7148   0.7174   0.7181   0.7195   0.7213   0.7220   0.7249   0.7270
  0.7286   0.7288   0.7315   0.7318   0.7338   0.7341   0.7362   0.7373
  0.7391   0.7412   0.7425   0.7435   0.7443   0.7485   0.7487   0.7500
  0.7515   0.7527   0.7536   0.7558   0.7566   0.7579   0.7594   0.7603
  0.7623   0.7635   0.7664   0.7667   0.7673   0.7690   0.7718   0.7730
  0.7739   0.7751   0.7764   0.7793   0.7811   0.7831   0.7842   0.7861
  0.7882   0.7895   0.7900   0.7917   0.7922   0.7926   0.7953   0.7966
  0.7977   0.7993   0.7998   0.8017   0.8029   0.8042   0.8060   0.8075
  0.8081   0.8094   0.8118   0.8139   0.8151   0.8155   0.8173   0.8183
  0.8207   0.8221   0.8255   0.8260   0.8270   0.8278   0.8292   0.8311
  0.8316   0.8320   0.8330   0.8344   0.8363   0.8374   0.8390   0.8406
  0.8415   0.8429   0.8436   0.8457   0.8470   0.8477   0.8495   0.8514
  0.8530   0.8543   0.8553   0.8555   0.8579   0.8586   0.8590   0.8600
  0.8612   0.8614   0.8636   0.8658   0.8676   0.8684   0.8701   0.8713
  0.8737   0.8747   0.8759   0.8765   0.8780   0.8787   0.8794   0.8822
  0.8831   0.8848   0.8858   0.8861   0.8886   0.8888   0.8893   0.8922
  0.8927   0.8943   0.8965   0.8970   0.8982   0.8994   0.9003   0.9013
  0.9021   0.9037   0.9051   0.9058   0.9071   0.9099   0.9102   0.9113
  0.9135   0.9158   0.9163   0.9179   0.9192   0.9202   0.9221   0.9229
  0.9238   0.9254   0.9260   0.9271   0.9290   0.9303   0.9318   0.9330
  0.9342   0.9348   0.9361   0.9376   0.9390   0.9394   0.9412   0.9420
  0.9426   0.9446   0.9458   0.9468   0.9472   0.9479   0.9492   0.9498
  0.9518   0.9525   0.9533   0.9545   0.9563   0.9577   0.9594   0.9603
  0.9618   0.9631   0.9638   0.9648   0.9656   0.9685   0.9690   0.9703
  0.9713   0.9720   0.9727   0.9740   0.9760   0.9767   0.9785   0.9792
  0.9795   0.9810   0.9823   0.9831   0.9846   0.9853   0.9862   0.9877
  0.9895   0.9902   0.9904   0.9918   0.9935   0.9940   0.9957   0.9971
  0.9977   0.9985   1.0004   1.0007   1.0029   1.0045   1.0049   1.0050
  1.0071   1.0075   1.0090   1.0100   1.0102   1.0121   1.0126   1.0137
  1.0155   1.0179   1.0180   1.0192   1.0205   1.0215   1.0233   1.0239
  1.0246   1.0256   1.0263   1.0274   1.0291   1.0312   1.0317   1.0320
  1.0341   1.0342   1.0356   1.0372   1.0387   1.0399   1.0407   1.0421
  1.0438   1.0448   1.0468   1.0470   1.0477   1.0486   1.0504   1.0512
  1.0534   1.0543   1.0566   1.0570   1.0589   1.0603   1.0606   1.0630
  1.0633   1.0654   1.0663   1.0683   1.0691   1.0701   1.0708   1.0718
  1.0729   1.0756   1.0771   1.0785   1.0800   1.0808   1.0816   1.0830
  1.0839   1.0862   1.0876   1.0895   1.0909   1.0919   1.0934   1.0945
  1.0955   1.0961   1.0999   1.1010   1.1024   1.1028   1.1038   1.1057
  1.1079   1.1087   1.1105   1.1112   1.1145   1.1149   1.1165   1.1190
  1.1203   1.1214   1.1222   1.1225   1.1247   1.1266   1.1276   1.1294
  1.1314   1.1326   1.1336   1.1358   1.1367   1.1377   1.1380   1.1405
  1.1417   1.1427   1.1446   1.1453   1.1463   1.1479   1.1489   1.1505
  1.1517   1.1532   1.1542   1.1550   1.1558   1.1578   1.1593   1.1607
  1.1621   1.1627   1.1638   1.1670   1.1690   1.1693   1.1706   1.1714
  1.1730   1.1750   1.1763   1.1775   1.1788   1.1808   1.1823   1.1837
  1.1851   1.1863   1.1873   1.1920   1.1925   1.1941   1.1944   1.1963
  1.1980   1.1997   1.2006   1.2015   1.2047   1.2060   1.2082   1.2105
  1.2119   1.2133   1.2151   1.2160   1.2169   1.2184   1.2198   1.2222
  1.2234   1.2254   1.2274   1.2299   1.2317   1.2347   1.2373   1.2388
  1.2399   1.2412   1.2423   1.2457   1.2461   1.2471   1.2508   1.2520
  1.2537   1.2574   1.2581   1.2597   1.2635   1.2651   1.2663   1.2710
  1.2717   1.2736   1.2745   1.2765   1.2802   1.2823   1.2841   1.2869
  1.2936   1.2944   1.2952   1.2961   1.2979   1.3044   1.3066   1.3097
  1.3116   1.3137   1.3142   1.3163   1.3173   1.3184   1.3210   1.3221
  1.3262   1.3277   1.3300   1.3308   1.3333   1.3347   1.3356   1.3386
  1.3409   1.3431   1.3448   1.3470   1.3490   1.3510   1.3528   1.3535
  1.3551   1.3565   1.3584   1.3625   1.3636   1.3640   1.3669   1.3676
  1.3681   1.3698   1.3720   1.3729   1.3735   1.3762   1.3779   1.3794
  1.3818   1.3829   1.3851   1.3876   1.3890   1.3909   1.3911   1.3921
  1.3939   1.3956   1.3973   1.3999   1.4008   1.4021   1.4029   1.4035
  1.4046   1.4074   1.4082   1.4089   1.4111   1.4140   1.4142   1.4162
  1.4188   1.4204   1.4219   1.4227   1.4252   1.4258   1.4273   1.4282
  1.4301   1.4328   1.4339   1.4348   1.4363   1.4371   1.4381   1.4394
  1.4403   1.4422   1.4436   1.4441   1.4452   1.4497   1.4505   1.4517
  1.4534   1.4558   1.4567   1.4575   1.4608   1.4612   1.4652   1.4664
  1.4670   1.4685   1.4697   1.4732   1.4757   1.4765   1.4815   1.4823
  1.4850   1.4861   1.4868   1.4903   1.4919   1.4938   1.4948   1.4977
  1.4990   1.5014   1.5034   1.5047   1.5062   1.5077   1.5109   1.5113
  1.5149   1.5196   1.5216   1.5229   1.5239   1.5247   1.5296   1.5303
  1.5307   1.5360   1.5376   1.5395   1.5452   1.5478   1.5492   1.5528
  1.5549   1.5585   1.5593   1.5628   1.5674   1.5690   1.5718   1.5751
  1.5803   1.5818   1.5864   1.5883   1.5908   1.5910   1.5964   1.6014
  1.6041   1.6104   1.6116   1.6134   1.6154   1.6239   1.6268   1.6316
  1.6371   1.6387   1.6415   1.6454   1.6471   1.6486   1.6525   1.6567
  1.6655   1.6671   1.6676   1.6701   1.6715   1.6742   1.6771   1.6789
  1.6798   1.6804   1.6810   1.6819   1.6836   1.6845   1.6858   1.6863
  1.6879   1.6903   1.6919   1.6930   1.6933   1.6948   1.6965   1.6983
  1.6998   1.7006   1.7015   1.7031   1.7036   1.7046   1.7060   1.7070
  1.7079   1.7096   1.7110   1.7128   1.7136   1.7147   1.7154   1.7183
  1.7197   1.7201   1.7212   1.7222   1.7232   1.7245   1.7267   1.7281
  1.7294   1.7307   1.7329   1.7341   1.7350   1.7375   1.7388   1.7400
  1.7414   1.7420   1.7432   1.7439   1.7453   1.7459   1.7472   1.7482
  1.7495   1.7522   1.7536   1.7544   1.7578   1.7581   1.7599   1.7612
  1.7621   1.7634   1.7653   1.7661   1.7676   1.7682   1.7705   1.7711
  1.7733   1.7749   1.7764   1.7786   1.7803   1.7827   1.7841   1.7870
  1.7893   1.7901   1.7913   1.7921   1.7937   1.7957   1.7979   1.7981
  1.8014   1.8021   1.8062   1.8075   1.8111   1.8117   1.8132   1.8156
  1.8181   1.8199   1.8284   1.8323   1.8343   1.8377   1.8423   1.8442
  1.8454   1.8514   1.8531   1.8560   1.8572   1.8599   1.8616   1.8651
  1.8678   1.8684   1.8708   1.8721   1.8745   1.8758   1.8772   1.8796
  1.8811   1.8825   1.8832   1.8848   1.8863   1.8868   1.8876   1.8890
  1.8895   1.8899   1.8906   1.8919   1.8935   1.8963   1.8978   1.8994
  1.9005   1.9024   1.9031   1.9041   1.9070   1.9072   1.9084   1.9098
  1.9103   1.9114   1.9117   1.9133   1.9152   1.9173   1.9177   1.9183
  1.9190   1.9200   1.9217   1.9237   1.9259   1.9276   1.9289   1.9297
  1.9304   1.9318   1.9336   1.9355   1.9374   1.9406   1.9418   1.9437
  1.9444   1.9472   1.9508   1.9526   1.9569   1.9573   1.9632   1.9646
  1.9707   1.9732   1.9846   1.9883   1.9902   1.9993   2.0065   2.0153
  2.0192   2.0231   2.0276   2.0338   2.0370   2.0405   2.0433   2.0452
  2.0478   2.0488   2.0562   2.0584   2.0590   2.0602   2.0639   2.0649
  2.0663   2.0671   2.0677   2.0681   2.0692   2.0707   2.0709   2.0734
  2.0744   2.0751   2.0780   2.0783   2.0789   2.0814   2.0841   2.0855
  2.0865   2.0878   2.0894   2.0912   2.0967   2.0999   2.1023   2.1031
  2.1052   2.1061   2.1075   2.1092   2.1107   2.1128   2.1145   2.1162
  2.1177   2.1181   2.1190   2.1226   2.1267   2.1306   2.1330   2.1331
  2.1370   2.1393   2.1430   2.1472   2.1477   2.1541   2.1552   2.1619
  2.1779   2.1816   2.1843   2.1896   2.1906   2.1912   2.1922   2.1932
  2.1956   2.1969   2.1994   2.2019   2.2028   2.2033   2.2042   2.2065
  2.2078   2.2094   2.2109   2.2131   2.2160   2.2175   2.2198   2.2216
  2.2251   2.2259   2.2275   2.2286   2.2298   2.2300   2.2311   2.2321
  2.2325   2.2341   2.2360   2.2385   2.2390   2.2399   2.2418   2.2438
  2.2451   2.2471   2.2476   2.2502   2.2515   2.2526   2.2534   2.2548
  2.2567   2.2584   2.2599   2.2605   2.2617   2.2626   2.2629   2.2635
  2.2646   2.2655   2.2657   2.2663   2.2674   2.2675   2.2682   2.2687
  2.2702   2.2717   2.2726   2.2733   2.2741   2.2744   2.2759   2.2764
  2.2772   2.2786   2.2795   2.2799   2.2813   2.2816   2.2833   2.2840
  2.2841   2.2851   2.2865   2.2879   2.2891   2.2897   2.2921   2.2925
  2.2933   2.2944   2.2955   2.2955   2.2961   2.2980   2.2996   2.3019
  2.3023   2.3039   2.3053   2.3057   2.3066   2.3070   2.3085   2.3087
  2.3100   2.3119   2.3141   2.3145   2.3151   2.3162   2.3178   2.3188
  2.3195   2.3199   2.3206   2.3229   2.3233   2.3262   2.3269   2.3285
  2.3287   2.3296   2.3302   2.3316   2.3338   2.3343   2.3346   2.3352
  2.3367   2.3392   2.3414   2.3429   2.3448   2.3479   2.3496   2.3502
  2.3524   2.3533   2.3536   2.3572   2.3594   2.3629   2.3638   2.3645
  2.3659   2.3675   2.3682   2.3692   2.3725   2.3757   2.3798   2.3823
  2.3876   2.3932   2.3941   2.3959   2.3989   2.4026   2.4047   2.4069
  2.4097   2.4223   2.4352   2.4679   2.4966   2.5189   2.5359   2.5606
  2.6435   2.7273   2.7753   2.7933   2.8097   2.8178   2.8195   2.8268
  2.8335   2.8358   2.8412   2.8427   2.8442   2.8453   2.8476   2.8480
  2.8503   2.8549   2.8552   2.8579   2.8588   2.8612   2.8629   2.8651
  2.8659   2.8691   2.8727   2.8754   2.8769   2.8822   2.8850   2.8989
  2.9002   2.9082   2.9424   3.1030   3.2271   3.9468   3.9488   3.9591
  3.9625   3.9686   3.9705   3.9731   3.9742   3.9758   3.9792   3.9808
  3.9839   3.9880   3.9937   3.9941   3.9954   3.9982   4.0000   4.0087
  4.0098   4.0140   4.0187   4.0244   4.0291   4.0333   4.0408   4.2005
  4.2086   4.2153   4.2223   4.2271   4.2295   4.2336   4.2366   4.2443
  4.2472   4.2530   4.2537   4.2618   4.2634   4.2646   4.2667   4.2703
  4.2729   4.2762   4.2810   4.2816   4.2838   4.2883   4.2889   4.2904
  4.2917   4.2927   4.2956   4.2970   4.2987   4.3016   4.3043   4.3088
  4.3101   4.3129   4.3163   4.3195   4.3264   4.3281   4.3301   4.3321
  4.3350   4.3365   4.3385   4.3414   4.3437   4.3449   4.3498   4.3505
  4.3535   4.3574   4.3628   4.3680   4.3725   4.3739   4.3774   4.3800
  4.3812   4.3867   4.3900   4.4001   4.4008   4.4028   4.4060   4.4133
  4.4177   4.4185   4.4266   4.4334   4.4403   4.4470   4.4544   4.4872
  4.4987   4.5082   4.5156   4.5319   4.5395   4.5430   4.5575   4.5892
  4.6253   4.6856   4.7171   4.7368   4.7472   4.8970
 --------------------------------------------------------------
 
          Ground-State Mulliken Net Atomic Charges

     Atom                 Charge (a.u.)
  ----------------------------------------
      1 C                    -0.190519
      2 C                    -0.548789
      3 C                     0.082453
      4 C                     0.190117
      5 C                    -0.733829
      6 C                    -1.180752
      7 H                     0.227736
      8 H                     0.232777
      9 H                     0.212045
     10 H                     0.211776
     11 H                     0.222744
     12 H                     0.229531
     13 H                     0.215487
     14 H                     0.194868
     15 H                     0.181339
     16 H                     0.245091
     17 H                     0.221558
     18 N                     0.164658
     19 H                     0.442063
     20 C                    -0.605619
     21 H                     0.168661
     22 O                    -0.229410
     23 C                    -0.897489
     24 H                     0.264148
     25 H                     0.265209
     26 H                     0.237139
     27 S                     0.980347
     28 C                    -0.990104
     29 H                     0.252320
     30 H                     0.275438
     31 H                     0.225287
     32 O                    -0.664128
     33 C                    -0.802471
     34 H                     0.247630
     35 H                     0.240755
     36 H                     0.263940
     37 S                     0.836950
     38 C                    -0.784045
     39 H                     0.244419
     40 H                     0.256215
     41 H                     0.239178
     42 O                    -0.735161
     43 C                    -1.006241
     44 H                     0.295863
     45 H                     0.272180
     46 H                     0.262879
     47 S                     1.074828
     48 C                    -0.938203
     49 H                     0.251242
     50 H                     0.267115
     51 H                     0.205481
     52 O                    -0.718319
     53 C                    -0.759010
     54 H                     0.239598
     55 H                     0.229327
     56 H                     0.272479
     57 S                     0.307787
     58 C                    -0.525915
     59 H                     0.258040
     60 H                     0.288862
     61 H                     0.271300
     62 O                    -0.524836
     63 C                    -1.135516
     64 H                     0.304984
     65 H                     0.235691
     66 H                     0.265037
     67 S                     0.634474
     68 C                    -0.646670
     69 H                     0.282826
     70 H                     0.227525
     71 H                     0.219405
     72 O                    -0.464526
     73 C                    -0.744818
     74 H                     0.275986
     75 H                     0.245956
     76 H                     0.272314
     77 S                     0.811511
     78 C                    -0.850392
     79 H                     0.278829
     80 H                     0.247727
     81 H                     0.246821
     82 O                    -0.679755
     83 C                    -0.698516
     84 H                     0.255989
     85 H                     0.241254
     86 H                     0.304228
     87 S                     0.503964
     88 C                    -0.833173
     89 H                     0.254585
     90 H                     0.250227
     91 H                     0.234149
     92 O                    -0.586454
     93 C                    -1.017984
     94 H                     0.329823
     95 H                     0.234925
     96 H                     0.264212
     97 S                     1.260579
     98 C                    -1.127364
     99 H                     0.238585
    100 H                     0.254783
    101 H                     0.317780
    102 O                    -0.689098
    103 C                    -0.914890
    104 H                     0.260450
    105 H                     0.231943
    106 H                     0.243919
    107 S                     1.029384
    108 C                    -1.000609
    109 H                     0.243205
    110 H                     0.273937
    111 H                     0.246323
    112 O                    -0.637507
    113 C                    -0.845880
    114 H                     0.237939
    115 H                     0.270781
    116 H                     0.314623
    117 S                     0.893261
    118 C                    -0.977023
    119 H                     0.240965
    120 H                     0.248732
    121 H                     0.270285
    122 O                    -0.682813
    123 C                    -0.943734
    124 H                     0.245582
    125 H                     0.255064
    126 H                     0.259133
    127 S                     1.132810
    128 C                    -0.963976
    129 H                     0.229000
    130 H                     0.259842
    131 H                     0.248011
    132 O                    -0.689696
    133 C                    -0.936756
    134 H                     0.280379
    135 H                     0.230558
    136 H                     0.278667
    137 S                     1.108915
    138 C                    -1.176627
    139 H                     0.275130
    140 H                     0.253021
    141 H                     0.246093
    142 O                    -0.571634
    143 C                    -0.985403
    144 H                     0.310057
    145 H                     0.196769
    146 H                     0.297688
    147 S                     1.071605
    148 C                    -0.819655
    149 H                     0.204525
    150 H                     0.253227
    151 H                     0.258774
    152 O                    -0.781998
    153 C                    -1.031064
    154 H                     0.261392
    155 H                     0.235882
    156 H                     0.293681
    157 S                     1.047950
    158 C                    -0.990259
    159 H                     0.263771
    160 H                     0.268569
    161 H                     0.254218
    162 O                    -0.614356
    163 C                    -0.783522
    164 H                     0.251068
    165 H                     0.263934
    166 H                     0.243363
    167 S                     0.928554
    168 C                    -0.799423
    169 H                     0.253798
    170 H                     0.246605
    171 H                     0.239084
    172 O                    -0.809825
    173 C                    -1.037428
    174 H                     0.317683
    175 H                     0.271486
    176 H                     0.300805
    177 S                     0.965497
    178 C                    -0.936812
    179 H                     0.239730
    180 H                     0.255451
    181 H                     0.287184
    182 O                    -0.654816
    183 C                    -0.807420
    184 H                     0.265305
    185 H                     0.285862
    186 H                     0.282308
    187 S                     0.722598
    188 C                    -0.865749
    189 H                     0.286286
    190 H                     0.234511
    191 H                     0.264869
    192 O                    -0.708694
    193 C                    -0.877159
    194 H                     0.311373
    195 H                     0.275665
    196 H                     0.232595
    197 S                     0.800927
    198 C                    -0.848107
    199 H                     0.236910
    200 H                     0.292964
    201 H                     0.223541
    202 O                    -0.635032
    203 C                    -0.762442
    204 H                     0.270015
    205 H                     0.288501
    206 H                     0.247462
    207 S                     0.457834
    208 C                    -0.769870
    209 H                     0.226130
    210 H                     0.288773
    211 H                     0.276474
    212 O                    -0.593451
    213 C                    -0.806807
    214 H                     0.228032
    215 H                     0.267443
    216 H                     0.262127
    217 S                     0.846725
    218 C                    -0.914810
    219 H                     0.325713
    220 H                     0.228712
    221 H                     0.248381
    222 O                    -0.637252
    223 C                    -0.744550
    224 H                     0.246889
    225 H                     0.233993
    226 H                     0.248161
    227 S                     0.825594
    228 C                    -0.804767
    229 H                     0.237118
    230 H                     0.256292
    231 H                     0.237283
    232 O                    -0.643726
    233 C                    -0.769145
    234 H                     0.281881
    235 H                     0.266006
    236 H                     0.280937
    237 S                     0.578623
    238 C                    -0.810295
    239 H                     0.248272
    240 H                     0.300526
    241 H                     0.262968
    242 O                    -0.655476
    243 C                    -0.934012
    244 H                     0.262385
    245 H                     0.241371
    246 H                     0.248525
    247 S                     0.985113
    248 C                    -0.826067
    249 H                     0.250076
    250 H                     0.257626
    251 H                     0.274712
    252 O                    -0.686453
    253 C                    -0.931057
    254 H                     0.248134
    255 H                     0.277559
    256 H                     0.279302
    257 S                     0.733372
    258 C                    -0.761388
    259 H                     0.228290
    260 H                     0.239843
    261 H                     0.247227
    262 O                    -0.699428
    263 C                    -1.002226
    264 H                     0.216949
    265 H                     0.283051
    266 H                     0.261575
    267 S                     1.200618
    268 C                    -0.943483
    269 H                     0.227241
    270 H                     0.269752
    271 H                     0.271798
    272 O                    -0.726205
    273 C                    -0.867633
    274 H                     0.246938
    275 H                     0.226340
    276 H                     0.251275
    277 S                     0.981164
    278 C                    -0.920265
    279 H                     0.283965
    280 H                     0.253842
    281 H                     0.261604
    282 O                    -0.697776
  ----------------------------------------
  Sum of atomic charges =     0.000000

 -----------------------------------------------------------------
                    Cartesian Multipole Moments
 -----------------------------------------------------------------
    Charge (ESU x 10^10)
                 0.0000
    Dipole Moment (Debye)
         X      -5.7994      Y       3.7592      Z      10.6262
       Tot      12.6760
    Quadrupole Moments (Debye-Ang)
        XX   -1151.3864     XY    -152.0665     YY    -884.9491
        XZ      85.7937     YZ     217.9242     ZZ    -295.4370
    Octopole Moments (Debye-Ang^2)
       XXX  -79269.0418    XXY  -29273.5050    XYY  -31799.3655
       YYY  -63988.8450    XXZ  -23941.0837    XYZ   -1233.4067
       YYZ  -23304.1234    XZZ  -13082.6674    YZZ   -9788.4065
       ZZZ  -44718.0790
    Hexadecapole Moments (Debye-Ang^3)
      XXXX ************   XXXY ************   XXYY ************
      XYYY ************   YYYY ************   XXXZ ************
      XXYZ -684140.6582   XYYZ -834037.4848   YYYZ ************
      XXZZ ************   XYZZ -429948.0476   YYZZ ************
      XZZZ ************   YZZZ ************   ZZZZ ************
 -----------------------------------------------------------------
Archival summary:
[...]
    2  -0.0280086   0.0244167  -0.0377249  -0.0009750  -0.0331473   0.0026857
    3  -0.0169788   0.0040385  -0.0124462   0.0046452   0.0043756   0.0313649
          121         122         123         124         125         126
    1  -0.0283722   0.0221531  -0.0001004  -0.0201677  -0.0161241   0.0077086
    2   0.0073414   0.0995751   0.0002023   0.0061235   0.0037130  -0.0308178
    3  -0.0095620   0.0402852  -0.0032771   0.0217870  -0.0288648   0.0056292
          127         128         129         130         131         132
    1   0.0379284  -0.0029998  -0.0164043   0.0265972  -0.0125339   0.0244348
    2  -0.0007909   0.0062809   0.0168690   0.0164488  -0.0032829  -0.0356285
    3   0.0443571  -0.0039828   0.0247394  -0.0092145  -0.0298473  -0.1016243
          133         134         135         136         137         138
    1   0.0117125  -0.0001075   0.0137851   0.0241271   0.0010593  -0.0014257
    2   0.0045646   0.0256576   0.0058811  -0.0166058  -0.0451393  -0.0036652
    3  -0.0019753  -0.0200254   0.0249286  -0.0098608   0.0459708  -0.0044073
          139         140         141         142         143         144
    1   0.0026481   0.0219780  -0.0258175  -0.0773286   0.0081275   0.0025805
    2   0.0194401  -0.0224138  -0.0128789   0.0723600   0.0048379   0.0283315
    3  -0.0234002   0.0013816  -0.0139399  -0.0112566  -0.0059129  -0.0180266
          145         146         147         148         149         150
    1   0.0146016   0.0131064  -0.0379050   0.0035906  -0.0043464  -0.0159796
    2   0.0224780  -0.0293670   0.0244007  -0.0025769   0.0123992  -0.0240379
    3   0.0230359  -0.0089751  -0.0006240   0.0012212   0.0355463   0.0114429
          151         152         153         154         155         156
    1   0.0283063   0.0296056  -0.0067769  -0.0081193   0.0247521  -0.0245107
    2  -0.0130726  -0.0839298   0.0074227   0.0328339   0.0187206  -0.0163928
    3  -0.0009758  -0.0673804  -0.0040411   0.0060315  -0.0101730  -0.0122639
          157         158         159         160         161         162
    1   0.0481543   0.0039471   0.0213527   0.0171904  -0.0263748  -0.0867745
    2   0.0305850  -0.0073156   0.0179458  -0.0209468  -0.0190429  -0.0403321
    3   0.0288645  -0.0056593  -0.0114500   0.0146568  -0.0084606   0.0513769
          163         164         165         166         167         168
    1   0.0060210   0.0016573   0.0131035   0.0233972   0.0047160  -0.0023867
    2  -0.0009320  -0.0262596   0.0183579  -0.0133080   0.0423015  -0.0037407
    3  -0.0048846  -0.0177949  -0.0241220   0.0220866   0.0347062   0.0020121
          169         170         171         172         173         174
    1  -0.0308024   0.0018482   0.0157114  -0.0702187  -0.0093023  -0.0262191
    2  -0.0091340  -0.0293566  -0.0117950  -0.0097454   0.0070124  -0.0212184
    3   0.0102836  -0.0131248   0.0285379  -0.0833555   0.0043726   0.0001372
          175         176         177         178         179         180
    1   0.0048435  -0.0053017   0.0406832  -0.0090451   0.0195842  -0.0116611
    2   0.0192680   0.0160996   0.0319656  -0.0077989  -0.0130409  -0.0218768
    3   0.0295308  -0.0284412  -0.0268495  -0.0066100  -0.0198096   0.0194121
          181         182         183         184         185         186
    1  -0.0112858   0.0115413  -0.0045855  -0.0221692  -0.0197757   0.0199399
    2   0.0251610  -0.0526568   0.0074414   0.0132910   0.0047713   0.0212817
    3  -0.0190276   0.0946096   0.0062512  -0.0186070   0.0238784   0.0082520
          187         188         189         190         191         192
    1  -0.0073632  -0.0035669  -0.0044224  -0.0376872   0.0141459   0.0997227
    2  -0.0061150  -0.0053291   0.0024089  -0.0040952  -0.0273150  -0.0090650
    3  -0.0593587   0.0046684   0.0311696  -0.0012072  -0.0065173   0.0432173
          193         194         195         196         197         198
    1   0.0081279   0.0015338   0.0286452  -0.0195621  -0.0119293  -0.0026810
    2  -0.0041278   0.0182083  -0.0299787  -0.0212963  -0.0313715   0.0059496
    3  -0.0081252  -0.0255108  -0.0051172   0.0058514   0.0471994  -0.0017909
          199         200         201         202         203         204
    1  -0.0283643   0.0083295  -0.0178437   0.0598278  -0.0117475  -0.0145452
    2   0.0181271   0.0210418  -0.0189288   0.0920005   0.0011784   0.0264853
    3   0.0171534  -0.0203445  -0.0152986  -0.0007353   0.0063670   0.0106940
          205         206         207         208         209         210
    1  -0.0236921   0.0032099   0.0143888   0.0058011  -0.0020222   0.0037573
    2  -0.0052161  -0.0300172  -0.0487702   0.0018516   0.0203891  -0.0283304
    3  -0.0104143   0.0117626  -0.0378003   0.0057064   0.0214120   0.0164275
          211         212         213         214         215         216
    1   0.0290526  -0.0225522   0.0017399  -0.0174300   0.0308821  -0.0129742
    2   0.0195643   0.0996038   0.0070479   0.0010554   0.0134271   0.0228685
    3  -0.0017109  -0.0366255   0.0011593   0.0277747  -0.0024820  -0.0155265
          217         218         219         220         221         222
    1  -0.0327553   0.0074235   0.0290563  -0.0056447   0.0139889   0.0819690
    2  -0.0302879  -0.0005848   0.0249448   0.0042913  -0.0313572   0.0348991
    3  -0.0045926   0.0069891  -0.0090924   0.0335219   0.0116546  -0.0655961
          223         224         225         226         227         228
    1  -0.0018722  -0.0024181   0.0114912  -0.0289855   0.0018330  -0.0048082
    2   0.0055779  -0.0037085   0.0245412   0.0065027   0.0123239  -0.0058245
    3   0.0091032   0.0349886  -0.0003580  -0.0119705  -0.0579526   0.0012601
          229         230         231         232         233         234
    1  -0.0088807  -0.0279002   0.0072927   0.0840969  -0.0007311   0.0024058
    2  -0.0064410   0.0031764  -0.0302073  -0.0370237  -0.0106117  -0.0237618
    3   0.0301314  -0.0192350  -0.0023207   0.0593973   0.0080235  -0.0222370
          235         236         237         238         239         240
    1   0.0283036  -0.0173053   0.0371044  -0.0068129  -0.0334314   0.0040734
    2  -0.0130084  -0.0174702   0.0198646   0.0009516  -0.0045096  -0.0028820
    3   0.0130425   0.0262228  -0.0357630   0.0064147   0.0074654   0.0193837
          241         242         243         244         245         246
    1  -0.0170319  -0.1017251   0.0058843   0.0206784  -0.0032817   0.0140660
    2   0.0340725  -0.0271086   0.0002593   0.0106868  -0.0296832   0.0202308
    3  -0.0104525  -0.0374480  -0.0070822   0.0242040  -0.0169372  -0.0259990
          247         248         249         250         251         252
    1  -0.0182141  -0.0023242  -0.0273618   0.0112284  -0.0157636   0.0115163
    2  -0.0421316  -0.0004598  -0.0041537   0.0268994  -0.0246050   0.1043788
    3   0.0380295  -0.0089569   0.0076374  -0.0167686  -0.0246467   0.0349141
          253         254         255         256         257         258
    1   0.0011385   0.0116640   0.0240624  -0.0268586  -0.0147933  -0.0037181
    2   0.0086776  -0.0006246   0.0224136   0.0227702  -0.0025099  -0.0034523
    3  -0.0008121   0.0275101  -0.0105169  -0.0057908  -0.0520507   0.0022257
          259         260         261         262         263         264
    1  -0.0097561  -0.0007370  -0.0274314   0.0901702  -0.0005429  -0.0249421
    2  -0.0303079   0.0046806   0.0168436  -0.0391122   0.0029746   0.0119986
    3   0.0138262   0.0309099  -0.0041026   0.0482032   0.0118778   0.0102622
          265         266         267         268         269         270
    1   0.0139668   0.0191334  -0.0141179  -0.0038788  -0.0255640  -0.0087811
    2  -0.0272563   0.0279751   0.0483633  -0.0086816   0.0092020  -0.0052299
    3   0.0120152  -0.0024414  -0.0328202   0.0024796   0.0185793  -0.0284576
          271         272         273         274         275         276
    1   0.0147648   0.0915441   0.0034684   0.0322932  -0.0014807   0.0013290
    2  -0.0286676  -0.0574127  -0.0008460   0.0006700  -0.0256406  -0.0101327
    3   0.0084106  -0.0171523  -0.0008970   0.0156248   0.0226244  -0.0277056
          277         278         279         280         281         282
    1  -0.0056831  -0.0087115  -0.0179560  -0.0287097   0.0028601   0.0308129
    2   0.0236757  -0.0052334  -0.0129718   0.0119912  -0.0069100   0.0498830
    3   0.0477421  -0.0042978   0.0289041  -0.0069347  -0.0324769  -0.0939482
  --- DONE ESP SUMMARY ---
Archival summary:
1\1\node025\SP\ProcedureUnspecified\6-31+G*\262652h22\ymao90\FriDec321:36:332021FriDec321:36:332021\0\\#,ProcedureUnspecified,6-31+G*,\\0,1\S\O,1,1.49769\C,1,1.80663,2,102.608\H,3,1.09301,1,113.389,2,-178.683,0\H,3,1.09315,1,106.641,2,54.2054,0\H,3,1.09349,1,102.077,2,-62.9931,0\C,1,1.80719,2,113.637,3,96.2685,0\H,7,1.09271,1,111.306,2,94.7633,0\H,7,1.09273,1,111.734,2,-23.6661,0\H,7,1.09317,1,109.642,2,-145.78,0\H,8,2.11833,7,163.066,1,-73.5784,0\C,11,1.09343,8,156.513,7,60.1364,0\H,12,1.09236,11,106.836,8,-178.375,0\H,12,1.09267,11,117.882,8,49.553,0\S,12,1.80618,11,110.635,8,-68.8491,0\O,15,1.49679,12,104.542,11,-34.637,0\C,15,1.80707,12,94.5329,11,71.1209,0\H,17,1.09209,15,119.054,12,61.3893,0\H,17,1.09334,15,103.801,12,-175.292,0\H,17,1.09378,15,108.708,12,-58.6008,0\H,14,2.12653,12,101.398,11,-5.84667,0\C,21,1.09358,14,114.128,12,167.85,0\H,22,1.09231,21,110.553,14,-10.5809,0\H,22,1.093,21,112.736,14,116.745,0\S,22,1.80736,21,108.085,14,-126.725,0\O,25,1.49772,22,108.054,21,-54.0022,0\C,25,1.80704,22,88.6752,21,53.73,0\H,27,1.09272,25,100.378,22,-155.959,0\H,27,1.09326,25,106.993,22,-31.8101,0\H,27,1.09333,25,107.847,22,83.6774,0\H,30,2.0492,27,146.743,25,128.357,0\C,31,1.0928,30,111.066,27,-120.134,0\H,32,1.09257,31,110.388,30,54.6031,0\H,32,1.09335,31,103.476,30,-177.442,0\S,32,1.80717,31,106.357,30,-60.0794,0\O,35,1.49728,32,103.296,31,75.5549,0\C,35,1.80755,32,95.0625,31,177.749,0\H,37,1.09293,35,105.24,32,-46.7351,0\H,37,1.09348,35,107.096,32,79.204,0\H,37,1.09365,35,101.144,32,-164.951,0\Gh,6,2.31108,3,144.826,1,-86.9615,0\Gh,41,1.09674,6,152.581,3,29.2349,0\Gh,42,1.09744,41,105.221,6,-124.513,0\Gh,42,1.53702,41,108.943,6,-11.7398,0\Gh,44,1.09655,42,110.722,41,-31.7606,0\Gh,44,1.09679,42,108.874,41,-153.657,0\Gh,44,1.53689,42,112.71,41,84.1483,0\Gh,47,1.09726,44,108.752,42,170.018,0\Gh,47,1.09734,44,105.952,42,-74.0712,0\Gh,47,1.53796,44,120.401,42,41.8988,0\Gh,50,1.09631,47,111.452,44,82.2502,0\Gh,50,1.098,47,105.97,44,-162.113,0\Gh,50,1.53727,47,111.775,44,-43.6865,0\Gh,53,1.09619,50,99.9022,47,-80.3263,0\Gh,53,1.46144,50,109.922,47,162.38,0\Gh,55,1.0133,53,122.533,50,-26.314,0\Gh,55,1.37879,53,122.914,50,153.024,0\Gh,57,1.10441,55,112.837,53,-175.27,0\Gh,57,1.21887,55,117.679,53,-0.681011,0\Gh,42,1.538,41,110,6,113.621,0\Gh,60,1.09623,42,102.697,41,37.2005,0\Gh,60,1.097,42,107.486,41,153.002,0\H,58,2.22144,57,176.849,55,-115.361,0\C,63,1.09332,58,135.882,57,12.6749,0\H,64,1.09277,63,110.561,58,-73.8738,0\H,64,1.09373,63,111.321,58,163.628,0\S,64,1.80623,63,109.612,58,43.8904,0\O,67,1.49726,64,100.064,63,-40.6433,0\C,67,1.80669,64,93.1013,63,59.8741,0\H,69,1.09263,67,119.979,64,-80.9536,0\H,69,1.0933,67,104.846,64,42.9854,0\H,69,1.09379,67,101.253,64,154.596,0\H,63,2.03849,58,117.417,57,-158.427,0\C,73,1.09241,63,110.73,58,2.96509,0\H,74,1.09283,73,106.965,63,46.7135,0\H,74,1.09383,73,113.525,63,-71.1351,0\S,74,1.80736,73,115.478,63,173.101,0\O,77,1.49765,74,113.38,73,-164.524,0\C,77,1.80693,74,93.9183,73,-62.4538,0\H,79,1.09298,77,99.0306,74,160.812,0\H,79,1.09306,77,102.494,74,-88.1236,0\H,79,1.09319,77,115.446,74,38.4943,0\H,59,2.23771,57,107.501,55,161.515,0\C,83,1.09361,59,161.87,57,-134.374,0\H,84,1.0923,83,107.428,59,-79.9152,0\H,84,1.09264,83,107.423,59,151.305,0\S,84,1.807,83,107.987,59,33.9878,0\O,87,1.49693,84,103.138,83,147.57,0\C,87,1.80699,84,100.108,83,40.9953,0\H,89,1.09258,87,104.542,84,-67.4056,0\H,89,1.09268,87,113.455,84,168.751,0\H,89,1.09317,87,107.572,84,44.9832,0\H,46,2.26032,44,165.941,42,-88.0328,0\C,93,1.09172,46,130.666,44,15.5402,0\H,94,1.09316,93,107.244,46,99.8913,0\H,94,1.09317,93,111.694,46,-20.4229,0\S,94,1.80694,93,113.53,46,-136.283,0\O,97,1.4977,94,106.587,93,-170.275,0\C,97,1.8071,94,89.7103,93,-58.5455,0\H,99,1.0927,97,109.369,94,-69.0602,0\H,99,1.09292,97,111.259,94,166.895,0\H,99,1.09323,97,112.979,94,49.617,0\H,95,2.14199,94,104.04,93,4.09033,0\C,103,1.09295,95,131.143,94,123.437,0\H,104,1.09253,103,105.192,95,-24.0111,0\H,104,1.09309,103,109.198,95,94.5075,0\S,104,1.80696,103,107.922,95,-146.807,0\O,107,1.49687,104,103.85,103,-48.3006,0\C,107,1.80777,104,101.772,103,65.3999,0\H,109,1.09277,107,104.109,104,-177.443,0\H,109,1.09282,107,111.348,104,68.8173,0\H,109,1.09303,107,108.498,104,-54.4986,0\H,112,1.91005,109,128.729,107,-152.765,0\C,113,1.09276,112,162.671,109,-98.3376,0\H,114,1.09352,113,103.101,112,164.434,0\H,114,1.09357,113,117.865,112,-71.6314,0\S,114,1.80676,113,103.034,112,50.902,0\O,117,1.49747,114,105.221,113,-43.0131,0\C,117,1.80646,114,102.238,113,65.1964,0\H,119,1.0931,117,117.047,114,160.933,0\H,119,1.09346,117,106.616,114,-73.1628,0\H,119,1.09385,117,113.143,114,46.5381,0\H,106,1.96625,104,143.338,103,47.7739,0\C,123,1.0934,106,122.259,104,55.8145,0\H,124,1.09241,123,111.312,106,176.311,0\H,124,1.09309,123,105.638,106,-51.097,0\S,124,1.80691,123,103.245,106,64.0218,0\O,127,1.49708,124,98.1826,123,47.9004,0\C,127,1.807,124,99.4213,123,153.039,0\H,129,1.09263,127,113.9,124,-164.46,0\H,129,1.09276,127,103.145,124,68.1869,0\H,129,1.09326,127,111.245,124,-49.0547,0\H,110,2.15294,109,126.112,107,13.7243,0\C,133,1.09262,110,135.677,109,147.842,0\H,134,1.09296,133,97.993,110,-135.061,0\H,134,1.09358,133,108.25,110,110.234,0\S,134,1.80725,133,110.957,110,-16.6764,0\O,137,1.49605,134,109.99,133,23.0904,0\C,137,1.80772,134,89.8221,133,-81.3634,0\H,139,1.09254,137,112.238,134,-79.9709,0\H,139,1.09271,137,104.394,134,161.283,0\H,139,1.09311,137,111.357,134,49.2043,0\H,115,2.2453,114,130.129,113,-176.754,0\C,143,1.09217,115,120.386,114,83.4757,0\H,144,1.09311,143,107.39,115,-139.836,0\H,144,1.09352,143,117.616,115,-15.53,0\S,144,1.80675,143,115.857,115,106.22,0\O,147,1.49772,144,106.211,143,73.9889,0\C,147,1.80689,144,94.4101,143,-32.0547,0\H,149,1.09275,147,107.474,144,60.4438,0\H,149,1.09332,147,113.022,144,-57.8182,0\H,149,1.09361,147,104.328,144,-179.886,0\H,96,2.28826,94,142.972,93,157.966,0\C,153,1.09302,96,111.251,94,95.9696,0\H,154,1.09299,153,112.423,96,-140.978,0\H,154,1.09311,153,109.849,96,-14.1452,0\S,154,1.80692,153,101.338,96,102.331,0\O,157,1.49739,154,109.436,153,63.4826,0\C,157,1.80653,154,96.2785,153,177.025,0\H,159,1.09271,157,104.212,154,69.4233,0\H,159,1.09318,157,106.683,154,-173.447,0\H,159,1.09339,157,114.427,154,-42.8263,0\H,161,1.98176,159,133.72,157,80.7203,0\C,163,1.09252,161,130.211,159,-143.427,0\H,164,1.09268,163,115.744,161,-91.9818,0\H,164,1.09337,163,105.642,161,136.359,0\S,164,1.80721,163,102.505,161,22.1574,0\O,167,1.49685,164,105.04,163,-67.1573,0\C,167,1.8073,164,90.7184,163,-167.08,0\H,169,1.09237,167,108.485,164,-63.3111,0\H,169,1.09289,167,103.252,164,-178.783,0\H,169,1.09356,167,110.487,164,59.5034,0\H,160,2.03101,159,159.033,157,21.1384,0\C,173,1.0932,160,166.973,159,42.3296,0\H,174,1.09296,173,108.06,160,85.194,0\H,174,1.09323,173,114.623,160,-152.377,0\S,174,1.80714,173,106.548,160,-33.197,0\O,177,1.49679,174,101.014,173,-55.2229,0\C,177,1.80733,174,97.985,173,54.0045,0\H,179,1.09276,177,102.566,174,-36.8768,0\H,179,1.09288,177,111.414,174,86.4785,0\H,179,1.09348,177,101.059,174,-150.701,0\H,4,2.31682,3,108.201,1,-131.222,0\C,183,1.09259,4,141.776,3,148.111,0\H,184,1.09257,183,106.465,4,-142.294,0\H,184,1.09347,183,115.59,4,95.2248,0\S,184,1.80734,183,109.583,4,-24.241,0\O,187,1.49774,184,103.515,183,-75.3918,0\C,187,1.80671,184,100.11,183,176.499,0\H,189,1.09232,187,116.018,184,168.735,0\H,189,1.09314,187,111.667,184,-70.0727,0\H,189,1.0935,187,100.889,184,48.3099,0\H,61,2.32995,60,142.082,42,-62.2353,0\C,193,1.09285,61,153.923,60,-94.4935,0\H,194,1.09264,193,112.916,61,18.5282,0\H,194,1.09347,193,109.537,61,-110.218,0\S,194,1.80629,193,105.155,61,130.727,0\O,197,1.49755,194,99.7315,193,74.6324,0\C,197,1.80737,194,97.6136,193,174.38,0\H,199,1.09222,197,112.113,194,59.5042,0\H,199,1.09305,197,112.424,194,-178.586,0\H,199,1.0933,197,104.038,194,-58.8491,0\H,85,2.33933,84,113.022,83,-24.4458,0\C,203,1.09271,85,169.414,84,-42.1858,0\H,204,1.09276,203,100.433,85,79.1434,0\H,204,1.09315,203,115.851,85,-162.216,0\S,204,1.80723,203,117.326,85,-33.8613,0\O,207,1.49757,204,104.701,203,-170.235,0\C,207,1.80789,204,95.9157,203,-62.82,0\H,209,1.09238,207,106.299,204,-62.7985,0\H,209,1.09264,207,103.549,204,48.9696,0\H,209,1.09314,207,113.796,204,173.297,0\H,212,1.98762,209,118.07,207,-79.3319,0\C,213,1.0929,212,162.247,209,0.035564,0\H,214,1.09298,213,107.209,212,109.331,0\H,214,1.09339,213,111.484,212,-130.703,0\S,214,1.80661,213,112.135,212,-0.801302,0\O,217,1.49747,214,107.584,213,72.8609,0\C,217,1.80665,214,89.432,213,176.803,0\H,219,1.09233,217,109.735,214,79.843,0\H,219,1.09326,217,108.898,214,-41.1426,0\H,219,1.09331,217,106.418,214,-163.478,0\H,205,2.05302,204,153.271,203,-128.311,0\C,223,1.09215,205,111.533,204,-67.5025,0\H,224,1.09249,223,106.812,205,14.433,0\H,224,1.09342,223,109.298,205,144.355,0\S,224,1.80715,223,105.377,205,-103.084,0\O,227,1.49705,224,104.185,223,164.806,0\C,227,1.80754,224,92.2223,223,64.2487,0\H,229,1.09264,227,108.338,224,-75.6897,0\H,229,1.09309,227,111.046,224,163.314,0\H,229,1.09342,227,107.818,224,52.8415,0\H,206,2.30008,204,130.877,203,20.4111,0\C,233,1.09256,206,148.77,204,80.2983,0\H,234,1.09294,233,117.386,206,131.044,0\H,234,1.09324,233,105.033,206,2.36968,0\S,234,1.80694,233,106.148,206,-97.4563,0\O,237,1.4973,234,101.253,233,39.2566,0\C,237,1.80696,234,98.6491,233,-66.2241,0\H,239,1.0924,237,107.271,234,76.9014,0\H,239,1.09317,237,111.94,234,-41.3416,0\H,239,1.09325,237,105.481,234,-160.026,0\H,92,2.34578,89,138.597,87,69.4253,0\C,243,1.09218,92,106.689,89,17.5926,0\H,244,1.09308,243,108.233,92,45.8214,0\H,244,1.09342,243,113.715,92,-69.9176,0\S,244,1.80677,243,110.288,92,165.827,0\O,247,1.49751,244,94.8883,243,-139.715,0\C,247,1.8067,244,94.5843,243,-40.7633,0\H,249,1.09263,247,103.775,244,-40.4308,0\H,249,1.0934,247,105.989,244,-156.868,0\H,249,1.09352,247,105.177,244,76.3732,0\H,72,2.35367,69,97.521,67,65.9176,0\C,253,1.09256,72,141.116,69,106.664,0\H,254,1.09312,253,103.98,72,-83.3057,0\H,254,1.09369,253,110.013,72,31.666,0\S,254,1.80646,253,109.381,72,158.671,0\O,257,1.49755,254,102.779,253,-160.822,0\C,257,1.80644,254,100.548,253,-52.6168,0\H,259,1.09275,257,106.201,254,-76.5928,0\H,259,1.09291,257,111.679,254,41.2227,0\H,259,1.09361,257,111.229,254,163.466,0\O,140,2.37724,139,148.173,137,57.1905,0\S,263,1.49738,140,121.959,139,91.1996,0\C,264,1.80678,263,104.773,140,-36.5668,0\H,265,1.09288,264,111.665,263,54.7233,0\H,265,1.0931,264,112.53,263,-66.9224,0\H,265,1.09343,264,101.157,263,179.162,0\C,264,1.80743,263,111.156,140,66.6,0\H,269,1.09271,264,107.642,263,148.297,0\H,269,1.09314,264,108.567,263,-90.1743,0\H,269,1.09317,264,112.37,263,30.1861,0\H,268,2.65281,265,153.846,264,-75.1141,0\C,273,1.09291,268,110.524,265,-37.0809,0\H,274,1.09256,273,107.408,268,111.647,0\H,274,1.09339,273,112.834,268,-6.10833,0\S,274,1.80711,273,111.874,268,-125.029,0\O,277,1.49726,274,106.691,273,45.9385,0\C,277,1.80711,274,85.2999,273,-64.9995,0\H,279,1.09247,277,104.329,274,-66.305,0\H,279,1.09279,277,105.158,274,52.3654,0\H,279,1.0938,277,106.205,274,163.444,0\\\@

 Total job time:  51.05s(wall), 162.74s(cpu) 
 Fri Dec  3 21:36:33 2021

        *************************************************************
        *                                                           *
        *  Thank you very much for using Q-Chem.  Have a nice day.  *
        *                                                           *
        *************************************************************


