                  Welcome to Q-Chem
     A Quantum Leap Into The Future Of Chemistry


 Q-Chem 5.2 (devel), Q-Chem, Inc., Pleasanton, CA (2019)

 Yihan Shao,  Zhengting Gan,  E. Epifanovsky,  A. T. B. Gilbert,  M. Wormit,  
 J. Kussmann,  A. W. Lange,  A. Behn,  Jia Deng,  Xintian Feng,  D. Ghosh,  
 M. Goldey,  P. R. Horn,  L. D. Jacobson,  I. Kaliman,  T. Kus,  A. Landau,  
 Jie Liu,  E. I. Proynov,  R. M. Richard,  R. P. Steele,  E. J. Sundstrom,  
 H. L. Woodcock III,  P. M. Zimmerman,  D. Zuev,  B. Alam,  B. Albrecht,  
 E. Alguire,  S. A. Baeppler,  D. Barton,  Z. Benda,  Y. A. Bernard,  
 E. J. Berquist,  K. B. Bravaya,  H. Burton,  K. Carter-Fenk,  D. Casanova,  
 Chun-Min Chang,  Yunqing Chen,  A. Chien,  K. D. Closser,  M. P. Coons,  
 S. Coriani,  S. Dasgupta,  A. L. Dempwolff,  M. Diedenhofen,  Hainam Do,  
 R. G. Edgar,  Po-Tung Fang,  S. Faraji,  S. Fatehi,  Qingguo Feng,  
 J. Fosso-Tande,  J. Gayvert,  Qinghui Ge,  A. Ghysels,  G. Gidofalvi,  
 J. Gomes,  J. Gonthier,  A. Gunina,  D. Hait,  M. W. D. Hanson-Heine,  
 P. H. P. Harbach,  A. W. Hauser,  M. F. Herbst,  J. E. Herr,  
 E. G. Hohenstein,  Z. C. Holden,  Kerwin Hui,  B. C. Huynh,  T.-C. Jagau,  
 Hyunjun Ji,  B. Kaduk,  K. Khistyaev,  Jaehoon Kim,  P. Klunzinger,  K. Koh,  
 D. Kosenkov,  L. Koulias,  T. Kowalczyk,  C. M. Krauter,  A. Kunitsa,  
 Ka Un Lao,  A. Laurent,  K. V. Lawler,  Joonho Lee,  D. Lefrancois,  
 S. Lehtola,  D. S. Levine,  Yi-Pei Li,  You-Sheng Lin,  Fenglai Liu,  
 Kuan-Yu Liu,  E. Livshits,  M. Loipersberger,  A. Luenser,  P. Manohar,  
 E. Mansoor,  S. F. Manzer,  Shan-Ping Mao,  Yuezhi Mao,  N. Mardirossian,  
 A. V. Marenich,  T. Markovich,  L. A. Martinez-Martinez,  S. A. Maurer,  
 N. J. Mayhall,  S. C. McKenzie,  J.-M. Mewes,  P. Morgante,  A. F. Morrison,  
 J. W. Mullinax,  K. Nanda,  T. S. Nguyen-Beck,  R. Olivares-Amaya,  
 J. A. Parkhill,  S. K. Paul,  F. Pavosevic,  Zheng Pei,  T. M. Perrine,  
 F. Plasser,  P. Pokhilko,  S. Prager,  A. Prociuk,  E. Ramos,  B. Rana,  
 D. R. Rehn,  F. Rob,  M. Scheurer,  M. Schneider,  N. Sergueev,  
 S. M. Sharada,  S. Sharma,  D. W. Small,  T. Stauch,  C. J. Stein,  
 T. Stein,  Yu-Chuan Su,  S. P. Veccham,  Zhen Tao,  A. J. W. Thom,  
 A. Tkatchenko,  T. Tsuchimochi,  N. M. Tubman,  L. Vogt,  M. L. Vidal,  
 O. Vydrov,  M. A. Watson,  J. Wenzel,  M. de Wergifosse,  T. A. Wesolowski,  
 A. White,  J. Witte,  A. Yamada,  Jun Yang,  K. Yao,  S. Yeganeh,  
 S. R. Yost,  Zhi-Qiang You,  A. Zech,  Igor Ying Zhang,  Xing Zhang,  
 Yan Zhao,  Ying Zhu,  B. R. Brooks,  G. K. L. Chan,  C. J. Cramer,  
 M. S. Gordon,  W. J. Hehre,  A. Klamt,  M. W. Schmidt,  C. D. Sherrill,  
 D. G. Truhlar,  A. Aspuru-Guzik,  R. Baer,  A. T. Bell,  N. A. Besley,  
 Jeng-Da Chai,  A. E. DePrince, III,  R. A. DiStasio Jr.,  A. Dreuw,  
 B. D. Dunietz,  T. R. Furlani,  Chao-Ping Hsu,  Yousung Jung,  Jing Kong,  
 D. S. Lambrecht,  WanZhen Liang,  C. Ochsenfeld,  V. A. Rassolov,  
 L. V. Slipchenko,  J. E. Subotnik,  T. Van Voorhis,  J. M. Herbert,  
 A. I. Krylov,  P. M. W. Gill,  M. Head-Gordon

 Contributors to earlier versions of Q-Chem not listed above: 
 R. D. Adamson,  B. Austin,  J. Baker,  G. J. O. Beran,  K. Brandhorst,  
 S. T. Brown,  E. F. C. Byrd,  A. K. Chakraborty,  C.-L. Cheng,  
 Siu Hung Chien,  D. M. Chipman,  D. L. Crittenden,  H. Dachsel,  
 R. J. Doerksen,  A. D. Dutoi,  L. Fusti-Molnar,  W. A. Goddard III,  
 A. Golubeva-Zadorozhnaya,  S. R. Gwaltney,  G. Hawkins,  A. Heyden,  
 S. Hirata,  G. Kedziora,  F. J. Keil,  C. Kelley,  Jihan Kim,  R. A. King,  
 R. Z. Khaliullin,  P. P. Korambath,  W. Kurlancheek,  A. M. Lee,  M. S. Lee,  
 S. V. Levchenko,  Ching Yeh Lin,  D. Liotard,  R. C. Lochan,  I. Lotan,  
 P. E. Maslen,  N. Nair,  D. P. O'Neill,  D. Neuhauser,  E. Neuscamman,  
 C. M. Oana,  R. Olson,  B. Peters,  R. Peverati,  P. A. Pieniazek,  
 Y. M. Rhee,  J. Ritchie,  M. A. Rohrdanz,  E. Rosta,  N. J. Russ,  
 H. F. Schaefer III,  N. E. Schultz,  N. Shenvi,  A. C. Simmonett,  A. Sodt,  
 D. Stuck,  K. S. Thanthiriwatte,  V. Vanovschi,  Tao Wang,  A. Warshel,  
 C. F. Williams,  Q. Wu,  X. Xu,  W. Zhang

 Please cite Q-Chem as follows:
 Y. Shao et al., Mol. Phys. 113, 184-215 (2015)
 DOI: 10.1080/00268976.2014.952696

 Q-Chem 5.2.2 for Intel X86 EM64T Linux

 Parts of Q-Chem use Armadillo 9.800.1 (Horizon Scraper).
 http://arma.sourceforge.net/

 Q-Chem begins on Fri Dec  3 14:57:31 2021  

Host: node024
0

     Scratch files written to /home/ymao90/scratch/r7.00_frame_0029_spade_B3LYP_dp20211203120847//

Checking the input file for inconsistencies... 	...done.

--------------------------------------------------------------
User input:
--------------------------------------------------------------
$molecule
0 1
--
0 1
C    21.92900   14.54700   28.80200  
C    22.59100   14.75600   27.43000  
C    23.47400   16.00800   27.29900  
C    24.42600   16.14900   28.49800  
C    23.59000   16.14900   29.78900  
C    22.87700   14.80200   29.98500  
H    24.01200   16.13900   26.35200  
H    23.26000   13.88800   27.38500  
H    20.98700   15.09700   28.91400  
H    21.67700   13.48000   28.84600  
H    25.15400   15.32900   28.48100  
H    24.91800   17.11800   28.35700  
H    24.17600   16.38500   30.68600  
H    22.88800   16.99100   29.82700  
H    23.59300   13.97600   29.89300  
H    22.32900   14.85100   30.93400  
H    22.76000   16.83900   27.34200  
N    21.65600   14.62500   26.31500  
H    20.66800   14.83600   26.38700  
C    21.99000   13.91600   25.18000  
H    21.08600   13.69400   24.58300  
O    23.08900   13.44900   24.94000  
--
0 1
C    20.02400   18.31200   29.53300  
H    19.05300   18.37600   30.03100  
H    20.29500   17.30500   29.20400  
H    20.91700   18.79400   29.94000  
S    19.66400   19.29300   28.05900  
C    21.34900   19.87100   27.75800  
H    21.77800   19.57300   26.79800  
H    21.32400   20.96300   27.76700  
H    22.04900   19.50000   28.51200  
O    18.80800   20.42200   28.54500  
C    19.25800   19.37000   21.42000  
H    18.72200   19.81900   20.58000  
H    20.34400   19.44900   21.32400  
H    18.84400   18.44300   21.82500  
S    18.92300   20.56800   22.73100  
C    19.70800   22.06300   22.08800  
H    19.80000   22.81300   22.87800  
H    20.73200   21.75100   21.86700  
H    19.12700   22.30400   21.19500  
O    19.81100   20.13300   23.85500  
C    25.86600   12.78400   27.40200  
H    25.16600   12.76700   28.24200  
H    26.25500   13.78200   27.18200  
H    25.52500   12.37400   26.44800  
S    27.27400   11.74900   27.86100  
C    26.45800   10.14600   27.69600  
H    25.53700   10.05100   28.27800  
H    26.18600   10.01800   26.64500  
H    27.16100   9.36600    28.00100  
O    27.45100   11.94500   29.33500  
C    16.69900   10.21400   19.54800  
H    17.25000   9.36200    19.95400  
H    15.63800   10.14400   19.80000  
H    16.72600   10.39500   18.47100  
S    17.38700   11.69700   20.31800  
C    16.68200   11.47600   21.96700  
H    17.30500   12.07800   22.63300  
H    15.69600   11.94700   21.95600  
H    16.78700   10.42700   22.25700  
O    16.69600   12.91500   19.78900  
C    26.94000   17.99900   35.91600  
H    26.59900   17.07000   36.37900  
H    27.33000   18.76500   36.59100  
H    26.02300   18.39500   35.47300  
S    28.14300   17.60700   34.62500  
C    29.48000   17.40400   35.82400  
H    29.37800   18.21600   36.54900  
H    29.39600   16.43900   36.32900  
H    30.40700   17.40600   35.24600  
O    28.34800   19.01400   34.15900  
C    20.33400   8.84500    34.51800  
H    19.88200   8.91400    35.51100  
H    19.67600   9.27400    33.75800  
H    20.50700   7.79300    34.27700  
S    21.89000   9.76400    34.52200  
C    22.80400   8.89100    35.81400  
H    22.85800   7.82900    35.56100  
H    23.82100   9.27600    35.91900  
H    22.13700   8.87700    36.68000  
O    21.52400   11.02500   35.24100  
C    12.95700   15.85200   25.35400  
H    13.01000   15.42800   24.34800  
H    12.36700   15.03300   25.77200  
H    12.44600   16.81400   25.43900  
S    14.60300   16.13100   26.04600  
C    15.23600   14.47700   25.68900  
H    14.56400   13.69500   26.05100  
H    15.37600   14.39900   24.60700  
H    16.18200   14.30300   26.20800  
O    14.40400   16.23100   27.52600  
C    19.31600   6.62300    30.74900  
H    19.64700   6.64800    31.79100  
H    18.28800   6.98100    30.64700  
H    19.39300   5.55600    30.52400  
S    20.18800   7.65000    29.54600  
C    20.06000   9.18400    30.49400  
H    20.46400   9.10400    31.50700  
H    20.45800   10.06300   29.98100  
H    18.99000   9.39100    30.56600  
O    19.10800   7.94900    28.55300  
C    28.93300   15.64000   23.69500  
H    27.87000   15.56900   23.93600  
H    29.35000   16.40800   24.35100  
H    29.20200   15.92200   22.67300  
S    29.73700   14.08500   24.14300  
C    28.88000   13.93400   25.72700  
H    29.21700   14.73200   26.39400  
H    27.80200   13.91200   25.55100  
H    29.20800   12.96600   26.11500  
O    31.15300   14.35100   24.54900  
C    28.07900   21.57600   31.58400  
H    28.53900   21.35500   32.55000  
H    28.39200   22.47400   31.04600  
H    27.00300   21.61800   31.77200  
S    28.17800   20.20600   30.41000  
C    29.96800   20.42600   30.28900  
H    30.34500   19.50200   29.84300  
H    30.18900   21.29100   29.65800  
H    30.38500   20.53000   31.29400  
O    27.63500   20.65400   29.08900  
C    20.10400   17.03400   33.12800  
H    20.92700   17.41600   32.51800  
H    19.63200   16.27200   32.50200  
H    19.36100   17.75900   33.47100  
S    20.86500   16.35400   34.61900  
C    21.52900   17.94500   35.16100  
H    22.18100   17.93700   36.03900  
H    22.08200   18.54700   34.43500  
H    20.65400   18.54700   35.41800  
O    22.11100   15.66300   34.16000  
C    29.28100   14.51500   30.66600  
H    28.83300   13.76100   30.01400  
H    30.30300   14.59400   30.28500  
H    29.13300   14.33800   31.73400  
S    28.41800   16.04200   30.23100  
C    26.86700   15.52500   31.00000  
H    26.89200   15.71500   32.07600  
H    26.19800   16.24300   30.51900  
H    26.65400   14.51600   30.63700  
O    28.01100   15.88700   28.79900  
C    23.78500   15.10400   20.33500  
H    24.55900   15.70800   20.81400  
H    23.41200   14.20500   20.83200  
H    24.12400   14.85000   19.32700  
S    22.29400   16.08700   20.06400  
C    23.30200   17.42800   19.39400  
H    23.87300   17.86700   20.21700  
H    23.93200   16.98600   18.61800  
H    22.57600   18.14100   18.99500  
O    21.75000   16.50300   21.39500  
C    23.45600   22.54300   30.37000  
H    24.26400   23.27900   30.38800  
H    22.89000   22.71200   29.45000  
H    22.93800   22.45500   31.32800  
S    24.36100   21.00000   30.11100  
C    24.61700   21.16100   28.32900  
H    25.16100   22.08900   28.13700  
H    25.21200   20.30900   27.99000  
H    23.64600   21.24800   27.83500  
O    23.32500   19.92900   30.24400  
C    29.04200   19.56900   26.19700  
H    29.00200   20.23400   27.06400  
H    29.45700   18.59200   26.45600  
H    29.62500   20.05200   25.40900  
S    27.42300   19.26600   25.45400  
C    26.83600   17.99300   26.59300  
H    27.35300   17.04400   26.42600  
H    27.07600   18.29100   27.61700  
H    25.76100   17.88900   26.42500  
O    27.71900   18.48300   24.21300  
C    24.44700   17.51600   23.80900  
H    24.92500   16.92000   24.59000  
H    23.83800   16.83700   23.20600  
H    25.26700   17.91800   23.20800  
S    23.35400   18.83100   24.39500  
C    22.87500   19.34200   22.72900  
H    23.78500   19.76000   22.29200  
H    22.46400   18.47300   22.20800  
H    22.16900   20.16800   22.85000  
O    24.21800   19.98500   24.79600  
C    18.88800   11.88500   27.15700  
H    18.04200   12.21800   27.76400  
H    19.16300   10.83100   27.24900  
H    19.74000   12.56100   27.27400  
S    18.43900   12.17500   25.43100  
C    17.17100   10.88900   25.49200  
H    16.51800   11.07300   24.63600  
H    17.76600   9.97900    25.38200  
H    16.66800   10.81300   26.46000  
O    19.48700   11.61400   24.52200  
C    17.87700   13.71200   33.09500  
H    18.51800   14.09800   33.89100  
H    17.72100   14.48800   32.34100  
H    16.88600   13.40700   33.44200  
S    18.67700   12.22500   32.45200  
C    20.17200   13.06500   31.88300  
H    19.88900   13.94700   31.30400  
H    20.67800   13.40200   32.79100  
H    20.76400   12.38500   31.26500  
O    18.03400   12.00000   31.11900  
C    20.82200   13.08300   21.30600  
H    21.57300   13.31300   22.06600  
H    20.67500   13.82100   20.51200  
H    19.88500   12.89400   21.83600  
S    21.21000   11.54100   20.44800  
C    21.29800   10.52000   21.93600  
H    20.52900   10.93100   22.59400  
H    20.95000   9.54700    21.57900  
H    22.34500   10.54900   22.24700  
O    22.64500   11.70300   20.05300  
C    15.70200   18.96000   29.42800  
H    15.97500   20.01000   29.30100  
H    16.52900   18.34900   29.05700  
H    14.72000   18.76300   28.99100  
S    15.59800   18.67300   31.20900  
C    15.34400   16.90900   30.90900  
H    14.88900   16.51400   31.82100  
H    14.59500   16.80100   30.12100  
H    16.26500   16.41300   30.59200  
O    14.28400   19.23100   31.66000  
C    28.15900   12.53100   36.67700  
H    27.97800   11.49600   36.37700  
H    29.18100   12.74700   36.99900  
H    27.44300   12.84700   37.44100  
S    27.94300   13.71400   35.32800  
C    26.59100   12.85700   34.49000  
H    25.86000   12.52900   35.23400  
H    26.17800   13.46900   33.68400  
H    26.91000   11.94200   33.98500  
O    29.10200   13.52400   34.39900  
C    14.70300   14.80800   21.16300  
H    14.80000   14.38100   20.16200  
H    15.18800   14.11400   21.85400  
H    13.68000   14.84500   21.54800  
S    15.65000   16.31200   21.48800  
C    17.30200   15.78300   20.97900  
H    17.98600   16.39600   21.57200  
H    17.49000   14.75700   21.30400  
H    17.48100   15.89200   19.90600  
O    15.62400   16.41100   22.98200  
C    25.20100   10.08300   31.98400  
H    24.79300   9.49700    32.81000  
H    25.52900   9.41400    31.18400  
H    26.03600   10.65800   32.39400  
S    23.83100   11.12300   31.42900  
C    23.65000   12.31900   32.77100  
H    22.71700   12.88900   32.76300  
H    23.72500   11.77300   33.71500  
H    24.47100   13.04000   32.79000  
O    22.57700   10.31000   31.51300  
C    22.21700   9.91500    27.47000  
H    22.33000   8.88900    27.82900  
H    22.78800   10.62900   28.06900  
H    21.15900   10.16200   27.58500  
S    22.66400   10.02900   25.72200  
C    21.36200   8.98900    25.02500  
H    21.30200   8.05300    25.58800  
H    20.54200   9.70100    25.14200  
H    21.56500   8.75000    23.97800  
O    23.85100   9.14300    25.50300  
C    25.62100   11.15900   21.97600  
H    26.42900   11.53500   21.34200  
H    25.70600   10.08500   22.15800  
H    24.66000   11.43600   21.53500  
S    25.72400   11.77800   23.67000  
C    25.83000   13.53300   23.25300  
H    26.10400   14.01800   24.19300  
H    26.53600   13.72700   22.44100  
H    24.85000   13.83000   22.87100  
O    27.08000   11.34600   24.13500  
C    19.75700   16.94000   24.34900  
H    20.22600   17.86200   24.70300  
H    20.53600   16.18300   24.47700  
H    19.58300   17.10700   23.28300  
S    18.32800   16.35400   25.28700  
C    17.57400   17.90000   25.84000  
H    18.20400   18.76700   25.62600  
H    16.59400   17.99600   25.36600  
H    17.47300   17.85300   26.92700  
O    19.12400   15.97900   26.49900  
$end

$rem
JOBTYPE  SP
METHOD  B3LYP
BASIS  6-31+G(D)
SYMMETRY  FALSE
SYM_IGNORE  TRUE
MEM_TOTAL  16000
MEM_STATIC  8000
MAX_SUB_FILE_NUM  16000
BASIS_LIN_DEP_THRESH  6
THRESH  14
SCF_CONVERGENCE  8
GEN_SCFMAN  TRUE
SCF_GUESS  SAD
FD_MAT_VEC_PROD  FALSE
XC_GRID  000075000302
NL_GRID  1
MAX_SCF_CYCLES  200
ENV_METHOD  B3LYP
GEN_SCFMAN_EMBED  TRUE
SPADE_PARTITION  TRUE
$end

$development
embedding_early_stop  1
$end

--------------------------------------------------------------
 ----------------------------------------------------------------
             Standard Nuclear Orientation (Angstroms)
    I     Atom           X                Y                Z
 ----------------------------------------------------------------
    1      C      21.9290000000    14.5470000000    28.8020000000
    2      C      22.5910000000    14.7560000000    27.4300000000
    3      C      23.4740000000    16.0080000000    27.2990000000
    4      C      24.4260000000    16.1490000000    28.4980000000
    5      C      23.5900000000    16.1490000000    29.7890000000
    6      C      22.8770000000    14.8020000000    29.9850000000
    7      H      24.0120000000    16.1390000000    26.3520000000
    8      H      23.2600000000    13.8880000000    27.3850000000
    9      H      20.9870000000    15.0970000000    28.9140000000
   10      H      21.6770000000    13.4800000000    28.8460000000
   11      H      25.1540000000    15.3290000000    28.4810000000
   12      H      24.9180000000    17.1180000000    28.3570000000
   13      H      24.1760000000    16.3850000000    30.6860000000
   14      H      22.8880000000    16.9910000000    29.8270000000
   15      H      23.5930000000    13.9760000000    29.8930000000
   16      H      22.3290000000    14.8510000000    30.9340000000
   17      H      22.7600000000    16.8390000000    27.3420000000
   18      N      21.6560000000    14.6250000000    26.3150000000
   19      H      20.6680000000    14.8360000000    26.3870000000
   20      C      21.9900000000    13.9160000000    25.1800000000
   21      H      21.0860000000    13.6940000000    24.5830000000
   22      O      23.0890000000    13.4490000000    24.9400000000
   23      C      20.0240000000    18.3120000000    29.5330000000
   24      H      19.0530000000    18.3760000000    30.0310000000
   25      H      20.2950000000    17.3050000000    29.2040000000
   26      H      20.9170000000    18.7940000000    29.9400000000
   27      S      19.6640000000    19.2930000000    28.0590000000
   28      C      21.3490000000    19.8710000000    27.7580000000
   29      H      21.7780000000    19.5730000000    26.7980000000
   30      H      21.3240000000    20.9630000000    27.7670000000
   31      H      22.0490000000    19.5000000000    28.5120000000
   32      O      18.8080000000    20.4220000000    28.5450000000
   33      C      19.2580000000    19.3700000000    21.4200000000
   34      H      18.7220000000    19.8190000000    20.5800000000
   35      H      20.3440000000    19.4490000000    21.3240000000
   36      H      18.8440000000    18.4430000000    21.8250000000
   37      S      18.9230000000    20.5680000000    22.7310000000
   38      C      19.7080000000    22.0630000000    22.0880000000
   39      H      19.8000000000    22.8130000000    22.8780000000
   40      H      20.7320000000    21.7510000000    21.8670000000
   41      H      19.1270000000    22.3040000000    21.1950000000
   42      O      19.8110000000    20.1330000000    23.8550000000
   43      C      25.8660000000    12.7840000000    27.4020000000
   44      H      25.1660000000    12.7670000000    28.2420000000
   45      H      26.2550000000    13.7820000000    27.1820000000
   46      H      25.5250000000    12.3740000000    26.4480000000
   47      S      27.2740000000    11.7490000000    27.8610000000
   48      C      26.4580000000    10.1460000000    27.6960000000
   49      H      25.5370000000    10.0510000000    28.2780000000
   50      H      26.1860000000    10.0180000000    26.6450000000
   51      H      27.1610000000     9.3660000000    28.0010000000
   52      O      27.4510000000    11.9450000000    29.3350000000
   53      C      16.6990000000    10.2140000000    19.5480000000
   54      H      17.2500000000     9.3620000000    19.9540000000
   55      H      15.6380000000    10.1440000000    19.8000000000
   56      H      16.7260000000    10.3950000000    18.4710000000
   57      S      17.3870000000    11.6970000000    20.3180000000
   58      C      16.6820000000    11.4760000000    21.9670000000
   59      H      17.3050000000    12.0780000000    22.6330000000
   60      H      15.6960000000    11.9470000000    21.9560000000
   61      H      16.7870000000    10.4270000000    22.2570000000
   62      O      16.6960000000    12.9150000000    19.7890000000
   63      C      26.9400000000    17.9990000000    35.9160000000
   64      H      26.5990000000    17.0700000000    36.3790000000
   65      H      27.3300000000    18.7650000000    36.5910000000
   66      H      26.0230000000    18.3950000000    35.4730000000
   67      S      28.1430000000    17.6070000000    34.6250000000
   68      C      29.4800000000    17.4040000000    35.8240000000
   69      H      29.3780000000    18.2160000000    36.5490000000
   70      H      29.3960000000    16.4390000000    36.3290000000
   71      H      30.4070000000    17.4060000000    35.2460000000
   72      O      28.3480000000    19.0140000000    34.1590000000
   73      C      20.3340000000     8.8450000000    34.5180000000
   74      H      19.8820000000     8.9140000000    35.5110000000
   75      H      19.6760000000     9.2740000000    33.7580000000
   76      H      20.5070000000     7.7930000000    34.2770000000
   77      S      21.8900000000     9.7640000000    34.5220000000
   78      C      22.8040000000     8.8910000000    35.8140000000
   79      H      22.8580000000     7.8290000000    35.5610000000
   80      H      23.8210000000     9.2760000000    35.9190000000
   81      H      22.1370000000     8.8770000000    36.6800000000
   82      O      21.5240000000    11.0250000000    35.2410000000
   83      C      12.9570000000    15.8520000000    25.3540000000
   84      H      13.0100000000    15.4280000000    24.3480000000
   85      H      12.3670000000    15.0330000000    25.7720000000
   86      H      12.4460000000    16.8140000000    25.4390000000
   87      S      14.6030000000    16.1310000000    26.0460000000
   88      C      15.2360000000    14.4770000000    25.6890000000
   89      H      14.5640000000    13.6950000000    26.0510000000
   90      H      15.3760000000    14.3990000000    24.6070000000
   91      H      16.1820000000    14.3030000000    26.2080000000
   92      O      14.4040000000    16.2310000000    27.5260000000
   93      C      19.3160000000     6.6230000000    30.7490000000
   94      H      19.6470000000     6.6480000000    31.7910000000
   95      H      18.2880000000     6.9810000000    30.6470000000
   96      H      19.3930000000     5.5560000000    30.5240000000
   97      S      20.1880000000     7.6500000000    29.5460000000
   98      C      20.0600000000     9.1840000000    30.4940000000
   99      H      20.4640000000     9.1040000000    31.5070000000
  100      H      20.4580000000    10.0630000000    29.9810000000
  101      H      18.9900000000     9.3910000000    30.5660000000
  102      O      19.1080000000     7.9490000000    28.5530000000
  103      C      28.9330000000    15.6400000000    23.6950000000
  104      H      27.8700000000    15.5690000000    23.9360000000
  105      H      29.3500000000    16.4080000000    24.3510000000
  106      H      29.2020000000    15.9220000000    22.6730000000
  107      S      29.7370000000    14.0850000000    24.1430000000
  108      C      28.8800000000    13.9340000000    25.7270000000
  109      H      29.2170000000    14.7320000000    26.3940000000
  110      H      27.8020000000    13.9120000000    25.5510000000
  111      H      29.2080000000    12.9660000000    26.1150000000
  112      O      31.1530000000    14.3510000000    24.5490000000
  113      C      28.0790000000    21.5760000000    31.5840000000
  114      H      28.5390000000    21.3550000000    32.5500000000
  115      H      28.3920000000    22.4740000000    31.0460000000
  116      H      27.0030000000    21.6180000000    31.7720000000
  117      S      28.1780000000    20.2060000000    30.4100000000
  118      C      29.9680000000    20.4260000000    30.2890000000
  119      H      30.3450000000    19.5020000000    29.8430000000
  120      H      30.1890000000    21.2910000000    29.6580000000
  121      H      30.3850000000    20.5300000000    31.2940000000
  122      O      27.6350000000    20.6540000000    29.0890000000
  123      C      20.1040000000    17.0340000000    33.1280000000
  124      H      20.9270000000    17.4160000000    32.5180000000
  125      H      19.6320000000    16.2720000000    32.5020000000
  126      H      19.3610000000    17.7590000000    33.4710000000
  127      S      20.8650000000    16.3540000000    34.6190000000
  128      C      21.5290000000    17.9450000000    35.1610000000
  129      H      22.1810000000    17.9370000000    36.0390000000
  130      H      22.0820000000    18.5470000000    34.4350000000
  131      H      20.6540000000    18.5470000000    35.4180000000
  132      O      22.1110000000    15.6630000000    34.1600000000
  133      C      29.2810000000    14.5150000000    30.6660000000
  134      H      28.8330000000    13.7610000000    30.0140000000
  135      H      30.3030000000    14.5940000000    30.2850000000
  136      H      29.1330000000    14.3380000000    31.7340000000
  137      S      28.4180000000    16.0420000000    30.2310000000
  138      C      26.8670000000    15.5250000000    31.0000000000
  139      H      26.8920000000    15.7150000000    32.0760000000
  140      H      26.1980000000    16.2430000000    30.5190000000
  141      H      26.6540000000    14.5160000000    30.6370000000
  142      O      28.0110000000    15.8870000000    28.7990000000
  143      C      23.7850000000    15.1040000000    20.3350000000
  144      H      24.5590000000    15.7080000000    20.8140000000
  145      H      23.4120000000    14.2050000000    20.8320000000
  146      H      24.1240000000    14.8500000000    19.3270000000
  147      S      22.2940000000    16.0870000000    20.0640000000
  148      C      23.3020000000    17.4280000000    19.3940000000
  149      H      23.8730000000    17.8670000000    20.2170000000
  150      H      23.9320000000    16.9860000000    18.6180000000
  151      H      22.5760000000    18.1410000000    18.9950000000
  152      O      21.7500000000    16.5030000000    21.3950000000
  153      C      23.4560000000    22.5430000000    30.3700000000
  154      H      24.2640000000    23.2790000000    30.3880000000
  155      H      22.8900000000    22.7120000000    29.4500000000
  156      H      22.9380000000    22.4550000000    31.3280000000
  157      S      24.3610000000    21.0000000000    30.1110000000
  158      C      24.6170000000    21.1610000000    28.3290000000
  159      H      25.1610000000    22.0890000000    28.1370000000
  160      H      25.2120000000    20.3090000000    27.9900000000
  161      H      23.6460000000    21.2480000000    27.8350000000
  162      O      23.3250000000    19.9290000000    30.2440000000
  163      C      29.0420000000    19.5690000000    26.1970000000
  164      H      29.0020000000    20.2340000000    27.0640000000
  165      H      29.4570000000    18.5920000000    26.4560000000
  166      H      29.6250000000    20.0520000000    25.4090000000
  167      S      27.4230000000    19.2660000000    25.4540000000
  168      C      26.8360000000    17.9930000000    26.5930000000
  169      H      27.3530000000    17.0440000000    26.4260000000
  170      H      27.0760000000    18.2910000000    27.6170000000
  171      H      25.7610000000    17.8890000000    26.4250000000
  172      O      27.7190000000    18.4830000000    24.2130000000
  173      C      24.4470000000    17.5160000000    23.8090000000
  174      H      24.9250000000    16.9200000000    24.5900000000
  175      H      23.8380000000    16.8370000000    23.2060000000
  176      H      25.2670000000    17.9180000000    23.2080000000
  177      S      23.3540000000    18.8310000000    24.3950000000
  178      C      22.8750000000    19.3420000000    22.7290000000
  179      H      23.7850000000    19.7600000000    22.2920000000
  180      H      22.4640000000    18.4730000000    22.2080000000
  181      H      22.1690000000    20.1680000000    22.8500000000
  182      O      24.2180000000    19.9850000000    24.7960000000
  183      C      18.8880000000    11.8850000000    27.1570000000
  184      H      18.0420000000    12.2180000000    27.7640000000
  185      H      19.1630000000    10.8310000000    27.2490000000
  186      H      19.7400000000    12.5610000000    27.2740000000
  187      S      18.4390000000    12.1750000000    25.4310000000
  188      C      17.1710000000    10.8890000000    25.4920000000
  189      H      16.5180000000    11.0730000000    24.6360000000
  190      H      17.7660000000     9.9790000000    25.3820000000
  191      H      16.6680000000    10.8130000000    26.4600000000
  192      O      19.4870000000    11.6140000000    24.5220000000
  193      C      17.8770000000    13.7120000000    33.0950000000
  194      H      18.5180000000    14.0980000000    33.8910000000
  195      H      17.7210000000    14.4880000000    32.3410000000
  196      H      16.8860000000    13.4070000000    33.4420000000
  197      S      18.6770000000    12.2250000000    32.4520000000
  198      C      20.1720000000    13.0650000000    31.8830000000
  199      H      19.8890000000    13.9470000000    31.3040000000
  200      H      20.6780000000    13.4020000000    32.7910000000
  201      H      20.7640000000    12.3850000000    31.2650000000
  202      O      18.0340000000    12.0000000000    31.1190000000
  203      C      20.8220000000    13.0830000000    21.3060000000
  204      H      21.5730000000    13.3130000000    22.0660000000
  205      H      20.6750000000    13.8210000000    20.5120000000
  206      H      19.8850000000    12.8940000000    21.8360000000
  207      S      21.2100000000    11.5410000000    20.4480000000
  208      C      21.2980000000    10.5200000000    21.9360000000
  209      H      20.5290000000    10.9310000000    22.5940000000
  210      H      20.9500000000     9.5470000000    21.5790000000
  211      H      22.3450000000    10.5490000000    22.2470000000
  212      O      22.6450000000    11.7030000000    20.0530000000
  213      C      15.7020000000    18.9600000000    29.4280000000
  214      H      15.9750000000    20.0100000000    29.3010000000
  215      H      16.5290000000    18.3490000000    29.0570000000
  216      H      14.7200000000    18.7630000000    28.9910000000
  217      S      15.5980000000    18.6730000000    31.2090000000
  218      C      15.3440000000    16.9090000000    30.9090000000
  219      H      14.8890000000    16.5140000000    31.8210000000
  220      H      14.5950000000    16.8010000000    30.1210000000
  221      H      16.2650000000    16.4130000000    30.5920000000
  222      O      14.2840000000    19.2310000000    31.6600000000
  223      C      28.1590000000    12.5310000000    36.6770000000
  224      H      27.9780000000    11.4960000000    36.3770000000
  225      H      29.1810000000    12.7470000000    36.9990000000
  226      H      27.4430000000    12.8470000000    37.4410000000
  227      S      27.9430000000    13.7140000000    35.3280000000
  228      C      26.5910000000    12.8570000000    34.4900000000
  229      H      25.8600000000    12.5290000000    35.2340000000
  230      H      26.1780000000    13.4690000000    33.6840000000
  231      H      26.9100000000    11.9420000000    33.9850000000
  232      O      29.1020000000    13.5240000000    34.3990000000
  233      C      14.7030000000    14.8080000000    21.1630000000
  234      H      14.8000000000    14.3810000000    20.1620000000
  235      H      15.1880000000    14.1140000000    21.8540000000
  236      H      13.6800000000    14.8450000000    21.5480000000
  237      S      15.6500000000    16.3120000000    21.4880000000
  238      C      17.3020000000    15.7830000000    20.9790000000
  239      H      17.9860000000    16.3960000000    21.5720000000
  240      H      17.4900000000    14.7570000000    21.3040000000
  241      H      17.4810000000    15.8920000000    19.9060000000
  242      O      15.6240000000    16.4110000000    22.9820000000
  243      C      25.2010000000    10.0830000000    31.9840000000
  244      H      24.7930000000     9.4970000000    32.8100000000
  245      H      25.5290000000     9.4140000000    31.1840000000
  246      H      26.0360000000    10.6580000000    32.3940000000
  247      S      23.8310000000    11.1230000000    31.4290000000
  248      C      23.6500000000    12.3190000000    32.7710000000
  249      H      22.7170000000    12.8890000000    32.7630000000
  250      H      23.7250000000    11.7730000000    33.7150000000
  251      H      24.4710000000    13.0400000000    32.7900000000
  252      O      22.5770000000    10.3100000000    31.5130000000
  253      C      22.2170000000     9.9150000000    27.4700000000
  254      H      22.3300000000     8.8890000000    27.8290000000
  255      H      22.7880000000    10.6290000000    28.0690000000
  256      H      21.1590000000    10.1620000000    27.5850000000
  257      S      22.6640000000    10.0290000000    25.7220000000
  258      C      21.3620000000     8.9890000000    25.0250000000
  259      H      21.3020000000     8.0530000000    25.5880000000
  260      H      20.5420000000     9.7010000000    25.1420000000
  261      H      21.5650000000     8.7500000000    23.9780000000
  262      O      23.8510000000     9.1430000000    25.5030000000
  263      C      25.6210000000    11.1590000000    21.9760000000
  264      H      26.4290000000    11.5350000000    21.3420000000
  265      H      25.7060000000    10.0850000000    22.1580000000
  266      H      24.6600000000    11.4360000000    21.5350000000
  267      S      25.7240000000    11.7780000000    23.6700000000
  268      C      25.8300000000    13.5330000000    23.2530000000
  269      H      26.1040000000    14.0180000000    24.1930000000
  270      H      26.5360000000    13.7270000000    22.4410000000
  271      H      24.8500000000    13.8300000000    22.8710000000
  272      O      27.0800000000    11.3460000000    24.1350000000
  273      C      19.7570000000    16.9400000000    24.3490000000
  274      H      20.2260000000    17.8620000000    24.7030000000
  275      H      20.5360000000    16.1830000000    24.4770000000
  276      H      19.5830000000    17.1070000000    23.2830000000
  277      S      18.3280000000    16.3540000000    25.2870000000
  278      C      17.5740000000    17.9000000000    25.8400000000
  279      H      18.2040000000    18.7670000000    25.6260000000
  280      H      16.5940000000    17.9960000000    25.3660000000
  281      H      17.4730000000    17.8530000000    26.9270000000
  282      O      19.1240000000    15.9790000000    26.4990000000
 ----------------------------------------------------------------
 Nuclear Repulsion Energy =       44877.16549157 hartrees
 There are      581 alpha and      581 beta electrons
 Requested basis set is 6-31+G(d)
 There are 929 shells and 2589 basis functions

 Total QAlloc Memory Limit  16000 MB
 Mega-Array Size      7821 MB
 MEM_STATIC part      8000 MB
 A cutoff of  1.0D-14 yielded 164223 shell pairs
 There are   1427820 function pairs
 Smallest overlap matrix eigenvalue = 5.49E-07
 Linear dependence detected in AO basis
 Tighter screening thresholds may be required for diffuse basis sets
 Use S2THRESH > 14 and THRESH = 14 in case of SCF convergence issues
 Number of orthogonalized atomic orbitals = 2587
 Maximum deviation from orthogonality = 3.568E-10

 Scale SEOQF with 1.000000e-03/1.000000e-03/1.000000e-03

 Standard Electronic Orientation quadrupole field applied
 Nucleus-field energy     =    -0.0000005601 hartrees
 Guess from superposition of atomic densities
 Warning:  Energy on first SCF cycle will be non-variational
 SAD guess density has 1162.000002 electrons

 -----------------------------------------------------------------------
  General SCF calculation program by
  Eric Jon Sundstrom, Paul Horn, Yuezhi Mao, Dmitri Zuev, Alec White,
  David Stuck, Shaama M.S., Shane Yost, Joonho Lee, David Small,
  Daniel Levine, Susi Lehtola, Hugh Burton, Evgeny Epifanovsky,
  Bang C. Huynh
 -----------------------------------------------------------------------
=================================================
        Doing projection-based embedding         
      F. Manby et al. JCTC, 8, 2564 (2012)       
=================================================

****************************************************
   Low-level SCF calculation for the whole system   
****************************************************
----------------------------------------------
 Summary of the low-level theory: 
 Exchange:     0.2000 Hartree-Fock + 0.0800 Slater + 0.7200 B88
 Correlation:  0.1900 VWN1RPA + 0.8100 LYP
 Using Euler-Maclaurin-Lebedev (75,302) quadrature formula
----------------------------------------------
 using 16 threads for integral computing
 -------------------------------------------------------
 OpenMP Integral computing Module                
 Release: version 2.0, May 2017, Q-Chem Inc. Pleasanton 
 -------------------------------------------------------
 A restricted SCF calculation will be
 performed using DIIS
 SCF converges when DIIS error is below 1.0e-08
 ---------------------------------------
  Cycle       Energy         DIIS error
 ---------------------------------------
    1  -14806.0335724262      1.37e-02  
    2  -14782.9514276030      2.53e-03  
    3  -14771.8333428703      4.75e-03  
    4  -14786.8552345558      9.59e-04  
    5  -14787.5522466626      1.89e-04  
    6  -14787.5731542921      9.64e-05  
    7  -14787.5787573086      3.93e-05  
    8  -14787.5798015505      6.73e-06  
    9  -14787.5798325338      2.88e-06  
   10  -14787.5798379310      1.04e-06  
   11  -14787.5798385793      3.76e-07  
   12  -14787.5798386721      1.09e-07  
   13  -14787.5798386801      3.88e-08  
   14  -14787.5798386810      1.64e-08  
   15  -14787.5798386814      5.31e-09  Convergence criterion met
 ---------------------------------------
 SCF time:   CPU 152340.47s  wall 9620.00s 
 SCF   energy in the final basis set =   -14787.5798386814
 Total energy in the final basis set =   -14787.5798386814

****************************************************
             Start embedding calculation            
****************************************************
----------------------------------------------
 Summary of the high-level theory: 
 Exchange:     0.2000 Hartree-Fock + 0.0800 Slater + 0.7200 B88
 Correlation:  0.1900 VWN1RPA + 0.8100 LYP
 Using Euler-Maclaurin-Lebedev (75,302) quadrature formula
----------------------------------------------
Doing R-in-R Embedding Calculation
Number of fragments: 2
Embedded fragment(s): 1 
NOcc for each fragment
           35
          546
NBasis for each fragment
          197
         2392
Variational space of the embedded problem: 
NOcc (active)  = 35
NOcc (fixed)   = 546
NVir (total)   = 2006
Read converged orbitals from disk
=========================================================
       Doing SPADE partition for the orbital space       
     D. CLaudino and N. Mayhall JCTC 15, 1053 (2019)     
=========================================================
SPADE singular values:
 1.0000 1.0000 1.0000 1.0000 1.0000 1.0000 1.0000 1.0000 1.0000 0.9999
 0.9998 0.9998 0.9997 0.9995 0.9995 0.9994 0.9994 0.9990 0.9985 0.9976
 0.9974 0.9972 0.9965 0.9958 0.9956 0.9952 0.9948 0.9940 0.9930 0.9921
 0.9909 0.9897 0.9890 0.9858 0.9788 0.2188 0.1905 0.1740 0.1566 0.1544
 0.1430 0.1351 0.1288 0.1129 0.1047 0.0959 0.0951 0.0875 0.0851 0.0740
 0.0618 0.0515 0.0503 0.0496 0.0472 0.0434 0.0431 0.0384 0.0347 0.0318
 0.0307 0.0292 0.0262 0.0245 0.0238 0.0221 0.0209 0.0201 0.0193 0.0174
 0.0168 0.0160 0.0150 0.0134 0.0128 0.0125 0.0118 0.0110 0.0107 0.0100
 0.0097 0.0095 0.0090 0.0085 0.0081 0.0079 0.0078 0.0069 0.0068 0.0066
 0.0062 0.0058 0.0055 0.0053 0.0051 0.0049 0.0043 0.0041 0.0039 0.0037
 0.0034 0.0031 0.0030 0.0029 0.0028 0.0027 0.0025 0.0025 0.0024 0.0022
 0.0021 0.0020 0.0019 0.0019 0.0019 0.0018 0.0016 0.0016 0.0016 0.0015
 0.0014 0.0014 0.0014 0.0013 0.0012 0.0012 0.0012 0.0011 0.0011 0.0010
 0.0010 0.0009 0.0009 0.0009 0.0009 0.0008 0.0008 0.0008 0.0007 0.0007
 0.0007 0.0006 0.0006 0.0006 0.0005 0.0005 0.0005 0.0005 0.0005 0.0004
 0.0004 0.0004 0.0004 0.0004 0.0004 0.0003 0.0003 0.0003 0.0003 0.0003
 0.0003 0.0003 0.0003 0.0002 0.0002 0.0002 0.0002 0.0002 0.0002 0.0002
 0.0002 0.0002 0.0002 0.0002 0.0002 0.0002 0.0001 0.0001 0.0001 0.0001
 0.0001 0.0001 0.0001 0.0001 0.0001 0.0001 0.0001 0.0001 0.0001 0.0001
 0.0001 0.0001 0.0001 0.0001 0.0001 0.0001 0.0000
Early stop requested!
546 environment occs will be part of frozen-core in future post-HF calculations
 
 --------------------------------------------------------------
 
                    Orbital Energies (a.u.)
 --------------------------------------------------------------
 
 Alpha MOs
 -- Occupied --
 -0.5062  -0.4948  -0.4260  -0.4577  -0.4903  -0.5093  -0.4731  -0.4724
 -0.4695  -0.4371  -0.4417  -0.4395  -0.4324  -0.4447  -0.4757  -0.4547
 -0.4181  -0.4995  -0.5050  -0.4360  -0.4803  -0.5505  -0.5222  -0.5178
 -0.4923  -0.5136  -0.5148  -0.6053  -0.5350  -0.4828  -0.5531  -0.5622
 -0.5333  -0.4942  -0.5153  -0.5691  -0.6284  -0.5417  -0.4725  -0.5685
 -0.5917  -0.5984  -0.5284  -0.5243  -0.5427  -0.5402  -0.6081  -0.5711
 -0.6092  -0.5293  -0.5125  -0.6168  -0.5845  -0.6515  -0.5363  -0.6739
 -0.6012  -0.5888  -0.5941  -0.6127  -0.5578  -0.6215  -0.6760  -0.8334
 -0.7072  -0.9616  -0.9948  -0.9072  -0.7653  -0.9387  -1.3638  -1.1017
 -0.8846  -0.9342  -1.4557  -0.8207  -0.9931  -1.0252  -1.0028  -1.3727
 -1.4671  -0.9191  -1.1663  -1.1346  -0.9695  -1.3094  -0.9881  -0.8820
 -1.3141  -1.5307  -1.3043  -1.1085  -1.2078  -1.5946  -1.3681  -1.3753
 -1.0191  -1.2773  -1.0155  -1.2801  -1.1782  -1.0167  -2.0377  -1.3675
 -2.3121  -2.0753  -1.7069  -1.3952  -1.1987  -1.3253  -1.8930  -1.4888
 -1.5507  -1.7124  -1.1249  -2.8634  -1.6404  -1.1948  -1.2540  -1.4652
 -1.5054  -2.1444  -2.0282  -1.7326  -1.2744  -1.2617  -1.3235  -1.6139
 -1.4582  -1.6196  -1.5876  -1.5888  -1.4706  -1.4293  -1.5612  -1.6054
 -1.4678  -1.5034  -1.5043  -1.8383  -1.6379  -1.6210  -1.8669  -1.8590
 -2.3410  -1.7660  -1.6617  -1.6716  -1.9229  -1.7944  -1.8669  -2.0437
 -1.7890  -1.7237  -2.5577  -2.1884  -2.2587  -1.9312  -2.6209  -1.5314
 -1.8379  -1.5996  -5.8724  -5.6231  -5.9746  -6.0694  -6.0232  -5.9743
 -5.8394  -5.7375  -5.8360  -5.9489  -5.9632  -5.7697  -5.5114  -5.9080
 -5.7620  -5.8240  -5.9778  -5.9386  -5.9427  -5.9439  -1.2993  -6.4094
 -2.8010  -1.4126  -1.6614 -31.9967  -1.5408  -6.0502  -8.7009  -2.1617
 -5.7772  -1.6016 -11.4902  -2.4502  -3.7640 -18.0621  -1.7915  -8.6181
 -7.6639  -9.3965  -4.7289  -5.9933  -7.1843  -1.3168  -5.1336  -5.7686
 -1.7543 -73.8404  -1.2685  -2.2433  -9.5046  -1.5527 -81.9326  -1.8973
 -4.9925  -1.1383  -1.3291  -1.2151 -13.3364  -3.8377 -11.2519  -1.4893
 -1.7519  -1.8935  -7.6022  -7.4431  -9.7604 -14.9450 -10.1468  -2.5009
-14.4045 -10.7878  -5.7171  -1.4146  -8.5137  -3.1369  -1.9029  -1.6647
 -1.1231 -76.1054  -1.1024 -12.5377  -2.7357 -24.0497  -6.2919  -1.1582
-73.7411 -22.5561  -3.7740  -1.6612  -2.5351  -2.0300  -6.8582  -6.5609
 -8.2704 -11.4153  -7.0468  -9.3372 -16.2578 -11.2092 -10.1136  -1.3829
 -2.5665  -0.9866  -2.4169 -62.9411  -6.6883  -1.1478  -2.1773  -2.0370
 -2.6455 -10.8685  -9.4771  -2.4599 -16.3104  -5.3562  -1.4484 -65.1799
 -3.5604 -16.7500  -1.6129  -8.0732  -8.0488  -7.0548 -13.7319 -11.7431
 -4.8402  -7.3360  -7.4330 -26.7092 -39.4803  -3.0588 -59.5857 -69.3155
 -1.3483  -4.3982  -2.8072  -2.1926  -4.2557  -2.4069  -1.2777  -1.9294
 -8.3518  -2.5873  -2.4148  -2.6247  -8.8205  -8.5592  -5.5341  -4.6564
 -3.4137  -5.1192  -3.0079  -7.6042  -3.3036  -6.9349 -12.1171  -2.1221
 -7.0265 -10.5090  -1.3722  -2.3966 -26.3933  -2.2863 -19.2699  -8.6087
 -3.0405  -7.9853  -9.0581  -8.5905  -4.5490  -7.6351  -9.9358 -21.9257
-19.2120  -7.1448 -15.4685  -6.4329  -2.3867  -7.4476 -10.7658  -3.2489
 -7.0126  -7.7354  -6.6498  -7.7458  -7.0397  -2.1134  -6.0950 -11.7116
 -4.1978  -3.2565  -8.7839  -9.6104  -7.9391 -12.6712  -5.9168  -8.4419
 -7.1707 -23.6946  -7.0719  -8.7682  -8.0899 -11.9063  -2.2142 -12.4278
 -3.4509 -11.7884  -8.3403 -21.6312  -7.2415  -6.7272  -1.0386  -9.1155
-12.2951  -8.3072 -14.4499  -6.8870  -9.3160  -8.6951 -12.8256  -9.7079
 -7.0051 -16.4351  -2.9911  -8.2942  -5.9508 -34.4862  -4.7270  -3.5648
 -1.1123  -1.7725  -5.2251  -6.3863  -5.6646  -1.5056  -6.9357  -1.2865
 -2.1301  -4.4138  -7.7385  -9.0334  -6.3911 -19.5146  -5.7722  -5.6856
 -3.1505  -7.1205  -4.3848  -9.9929  -5.1061  -1.7851  -9.4736  -6.4996
 -6.5068 -11.7866 -14.3043 -11.0753 -12.9641  -3.0344  -5.0883 -17.2743
-11.7784 -21.0930 -10.3070  -0.9512 -12.4131 -12.5471 -10.1294  -9.0737
 -7.1387  -7.0168  -5.6085 -11.3179 -23.3410 -26.2367  -2.4434 -23.0625
 -7.7902  -8.1559 -15.4036 -10.4023  -2.2902 -13.8694 -14.0706 -14.0664
 -4.7271  -4.1627  -6.9137  -9.0590  -2.8952 -37.3244 -14.8325  -5.7523
-10.7760  -7.1727  -4.7737  -9.7082 -29.5893 -11.1798 -10.0822  -5.8327
-15.8506  -9.2200 -10.6741 -11.1144  -9.7032  -7.1277 -33.8071  -7.0450
-16.5311  -2.9531  -4.9414  -8.6197  -5.2996 -10.6642 -14.8077 -33.8119
-26.4816 -25.7380 -61.8363  -1.8097  -7.8133  -9.9079 -14.1201  -9.4504
 -4.8196 -64.2273  -2.3053 -79.0122 -29.6145 -69.9842  -2.7205  -4.7413
 -5.5208  -9.3308 -10.6095  -2.9195  -4.4947  -1.6791  -3.0568  -3.7610
 -3.6781  -3.2030  -9.7903  -2.3682 -24.4243 -12.8135 -10.2724  -4.8675
 -3.1676 -43.4949 -11.7981 -17.0774 -23.6440 -10.8391  -7.8267 -12.0086
-11.2563  -5.4650 -13.7711 -16.4173  -3.2923 -52.0675 -15.2156  -8.9188
 -3.3601  -9.2960  -7.0468  -6.6386 -13.0607  -8.8212 -18.6432  -5.2722
-10.6234 -13.3424 -14.0692  -5.6064 -11.9082 -14.7554 -10.2922 -13.9343
-10.5956  -6.4874 -10.2210 -12.3413 -16.2424 -11.3702 -11.1392 -11.5459
-10.3224 -10.5902 -10.0444  -0.8873  -0.7232  -0.6346  -0.8704  -0.6843
 -0.7207  -0.8129  -0.6192  -0.4787  -0.4168  -0.4395  -0.4394  -0.4055
 -0.4515  -0.4309  -0.4292  -0.3985  -0.4055  -0.4703  -0.4331  -0.3859
 -0.4569  -0.4938  -0.4827  -0.5338  -0.5145
 -- Virtual --
 -0.0300  -0.0297  -0.0248  -0.0238  -0.0223  -0.0201  -0.0177  -0.0148
 -0.0148  -0.0119  -0.0108  -0.0091  -0.0084  -0.0082  -0.0066  -0.0060
 -0.0046  -0.0037  -0.0033  -0.0018  -0.0012  -0.0001   0.0007   0.0019
  0.0024   0.0029   0.0041   0.0046   0.0055   0.0060   0.0064   0.0067
  0.0085   0.0090   0.0097   0.0112   0.0119   0.0134   0.0142   0.0147
  0.0152   0.0162   0.0164   0.0176   0.0187   0.0193   0.0198   0.0201
  0.0212   0.0215   0.0227   0.0230   0.0235   0.0246   0.0253   0.0260
  0.0261   0.0268   0.0281   0.0292   0.0300   0.0302   0.0312   0.0318
  0.0320   0.0322   0.0327   0.0344   0.0348   0.0353   0.0360   0.0361
  0.0367   0.0377   0.0380   0.0395   0.0400   0.0402   0.0405   0.0412
  0.0421   0.0422   0.0426   0.0431   0.0444   0.0446   0.0454   0.0458
  0.0468   0.0471   0.0476   0.0484   0.0488   0.0495   0.0500   0.0505
  0.0515   0.0519   0.0526   0.0526   0.0528   0.0537   0.0550   0.0551
  0.0561   0.0564   0.0566   0.0583   0.0588   0.0598   0.0602   0.0614
  0.0617   0.0621   0.0626   0.0629   0.0642   0.0643   0.0655   0.0665
  0.0670   0.0678   0.0683   0.0688   0.0696   0.0705   0.0707   0.0714
  0.0718   0.0728   0.0733   0.0735   0.0742   0.0746   0.0746   0.0759
  0.0765   0.0771   0.0787   0.0796   0.0801   0.0804   0.0806   0.0816
  0.0822   0.0829   0.0832   0.0834   0.0845   0.0859   0.0862   0.0873
  0.0877   0.0885   0.0890   0.0898   0.0901   0.0915   0.0917   0.0925
  0.0926   0.0929   0.0938   0.0948   0.0958   0.0964   0.0969   0.0975
  0.0981   0.0987   0.0991   0.1001   0.1003   0.1013   0.1013   0.1026
  0.1030   0.1035   0.1039   0.1049   0.1055   0.1059   0.1062   0.1069
  0.1076   0.1082   0.1097   0.1105   0.1106   0.1115   0.1121   0.1130
  0.1136   0.1140   0.1146   0.1150   0.1156   0.1161   0.1167   0.1173
  0.1179   0.1185   0.1187   0.1201   0.1203   0.1212   0.1216   0.1223
  0.1230   0.1237   0.1241   0.1254   0.1262   0.1263   0.1276   0.1286
  0.1293   0.1297   0.1302   0.1308   0.1312   0.1317   0.1322   0.1332
  0.1335   0.1341   0.1347   0.1355   0.1356   0.1362   0.1371   0.1381
  0.1384   0.1386   0.1394   0.1400   0.1405   0.1409   0.1417   0.1424
  0.1435   0.1439   0.1450   0.1454   0.1456   0.1459   0.1464   0.1472
  0.1474   0.1477   0.1493   0.1496   0.1503   0.1512   0.1515   0.1520
  0.1528   0.1536   0.1538   0.1543   0.1548   0.1557   0.1563   0.1574
  0.1578   0.1584   0.1593   0.1600   0.1606   0.1614   0.1618   0.1623
  0.1629   0.1635   0.1638   0.1643   0.1654   0.1664   0.1668   0.1672
  0.1681   0.1685   0.1690   0.1696   0.1707   0.1710   0.1713   0.1728
  0.1729   0.1736   0.1747   0.1755   0.1757   0.1764   0.1769   0.1774
  0.1788   0.1793   0.1794   0.1803   0.1805   0.1814   0.1819   0.1826
  0.1834   0.1843   0.1847   0.1852   0.1859   0.1869   0.1881   0.1886
  0.1890   0.1897   0.1904   0.1915   0.1919   0.1923   0.1933   0.1940
  0.1941   0.1951   0.1957   0.1963   0.1964   0.1967   0.1976   0.1984
  0.1988   0.1992   0.1997   0.2003   0.2005   0.2012   0.2020   0.2026
  0.2038   0.2047   0.2057   0.2061   0.2065   0.2076   0.2081   0.2084
  0.2096   0.2099   0.2102   0.2113   0.2116   0.2125   0.2133   0.2141
  0.2143   0.2149   0.2157   0.2160   0.2170   0.2176   0.2180   0.2184
  0.2189   0.2193   0.2201   0.2213   0.2218   0.2226   0.2233   0.2243
  0.2248   0.2257   0.2260   0.2265   0.2268   0.2276   0.2281   0.2286
  0.2296   0.2304   0.2306   0.2314   0.2319   0.2324   0.2338   0.2348
  0.2352   0.2360   0.2364   0.2368   0.2373   0.2381   0.2389   0.2395
  0.2401   0.2411   0.2415   0.2420   0.2423   0.2431   0.2434   0.2453
  0.2459   0.2465   0.2474   0.2484   0.2491   0.2497   0.2501   0.2507
  0.2517   0.2520   0.2528   0.2531   0.2541   0.2545   0.2549   0.2557
  0.2561   0.2568   0.2575   0.2581   0.2591   0.2601   0.2607   0.2614
  0.2616   0.2619   0.2634   0.2638   0.2650   0.2651   0.2660   0.2670
  0.2680   0.2682   0.2687   0.2698   0.2702   0.2707   0.2715   0.2721
  0.2726   0.2738   0.2743   0.2748   0.2764   0.2774   0.2778   0.2790
  0.2794   0.2808   0.2810   0.2815   0.2823   0.2837   0.2841   0.2853
  0.2857   0.2857   0.2865   0.2878   0.2882   0.2887   0.2897   0.2903
  0.2913   0.2926   0.2932   0.2943   0.2950   0.2957   0.2964   0.2982
  0.2985   0.2987   0.2998   0.3005   0.3009   0.3022   0.3035   0.3042
  0.3049   0.3050   0.3057   0.3079   0.3084   0.3092   0.3095   0.3108
  0.3116   0.3125   0.3133   0.3139   0.3146   0.3153   0.3162   0.3167
  0.3173   0.3185   0.3196   0.3205   0.3212   0.3219   0.3226   0.3229
  0.3241   0.3244   0.3251   0.3266   0.3281   0.3287   0.3291   0.3295
  0.3301   0.3318   0.3330   0.3335   0.3353   0.3359   0.3362   0.3377
  0.3381   0.3384   0.3395   0.3400   0.3415   0.3420   0.3434   0.3442
  0.3451   0.3464   0.3468   0.3475   0.3481   0.3493   0.3503   0.3518
  0.3523   0.3532   0.3549   0.3552   0.3567   0.3576   0.3588   0.3597
  0.3607   0.3612   0.3617   0.3624   0.3631   0.3632   0.3640   0.3652
  0.3664   0.3678   0.3691   0.3697   0.3702   0.3711   0.3720   0.3730
  0.3739   0.3748   0.3759   0.3768   0.3779   0.3787   0.3795   0.3802
  0.3824   0.3826   0.3838   0.3844   0.3850   0.3859   0.3863   0.3864
  0.3871   0.3882   0.3890   0.3901   0.3907   0.3916   0.3932   0.3943
  0.3954   0.3965   0.3967   0.3978   0.3997   0.4004   0.4011   0.4013
  0.4033   0.4041   0.4051   0.4060   0.4065   0.4072   0.4087   0.4101
  0.4110   0.4114   0.4129   0.4135   0.4145   0.4149   0.4163   0.4171
  0.4186   0.4206   0.4214   0.4220   0.4226   0.4234   0.4242   0.4253
  0.4264   0.4274   0.4284   0.4291   0.4300   0.4323   0.4331   0.4342
  0.4344   0.4358   0.4373   0.4377   0.4384   0.4398   0.4405   0.4416
  0.4428   0.4436   0.4450   0.4461   0.4478   0.4485   0.4493   0.4510
  0.4527   0.4537   0.4548   0.4553   0.4570   0.4585   0.4592   0.4598
  0.4614   0.4625   0.4630   0.4636   0.4648   0.4663   0.4681   0.4687
  0.4693   0.4713   0.4736   0.4737   0.4749   0.4772   0.4781   0.4794
  0.4800   0.4835   0.4848   0.4868   0.4870   0.4883   0.4884   0.4904
  0.4916   0.4923   0.4932   0.4955   0.4964   0.4984   0.4993   0.5025
  0.5032   0.5041   0.5064   0.5085   0.5095   0.5123   0.5126   0.5149
  0.5163   0.5185   0.5195   0.5208   0.5210   0.5237   0.5248   0.5260
  0.5271   0.5292   0.5302   0.5320   0.5336   0.5375   0.5379   0.5390
  0.5408   0.5432   0.5448   0.5468   0.5469   0.5494   0.5526   0.5553
  0.5560   0.5570   0.5579   0.5618   0.5625   0.5642   0.5657   0.5676
  0.5685   0.5699   0.5718   0.5731   0.5751   0.5753   0.5791   0.5822
  0.5823   0.5830   0.5847   0.5859   0.5883   0.5892   0.5903   0.5911
  0.5945   0.5952   0.5970   0.5974   0.5980   0.6005   0.6021   0.6046
  0.6056   0.6071   0.6080   0.6090   0.6095   0.6110   0.6145   0.6156
  0.6172   0.6178   0.6187   0.6192   0.6210   0.6235   0.6244   0.6247
  0.6257   0.6269   0.6284   0.6296   0.6306   0.6313   0.6325   0.6345
  0.6359   0.6371   0.6385   0.6388   0.6390   0.6400   0.6424   0.6436
  0.6442   0.6454   0.6463   0.6474   0.6503   0.6505   0.6509   0.6532
  0.6555   0.6565   0.6570   0.6575   0.6584   0.6592   0.6602   0.6620
  0.6630   0.6633   0.6652   0.6656   0.6672   0.6690   0.6703   0.6709
  0.6712   0.6725   0.6749   0.6752   0.6774   0.6784   0.6797   0.6803
  0.6808   0.6824   0.6832   0.6846   0.6851   0.6858   0.6874   0.6895
  0.6913   0.6923   0.6939   0.6950   0.6965   0.6968   0.6978   0.6988
  0.6990   0.7004   0.7028   0.7030   0.7049   0.7062   0.7077   0.7079
  0.7086   0.7100   0.7103   0.7109   0.7125   0.7135   0.7161   0.7173
  0.7181   0.7193   0.7201   0.7216   0.7218   0.7247   0.7254   0.7259
  0.7270   0.7291   0.7302   0.7304   0.7310   0.7322   0.7337   0.7351
  0.7352   0.7375   0.7393   0.7410   0.7421   0.7424   0.7439   0.7443
  0.7470   0.7485   0.7501   0.7508   0.7513   0.7544   0.7547   0.7591
  0.7605   0.7623   0.7636   0.7642   0.7659   0.7680   0.7690   0.7697
  0.7714   0.7744   0.7756   0.7774   0.7799   0.7803   0.7812   0.7832
  0.7842   0.7852   0.7878   0.7893   0.7906   0.7912   0.7928   0.7936
  0.7968   0.7974   0.7987   0.8009   0.8013   0.8037   0.8052   0.8072
  0.8090   0.8110   0.8114   0.8129   0.8137   0.8158   0.8172   0.8181
  0.8193   0.8201   0.8211   0.8226   0.8258   0.8269   0.8282   0.8296
  0.8314   0.8315   0.8337   0.8350   0.8361   0.8373   0.8389   0.8403
  0.8425   0.8428   0.8448   0.8459   0.8486   0.8503   0.8505   0.8527
  0.8530   0.8554   0.8559   0.8567   0.8578   0.8595   0.8612   0.8617
  0.8635   0.8660   0.8668   0.8690   0.8700   0.8709   0.8720   0.8729
  0.8741   0.8752   0.8768   0.8785   0.8797   0.8812   0.8815   0.8837
  0.8838   0.8868   0.8879   0.8894   0.8901   0.8908   0.8925   0.8944
  0.8952   0.8961   0.8968   0.8984   0.9006   0.9021   0.9034   0.9051
  0.9062   0.9079   0.9086   0.9100   0.9106   0.9122   0.9135   0.9138
  0.9154   0.9163   0.9171   0.9174   0.9186   0.9197   0.9211   0.9225
  0.9241   0.9248   0.9258   0.9277   0.9283   0.9297   0.9316   0.9322
  0.9337   0.9352   0.9362   0.9372   0.9378   0.9393   0.9414   0.9418
  0.9423   0.9429   0.9454   0.9464   0.9475   0.9484   0.9493   0.9501
  0.9513   0.9521   0.9534   0.9539   0.9552   0.9574   0.9585   0.9590
  0.9611   0.9615   0.9626   0.9630   0.9643   0.9661   0.9666   0.9673
  0.9682   0.9703   0.9715   0.9724   0.9730   0.9740   0.9761   0.9769
  0.9789   0.9800   0.9815   0.9826   0.9833   0.9853   0.9863   0.9868
  0.9878   0.9885   0.9900   0.9908   0.9916   0.9924   0.9932   0.9938
  0.9969   0.9971   0.9976   0.9987   0.9993   1.0003   1.0018   1.0027
  1.0031   1.0043   1.0048   1.0066   1.0079   1.0095   1.0106   1.0113
  1.0125   1.0131   1.0149   1.0155   1.0174   1.0183   1.0204   1.0211
  1.0228   1.0242   1.0245   1.0273   1.0276   1.0290   1.0293   1.0315
  1.0330   1.0339   1.0350   1.0356   1.0371   1.0383   1.0389   1.0401
  1.0426   1.0430   1.0438   1.0460   1.0467   1.0483   1.0489   1.0513
  1.0521   1.0539   1.0553   1.0574   1.0579   1.0598   1.0606   1.0619
  1.0635   1.0637   1.0658   1.0670   1.0678   1.0689   1.0700   1.0719
  1.0744   1.0749   1.0763   1.0776   1.0784   1.0814   1.0817   1.0826
  1.0856   1.0862   1.0883   1.0892   1.0898   1.0911   1.0936   1.0945
  1.0952   1.0972   1.0977   1.0995   1.1014   1.1017   1.1040   1.1061
  1.1078   1.1087   1.1096   1.1100   1.1118   1.1126   1.1141   1.1157
  1.1183   1.1191   1.1199   1.1217   1.1234   1.1255   1.1264   1.1275
  1.1278   1.1290   1.1304   1.1316   1.1338   1.1365   1.1377   1.1387
  1.1405   1.1407   1.1411   1.1416   1.1437   1.1465   1.1475   1.1484
  1.1491   1.1511   1.1521   1.1540   1.1549   1.1553   1.1564   1.1586
  1.1598   1.1610   1.1630   1.1642   1.1660   1.1676   1.1690   1.1692
  1.1699   1.1721   1.1747   1.1752   1.1763   1.1765   1.1794   1.1802
  1.1810   1.1837   1.1853   1.1865   1.1878   1.1890   1.1910   1.1922
  1.1940   1.1956   1.1971   1.1973   1.1988   1.2021   1.2041   1.2064
  1.2081   1.2089   1.2103   1.2114   1.2143   1.2151   1.2190   1.2192
  1.2211   1.2227   1.2240   1.2267   1.2281   1.2301   1.2308   1.2313
  1.2329   1.2372   1.2386   1.2413   1.2436   1.2440   1.2476   1.2497
  1.2512   1.2524   1.2549   1.2600   1.2605   1.2632   1.2675   1.2693
  1.2711   1.2734   1.2747   1.2785   1.2792   1.2811   1.2837   1.2850
  1.2874   1.2876   1.2946   1.2955   1.2972   1.2989   1.3015   1.3047
  1.3053   1.3078   1.3100   1.3136   1.3150   1.3184   1.3190   1.3207
  1.3236   1.3267   1.3278   1.3290   1.3310   1.3341   1.3352   1.3372
  1.3392   1.3408   1.3418   1.3424   1.3448   1.3482   1.3491   1.3515
  1.3531   1.3549   1.3566   1.3585   1.3608   1.3623   1.3634   1.3637
  1.3662   1.3696   1.3705   1.3737   1.3749   1.3769   1.3778   1.3787
  1.3822   1.3824   1.3843   1.3854   1.3877   1.3885   1.3900   1.3906
  1.3934   1.3941   1.3957   1.3973   1.3984   1.3994   1.4001   1.4025
  1.4031   1.4043   1.4055   1.4059   1.4081   1.4102   1.4133   1.4147
  1.4153   1.4170   1.4179   1.4187   1.4208   1.4217   1.4231   1.4246
  1.4271   1.4276   1.4296   1.4299   1.4322   1.4339   1.4370   1.4379
  1.4396   1.4399   1.4424   1.4428   1.4438   1.4460   1.4477   1.4481
  1.4499   1.4511   1.4540   1.4542   1.4559   1.4602   1.4608   1.4617
  1.4646   1.4656   1.4666   1.4691   1.4698   1.4726   1.4747   1.4764
  1.4775   1.4791   1.4804   1.4838   1.4845   1.4870   1.4899   1.4905
  1.4928   1.4963   1.4966   1.4983   1.5009   1.5020   1.5052   1.5109
  1.5116   1.5128   1.5137   1.5180   1.5200   1.5216   1.5234   1.5272
  1.5287   1.5315   1.5359   1.5373   1.5417   1.5433   1.5445   1.5489
  1.5514   1.5538   1.5556   1.5587   1.5621   1.5643   1.5661   1.5683
  1.5716   1.5766   1.5794   1.5836   1.5860   1.5914   1.5939   1.5988
  1.6064   1.6070   1.6137   1.6191   1.6232   1.6312   1.6349   1.6408
  1.6422   1.6469   1.6481   1.6486   1.6536   1.6547   1.6568   1.6592
  1.6607   1.6610   1.6620   1.6645   1.6661   1.6694   1.6698   1.6715
  1.6723   1.6723   1.6735   1.6754   1.6764   1.6785   1.6801   1.6809
  1.6810   1.6851   1.6885   1.6886   1.6897   1.6913   1.6924   1.6938
  1.6948   1.6955   1.6966   1.6976   1.6990   1.7011   1.7026   1.7033
  1.7036   1.7069   1.7096   1.7111   1.7125   1.7139   1.7142   1.7156
  1.7169   1.7185   1.7211   1.7229   1.7257   1.7271   1.7280   1.7302
  1.7308   1.7318   1.7326   1.7340   1.7359   1.7378   1.7390   1.7399
  1.7411   1.7433   1.7452   1.7455   1.7471   1.7471   1.7503   1.7518
  1.7535   1.7543   1.7554   1.7571   1.7576   1.7579   1.7591   1.7613
  1.7618   1.7631   1.7646   1.7651   1.7665   1.7678   1.7693   1.7709
  1.7726   1.7734   1.7756   1.7788   1.7806   1.7840   1.7850   1.7871
  1.7891   1.7896   1.7930   1.7976   1.7983   1.7995   1.8001   1.8043
  1.8057   1.8069   1.8099   1.8117   1.8139   1.8160   1.8202   1.8224
  1.8234   1.8277   1.8304   1.8329   1.8338   1.8371   1.8380   1.8423
  1.8439   1.8461   1.8469   1.8498   1.8518   1.8578   1.8589   1.8608
  1.8618   1.8661   1.8679   1.8698   1.8725   1.8750   1.8752   1.8790
  1.8812   1.8827   1.8837   1.8850   1.8854   1.8889   1.8902   1.8913
  1.8925   1.8933   1.8940   1.8943   1.8975   1.9001   1.9003   1.9010
  1.9029   1.9044   1.9057   1.9063   1.9068   1.9073   1.9078   1.9106
  1.9124   1.9137   1.9142   1.9153   1.9169   1.9174   1.9196   1.9218
  1.9222   1.9232   1.9264   1.9280   1.9300   1.9311   1.9322   1.9338
  1.9374   1.9394   1.9416   1.9434   1.9447   1.9474   1.9509   1.9517
  1.9535   1.9550   1.9603   1.9633   1.9672   1.9698   1.9758   1.9775
  1.9851   1.9875   1.9961   1.9991   2.0055   2.0113   2.0157   2.0189
  2.0218   2.0290   2.0362   2.0459   2.0460   2.0523   2.0555   2.0573
  2.0580   2.0603   2.0607   2.0630   2.0655   2.0672   2.0703   2.0711
  2.0725   2.0741   2.0751   2.0758   2.0785   2.0796   2.0810   2.0830
  2.0833   2.0845   2.0869   2.0887   2.0901   2.0924   2.0952   2.0973
  2.0979   2.1002   2.1019   2.1020   2.1065   2.1071   2.1085   2.1098
  2.1109   2.1125   2.1131   2.1159   2.1163   2.1171   2.1186   2.1222
  2.1250   2.1270   2.1300   2.1348   2.1378   2.1424   2.1436   2.1446
  2.1484   2.1512   2.1537   2.1557   2.1575   2.1601   2.1615   2.1649
  2.1660   2.1686   2.1710   2.1748   2.1811   2.1874   2.1886   2.1890
  2.1908   2.1939   2.1984   2.1993   2.2004   2.2059   2.2111   2.2127
  2.2142   2.2173   2.2174   2.2193   2.2196   2.2199   2.2207   2.2219
  2.2226   2.2239   2.2255   2.2263   2.2283   2.2295   2.2307   2.2316
  2.2319   2.2333   2.2348   2.2356   2.2366   2.2398   2.2406   2.2419
  2.2428   2.2440   2.2453   2.2457   2.2461   2.2468   2.2482   2.2489
  2.2490   2.2515   2.2522   2.2542   2.2547   2.2561   2.2564   2.2581
  2.2585   2.2589   2.2598   2.2609   2.2619   2.2625   2.2629   2.2643
  2.2650   2.2656   2.2661   2.2674   2.2687   2.2698   2.2713   2.2737
  2.2745   2.2752   2.2768   2.2775   2.2791   2.2799   2.2812   2.2824
  2.2830   2.2839   2.2852   2.2871   2.2882   2.2905   2.2912   2.2927
  2.2932   2.2935   2.2942   2.2969   2.2979   2.2989   2.2997   2.3008
  2.3024   2.3027   2.3035   2.3038   2.3055   2.3088   2.3092   2.3094
  2.3100   2.3107   2.3128   2.3134   2.3144   2.3159   2.3167   2.3184
  2.3200   2.3210   2.3222   2.3240   2.3244   2.3256   2.3277   2.3292
  2.3306   2.3325   2.3331   2.3354   2.3365   2.3377   2.3397   2.3399
  2.3434   2.3448   2.3459   2.3464   2.3485   2.3505   2.3515   2.3531
  2.3553   2.3573   2.3598   2.3623   2.3638   2.3662   2.3667   2.3692
  2.3724   2.3757   2.3760   2.3777   2.3791   2.3825   2.3850   2.3860
  2.3901   2.3936   2.3982   2.3995   2.4073   2.4110   2.4196   2.4267
  2.4292   2.4468   2.4638   2.4897   2.4961   2.5447   2.5692   2.5981
  2.6908   2.7293   2.7572   2.7897   2.8084   2.8105   2.8174   2.8289
  2.8339   2.8366   2.8387   2.8401   2.8407   2.8428   2.8438   2.8488
  2.8525   2.8548   2.8603   2.8606   2.8614   2.8656   2.8733   2.8748
  2.8768   2.8822   2.8837   2.8851   2.8882   2.8903   2.8910   2.8919
  2.8948   2.9182   2.9739   3.0968   3.2642   3.9353   3.9368   3.9568
  3.9606   3.9655   3.9686   3.9687   3.9781   3.9815   3.9831   3.9861
  3.9918   3.9952   3.9962   4.0023   4.0062   4.0084   4.0139   4.0193
  4.0205   4.0241   4.0295   4.0316   4.0353   4.0366   4.0481   4.1958
  4.2129   4.2155   4.2203   4.2255   4.2284   4.2361   4.2391   4.2425
  4.2450   4.2455   4.2473   4.2513   4.2518   4.2568   4.2579   4.2612
  4.2628   4.2643   4.2663   4.2705   4.2751   4.2760   4.2780   4.2819
  4.2838   4.2878   4.2945   4.2969   4.2976   4.3033   4.3051   4.3098
  4.3154   4.3183   4.3204   4.3231   4.3247   4.3260   4.3290   4.3308
  4.3357   4.3395   4.3406   4.3453   4.3475   4.3496   4.3524   4.3547
  4.3560   4.3565   4.3611   4.3648   4.3664   4.3688   4.3733   4.3749
  4.3809   4.3859   4.3891   4.3901   4.3952   4.4008   4.4063   4.4071
  4.4160   4.4199   4.4301   4.4318   4.4387   4.4499   4.4589   4.4777
  4.4893   4.4944   4.4986   4.5108   4.5311   4.5567   4.5660   4.5818
  4.6371   4.6969   4.7142   4.7407   4.7732   4.9115
 --------------------------------------------------------------
 
          Ground-State Mulliken Net Atomic Charges

     Atom                 Charge (a.u.)
  ----------------------------------------
      1 C                    -0.439312
      2 C                    -0.893472
      3 C                    -0.681915
      4 C                    -0.393169
      5 C                    -0.034402
      6 C                    -0.131390
      7 H                     0.201664
      8 H                     0.220938
      9 H                     0.211990
     10 H                     0.212424
     11 H                     0.243674
     12 H                     0.205879
     13 H                     0.198692
     14 H                     0.246663
     15 H                     0.207254
     16 H                     0.217052
     17 H                     0.231447
     18 N                     0.000263
     19 H                     0.519024
     20 C                    -0.026372
     21 H                     0.171182
     22 O                    -0.221860
     23 C                    -0.829914
     24 H                     0.239038
     25 H                     0.261347
     26 H                     0.284843
     27 S                     0.998000
     28 C                    -1.216245
     29 H                     0.281493
     30 H                     0.255384
     31 H                     0.297320
     32 O                    -0.675781
     33 C                    -0.686951
     34 H                     0.224611
     35 H                     0.259529
     36 H                     0.237177
     37 S                     0.726342
     38 C                    -0.764781
     39 H                     0.275212
     40 H                     0.245706
     41 H                     0.222167
     42 O                    -0.705664
     43 C                    -1.053750
     44 H                     0.260810
     45 H                     0.287951
     46 H                     0.282514
     47 S                     0.890913
     48 C                    -0.899055
     49 H                     0.237484
     50 H                     0.313176
     51 H                     0.241683
     52 O                    -0.652679
     53 C                    -0.910758
     54 H                     0.240419
     55 H                     0.253930
     56 H                     0.266147
     57 S                     0.936541
     58 C                    -0.941893
     59 H                     0.267730
     60 H                     0.262606
     61 H                     0.248067
     62 O                    -0.675664
     63 C                    -0.902338
     64 H                     0.228426
     65 H                     0.241931
     66 H                     0.259191
     67 S                     1.082411
     68 C                    -0.833286
     69 H                     0.233285
     70 H                     0.236641
     71 H                     0.255876
     72 O                    -0.774483
     73 C                    -0.876955
     74 H                     0.256716
     75 H                     0.271392
     76 H                     0.228610
     77 S                     0.945288
     78 C                    -0.860092
     79 H                     0.235412
     80 H                     0.239788
     81 H                     0.253460
     82 O                    -0.649697
     83 C                    -0.881326
     84 H                     0.232628
     85 H                     0.251148
     86 H                     0.244288
     87 S                     0.900186
     88 C                    -0.843552
     89 H                     0.238419
     90 H                     0.270339
     91 H                     0.262395
     92 O                    -0.689124
     93 C                    -0.930523
     94 H                     0.223398
     95 H                     0.269009
     96 H                     0.242966
     97 S                     0.979600
     98 C                    -0.928055
     99 H                     0.245749
    100 H                     0.284373
    101 H                     0.288584
    102 O                    -0.744566
    103 C                    -0.803012
    104 H                     0.227829
    105 H                     0.289506
    106 H                     0.237751
    107 S                     1.007277
    108 C                    -0.946801
    109 H                     0.285220
    110 H                     0.198004
    111 H                     0.268915
    112 O                    -0.701543
    113 C                    -0.868185
    114 H                     0.276527
    115 H                     0.243727
    116 H                     0.241389
    117 S                     1.089134
    118 C                    -0.988118
    119 H                     0.254243
    120 H                     0.261609
    121 H                     0.239992
    122 O                    -0.699417
    123 C                    -0.784464
    124 H                     0.284273
    125 H                     0.256409
    126 H                     0.237375
    127 S                     0.876130
    128 C                    -0.912291
    129 H                     0.253749
    130 H                     0.273898
    131 H                     0.230324
    132 O                    -0.696184
    133 C                    -0.874398
    134 H                     0.329015
    135 H                     0.243924
    136 H                     0.267605
    137 S                     0.813066
    138 C                    -0.932334
    139 H                     0.225506
    140 H                     0.260928
    141 H                     0.294243
    142 O                    -0.684162
    143 C                    -0.810191
    144 H                     0.257294
    145 H                     0.289774
    146 H                     0.250512
    147 S                     0.920157
    148 C                    -0.880050
    149 H                     0.276642
    150 H                     0.240340
    151 H                     0.242266
    152 O                    -0.671674
    153 C                    -0.750663
    154 H                     0.233693
    155 H                     0.247187
    156 H                     0.251903
    157 S                     0.534884
    158 C                    -0.682348
    159 H                     0.258903
    160 H                     0.303771
    161 H                     0.254884
    162 O                    -0.645939
    163 C                    -0.940317
    164 H                     0.273868
    165 H                     0.256170
    166 H                     0.245211
    167 S                     1.005553
    168 C                    -0.991575
    169 H                     0.302114
    170 H                     0.292006
    171 H                     0.229954
    172 O                    -0.690501
    173 C                    -1.255181
    174 H                     0.262860
    175 H                     0.262328
    176 H                     0.308162
    177 S                     1.276096
    178 C                    -1.102843
    179 H                     0.261518
    180 H                     0.276967
    181 H                     0.259337
    182 O                    -0.606078
    183 C                    -0.628402
    184 H                     0.276719
    185 H                     0.276460
    186 H                     0.286089
    187 S                     0.380570
    188 C                    -0.757187
    189 H                     0.235972
    190 H                     0.288497
    191 H                     0.269033
    192 O                    -0.588527
    193 C                    -1.059999
    194 H                     0.243013
    195 H                     0.263743
    196 H                     0.255464
    197 S                     1.232798
    198 C                    -1.180996
    199 H                     0.266475
    200 H                     0.268940
    201 H                     0.296798
    202 O                    -0.689441
    203 C                    -1.061947
    204 H                     0.291886
    205 H                     0.248052
    206 H                     0.244642
    207 S                     0.839523
    208 C                    -0.853188
    209 H                     0.292337
    210 H                     0.238829
    211 H                     0.286893
    212 O                    -0.703764
    213 C                    -0.848997
    214 H                     0.273934
    215 H                     0.216112
    216 H                     0.273385
    217 S                     0.925203
    218 C                    -0.860124
    219 H                     0.236551
    220 H                     0.294448
    221 H                     0.221902
    222 O                    -0.720279
    223 C                    -0.906358
    224 H                     0.254183
    225 H                     0.257705
    226 H                     0.240948
    227 S                     0.841017
    228 C                    -0.817644
    229 H                     0.240658
    230 H                     0.253120
    231 H                     0.262481
    232 O                    -0.680300
    233 C                    -0.787608
    234 H                     0.286519
    235 H                     0.223558
    236 H                     0.250101
    237 S                     0.738459
    238 C                    -0.739750
    239 H                     0.240392
    240 H                     0.268936
    241 H                     0.261696
    242 O                    -0.721724
    243 C                    -0.893029
    244 H                     0.253364
    245 H                     0.273397
    246 H                     0.249401
    247 S                     0.672760
    248 C                    -0.840604
    249 H                     0.300773
    250 H                     0.251366
    251 H                     0.233023
    252 O                    -0.499756
    253 C                    -1.150000
    254 H                     0.268683
    255 H                     0.260470
    256 H                     0.238627
    257 S                     1.352143
    258 C                    -0.989374
    259 H                     0.256876
    260 H                     0.264502
    261 H                     0.251931
    262 O                    -0.678199
    263 C                    -0.982922
    264 H                     0.245953
    265 H                     0.255012
    266 H                     0.281015
    267 S                     0.836515
    268 C                    -0.922865
    269 H                     0.240448
    270 H                     0.251103
    271 H                     0.259534
    272 O                    -0.577304
    273 C                    -0.898634
    274 H                     0.342887
    275 H                     0.277274
    276 H                     0.218853
    277 S                     0.950165
    278 C                    -0.953367
    279 H                     0.314478
    280 H                     0.267919
    281 H                     0.278340
    282 O                    -0.660981
  ----------------------------------------
  Sum of atomic charges =     0.000000

 -----------------------------------------------------------------
                    Cartesian Multipole Moments
 -----------------------------------------------------------------
    Charge (ESU x 10^10)
                 0.0000
    Dipole Moment (Debye)
         X     -10.4838      Y      -5.1184      Z       4.8418
       Tot      12.6313
    Quadrupole Moments (Debye-Ang)
        XX   -1525.6931     XY    -156.8111     YY   -1020.3136
        XZ      15.9306     YZ    -142.2209     ZZ    -426.9761
    Octopole Moments (Debye-Ang^2)
       XXX  -87386.1885    XXY  -20608.5352    XYY  -21688.1714
       YYY  -42612.8725    XXZ  -30970.5666    XYZ   -1326.3706
       YYZ  -29031.0107    XZZ   -6586.1431    YZZ  -14433.4478
       ZZZ  -45887.6552
    Hexadecapole Moments (Debye-Ang^3)
      XXXX ************   XXXY ************   XXYY -738339.0080
      XYYY -909832.1484   YYYY ************   XXXZ ************
      XXYZ -435852.1814   XYYZ -572536.2475   YYYZ ************
      XXZZ -925944.2941   XYZZ -186601.7353   YYZZ ************
      XZZZ -796853.2613   YZZZ -972507.3675   ZZZZ ************
 -----------------------------------------------------------------
Archival summary:
[...]
    2   0.0298403   0.0117535  -0.0526639  -0.0008719  -0.0224345   0.0240148
    3  -0.0089875   0.0103253   0.0292775  -0.0017578  -0.0154175  -0.0188578
          121         122         123         124         125         126
    1   0.0158618  -0.0414264   0.0006322   0.0213200  -0.0150347  -0.0221893
    2   0.0025640   0.0295168   0.0041178   0.0197040  -0.0237932   0.0273693
    3   0.0272536  -0.0961557  -0.0092104  -0.0181225  -0.0132584  -0.0039210
          127         128         129         130         131         132
    1  -0.0344430   0.0022492   0.0149565   0.0156570  -0.0241206   0.0924847
    2  -0.0214201   0.0106117  -0.0142372   0.0052590   0.0249479  -0.0508067
    3   0.0333576   0.0012553   0.0265941  -0.0337468   0.0132748  -0.0323122
          133         134         135         136         137         138
    1   0.0006051  -0.0199082   0.0344575   0.0074483   0.0214587  -0.0071888
    2  -0.0108148  -0.0303996   0.0003585  -0.0155080   0.0423854   0.0008256
    3  -0.0027976  -0.0106622   0.0012675   0.0321072   0.0251814  -0.0010824
          139         140         141         142         143         144
    1  -0.0046621  -0.0283145  -0.0073254  -0.0301340   0.0038582   0.0221428
    2  -0.0001851   0.0144074  -0.0295937  -0.0091437  -0.0058827   0.0108587
    3   0.0332156  -0.0075245  -0.0072376  -0.1035403   0.0000524   0.0218405
          145         146         147         148         149         150
    1   0.0048403   0.0136830  -0.0298586   0.0017998   0.0176337   0.0202158
    2  -0.0289463  -0.0186356  -0.0248095   0.0074002   0.0165319  -0.0015554
    3   0.0114966  -0.0272867  -0.0444726  -0.0008519   0.0189593  -0.0259881
          151         152         153         154         155         156
    1  -0.0116191  -0.0453358  -0.0018385   0.0168002  -0.0309869  -0.0218549
    2   0.0283891   0.0283275   0.0035608   0.0322976   0.0082891   0.0014460
    3  -0.0164183   0.0958844  -0.0020810   0.0073847  -0.0155079   0.0215792
          157         158         159         160         161         162
    1   0.0505894   0.0011735   0.0234618   0.0152436  -0.0247143  -0.0745219
    2  -0.0000783  -0.0007404   0.0222261  -0.0198588  -0.0067797  -0.0803879
    3   0.0273047  -0.0108810  -0.0106973  -0.0125489  -0.0187087   0.0119013
          163         164         165         166         167         168
    1   0.0065012  -0.0089606   0.0189152   0.0205843  -0.0363747  -0.0000692
    2   0.0010805   0.0169507  -0.0258391   0.0102307   0.0501099  -0.0059906
    3   0.0042514   0.0279720   0.0072452  -0.0225888   0.0038473   0.0083767
          169         170         171         172         173         174
    1   0.0155222  -0.0004686  -0.0299929   0.0209014   0.0072002   0.0098854
    2  -0.0237127   0.0062467  -0.0017202  -0.0550399  -0.0030655  -0.0099490
    3  -0.0048995   0.0331721   0.0033368  -0.0907927  -0.0045019   0.0279563
          175         176         177         178         179         180
    1  -0.0188102   0.0265103  -0.0442684  -0.0031910   0.0280853  -0.0172662
    2  -0.0189767   0.0187995  -0.0187284   0.0020941   0.0109929  -0.0215068
    3  -0.0177714  -0.0131037   0.0305956  -0.0066050  -0.0130484  -0.0193012
          181         182         183         184         185         186
    1  -0.0242154   0.0619323   0.0052387  -0.0173685   0.0040802   0.0232412
    2   0.0172981   0.0862140   0.0031706   0.0084670  -0.0277510   0.0203177
    3   0.0082474   0.0302173   0.0067984   0.0274873   0.0139150   0.0171010
          187         188         189         190         191         192
    1  -0.0254461  -0.0023635  -0.0253000   0.0113100  -0.0197129   0.0748739
    2   0.0594949  -0.0061589  -0.0039259  -0.0300215   0.0020144  -0.0336020
    3  -0.0005714   0.0003029  -0.0180597  -0.0079363   0.0243794  -0.0652478
          193         194         195         196         197         198
    1  -0.0036259   0.0105647  -0.0024084  -0.0273817   0.0102429   0.0071607
    2   0.0061956   0.0142739   0.0166183  -0.0048208  -0.0354395   0.0053429
    3   0.0008145   0.0305476  -0.0291613   0.0151482   0.0343986  -0.0014633
          199         200         201         202         203         204
    1  -0.0108621   0.0278181   0.0163425  -0.0467789  -0.0044613   0.0173904
    2   0.0223709   0.0112895  -0.0200425  -0.0168759   0.0050438   0.0114455
    3  -0.0224216   0.0218372  -0.0124184  -0.0987691   0.0045171   0.0167859
          205         206         207         208         209         210
    1  -0.0052652  -0.0308957  -0.0427758  -0.0033503  -0.0149633  -0.0021891
    2   0.0280137   0.0054414  -0.0153462  -0.0023844   0.0050639  -0.0360601
    3  -0.0134187   0.0195717  -0.0322264   0.0054705   0.0377877  -0.0006472
          211         212         213         214         215         216
    1   0.0235500   0.1034315  -0.0006199   0.0107770   0.0186811  -0.0241671
    2  -0.0033188   0.0092461   0.0046833   0.0294372  -0.0171723  -0.0108062
    3   0.0125387  -0.0335197  -0.0076573  -0.0112867  -0.0215530  -0.0166540
          217         218         219         220         221         222
    1   0.0503293  -0.0067660  -0.0084353  -0.0197723   0.0255774  -0.0950656
    2   0.0093633  -0.0059081  -0.0181514  -0.0068542  -0.0188228   0.0432610
    3   0.0223957  -0.0034663   0.0258866  -0.0258776  -0.0078122   0.0352970
          223         224         225         226         227         228
    1   0.0017585   0.0025928   0.0301977  -0.0180108  -0.0156965  -0.0060098
    2  -0.0036696  -0.0304187  -0.0055166   0.0031902   0.0485923  -0.0050338
    3   0.0046159  -0.0087631   0.0146400   0.0297524   0.0183384  -0.0051913
          229         230         231         232         233         234
    1  -0.0317659  -0.0132631   0.0252997   0.0860341  -0.0008371   0.0048476
    2  -0.0015917   0.0233250  -0.0238834  -0.0127507  -0.0119481  -0.0112452
    3   0.0171993  -0.0144083  -0.0116421  -0.0690238  -0.0006914  -0.0290728
          235         236         237         238         239         240
    1   0.0146455  -0.0306686  -0.0188589   0.0091854   0.0220500   0.0039115
    2  -0.0258220   0.0133936   0.0481814  -0.0066837   0.0179185  -0.0310120
    3   0.0162471   0.0038009  -0.0366792   0.0011201   0.0131189   0.0020454
          241         242         243         244         245         246
    1   0.0036705  -0.0034309   0.0050360  -0.0123569   0.0098640   0.0273887
    2   0.0004838   0.0112710  -0.0062320  -0.0241678  -0.0144210   0.0177799
    3  -0.0297404   0.1091169   0.0061858   0.0226442  -0.0235645   0.0014459
          247         248         249         250         251         252
    1   0.0146822  -0.0013619  -0.0254529  -0.0089222   0.0194438  -0.0928030
    2   0.0323724   0.0071752   0.0106549  -0.0099808   0.0235971  -0.0582842
    3  -0.0553486   0.0116386  -0.0035840   0.0309954  -0.0055405   0.0041150
          253         254         255         256         257         258
    1  -0.0038817   0.0103351   0.0180302  -0.0322798  -0.0058702  -0.0095954
    2  -0.0040262  -0.0298581   0.0171819   0.0080185   0.0508240  -0.0030923
    3   0.0084800   0.0105701   0.0191381   0.0062147  -0.0210646   0.0006098
          259         260         261         262         263         264
    1  -0.0075808  -0.0448669   0.0076582   0.0862695   0.0003012   0.0290482
    2  -0.0254549   0.0062183  -0.0024825  -0.0679412  -0.0047208   0.0059951
    3   0.0183760  -0.0090137  -0.0271239  -0.0176580  -0.0093956  -0.0163012
          265         266         267         268         269         270
    1   0.0035478  -0.0291817  -0.0459046   0.0074669   0.0099818   0.0323921
    2  -0.0355968  -0.0002808  -0.0149543   0.0060056   0.0251062   0.0044803
    3  -0.0089436  -0.0230639   0.0267958  -0.0067710   0.0195999  -0.0194101
          271         272         273         274         275         276
    1  -0.0243786   0.1016779   0.0104891  -0.0001061   0.0118036  -0.0018608
    2   0.0170123  -0.0358442   0.0030661   0.0277190  -0.0283973  -0.0024185
    3  -0.0080224   0.0342823  -0.0013703   0.0197253   0.0063500  -0.0295375
          277         278         279         280         281         282
    1  -0.0301631  -0.0032808   0.0190869  -0.0275391  -0.0017212   0.0709349
    2  -0.0348334   0.0112800   0.0220536   0.0053633  -0.0085956  -0.0362109
    3  -0.0266015   0.0040799  -0.0073610  -0.0123558   0.0278039   0.0892158
  --- DONE ESP SUMMARY ---
Archival summary:
1\1\node024\SP\ProcedureUnspecified\6-31+G*\262652h22\ymao90\FriDec317:48:082021FriDec317:48:082021\0\\#,ProcedureUnspecified,6-31+G*,\\0,1\S\O,1,1.49773\C,1,1.80678,2,100.857\H,3,1.09269,1,107.833,2,-28.1489,0\H,3,1.09284,1,108.46,2,-147.991,0\H,3,1.09288,1,112.229,2,88.7052,0\C,1,1.80701,2,94.644,3,103.388,0\H,7,1.09294,1,115.464,2,167.146,0\H,7,1.09333,1,116.4,2,-69.3494,0\H,7,1.09374,1,106.143,2,45.6694,0\Gh,2,1.9243,1,121.874,3,-155.923,0\Gh,11,1.01284,2,155.584,1,95.2693,0\Gh,12,1.3793,11,113.69,2,-118.679,0\Gh,13,1.10585,12,110.455,11,-1.63563,0\Gh,13,1.21799,12,125.291,11,-173.038,0\Gh,12,1.46103,11,123.459,2,75.5217,0\Gh,16,1.09682,12,106.743,11,139.108,0\Gh,16,1.53763,12,113.156,11,28.8457,0\Gh,18,1.09654,16,113.13,12,-46.566,0\Gh,18,1.09724,16,105.476,12,69.6255,0\Gh,18,1.53728,16,113.491,12,-175.023,0\Gh,21,1.09695,18,111.413,16,168.083,0\Gh,21,1.09699,18,102.302,16,-67.8105,0\Gh,21,1.53662,18,109.475,16,49.1437,0\Gh,24,1.09691,21,111.809,18,65.3888,0\Gh,24,1.09713,21,109.397,18,173.468,0\Gh,16,1.53765,12,112.054,11,-104.192,0\Gh,27,1.09645,16,103.876,12,62.9709,0\Gh,27,1.097,16,116.898,12,-52.4173,0\Gh,27,1.53746,16,111.335,12,178.546,0\Gh,30,1.09586,27,104.996,16,-173.878,0\Gh,30,1.09666,27,109.292,16,66.7895,0\H,26,2.03385,24,116.67,21,108.074,0\C,33,1.09291,26,128.192,24,-112.426,0\H,34,1.09293,33,109.456,26,-68.1192,0\H,34,1.09326,33,109.934,26,64.9539,0\S,34,1.80672,33,98.6368,26,176.493,0\O,37,1.49676,34,98.2881,33,-56.419,0\C,37,1.80713,34,93.7676,33,-163.021,0\H,39,1.09264,37,107.908,34,-50.8962,0\H,39,1.09285,37,104.1,34,71.2291,0\H,39,1.09357,37,107.541,34,-179.939,0\H,8,2.11111,7,145.694,1,82.2922,0\C,43,1.09305,8,131.301,7,74.3081,0\H,44,1.09293,43,116.579,8,173.214,0\H,44,1.09309,43,118.043,8,33.6906,0\S,44,1.80725,43,102.897,8,-77.0655,0\O,47,1.49705,44,104.009,43,68.02,0\C,47,1.80685,44,102.11,43,176.499,0\H,49,1.09229,47,104.029,44,65.1218,0\H,49,1.09305,47,104.051,44,-53.7784,0\H,49,1.09319,47,110.307,44,-166.224,0\H,29,2.13264,27,165.221,16,141.071,0\C,53,1.09255,29,127.091,27,-55.4309,0\H,54,1.09325,53,105.391,29,167.177,0\H,54,1.0934,53,107.406,29,-75.496,0\S,54,1.80756,53,115.447,29,43.8525,0\O,57,1.49633,54,107.385,53,79.8498,0\C,57,1.80724,54,93.8482,53,-177.897,0\H,59,1.09261,57,104.84,54,-67.3024,0\H,59,1.09332,57,106.424,54,179.484,0\H,59,1.0934,57,108.31,54,56.2348,0\H,43,2.23392,8,68.4553,7,-129.71,0\C,63,1.09329,43,144.637,8,179.1,0\H,64,1.09254,63,104.924,43,169.989,0\H,64,1.09328,63,111.963,43,49.5699,0\S,64,1.80777,63,104.77,43,-73.7132,0\O,67,1.4975,64,108.428,63,-45.0666,0\C,67,1.80678,64,100.646,63,-152.787,0\H,69,1.09258,67,116.333,64,-52.5652,0\H,69,1.09286,67,100.502,64,62.445,0\H,69,1.09367,67,113.502,64,170.985,0\H,71,2.22808,69,138.396,67,-146.685,0\C,73,1.09278,71,128.71,69,114.259,0\H,74,1.09274,73,106.446,71,42.1378,0\H,74,1.0934,73,120.187,71,165.383,0\S,74,1.80695,73,106.866,71,-70.1785,0\O,77,1.49695,74,103.999,73,25.0903,0\C,77,1.80708,74,98.0444,73,-87.9014,0\H,79,1.09244,77,105.944,74,159.394,0\H,79,1.09276,77,108.903,74,46.7004,0\H,79,1.09286,77,106.83,74,-72.931,0\H,53,2.2372,29,68.9565,27,58.0796,0\C,83,1.09301,53,122.331,29,131.344,0\H,84,1.09315,83,112.697,53,-167.855,0\H,84,1.09352,83,111.036,53,-49.0924,0\S,84,1.80622,83,106.844,53,72.3285,0\O,87,1.49693,84,102.615,83,-87.177,0\C,87,1.80694,84,98.6311,83,165.691,0\H,89,1.09263,87,106.729,84,42.3775,0\H,89,1.09276,87,104.811,84,160.548,0\H,89,1.0934,87,113.282,84,-80.9669,0\O,62,2.24759,59,171.257,57,-12.86,0\S,93,1.49685,62,116.73,59,-117.845,0\C,94,1.80633,93,108.531,62,91.1874,0\H,95,1.0924,94,110.471,93,-63.437,0\H,95,1.09286,94,103.543,93,66.0473,0\H,95,1.09339,94,104.125,93,-179.443,0\C,94,1.80645,93,109.043,62,-5.39464,0\H,99,1.0929,94,106.546,93,161.707,0\H,99,1.093,94,104.419,93,-78.7031,0\H,99,1.09366,94,108.072,93,39.6246,0\H,32,2.30061,30,146.02,27,24.6014,0\C,103,1.09349,32,109.26,30,-108.753,0\H,104,1.09293,103,106.126,32,123.776,0\H,104,1.09357,103,113.356,32,-6.91934,0\S,104,1.80676,103,107.26,32,-124.98,0\O,107,1.49747,104,105.498,103,87.3375,0\C,107,1.80629,104,97.6499,103,-164.668,0\H,109,1.09315,107,107.707,104,64.1563,0\H,109,1.09345,107,108.49,104,-176.62,0\H,109,1.09361,107,114.138,104,-54.4567,0\H,103,2.25173,32,134.343,30,67.1118,0\C,113,1.09249,103,124.221,32,87.5417,0\H,114,1.09323,113,109.596,103,68.0892,0\H,114,1.09328,113,114.654,103,-55.783,0\S,114,1.80729,113,109.171,103,-178.545,0\O,117,1.49688,114,103.044,113,170.138,0\C,117,1.80697,114,94.4856,113,58.8331,0\H,119,1.09229,117,108.807,114,-43.416,0\H,119,1.09273,117,106.63,114,71.1351,0\H,119,1.09379,117,110.127,114,-173.574,0\H,113,2.17683,103,85.3411,32,-90.2388,0\C,123,1.09266,113,135.29,103,-133.531,0\H,124,1.09295,123,113.886,113,178.153,0\H,124,1.09335,123,113.467,113,-60.8089,0\S,124,1.80697,123,104.317,113,61.8843,0\O,127,1.49719,124,107.385,123,-61.5778,0\C,127,1.80649,124,96.8771,123,-168.754,0\H,129,1.09262,127,100.147,124,171.874,0\H,129,1.09304,127,109.976,124,-69.3817,0\H,129,1.09371,127,112.561,124,52.5931,0\H,19,2.332,18,137.947,16,-72.8482,0\C,133,1.09349,19,169.386,18,-78.6468,0\H,134,1.09313,133,114.275,19,-80.2571,0\H,134,1.09335,133,108.395,19,59.4557,0\S,134,1.80683,133,107.693,19,170.387,0\O,137,1.49786,134,104.976,133,158.253,0\C,137,1.80663,134,97.111,133,-88.529,0\H,139,1.09232,137,107.285,134,-122.124,0\H,139,1.09291,137,115.164,134,119.166,0\H,139,1.09369,137,111.935,134,-0.905086,0\O,142,2.19364,139,148.243,137,-108.624,0\S,143,1.496,142,118.205,139,-55.4897,0\C,144,1.80747,143,104.577,142,81.2252,0\H,145,1.09263,144,107.113,143,54.4354,0\H,145,1.09311,144,101.949,143,173.284,0\H,145,1.09331,144,105.699,143,-75.0004,0\C,144,1.80748,143,104.448,142,-21.0304,0\H,149,1.0927,144,108.626,143,165.57,0\H,149,1.09291,144,109.08,143,49.0627,0\H,149,1.09309,144,108.266,143,-75.4074,0\H,75,2.37516,74,95.2766,73,81.9256,0\C,153,1.09225,75,122.282,74,143.483,0\H,154,1.09281,153,112.762,75,-81.1759,0\H,154,1.09353,153,115.496,75,156.241,0\S,154,1.80703,153,105.853,75,29.4762,0\O,157,1.49643,154,104.19,153,-86.239,0\C,157,1.80687,154,91.599,153,162.406,0\H,159,1.09316,157,107.317,154,56.9252,0\H,159,1.09319,157,106.811,154,-68.3476,0\H,159,1.09388,157,101.334,154,175.618,0\H,160,2.13178,159,123.462,157,109.776,0\C,163,1.09252,160,163.963,159,-70.4324,0\H,164,1.09285,163,106.129,160,-131.607,0\H,164,1.09299,163,107.49,160,108.059,0\S,164,1.80785,163,109.085,160,-12.4654,0\O,167,1.49731,164,107.465,163,-155.264,0\C,167,1.80627,164,99.1239,163,-51.6374,0\H,169,1.09226,167,97.1514,164,74.134,0\H,169,1.09295,167,111.203,164,-168.193,0\H,169,1.09392,167,109.487,164,-48.3948,0\H,158,2.29553,157,159.99,154,73.3219,0\C,173,1.09236,158,159.624,157,-179.938,0\H,174,1.0926,173,119.548,158,-25.1038,0\H,174,1.09329,173,107.907,158,108.721,0\S,174,1.80675,173,104.429,158,-142.601,0\O,177,1.49716,174,103.4,173,141.298,0\C,177,1.80678,174,95.8341,173,35.5699,0\H,179,1.09293,177,111.239,174,55.5848,0\H,179,1.09297,177,105.474,174,-59.788,0\H,179,1.09393,177,105.067,174,-176.807,0\H,4,2.38203,3,156.522,1,-152.482,0\C,183,1.09311,4,136.03,3,-0.138055,0\H,184,1.09232,183,107.984,4,-70.0731,0\H,184,1.09275,183,116.32,4,54.8693,0\S,184,1.80697,183,106.815,4,175.882,0\O,187,1.49712,184,106.752,183,-166.479,0\C,187,1.80727,184,89.9716,183,-58.8306,0\H,189,1.09252,187,108.214,184,-46.3568,0\H,189,1.09304,187,111.878,184,73.5949,0\H,189,1.09307,187,105.826,184,-159.961,0\O,92,2.47906,89,140.437,87,42.0428,0\S,193,1.49686,92,118.043,89,104.636,0\C,194,1.80692,193,109.062,92,129.967,0\H,195,1.09252,194,113.456,193,-174.875,0\H,195,1.09262,194,106.71,193,-42.2097,0\H,195,1.09311,194,101.233,193,72.3929,0\C,194,1.80752,193,105.292,92,34.2005,0\H,199,1.09304,194,109.138,193,156.372,0\H,199,1.09308,194,105.425,193,-86.7867,0\H,199,1.09326,194,109.58,193,33.1132,0\H,163,2.4984,160,84.3116,159,97.1263,0\C,203,1.0928,163,125.75,160,93.075,0\H,204,1.09221,203,103.609,163,-104.171,0\H,204,1.09352,203,111.049,163,139.716,0\S,204,1.80783,203,114.241,163,9.89197,0\O,207,1.49728,204,97.311,203,-73.1936,0\C,207,1.80619,204,95.6833,203,-176.051,0\H,209,1.09318,207,112.575,204,-169.384,0\H,209,1.09332,207,101.866,204,71.0738,0\H,209,1.09359,207,118.392,204,-51.5204,0\H,206,2.39099,204,138.173,203,112.398,0\C,213,1.09298,206,115.361,204,162.945,0\H,214,1.09303,213,108.647,206,-57.0951,0\H,214,1.09321,213,110.972,206,-176.986,0\S,214,1.80713,213,108.681,206,63.4429,0\O,217,1.49701,214,102.646,213,76.616,0\C,217,1.80743,214,101.033,213,-179.546,0\H,219,1.09249,217,111.669,214,176.342,0\H,219,1.09305,217,109.197,214,56.2491,0\H,219,1.09318,217,105.303,214,-52.1715,0\O,206,2.43295,204,106.672,203,-23.9763,0\S,223,1.49684,206,175.334,204,29.0152,0\C,224,1.80669,223,103.529,206,97.12,0\H,225,1.09281,224,111.987,223,-175.849,0\H,225,1.0931,224,107.695,223,68.9043,0\H,225,1.09337,224,115.161,223,-52.9034,0\C,224,1.80735,223,107.774,206,-153.961,0\H,229,1.09185,224,104.945,223,-37.9266,0\H,229,1.09323,224,110.784,223,80.4128,0\H,229,1.09359,224,113.038,223,-153.572,0\H,226,1.97411,225,143.213,224,-99.7215,0\C,233,1.09305,226,122.614,225,-0.766688,0\H,234,1.09271,233,103.79,226,70.9278,0\H,234,1.09338,233,114.652,226,-42.992,0\S,234,1.80682,233,111.049,226,-167.193,0\O,237,1.49747,234,103.37,233,-78.757,0\C,237,1.80719,234,97.1897,233,172.104,0\H,239,1.0927,237,113.285,234,34.6133,0\H,239,1.09308,237,101.671,234,158.603,0\H,239,1.09371,237,104.718,234,-86.3772,0\H,228,2.10273,225,162.66,224,59.405,0\C,243,1.09273,228,111.267,225,-67.6107,0\H,244,1.09236,243,108.143,228,-111.753,0\H,244,1.09306,243,114.259,228,11.1695,0\S,244,1.80676,243,105.358,228,131.639,0\O,247,1.49698,244,98.3293,243,172.9,0\C,247,1.80683,244,95.4982,243,67.3351,0\H,249,1.09247,247,106.875,244,-61.9366,0\H,249,1.09317,247,113.699,244,59.1288,0\H,249,1.0934,247,106.539,244,176.384,0\H,68,2.59813,67,125.061,64,-79.2483,0\C,253,1.0938,68,125.148,67,-172.216,0\H,254,1.09277,253,110.816,68,143.638,0\H,254,1.09296,253,110.34,68,-100.336,0\S,254,1.80661,253,107.795,68,20.7835,0\O,257,1.49666,254,107.648,253,179.627,0\C,257,1.80721,254,95.8611,253,71.2527,0\H,259,1.09251,257,117.458,254,57.9375,0\H,259,1.09261,257,105.085,254,-176.548,0\H,259,1.09299,257,111.602,254,-50.2335,0\H,251,2.61926,249,109.693,247,-98.2655,0\C,263,1.0933,251,145.578,249,-63.2259,0\H,264,1.09331,263,110.391,251,-53.8874,0\H,264,1.09332,263,104.42,251,179.479,0\S,264,1.80682,263,113.08,251,64.7668,0\O,267,1.49689,264,105.741,263,73.9842,0\C,267,1.80719,264,94.0664,263,176.727,0\H,269,1.09274,267,105.149,264,67.462,0\H,269,1.09329,267,118.128,264,-49.1308,0\H,269,1.09364,267,116.961,264,-173.996,0\O,196,2.84704,195,129.627,194,-44.2136,0\S,273,1.49627,196,163.416,195,22.3337,0\C,274,1.80731,273,102.174,196,140.583,0\H,275,1.09239,274,110.428,273,174.352,0\H,275,1.09244,274,106.053,273,-68.7105,0\H,275,1.09333,274,106.707,273,54.799,0\C,274,1.80764,273,96.2974,196,-125.521,0\H,279,1.09256,274,109.025,273,177.198,0\H,279,1.09268,274,110.337,273,65.2497,0\H,279,1.09292,274,110.83,273,-53.3454,0\\\@

 Total job time:  50.30s(wall), 161.75s(cpu) 
 Fri Dec  3 17:48:08 2021

        *************************************************************
        *                                                           *
        *  Thank you very much for using Q-Chem.  Have a nice day.  *
        *                                                           *
        *************************************************************


