                  Welcome to Q-Chem
     A Quantum Leap Into The Future Of Chemistry


 Q-Chem 5.2 (devel), Q-Chem, Inc., Pleasanton, CA (2019)

 Yihan Shao,  Zhengting Gan,  E. Epifanovsky,  A. T. B. Gilbert,  M. Wormit,  
 J. Kussmann,  A. W. Lange,  A. Behn,  Jia Deng,  Xintian Feng,  D. Ghosh,  
 M. Goldey,  P. R. Horn,  L. D. Jacobson,  I. Kaliman,  T. Kus,  A. Landau,  
 Jie Liu,  E. I. Proynov,  R. M. Richard,  R. P. Steele,  E. J. Sundstrom,  
 H. L. Woodcock III,  P. M. Zimmerman,  D. Zuev,  B. Alam,  B. Albrecht,  
 E. Alguire,  S. A. Baeppler,  D. Barton,  Z. Benda,  Y. A. Bernard,  
 E. J. Berquist,  K. B. Bravaya,  H. Burton,  K. Carter-Fenk,  D. Casanova,  
 Chun-Min Chang,  Yunqing Chen,  A. Chien,  K. D. Closser,  M. P. Coons,  
 S. Coriani,  S. Dasgupta,  A. L. Dempwolff,  M. Diedenhofen,  Hainam Do,  
 R. G. Edgar,  Po-Tung Fang,  S. Faraji,  S. Fatehi,  Qingguo Feng,  
 J. Fosso-Tande,  J. Gayvert,  Qinghui Ge,  A. Ghysels,  G. Gidofalvi,  
 J. Gomes,  J. Gonthier,  A. Gunina,  D. Hait,  M. W. D. Hanson-Heine,  
 P. H. P. Harbach,  A. W. Hauser,  M. F. Herbst,  J. E. Herr,  
 E. G. Hohenstein,  Z. C. Holden,  Kerwin Hui,  B. C. Huynh,  T.-C. Jagau,  
 Hyunjun Ji,  B. Kaduk,  K. Khistyaev,  Jaehoon Kim,  P. Klunzinger,  K. Koh,  
 D. Kosenkov,  L. Koulias,  T. Kowalczyk,  C. M. Krauter,  A. Kunitsa,  
 Ka Un Lao,  A. Laurent,  K. V. Lawler,  Joonho Lee,  D. Lefrancois,  
 S. Lehtola,  D. S. Levine,  Yi-Pei Li,  You-Sheng Lin,  Fenglai Liu,  
 Kuan-Yu Liu,  E. Livshits,  M. Loipersberger,  A. Luenser,  P. Manohar,  
 E. Mansoor,  S. F. Manzer,  Shan-Ping Mao,  Yuezhi Mao,  N. Mardirossian,  
 A. V. Marenich,  T. Markovich,  L. A. Martinez-Martinez,  S. A. Maurer,  
 N. J. Mayhall,  S. C. McKenzie,  J.-M. Mewes,  P. Morgante,  A. F. Morrison,  
 J. W. Mullinax,  K. Nanda,  T. S. Nguyen-Beck,  R. Olivares-Amaya,  
 J. A. Parkhill,  S. K. Paul,  F. Pavosevic,  Zheng Pei,  T. M. Perrine,  
 F. Plasser,  P. Pokhilko,  S. Prager,  A. Prociuk,  E. Ramos,  B. Rana,  
 D. R. Rehn,  F. Rob,  M. Scheurer,  M. Schneider,  N. Sergueev,  
 S. M. Sharada,  S. Sharma,  D. W. Small,  T. Stauch,  C. J. Stein,  
 T. Stein,  Yu-Chuan Su,  S. P. Veccham,  Zhen Tao,  A. J. W. Thom,  
 A. Tkatchenko,  T. Tsuchimochi,  N. M. Tubman,  L. Vogt,  M. L. Vidal,  
 O. Vydrov,  M. A. Watson,  J. Wenzel,  M. de Wergifosse,  T. A. Wesolowski,  
 A. White,  J. Witte,  A. Yamada,  Jun Yang,  K. Yao,  S. Yeganeh,  
 S. R. Yost,  Zhi-Qiang You,  A. Zech,  Igor Ying Zhang,  Xing Zhang,  
 Yan Zhao,  Ying Zhu,  B. R. Brooks,  G. K. L. Chan,  C. J. Cramer,  
 M. S. Gordon,  W. J. Hehre,  A. Klamt,  M. W. Schmidt,  C. D. Sherrill,  
 D. G. Truhlar,  A. Aspuru-Guzik,  R. Baer,  A. T. Bell,  N. A. Besley,  
 Jeng-Da Chai,  A. E. DePrince, III,  R. A. DiStasio Jr.,  A. Dreuw,  
 B. D. Dunietz,  T. R. Furlani,  Chao-Ping Hsu,  Yousung Jung,  Jing Kong,  
 D. S. Lambrecht,  WanZhen Liang,  C. Ochsenfeld,  V. A. Rassolov,  
 L. V. Slipchenko,  J. E. Subotnik,  T. Van Voorhis,  J. M. Herbert,  
 A. I. Krylov,  P. M. W. Gill,  M. Head-Gordon

 Contributors to earlier versions of Q-Chem not listed above: 
 R. D. Adamson,  B. Austin,  J. Baker,  G. J. O. Beran,  K. Brandhorst,  
 S. T. Brown,  E. F. C. Byrd,  A. K. Chakraborty,  C.-L. Cheng,  
 Siu Hung Chien,  D. M. Chipman,  D. L. Crittenden,  H. Dachsel,  
 R. J. Doerksen,  A. D. Dutoi,  L. Fusti-Molnar,  W. A. Goddard III,  
 A. Golubeva-Zadorozhnaya,  S. R. Gwaltney,  G. Hawkins,  A. Heyden,  
 S. Hirata,  G. Kedziora,  F. J. Keil,  C. Kelley,  Jihan Kim,  R. A. King,  
 R. Z. Khaliullin,  P. P. Korambath,  W. Kurlancheek,  A. M. Lee,  M. S. Lee,  
 S. V. Levchenko,  Ching Yeh Lin,  D. Liotard,  R. C. Lochan,  I. Lotan,  
 P. E. Maslen,  N. Nair,  D. P. O'Neill,  D. Neuhauser,  E. Neuscamman,  
 C. M. Oana,  R. Olson,  B. Peters,  R. Peverati,  P. A. Pieniazek,  
 Y. M. Rhee,  J. Ritchie,  M. A. Rohrdanz,  E. Rosta,  N. J. Russ,  
 H. F. Schaefer III,  N. E. Schultz,  N. Shenvi,  A. C. Simmonett,  A. Sodt,  
 D. Stuck,  K. S. Thanthiriwatte,  V. Vanovschi,  Tao Wang,  A. Warshel,  
 C. F. Williams,  Q. Wu,  X. Xu,  W. Zhang

 Please cite Q-Chem as follows:
 Y. Shao et al., Mol. Phys. 113, 184-215 (2015)
 DOI: 10.1080/00268976.2014.952696

 Q-Chem 5.2.2 for Intel X86 EM64T Linux

 Parts of Q-Chem use Armadillo 9.800.1 (Horizon Scraper).
 http://arma.sourceforge.net/

 Q-Chem begins on Fri Dec  3 23:54:45 2021  

Host: node029
0

     Scratch files written to /home/ymao90/scratch/r7.00_frame_0081_spade_B3LYP_dp20211203120854//

Checking the input file for inconsistencies... 	...done.

--------------------------------------------------------------
User input:
--------------------------------------------------------------
$molecule
0 1
--
0 1
C    30.10700   25.88300   27.13400  
C    29.78600   27.18700   27.88200  
C    30.13800   27.07900   29.37500  
C    31.57500   26.57500   29.58900  
C    31.95000   25.40700   28.66200  
C    31.62400   25.63700   27.17700  
H    29.91700   28.02500   29.88500  
H    30.47700   27.94100   27.48500  
H    29.44000   25.07000   27.44400  
H    29.89900   26.12900   26.08600  
H    32.35600   27.31900   29.39100  
H    31.69300   26.42900   30.67000  
H    32.98800   25.14800   28.90200  
H    31.29500   24.56000   28.90300  
H    32.17800   26.41700   26.64200  
H    31.74500   24.70900   26.60500  
H    29.42800   26.37200   29.82000  
N    28.41500   27.62500   27.62800  
H    27.65500   26.96300   27.72700  
C    27.98000   28.87200   27.23100  
H    26.88700   29.02300   27.16100  
O    28.71400   29.84300   27.17400  
--
0 1
C    24.95000   30.06500   22.38400  
H    25.67300   29.86700   21.58900  
H    25.39000   29.59500   23.26700  
H    23.97200   29.63400   22.15400  
S    24.66900   31.78400   22.86500  
C    24.28900   32.31200   21.17900  
H    24.91900   31.69200   20.53600  
H    23.22400   32.18900   20.96500  
H    24.49500   33.38500   21.16500  
O    25.98900   32.25400   23.39300  
C    32.75600   31.72000   26.68300  
H    31.89200   32.36900   26.84600  
H    33.53000   32.27500   26.14700  
H    32.42700   30.79400   26.20500  
S    33.37100   31.10800   28.26800  
C    31.93200   30.08000   28.64100  
H    31.08400   30.73800   28.43500  
H    31.86000   29.23700   27.94900  
H    32.07500   29.70500   29.65800  
O    33.09500   32.31900   29.10400  
C    24.67500   26.26800   31.46300  
H    24.31100   27.24900   31.77900  
H    24.05600   25.96700   30.61400  
H    24.65200   25.61300   32.33800  
S    26.37100   26.68100   30.99500  
C    27.23200   25.63300   32.18900  
H    28.26900   25.87500   32.43600  
H    26.82500   25.70600   33.20000  
H    27.12500   24.58200   31.90800  
O    26.43500   27.97900   31.73700  
C    29.63200   33.21700   23.58700  
H    29.22600   33.89000   24.34600  
H    28.86100   32.90900   22.87600  
H    30.17600   32.41100   24.08600  
S    30.74700   34.15800   22.52100  
C    32.24400   33.80600   23.47100  
H    32.07300   33.78600   24.55000  
H    32.63800   32.83400   23.16400  
H    33.01700   34.56600   23.33700  
O    30.49300   35.58100   22.91000  
C    31.08900   28.89300   23.45100  
H    31.04900   29.98300   23.37400  
H    31.19900   28.48000   24.45600  
H    31.96200   28.63400   22.84700  
S    29.55200   28.40100   22.63700  
C    28.46400   29.43800   23.64000  
H    28.82100   29.19100   24.64300  
H    28.54200   30.47200   23.29500  
H    27.44000   29.05800   23.59600  
O    29.29600   27.01100   23.13300  
C    35.94400   22.53900   32.41200  
H    35.09400   22.16000   32.98500  
H    36.58000   21.76900   31.96700  
H    36.64400   23.24200   32.87100  
S    35.27400   23.56800   31.08700  
C    34.32800   22.27200   30.25700  
H    33.55700   22.01500   30.98700  
H    33.85200   22.60300   29.33000  
H    34.93900   21.42600   29.93100  
O    36.43700   23.62600   30.14500  
C    28.02700   35.16200   31.91400  
H    27.37100   36.03700   31.90100  
H    27.52700   34.19100   31.97000  
H    28.69100   35.24600   32.77800  
S    29.17700   35.08100   30.52300  
C    30.46200   34.06100   31.28200  
H    30.82800   34.59100   32.16500  
H    30.03600   33.06500   31.42900  
H    31.31200   34.07700   30.59500  
O    29.77400   36.45200   30.60000  
C    30.67300   22.25500   31.32400  
H    31.02900   23.24500   31.62100  
H    31.17200   21.68200   30.53800  
H    29.65500   22.45800   30.98200  
S    30.58100   21.25800   32.82800  
C    29.72400   22.35100   33.98400  
H    30.09800   23.36600   34.13800  
H    28.69600   22.49400   33.63900  
H    29.60300   21.77000   34.90200  
O    31.97700   21.37300   33.35700  
C    27.20100   23.09600   28.96700  
H    28.14600   22.61700   28.69900  
H    26.85300   23.59000   28.05600  
H    27.34800   23.66700   29.88800  
S    25.93900   21.88300   29.41500  
C    24.57500   23.05500   29.59600  
H    24.18800   23.01200   30.61700  
H    24.96400   24.06800   29.46800  
H    23.79000   22.90600   28.85100  
O    26.26500   21.49100   30.82200  
C    39.46600   29.74900   27.54100  
H    40.05000   29.92100   26.63400  
H    40.04200   29.87400   28.46100  
H    39.05700   28.73700   27.48300  
S    37.96100   30.74200   27.43100  
C    38.64600   32.08600   28.42500  
H    38.80500   31.79400   29.46600  
H    39.60200   32.41900   28.01300  
H    37.88700   32.87200   28.40600  
O    37.01400   30.14600   28.42600  
C    29.12500   23.33300   23.19900  
H    29.98500   23.12700   23.84100  
H    28.95000   24.40300   23.06000  
H    28.19900   22.97900   23.66000  
S    29.25700   22.59000   21.55700  
C    29.42700   20.87100   22.08700  
H    28.51400   20.38500   22.43800  
H    29.86700   20.21600   21.33000  
H    30.11500   20.76300   22.93000  
O    30.61500   22.94300   21.03500  
C    39.95100   24.74400   29.83700  
H    41.01600   24.50900   29.91600  
H    39.59100   25.38000   30.65000  
H    39.34300   23.83700   29.86500  
S    39.50400   25.54000   28.27700  
C    39.91000   24.10400   27.25700  
H    39.12300   23.34600   27.23700  
H    39.98700   24.49300   26.23900  
H    40.80600   23.63600   27.67300  
O    40.70700   26.42100   28.14200  
C    28.92200   20.59200   26.17800  
H    28.83400   19.97000   25.28300  
H    28.81300   19.98400   27.07900  
H    28.25600   21.45900   26.18700  
S    30.57700   21.31500   26.22600  
C    31.50500   19.85600   26.75100  
H    32.39400   20.06100   27.35300  
H    30.83600   19.10800   27.18500  
H    31.81900   19.27600   25.88000  
O    30.45900   21.95400   27.57400  
C    33.06700   24.68700   33.79800  
H    32.97300   24.48700   34.86900  
H    32.80200   23.81500   33.19500  
H    34.12100   24.95100   33.67300  
S    31.87100   25.96200   33.34100  
C    32.50100   27.25500   34.43400  
H    32.06000   27.13300   35.42700  
H    33.59200   27.20800   34.47500  
H    32.15400   28.16300   33.93500  
O    30.48700   25.61800   33.79700  
C    35.58700   27.42300   25.32900  
H    35.33600   26.39000   25.07300  
H    36.54200   27.71900   24.88700  
H    35.55900   27.51900   26.41700  
S    34.31900   28.56800   24.74000  
C    35.24700   30.03700   25.23700  
H    35.22200   30.09800   26.32800  
H    36.28000   29.87000   24.92300  
H    34.68200   30.88800   24.84600  
O    33.21100   28.41800   25.73500  
C    19.45700   31.90700   28.46400  
H    19.12200   32.57700   29.26000  
H    19.52000   32.49300   27.54300  
H    18.72800   31.09600   28.38900  
S    21.12200   31.23700   28.67400  
C    20.82100   30.19200   30.11700  
H    20.28400   30.72800   30.90300  
H    20.28000   29.26700   29.90300  
H    21.83600   29.92900   30.42600  
O    21.76000   32.43400   29.30800  
C    24.38500   24.62200   26.02200  
H    23.53300   25.01100   26.58600  
H    24.04500   24.39300   25.00800  
H    24.86300   23.71900   26.41000  
S    25.53900   26.01200   25.99700  
C    26.80600   25.13800   25.05200  
H    26.95400   24.11100   25.39600  
H    26.51800   25.01000   24.00500  
H    27.75400   25.67800   25.12500  
O    26.13600   25.98000   27.36900  
C    33.00900   31.17300   35.90700  
H    32.50300   30.28700   35.51500  
H    32.68700   31.35900   36.93400  
H    32.80100   32.08100   35.33500  
S    34.74700   30.67800   35.89800  
C    34.80000   30.46800   34.10400  
H    34.50000   31.37600   33.57400  
H    35.86500   30.27800   33.95000  
H    34.24000   29.59100   33.77000  
O    34.53100   29.34400   36.54200  
C    27.98400   28.04500   35.84000  
H    27.80400   27.64600   36.84100  
H    28.77200   27.54300   35.27300  
H    28.27600   29.09500   35.92900  
S    26.38000   27.84600   35.03100  
C    25.47400   29.22700   35.76300  
H    24.39400   29.15500   35.61000  
H    25.55100   29.13600   36.85000  
H    25.84100   30.22700   35.51500  
O    25.69800   26.71000   35.72800  
C    32.19000   25.63800   23.61700  
H    32.87600   25.16600   24.32400  
H    31.87800   26.52900   24.16600  
H    31.42900   24.95800   23.22400  
S    33.01100   25.93100   22.03400  
C    33.52600   24.22100   21.76100  
H    33.97000   24.08600   20.77200  
H    34.22200   23.90300   22.54000  
H    32.52400   23.79100   21.83900  
O    34.29600   26.58600   22.43400  
C    25.51000   31.79400   33.12200  
H    25.86900   30.81200   33.44000  
H    26.36000   32.43200   32.86700  
H    24.92200   32.16100   33.96700  
S    24.33100   31.51000   31.78200  
C    23.95900   33.27400   31.65600  
H    23.09400   33.41800   31.00400  
H    23.76300   33.77400   32.60800  
H    24.84900   33.72900   31.21400  
O    23.06200   31.01600   32.40500  
C    36.23300   23.63200   27.00500  
H    36.35500   23.15600   27.98200  
H    37.00400   23.15800   26.39300  
H    36.33000   24.70800   27.16600  
S    34.66700   23.00000   26.36000  
C    35.19300   21.29200   26.09400  
H    36.21400   21.04500   25.79300  
H    34.98900   20.81300   27.05500  
H    34.43300   20.99200   25.36800  
O    34.66300   23.64700   25.01000  
C    24.27900   28.96100   29.39700  
H    23.66400   29.86300   29.34700  
H    24.27500   28.65300   30.44600  
H    25.28900   29.11100   29.00600  
S    23.43200   27.60500   28.55600  
C    23.21800   28.56100   27.03800  
H    24.18300   28.87100   26.62900  
H    22.63800   27.84200   26.45500  
H    22.60900   29.45300   27.20800  
O    22.08600   27.65200   29.21000  
C    27.27400   32.94000   26.98600  
H    28.04300   33.33000   27.65900  
H    27.70500   32.32100   26.19500  
H    26.90000   33.80900   26.43900  
S    25.96900   32.12700   27.93400  
C    24.57600   32.27000   26.79300  
H    24.94700   31.95200   25.81600  
H    23.81700   31.56100   27.13500  
H    24.33600   33.33600   26.81400  
O    25.54200   33.12300   28.96700  
C    20.09300   31.84200   24.45500  
H    19.34600   32.06300   23.68800  
H    19.65700   31.28300   25.28700  
H    20.55000   32.78200   24.77500  
S    21.49000   31.00700   23.67100  
C    20.62300   29.42400   23.59200  
H    20.13100   29.45100   24.56800  
H    19.85500   29.40200   22.81400  
H    21.27400   28.55700   23.46200  
O    22.47000   30.75600   24.77400  
C    21.57300   26.42500   21.52000  
H    22.26100   26.94600   20.85000  
H    21.14100   25.53300   21.05900  
H    20.74700   27.08500   21.79800  
S    22.51800   25.81700   22.93500  
C    21.05200   25.52700   23.95100  
H    20.49300   24.70400   23.50100  
H    21.45300   25.23400   24.92500  
H    20.46300   26.44800   23.95600  
O    23.20800   26.98300   23.57300  
C    24.45500   21.02600   23.37000  
H    24.52400   21.94400   22.78100  
H    23.95400   20.26700   22.76300  
H    23.89100   21.24700   24.28000  
S    26.09600   20.58800   23.98800  
C    25.54800   19.05200   24.76800  
H    24.49000   19.08600   25.03900  
H    25.60200   18.35400   23.93000  
H    26.21700   18.71900   25.56600  
O    26.26400   21.55700   25.11600  
C    28.98900   19.53500   29.91300  
H    29.81200   18.86400   30.17300  
H    29.32200   20.34100   29.25400  
H    28.43400   19.88900   30.78500  
S    27.73600   18.60000   29.00800  
C    27.61300   17.19700   30.14000  
H    26.75000   16.59100   29.85000  
H    28.46500   16.54300   29.93500  
H    27.35900   17.56100   31.13800  
O    28.39300   17.96700   27.82100  
C    29.84000   29.41300   32.38600  
H    30.19400   29.11900   33.37800  
H    29.36300   28.52800   31.95600  
H    30.53100   29.88800   31.68500  
S    28.38800   30.45900   32.63000  
C    28.10600   30.90600   30.90200  
H    27.35000   31.65400   30.65000  
H    29.06800   31.16500   30.45300  
H    27.86100   29.95500   30.42200  
O    28.93100   31.71100   33.24500  
C    26.22800   24.43100   19.53200  
H    25.89400   23.44100   19.21300  
H    25.88600   25.16000   18.79200  
H    27.31100   24.29200   19.57700  
S    25.55700   24.82800   21.16200  
C    26.59700   26.23700   21.61000  
H    26.47200   27.07600   20.92000  
H    26.09400   26.56800   22.52200  
H    27.59900   25.82500   21.75600  
O    26.07600   23.81900   22.13900  
C    35.70200   26.83100   29.45900  
H    35.90900   25.75800   29.47100  
H    34.72400   26.98500   28.99700  
H    36.44300   27.31000   28.81300  
S    35.73300   27.52300   31.12700  
C    37.22800   26.64300   31.63100  
H    38.12600   27.00600   31.12300  
H    37.38000   26.90500   32.68100  
H    37.05400   25.56900   31.52800  
O    34.67000   26.87600   31.95900  
$end

$rem
JOBTYPE  SP
METHOD  B3LYP
BASIS  6-31+G(D)
SYMMETRY  FALSE
SYM_IGNORE  TRUE
MEM_TOTAL  16000
MEM_STATIC  8000
MAX_SUB_FILE_NUM  16000
BASIS_LIN_DEP_THRESH  6
THRESH  14
SCF_CONVERGENCE  8
GEN_SCFMAN  TRUE
SCF_GUESS  SAD
FD_MAT_VEC_PROD  FALSE
XC_GRID  000075000302
NL_GRID  1
MAX_SCF_CYCLES  200
ENV_METHOD  B3LYP
GEN_SCFMAN_EMBED  TRUE
SPADE_PARTITION  TRUE
$end

$development
embedding_early_stop  1
$end

--------------------------------------------------------------
 ----------------------------------------------------------------
             Standard Nuclear Orientation (Angstroms)
    I     Atom           X                Y                Z
 ----------------------------------------------------------------
    1      C      30.1070000000    25.8830000000    27.1340000000
    2      C      29.7860000000    27.1870000000    27.8820000000
    3      C      30.1380000000    27.0790000000    29.3750000000
    4      C      31.5750000000    26.5750000000    29.5890000000
    5      C      31.9500000000    25.4070000000    28.6620000000
    6      C      31.6240000000    25.6370000000    27.1770000000
    7      H      29.9170000000    28.0250000000    29.8850000000
    8      H      30.4770000000    27.9410000000    27.4850000000
    9      H      29.4400000000    25.0700000000    27.4440000000
   10      H      29.8990000000    26.1290000000    26.0860000000
   11      H      32.3560000000    27.3190000000    29.3910000000
   12      H      31.6930000000    26.4290000000    30.6700000000
   13      H      32.9880000000    25.1480000000    28.9020000000
   14      H      31.2950000000    24.5600000000    28.9030000000
   15      H      32.1780000000    26.4170000000    26.6420000000
   16      H      31.7450000000    24.7090000000    26.6050000000
   17      H      29.4280000000    26.3720000000    29.8200000000
   18      N      28.4150000000    27.6250000000    27.6280000000
   19      H      27.6550000000    26.9630000000    27.7270000000
   20      C      27.9800000000    28.8720000000    27.2310000000
   21      H      26.8870000000    29.0230000000    27.1610000000
   22      O      28.7140000000    29.8430000000    27.1740000000
   23      C      24.9500000000    30.0650000000    22.3840000000
   24      H      25.6730000000    29.8670000000    21.5890000000
   25      H      25.3900000000    29.5950000000    23.2670000000
   26      H      23.9720000000    29.6340000000    22.1540000000
   27      S      24.6690000000    31.7840000000    22.8650000000
   28      C      24.2890000000    32.3120000000    21.1790000000
   29      H      24.9190000000    31.6920000000    20.5360000000
   30      H      23.2240000000    32.1890000000    20.9650000000
   31      H      24.4950000000    33.3850000000    21.1650000000
   32      O      25.9890000000    32.2540000000    23.3930000000
   33      C      32.7560000000    31.7200000000    26.6830000000
   34      H      31.8920000000    32.3690000000    26.8460000000
   35      H      33.5300000000    32.2750000000    26.1470000000
   36      H      32.4270000000    30.7940000000    26.2050000000
   37      S      33.3710000000    31.1080000000    28.2680000000
   38      C      31.9320000000    30.0800000000    28.6410000000
   39      H      31.0840000000    30.7380000000    28.4350000000
   40      H      31.8600000000    29.2370000000    27.9490000000
   41      H      32.0750000000    29.7050000000    29.6580000000
   42      O      33.0950000000    32.3190000000    29.1040000000
   43      C      24.6750000000    26.2680000000    31.4630000000
   44      H      24.3110000000    27.2490000000    31.7790000000
   45      H      24.0560000000    25.9670000000    30.6140000000
   46      H      24.6520000000    25.6130000000    32.3380000000
   47      S      26.3710000000    26.6810000000    30.9950000000
   48      C      27.2320000000    25.6330000000    32.1890000000
   49      H      28.2690000000    25.8750000000    32.4360000000
   50      H      26.8250000000    25.7060000000    33.2000000000
   51      H      27.1250000000    24.5820000000    31.9080000000
   52      O      26.4350000000    27.9790000000    31.7370000000
   53      C      29.6320000000    33.2170000000    23.5870000000
   54      H      29.2260000000    33.8900000000    24.3460000000
   55      H      28.8610000000    32.9090000000    22.8760000000
   56      H      30.1760000000    32.4110000000    24.0860000000
   57      S      30.7470000000    34.1580000000    22.5210000000
   58      C      32.2440000000    33.8060000000    23.4710000000
   59      H      32.0730000000    33.7860000000    24.5500000000
   60      H      32.6380000000    32.8340000000    23.1640000000
   61      H      33.0170000000    34.5660000000    23.3370000000
   62      O      30.4930000000    35.5810000000    22.9100000000
   63      C      31.0890000000    28.8930000000    23.4510000000
   64      H      31.0490000000    29.9830000000    23.3740000000
   65      H      31.1990000000    28.4800000000    24.4560000000
   66      H      31.9620000000    28.6340000000    22.8470000000
   67      S      29.5520000000    28.4010000000    22.6370000000
   68      C      28.4640000000    29.4380000000    23.6400000000
   69      H      28.8210000000    29.1910000000    24.6430000000
   70      H      28.5420000000    30.4720000000    23.2950000000
   71      H      27.4400000000    29.0580000000    23.5960000000
   72      O      29.2960000000    27.0110000000    23.1330000000
   73      C      35.9440000000    22.5390000000    32.4120000000
   74      H      35.0940000000    22.1600000000    32.9850000000
   75      H      36.5800000000    21.7690000000    31.9670000000
   76      H      36.6440000000    23.2420000000    32.8710000000
   77      S      35.2740000000    23.5680000000    31.0870000000
   78      C      34.3280000000    22.2720000000    30.2570000000
   79      H      33.5570000000    22.0150000000    30.9870000000
   80      H      33.8520000000    22.6030000000    29.3300000000
   81      H      34.9390000000    21.4260000000    29.9310000000
   82      O      36.4370000000    23.6260000000    30.1450000000
   83      C      28.0270000000    35.1620000000    31.9140000000
   84      H      27.3710000000    36.0370000000    31.9010000000
   85      H      27.5270000000    34.1910000000    31.9700000000
   86      H      28.6910000000    35.2460000000    32.7780000000
   87      S      29.1770000000    35.0810000000    30.5230000000
   88      C      30.4620000000    34.0610000000    31.2820000000
   89      H      30.8280000000    34.5910000000    32.1650000000
   90      H      30.0360000000    33.0650000000    31.4290000000
   91      H      31.3120000000    34.0770000000    30.5950000000
   92      O      29.7740000000    36.4520000000    30.6000000000
   93      C      30.6730000000    22.2550000000    31.3240000000
   94      H      31.0290000000    23.2450000000    31.6210000000
   95      H      31.1720000000    21.6820000000    30.5380000000
   96      H      29.6550000000    22.4580000000    30.9820000000
   97      S      30.5810000000    21.2580000000    32.8280000000
   98      C      29.7240000000    22.3510000000    33.9840000000
   99      H      30.0980000000    23.3660000000    34.1380000000
  100      H      28.6960000000    22.4940000000    33.6390000000
  101      H      29.6030000000    21.7700000000    34.9020000000
  102      O      31.9770000000    21.3730000000    33.3570000000
  103      C      27.2010000000    23.0960000000    28.9670000000
  104      H      28.1460000000    22.6170000000    28.6990000000
  105      H      26.8530000000    23.5900000000    28.0560000000
  106      H      27.3480000000    23.6670000000    29.8880000000
  107      S      25.9390000000    21.8830000000    29.4150000000
  108      C      24.5750000000    23.0550000000    29.5960000000
  109      H      24.1880000000    23.0120000000    30.6170000000
  110      H      24.9640000000    24.0680000000    29.4680000000
  111      H      23.7900000000    22.9060000000    28.8510000000
  112      O      26.2650000000    21.4910000000    30.8220000000
  113      C      39.4660000000    29.7490000000    27.5410000000
  114      H      40.0500000000    29.9210000000    26.6340000000
  115      H      40.0420000000    29.8740000000    28.4610000000
  116      H      39.0570000000    28.7370000000    27.4830000000
  117      S      37.9610000000    30.7420000000    27.4310000000
  118      C      38.6460000000    32.0860000000    28.4250000000
  119      H      38.8050000000    31.7940000000    29.4660000000
  120      H      39.6020000000    32.4190000000    28.0130000000
  121      H      37.8870000000    32.8720000000    28.4060000000
  122      O      37.0140000000    30.1460000000    28.4260000000
  123      C      29.1250000000    23.3330000000    23.1990000000
  124      H      29.9850000000    23.1270000000    23.8410000000
  125      H      28.9500000000    24.4030000000    23.0600000000
  126      H      28.1990000000    22.9790000000    23.6600000000
  127      S      29.2570000000    22.5900000000    21.5570000000
  128      C      29.4270000000    20.8710000000    22.0870000000
  129      H      28.5140000000    20.3850000000    22.4380000000
  130      H      29.8670000000    20.2160000000    21.3300000000
  131      H      30.1150000000    20.7630000000    22.9300000000
  132      O      30.6150000000    22.9430000000    21.0350000000
  133      C      39.9510000000    24.7440000000    29.8370000000
  134      H      41.0160000000    24.5090000000    29.9160000000
  135      H      39.5910000000    25.3800000000    30.6500000000
  136      H      39.3430000000    23.8370000000    29.8650000000
  137      S      39.5040000000    25.5400000000    28.2770000000
  138      C      39.9100000000    24.1040000000    27.2570000000
  139      H      39.1230000000    23.3460000000    27.2370000000
  140      H      39.9870000000    24.4930000000    26.2390000000
  141      H      40.8060000000    23.6360000000    27.6730000000
  142      O      40.7070000000    26.4210000000    28.1420000000
  143      C      28.9220000000    20.5920000000    26.1780000000
  144      H      28.8340000000    19.9700000000    25.2830000000
  145      H      28.8130000000    19.9840000000    27.0790000000
  146      H      28.2560000000    21.4590000000    26.1870000000
  147      S      30.5770000000    21.3150000000    26.2260000000
  148      C      31.5050000000    19.8560000000    26.7510000000
  149      H      32.3940000000    20.0610000000    27.3530000000
  150      H      30.8360000000    19.1080000000    27.1850000000
  151      H      31.8190000000    19.2760000000    25.8800000000
  152      O      30.4590000000    21.9540000000    27.5740000000
  153      C      33.0670000000    24.6870000000    33.7980000000
  154      H      32.9730000000    24.4870000000    34.8690000000
  155      H      32.8020000000    23.8150000000    33.1950000000
  156      H      34.1210000000    24.9510000000    33.6730000000
  157      S      31.8710000000    25.9620000000    33.3410000000
  158      C      32.5010000000    27.2550000000    34.4340000000
  159      H      32.0600000000    27.1330000000    35.4270000000
  160      H      33.5920000000    27.2080000000    34.4750000000
  161      H      32.1540000000    28.1630000000    33.9350000000
  162      O      30.4870000000    25.6180000000    33.7970000000
  163      C      35.5870000000    27.4230000000    25.3290000000
  164      H      35.3360000000    26.3900000000    25.0730000000
  165      H      36.5420000000    27.7190000000    24.8870000000
  166      H      35.5590000000    27.5190000000    26.4170000000
  167      S      34.3190000000    28.5680000000    24.7400000000
  168      C      35.2470000000    30.0370000000    25.2370000000
  169      H      35.2220000000    30.0980000000    26.3280000000
  170      H      36.2800000000    29.8700000000    24.9230000000
  171      H      34.6820000000    30.8880000000    24.8460000000
  172      O      33.2110000000    28.4180000000    25.7350000000
  173      C      19.4570000000    31.9070000000    28.4640000000
  174      H      19.1220000000    32.5770000000    29.2600000000
  175      H      19.5200000000    32.4930000000    27.5430000000
  176      H      18.7280000000    31.0960000000    28.3890000000
  177      S      21.1220000000    31.2370000000    28.6740000000
  178      C      20.8210000000    30.1920000000    30.1170000000
  179      H      20.2840000000    30.7280000000    30.9030000000
  180      H      20.2800000000    29.2670000000    29.9030000000
  181      H      21.8360000000    29.9290000000    30.4260000000
  182      O      21.7600000000    32.4340000000    29.3080000000
  183      C      24.3850000000    24.6220000000    26.0220000000
  184      H      23.5330000000    25.0110000000    26.5860000000
  185      H      24.0450000000    24.3930000000    25.0080000000
  186      H      24.8630000000    23.7190000000    26.4100000000
  187      S      25.5390000000    26.0120000000    25.9970000000
  188      C      26.8060000000    25.1380000000    25.0520000000
  189      H      26.9540000000    24.1110000000    25.3960000000
  190      H      26.5180000000    25.0100000000    24.0050000000
  191      H      27.7540000000    25.6780000000    25.1250000000
  192      O      26.1360000000    25.9800000000    27.3690000000
  193      C      33.0090000000    31.1730000000    35.9070000000
  194      H      32.5030000000    30.2870000000    35.5150000000
  195      H      32.6870000000    31.3590000000    36.9340000000
  196      H      32.8010000000    32.0810000000    35.3350000000
  197      S      34.7470000000    30.6780000000    35.8980000000
  198      C      34.8000000000    30.4680000000    34.1040000000
  199      H      34.5000000000    31.3760000000    33.5740000000
  200      H      35.8650000000    30.2780000000    33.9500000000
  201      H      34.2400000000    29.5910000000    33.7700000000
  202      O      34.5310000000    29.3440000000    36.5420000000
  203      C      27.9840000000    28.0450000000    35.8400000000
  204      H      27.8040000000    27.6460000000    36.8410000000
  205      H      28.7720000000    27.5430000000    35.2730000000
  206      H      28.2760000000    29.0950000000    35.9290000000
  207      S      26.3800000000    27.8460000000    35.0310000000
  208      C      25.4740000000    29.2270000000    35.7630000000
  209      H      24.3940000000    29.1550000000    35.6100000000
  210      H      25.5510000000    29.1360000000    36.8500000000
  211      H      25.8410000000    30.2270000000    35.5150000000
  212      O      25.6980000000    26.7100000000    35.7280000000
  213      C      32.1900000000    25.6380000000    23.6170000000
  214      H      32.8760000000    25.1660000000    24.3240000000
  215      H      31.8780000000    26.5290000000    24.1660000000
  216      H      31.4290000000    24.9580000000    23.2240000000
  217      S      33.0110000000    25.9310000000    22.0340000000
  218      C      33.5260000000    24.2210000000    21.7610000000
  219      H      33.9700000000    24.0860000000    20.7720000000
  220      H      34.2220000000    23.9030000000    22.5400000000
  221      H      32.5240000000    23.7910000000    21.8390000000
  222      O      34.2960000000    26.5860000000    22.4340000000
  223      C      25.5100000000    31.7940000000    33.1220000000
  224      H      25.8690000000    30.8120000000    33.4400000000
  225      H      26.3600000000    32.4320000000    32.8670000000
  226      H      24.9220000000    32.1610000000    33.9670000000
  227      S      24.3310000000    31.5100000000    31.7820000000
  228      C      23.9590000000    33.2740000000    31.6560000000
  229      H      23.0940000000    33.4180000000    31.0040000000
  230      H      23.7630000000    33.7740000000    32.6080000000
  231      H      24.8490000000    33.7290000000    31.2140000000
  232      O      23.0620000000    31.0160000000    32.4050000000
  233      C      36.2330000000    23.6320000000    27.0050000000
  234      H      36.3550000000    23.1560000000    27.9820000000
  235      H      37.0040000000    23.1580000000    26.3930000000
  236      H      36.3300000000    24.7080000000    27.1660000000
  237      S      34.6670000000    23.0000000000    26.3600000000
  238      C      35.1930000000    21.2920000000    26.0940000000
  239      H      36.2140000000    21.0450000000    25.7930000000
  240      H      34.9890000000    20.8130000000    27.0550000000
  241      H      34.4330000000    20.9920000000    25.3680000000
  242      O      34.6630000000    23.6470000000    25.0100000000
  243      C      24.2790000000    28.9610000000    29.3970000000
  244      H      23.6640000000    29.8630000000    29.3470000000
  245      H      24.2750000000    28.6530000000    30.4460000000
  246      H      25.2890000000    29.1110000000    29.0060000000
  247      S      23.4320000000    27.6050000000    28.5560000000
  248      C      23.2180000000    28.5610000000    27.0380000000
  249      H      24.1830000000    28.8710000000    26.6290000000
  250      H      22.6380000000    27.8420000000    26.4550000000
  251      H      22.6090000000    29.4530000000    27.2080000000
  252      O      22.0860000000    27.6520000000    29.2100000000
  253      C      27.2740000000    32.9400000000    26.9860000000
  254      H      28.0430000000    33.3300000000    27.6590000000
  255      H      27.7050000000    32.3210000000    26.1950000000
  256      H      26.9000000000    33.8090000000    26.4390000000
  257      S      25.9690000000    32.1270000000    27.9340000000
  258      C      24.5760000000    32.2700000000    26.7930000000
  259      H      24.9470000000    31.9520000000    25.8160000000
  260      H      23.8170000000    31.5610000000    27.1350000000
  261      H      24.3360000000    33.3360000000    26.8140000000
  262      O      25.5420000000    33.1230000000    28.9670000000
  263      C      20.0930000000    31.8420000000    24.4550000000
  264      H      19.3460000000    32.0630000000    23.6880000000
  265      H      19.6570000000    31.2830000000    25.2870000000
  266      H      20.5500000000    32.7820000000    24.7750000000
  267      S      21.4900000000    31.0070000000    23.6710000000
  268      C      20.6230000000    29.4240000000    23.5920000000
  269      H      20.1310000000    29.4510000000    24.5680000000
  270      H      19.8550000000    29.4020000000    22.8140000000
  271      H      21.2740000000    28.5570000000    23.4620000000
  272      O      22.4700000000    30.7560000000    24.7740000000
  273      C      21.5730000000    26.4250000000    21.5200000000
  274      H      22.2610000000    26.9460000000    20.8500000000
  275      H      21.1410000000    25.5330000000    21.0590000000
  276      H      20.7470000000    27.0850000000    21.7980000000
  277      S      22.5180000000    25.8170000000    22.9350000000
  278      C      21.0520000000    25.5270000000    23.9510000000
  279      H      20.4930000000    24.7040000000    23.5010000000
  280      H      21.4530000000    25.2340000000    24.9250000000
  281      H      20.4630000000    26.4480000000    23.9560000000
  282      O      23.2080000000    26.9830000000    23.5730000000
  283      C      24.4550000000    21.0260000000    23.3700000000
  284      H      24.5240000000    21.9440000000    22.7810000000
  285      H      23.9540000000    20.2670000000    22.7630000000
  286      H      23.8910000000    21.2470000000    24.2800000000
  287      S      26.0960000000    20.5880000000    23.9880000000
  288      C      25.5480000000    19.0520000000    24.7680000000
  289      H      24.4900000000    19.0860000000    25.0390000000
  290      H      25.6020000000    18.3540000000    23.9300000000
  291      H      26.2170000000    18.7190000000    25.5660000000
  292      O      26.2640000000    21.5570000000    25.1160000000
  293      C      28.9890000000    19.5350000000    29.9130000000
  294      H      29.8120000000    18.8640000000    30.1730000000
  295      H      29.3220000000    20.3410000000    29.2540000000
  296      H      28.4340000000    19.8890000000    30.7850000000
  297      S      27.7360000000    18.6000000000    29.0080000000
  298      C      27.6130000000    17.1970000000    30.1400000000
  299      H      26.7500000000    16.5910000000    29.8500000000
  300      H      28.4650000000    16.5430000000    29.9350000000
  301      H      27.3590000000    17.5610000000    31.1380000000
  302      O      28.3930000000    17.9670000000    27.8210000000
  303      C      29.8400000000    29.4130000000    32.3860000000
  304      H      30.1940000000    29.1190000000    33.3780000000
  305      H      29.3630000000    28.5280000000    31.9560000000
  306      H      30.5310000000    29.8880000000    31.6850000000
  307      S      28.3880000000    30.4590000000    32.6300000000
  308      C      28.1060000000    30.9060000000    30.9020000000
  309      H      27.3500000000    31.6540000000    30.6500000000
  310      H      29.0680000000    31.1650000000    30.4530000000
  311      H      27.8610000000    29.9550000000    30.4220000000
  312      O      28.9310000000    31.7110000000    33.2450000000
  313      C      26.2280000000    24.4310000000    19.5320000000
  314      H      25.8940000000    23.4410000000    19.2130000000
  315      H      25.8860000000    25.1600000000    18.7920000000
  316      H      27.3110000000    24.2920000000    19.5770000000
  317      S      25.5570000000    24.8280000000    21.1620000000
  318      C      26.5970000000    26.2370000000    21.6100000000
  319      H      26.4720000000    27.0760000000    20.9200000000
  320      H      26.0940000000    26.5680000000    22.5220000000
  321      H      27.5990000000    25.8250000000    21.7560000000
  322      O      26.0760000000    23.8190000000    22.1390000000
  323      C      35.7020000000    26.8310000000    29.4590000000
  324      H      35.9090000000    25.7580000000    29.4710000000
  325      H      34.7240000000    26.9850000000    28.9970000000
  326      H      36.4430000000    27.3100000000    28.8130000000
  327      S      35.7330000000    27.5230000000    31.1270000000
  328      C      37.2280000000    26.6430000000    31.6310000000
  329      H      38.1260000000    27.0060000000    31.1230000000
  330      H      37.3800000000    26.9050000000    32.6810000000
  331      H      37.0540000000    25.5690000000    31.5280000000
  332      O      34.6700000000    26.8760000000    31.9590000000
 ----------------------------------------------------------------
 Nuclear Repulsion Energy =       60317.47868962 hartrees
 There are      686 alpha and      686 beta electrons
 Requested basis set is 6-31+G(d)
 There are 1094 shells and 3049 basis functions

 Total QAlloc Memory Limit  16000 MB
 Mega-Array Size      7821 MB
 MEM_STATIC part      8000 MB
 A cutoff of  1.0D-14 yielded 213359 shell pairs
 There are   1871376 function pairs
 Smallest overlap matrix eigenvalue = 4.01E-07
 Linear dependence detected in AO basis
 Tighter screening thresholds may be required for diffuse basis sets
 Use S2THRESH > 14 and THRESH = 14 in case of SCF convergence issues
 Number of orthogonalized atomic orbitals = 3046
 Maximum deviation from orthogonality = 1.288E-10

 Scale SEOQF with 1.000000e-03/1.000000e-03/1.000000e-03

 Standard Electronic Orientation quadrupole field applied
 Nucleus-field energy     =     0.0000000054 hartrees
 Guess from superposition of atomic densities
 Warning:  Energy on first SCF cycle will be non-variational
 SAD guess density has 1372.000003 electrons

 -----------------------------------------------------------------------
  General SCF calculation program by
  Eric Jon Sundstrom, Paul Horn, Yuezhi Mao, Dmitri Zuev, Alec White,
  David Stuck, Shaama M.S., Shane Yost, Joonho Lee, David Small,
  Daniel Levine, Susi Lehtola, Hugh Burton, Evgeny Epifanovsky,
  Bang C. Huynh
 -----------------------------------------------------------------------
=================================================
        Doing projection-based embedding         
      F. Manby et al. JCTC, 8, 2564 (2012)       
=================================================

****************************************************
   Low-level SCF calculation for the whole system   
****************************************************
----------------------------------------------
 Summary of the low-level theory: 
 Exchange:     0.2000 Hartree-Fock + 0.0800 Slater + 0.7200 B88
 Correlation:  0.1900 VWN1RPA + 0.8100 LYP
 Using Euler-Maclaurin-Lebedev (75,302) quadrature formula
----------------------------------------------
 using 16 threads for integral computing
 -------------------------------------------------------
 OpenMP Integral computing Module                
 Release: version 2.0, May 2017, Q-Chem Inc. Pleasanton 
 -------------------------------------------------------
 A restricted SCF calculation will be
 performed using DIIS
 SCF converges when DIIS error is below 1.0e-08
 ---------------------------------------
  Cycle       Energy         DIIS error
 ---------------------------------------
    1  -17575.3570793189      1.27e-02  
    2  -17547.9061643731      2.36e-03  
    3  -17520.5524448997      4.95e-03  
    4  -17518.1974968761      3.12e-03  
    5  -17552.3884614642      1.00e-03  
    6  -17553.4275291666      2.38e-04  
    7  -17553.4440141111      1.98e-04  
    8  -17553.4825648878      4.62e-05  
    9  -17553.4845048963      2.48e-05  
   10  -17553.4850827522      1.33e-05  
   11  -17553.4852652464      5.46e-06  
   12  -17553.4852946798      1.89e-06  
   13  -17553.4852981295      7.29e-07  
   14  -17553.4852985739      3.05e-07  
   15  -17553.4852986622      9.11e-08  
   16  -17553.4852986708      3.07e-08  
   17  -17553.4852986719      1.21e-08  
   18  -17553.4852986720      3.83e-09  Convergence criterion met
 ---------------------------------------
 SCF time:   CPU 308667.20s  wall 19506.00s 
 SCF   energy in the final basis set =   -17553.4852986720
 Total energy in the final basis set =   -17553.4852986720

****************************************************
             Start embedding calculation            
****************************************************
----------------------------------------------
 Summary of the high-level theory: 
 Exchange:     0.2000 Hartree-Fock + 0.0800 Slater + 0.7200 B88
 Correlation:  0.1900 VWN1RPA + 0.8100 LYP
 Using Euler-Maclaurin-Lebedev (75,302) quadrature formula
----------------------------------------------
Doing R-in-R Embedding Calculation
Number of fragments: 2
Embedded fragment(s): 1 
NOcc for each fragment
           35
          651
NBasis for each fragment
          197
         2852
Variational space of the embedded problem: 
NOcc (active)  = 35
NOcc (fixed)   = 651
NVir (total)   = 2360
Read converged orbitals from disk
=========================================================
       Doing SPADE partition for the orbital space       
     D. CLaudino and N. Mayhall JCTC 15, 1053 (2019)     
=========================================================
SPADE singular values:
 1.0000 1.0000 1.0000 1.0000 1.0000 1.0000 1.0000 1.0000 1.0000 0.9999
 0.9998 0.9997 0.9996 0.9996 0.9995 0.9994 0.9992 0.9989 0.9985 0.9974
 0.9968 0.9963 0.9962 0.9957 0.9952 0.9947 0.9935 0.9932 0.9927 0.9917
 0.9910 0.9905 0.9891 0.9862 0.9790 0.2168 0.1840 0.1784 0.1613 0.1472
 0.1428 0.1378 0.1293 0.1111 0.1074 0.1004 0.0899 0.0827 0.0765 0.0684
 0.0625 0.0609 0.0561 0.0503 0.0444 0.0429 0.0383 0.0347 0.0332 0.0330
 0.0310 0.0296 0.0283 0.0266 0.0244 0.0234 0.0220 0.0205 0.0194 0.0188
 0.0176 0.0156 0.0151 0.0141 0.0132 0.0129 0.0122 0.0119 0.0116 0.0100
 0.0098 0.0093 0.0090 0.0087 0.0079 0.0077 0.0072 0.0071 0.0069 0.0066
 0.0062 0.0056 0.0056 0.0053 0.0048 0.0045 0.0043 0.0043 0.0040 0.0039
 0.0037 0.0036 0.0034 0.0032 0.0031 0.0030 0.0028 0.0025 0.0024 0.0024
 0.0023 0.0022 0.0022 0.0020 0.0019 0.0018 0.0018 0.0017 0.0016 0.0015
 0.0015 0.0014 0.0014 0.0013 0.0013 0.0012 0.0012 0.0012 0.0011 0.0010
 0.0010 0.0010 0.0010 0.0009 0.0009 0.0008 0.0008 0.0008 0.0008 0.0007
 0.0007 0.0007 0.0007 0.0006 0.0006 0.0006 0.0005 0.0005 0.0005 0.0005
 0.0005 0.0005 0.0004 0.0004 0.0004 0.0004 0.0003 0.0003 0.0003 0.0003
 0.0003 0.0003 0.0003 0.0003 0.0003 0.0002 0.0002 0.0002 0.0002 0.0002
 0.0002 0.0002 0.0002 0.0002 0.0002 0.0002 0.0002 0.0002 0.0002 0.0001
 0.0001 0.0001 0.0001 0.0001 0.0001 0.0001 0.0001 0.0001 0.0001 0.0001
 0.0001 0.0001 0.0001 0.0001 0.0001 0.0001 0.0001
Early stop requested!
651 environment occs will be part of frozen-core in future post-HF calculations
 
 --------------------------------------------------------------
 
                    Orbital Energies (a.u.)
 --------------------------------------------------------------
 
 Alpha MOs
 -- Occupied --
 -0.5316  -0.5048  -0.4613  -0.4032  -0.4217  -0.4655  -0.4912  -0.4764
 -0.4545  -0.4500  -0.4457  -0.4438  -0.4246  -0.4383  -0.4746  -0.4655
 -0.4385  -0.4362  -0.4428  -0.5036  -0.4824  -0.4970  -0.5622  -0.5321
 -0.5753  -0.5493  -0.5891  -0.5717  -0.4843  -0.5361  -0.6244  -0.6038
 -0.5665  -0.5374  -0.5419  -0.6175  -0.5640  -0.5201  -0.6814  -0.5598
 -0.5396  -0.5271  -0.5775  -0.5704  -0.5765  -0.4784  -0.6046  -0.5134
 -0.5068  -0.6282  -0.5463  -0.5473  -0.5879  -0.7078  -0.5914  -0.5621
 -0.6852  -0.5887  -0.7272  -0.6063  -0.6056  -0.7143  -0.6633  -0.8004
 -0.9873  -0.8784  -0.7202  -0.7619  -0.7348  -0.8476  -0.8439  -0.8400
 -0.9036  -0.7310  -0.8048  -0.9233  -0.7692  -0.9032  -0.7968  -0.9293
 -0.8018  -1.0668  -0.8879  -1.0986  -0.7962  -1.0081  -1.0910  -0.8122
 -0.8583  -1.2704  -0.9685  -1.0629  -1.0135  -1.2499  -1.2941  -1.0133
 -1.0548  -1.2932  -2.8199  -1.0463  -1.0222  -2.4275  -1.3364  -0.9189
 -3.6139  -1.7035  -1.9705  -1.3441  -1.9915  -1.0080  -1.1500  -0.9642
 -1.7372  -1.3809  -1.5287  -1.8075  -1.0477  -1.0579  -1.3475  -1.3887
 -1.2420  -1.8391  -1.6482  -1.5490  -1.1105  -0.9737  -1.5152  -1.4610
 -1.4664  -1.5578  -1.4976  -0.9680  -1.4707  -0.9590  -1.1126  -1.4013
 -1.5118  -1.4757  -1.4073  -1.1590  -1.2435  -1.4980  -1.6042  -1.4842
 -1.3786  -1.7273  -1.7707  -1.7287  -1.4135  -1.2951  -1.5039  -1.4340
 -1.8368  -1.5580  -1.4093  -2.0159  -1.5531  -1.8958  -1.6049  -1.4464
 -2.1120  -1.7252  -6.0164  -6.0099  -5.9678  -5.9991  -5.9931  -6.0069
 -6.0007  -5.9925  -6.1688  -6.0291  -6.0073  -6.0011  -6.0079  -5.9608
 -5.9817  -6.0015  -5.9921  -6.0405  -5.9903  -5.9736  -5.9879  -5.8990
 -5.9459  -5.9922  -5.9475  -5.9967  -5.8826  -5.9828  -5.9542  -6.0387
 -5.9858  -6.0168  -5.7866  -6.0135  -5.9839  -5.9883  -5.8971  -7.4024
 -5.9797  -5.8854  -5.9216  -6.0214  -5.9507  -5.9877  -6.1575  -5.8847
 -6.0223  -5.9665  -5.8646  -5.9706  -5.9727  -6.0430  -5.4972  -5.9593
 -5.9549  -5.9542  -5.9526  -5.9558  -5.9456  -5.9394  -1.9521  -2.4064
 -1.6716  -1.4980  -7.0024 -23.8588  -9.5740 -14.1216  -2.0081  -8.0172
-47.2949  -1.3664  -9.5903  -7.2458  -1.7688  -4.3526 -10.8275 -14.9034
 -8.4648  -3.9510  -5.1726  -1.3150  -9.7114  -1.3469  -1.3704  -4.8211
 -7.8984  -2.0521  -6.0271  -5.0676  -1.4025  -1.3108 -74.6315  -1.2711
 -1.0564  -1.4402  -1.3668  -1.5152 -81.5212  -6.2003  -9.0146  -2.0527
-14.6916  -1.4572  -9.7555 -10.5935  -7.6314  -1.5742  -9.5195  -7.4130
 -9.4868  -1.6113  -7.1352  -5.4628  -6.3544  -1.2865 -10.9817 -17.3072
-10.7444 -13.6721  -0.9918  -0.9636  -1.3808  -6.0185  -1.7416  -1.7905
 -0.8226  -0.9798  -1.3919  -7.7792  -6.6874  -1.6631  -3.1823 -78.9971
 -6.7284 -10.9705 -10.0642 -76.0208 -15.3094  -8.8831 -10.8391  -0.9604
 -9.6340  -5.3365  -1.6687  -7.1360  -7.6685  -6.2089  -1.4310  -4.4872
-10.0853  -8.9321 -14.4535  -1.1786  -5.2002 -19.1507  -0.9982  -1.1751
 -0.8569  -1.4530  -0.7319  -1.8592  -8.1980 -20.0778 -18.1123 -57.0294
 -7.7355  -1.4530  -1.0468  -7.8994  -1.8402  -1.1137  -8.0046  -8.5558
-10.8232 -63.6799 -10.0586  -2.7422 -10.2752 -11.0222  -3.1640  -3.2394
-10.3666  -0.8283 -20.9211 -11.9967  -1.1318  -6.3347 -16.5015 -60.2111
 -1.2065  -1.0070 -70.0522  -1.3343 -67.2499  -2.8383  -1.2029  -1.0195
 -1.2930  -1.6936  -4.9251  -2.8364  -6.9169  -1.0165  -5.9375  -4.7986
 -2.2324  -1.4924  -3.8923  -5.8633  -7.9941  -4.9606  -2.3936  -4.0718
 -9.8431 -15.4758  -3.4685 -32.9982 -11.5586  -7.3054  -5.2408 -10.6826
 -4.6517 -21.3401  -7.1174  -6.2138  -5.1534  -2.9708  -2.1433  -6.6363
 -4.7190  -4.0750  -7.2141  -6.1136  -6.2696  -2.9811  -7.2232  -8.9293
 -8.9656  -3.6009 -13.8735  -6.2032  -5.8837  -6.4677  -4.8679  -3.8471
-11.5509 -10.0841  -4.8561  -7.0922 -10.0512  -5.1129  -5.1524  -6.9460
 -3.9519  -2.9822  -9.4496  -8.8647  -1.7256  -5.1571 -30.2068  -6.7307
 -3.4816 -11.7553  -1.3777 -11.9185 -17.0964  -4.5949  -4.6543  -5.1227
 -4.6867  -5.4764  -2.1285  -6.1871  -8.7640  -3.1826  -2.8713  -3.7285
 -6.4481 -24.8599  -6.8423  -7.7250 -12.6153  -1.3775  -7.6428  -7.3829
 -4.4836  -2.8534  -6.0441  -9.5833  -9.2184 -11.4905  -6.8887  -8.5202
 -3.9325 -50.1543  -3.0478  -3.1188  -6.9425 -38.3801  -7.0553 -10.0659
 -5.9634  -3.2659 -10.8733  -5.2358  -8.1102  -7.6170  -5.0275  -4.2303
 -2.4926  -8.1120  -3.5042  -5.6049  -1.2571  -5.7496  -2.3877  -7.6185
 -5.9939  -5.7820  -3.3175  -4.9781  -5.9263  -3.2520 -10.0981  -5.1684
 -6.2948  -6.6359  -5.7132  -6.9198  -9.1288  -2.0931 -11.7942  -7.0635
-12.8457  -4.0009  -7.1136 -18.7963  -9.5862  -9.5600  -8.2377  -8.7361
 -6.8082  -6.9894  -5.0936 -14.4574 -13.1931  -9.6022 -19.4767 -14.6736
-13.7482  -9.7675 -14.6988 -17.1278  -3.3912  -8.2856 -21.2722  -4.8941
 -5.7645  -5.6560 -19.7426  -8.6412 -14.1378 -11.2150 -11.6213  -6.0145
-17.1478  -8.5559  -3.1857  -2.4291  -6.4887 -17.9651  -8.5850 -10.9274
-14.2165  -8.4802 -12.6568  -4.2598 -17.1667 -10.9630 -10.8762  -3.1451
-25.3128  -2.8173 -16.6152 -24.2874  -6.1490  -3.5053 -34.1945  -9.8263
-14.6664  -3.5004 -14.9347  -7.8888  -7.6446  -3.0541  -2.0365  -8.2525
-20.1510 -11.6549  -3.0166 -40.4886 -12.7189  -2.3653 -13.1012 -11.1719
 -1.9146 -12.4769  -1.3102  -9.0665  -6.5976 -61.8945 -13.3848 -10.4067
-12.6020 -10.3435  -4.6910 -23.6976 -56.8410  -3.6713  -1.8102  -2.1790
-71.5777  -1.5236 -10.0466 -79.0385  -2.4409  -2.1695 -58.8210 -17.5653
-25.2134  -9.4938  -8.7950  -2.8293  -5.2841 -15.3276 -13.2867  -9.3343
-16.2014 -10.2622 -21.2414  -3.9211  -4.0676 -17.8657  -5.0149  -3.6816
 -1.5959 -16.0374  -9.7902  -9.9926 -22.5412  -5.4268  -2.7503 -54.4973
-11.5753 -24.9533 -11.7147  -6.5506 -13.7911  -4.4600 -12.1038  -3.0732
-11.5706  -3.6949  -7.6781 -27.0129 -25.7855  -9.6670 -22.1917 -70.5922
-13.8704 -14.3403 -10.3381 -11.4960  -5.7049  -4.5647  -7.8747 -10.6435
-17.2453 -21.4814  -5.5142  -3.0933 -16.9791 -11.7143 -13.6586 -12.5415
 -7.0666  -4.7405  -4.4048 -12.1509 -11.2064 -15.1639 -12.3590 -10.2536
-10.3130 -10.5876 -11.6547 -10.2559  -0.8312  -0.7366  -0.9157  -0.6343
 -0.6550  -0.7285  -0.6097  -0.7384  -0.4115  -0.4379  -0.3726  -0.4516
 -0.4979  -0.4264  -0.4352  -0.4351  -0.4149  -0.3794  -0.3902  -0.3768
 -0.4094  -0.5178  -0.4367  -0.4891  -0.4957  -0.5293
 -- Virtual --
 -0.0496  -0.0434  -0.0326  -0.0318  -0.0299  -0.0274  -0.0253  -0.0244
 -0.0213  -0.0200  -0.0191  -0.0171  -0.0169  -0.0148  -0.0135  -0.0121
 -0.0101  -0.0097  -0.0091  -0.0085  -0.0077  -0.0071  -0.0062  -0.0055
 -0.0048  -0.0035  -0.0020  -0.0009   0.0008   0.0019   0.0029   0.0034
  0.0042   0.0044   0.0053   0.0057   0.0059   0.0065   0.0076   0.0082
  0.0087   0.0088   0.0095   0.0102   0.0108   0.0120   0.0130   0.0134
  0.0137   0.0144   0.0147   0.0155   0.0165   0.0177   0.0179   0.0187
  0.0189   0.0194   0.0204   0.0211   0.0217   0.0220   0.0227   0.0238
  0.0247   0.0251   0.0264   0.0268   0.0271   0.0273   0.0278   0.0285
  0.0292   0.0300   0.0304   0.0308   0.0316   0.0320   0.0322   0.0328
  0.0336   0.0340   0.0345   0.0351   0.0357   0.0359   0.0369   0.0371
  0.0380   0.0382   0.0390   0.0398   0.0400   0.0406   0.0415   0.0419
  0.0432   0.0435   0.0439   0.0439   0.0443   0.0448   0.0454   0.0462
  0.0471   0.0477   0.0481   0.0487   0.0496   0.0501   0.0504   0.0512
  0.0520   0.0525   0.0529   0.0536   0.0540   0.0550   0.0560   0.0562
  0.0567   0.0577   0.0580   0.0586   0.0591   0.0596   0.0602   0.0604
  0.0615   0.0617   0.0619   0.0624   0.0629   0.0638   0.0645   0.0649
  0.0658   0.0668   0.0677   0.0681   0.0684   0.0685   0.0694   0.0698
  0.0704   0.0710   0.0720   0.0724   0.0728   0.0732   0.0733   0.0736
  0.0749   0.0753   0.0761   0.0764   0.0768   0.0777   0.0783   0.0788
  0.0791   0.0793   0.0797   0.0802   0.0808   0.0814   0.0825   0.0832
  0.0835   0.0840   0.0843   0.0851   0.0856   0.0864   0.0870   0.0871
  0.0883   0.0888   0.0895   0.0899   0.0901   0.0911   0.0912   0.0920
  0.0927   0.0934   0.0936   0.0947   0.0950   0.0956   0.0962   0.0969
  0.0977   0.0978   0.0985   0.0988   0.0995   0.1005   0.1010   0.1014
  0.1019   0.1028   0.1032   0.1036   0.1045   0.1051   0.1054   0.1060
  0.1065   0.1068   0.1077   0.1082   0.1084   0.1090   0.1097   0.1105
  0.1107   0.1111   0.1116   0.1125   0.1133   0.1136   0.1147   0.1148
  0.1155   0.1161   0.1163   0.1174   0.1179   0.1181   0.1188   0.1191
  0.1197   0.1199   0.1213   0.1217   0.1225   0.1230   0.1237   0.1241
  0.1246   0.1257   0.1259   0.1262   0.1266   0.1274   0.1277   0.1286
  0.1290   0.1297   0.1299   0.1307   0.1311   0.1320   0.1322   0.1324
  0.1330   0.1333   0.1344   0.1346   0.1353   0.1356   0.1360   0.1371
  0.1377   0.1384   0.1387   0.1397   0.1401   0.1404   0.1407   0.1411
  0.1412   0.1425   0.1428   0.1434   0.1441   0.1444   0.1447   0.1453
  0.1458   0.1462   0.1469   0.1473   0.1480   0.1485   0.1493   0.1501
  0.1505   0.1508   0.1515   0.1519   0.1529   0.1532   0.1537   0.1545
  0.1549   0.1554   0.1559   0.1566   0.1572   0.1577   0.1579   0.1589
  0.1591   0.1599   0.1602   0.1604   0.1609   0.1612   0.1615   0.1624
  0.1628   0.1633   0.1635   0.1648   0.1658   0.1671   0.1674   0.1678
  0.1679   0.1687   0.1693   0.1698   0.1702   0.1710   0.1711   0.1712
  0.1717   0.1723   0.1738   0.1746   0.1750   0.1756   0.1763   0.1769
  0.1771   0.1776   0.1779   0.1789   0.1791   0.1798   0.1802   0.1810
  0.1819   0.1824   0.1827   0.1832   0.1834   0.1836   0.1845   0.1847
  0.1852   0.1859   0.1862   0.1869   0.1870   0.1875   0.1882   0.1885
  0.1893   0.1896   0.1902   0.1908   0.1915   0.1917   0.1929   0.1931
  0.1931   0.1943   0.1945   0.1955   0.1960   0.1963   0.1968   0.1976
  0.1980   0.1985   0.1989   0.1996   0.1998   0.2006   0.2007   0.2017
  0.2019   0.2026   0.2031   0.2039   0.2041   0.2049   0.2055   0.2058
  0.2066   0.2068   0.2076   0.2080   0.2092   0.2097   0.2105   0.2106
  0.2111   0.2112   0.2118   0.2129   0.2134   0.2140   0.2146   0.2156
  0.2157   0.2159   0.2169   0.2176   0.2180   0.2186   0.2190   0.2193
  0.2203   0.2206   0.2209   0.2213   0.2217   0.2221   0.2228   0.2231
  0.2241   0.2243   0.2253   0.2261   0.2270   0.2270   0.2279   0.2286
  0.2298   0.2306   0.2308   0.2311   0.2319   0.2327   0.2332   0.2339
  0.2346   0.2348   0.2356   0.2361   0.2363   0.2366   0.2372   0.2377
  0.2388   0.2390   0.2394   0.2395   0.2399   0.2403   0.2418   0.2426
  0.2428   0.2434   0.2438   0.2446   0.2454   0.2459   0.2464   0.2470
  0.2476   0.2479   0.2487   0.2501   0.2503   0.2509   0.2511   0.2525
  0.2527   0.2529   0.2540   0.2545   0.2558   0.2560   0.2568   0.2569
  0.2578   0.2585   0.2591   0.2596   0.2599   0.2610   0.2612   0.2618
  0.2623   0.2629   0.2633   0.2637   0.2646   0.2659   0.2663   0.2672
  0.2676   0.2683   0.2688   0.2694   0.2699   0.2705   0.2712   0.2718
  0.2725   0.2733   0.2737   0.2739   0.2748   0.2755   0.2767   0.2772
  0.2781   0.2787   0.2793   0.2799   0.2801   0.2806   0.2815   0.2823
  0.2830   0.2835   0.2844   0.2846   0.2856   0.2865   0.2872   0.2875
  0.2885   0.2891   0.2902   0.2906   0.2911   0.2922   0.2924   0.2931
  0.2943   0.2950   0.2952   0.2959   0.2967   0.2972   0.2981   0.2983
  0.2990   0.2995   0.3004   0.3007   0.3012   0.3022   0.3029   0.3034
  0.3049   0.3056   0.3058   0.3068   0.3075   0.3082   0.3087   0.3093
  0.3104   0.3108   0.3123   0.3127   0.3131   0.3135   0.3139   0.3143
  0.3154   0.3160   0.3173   0.3178   0.3183   0.3188   0.3203   0.3216
  0.3221   0.3230   0.3231   0.3238   0.3249   0.3250   0.3255   0.3264
  0.3269   0.3278   0.3284   0.3289   0.3301   0.3305   0.3310   0.3318
  0.3329   0.3337   0.3349   0.3358   0.3364   0.3375   0.3378   0.3391
  0.3398   0.3399   0.3404   0.3416   0.3424   0.3428   0.3444   0.3452
  0.3461   0.3467   0.3472   0.3478   0.3483   0.3493   0.3500   0.3511
  0.3514   0.3525   0.3528   0.3537   0.3547   0.3550   0.3563   0.3568
  0.3575   0.3579   0.3588   0.3591   0.3607   0.3611   0.3616   0.3618
  0.3622   0.3639   0.3643   0.3653   0.3655   0.3663   0.3673   0.3683
  0.3685   0.3696   0.3698   0.3705   0.3708   0.3723   0.3731   0.3738
  0.3740   0.3749   0.3757   0.3764   0.3775   0.3786   0.3790   0.3794
  0.3799   0.3805   0.3815   0.3825   0.3838   0.3843   0.3847   0.3854
  0.3864   0.3874   0.3881   0.3884   0.3890   0.3909   0.3912   0.3922
  0.3923   0.3934   0.3938   0.3947   0.3951   0.3960   0.3970   0.3989
  0.3992   0.3998   0.4010   0.4019   0.4028   0.4036   0.4039   0.4044
  0.4055   0.4061   0.4069   0.4077   0.4085   0.4096   0.4110   0.4114
  0.4117   0.4129   0.4135   0.4143   0.4157   0.4169   0.4172   0.4177
  0.4181   0.4196   0.4201   0.4208   0.4222   0.4232   0.4237   0.4242
  0.4251   0.4257   0.4263   0.4275   0.4285   0.4299   0.4307   0.4308
  0.4315   0.4320   0.4333   0.4343   0.4350   0.4356   0.4361   0.4370
  0.4385   0.4390   0.4404   0.4413   0.4427   0.4432   0.4444   0.4460
  0.4468   0.4481   0.4488   0.4497   0.4508   0.4516   0.4525   0.4529
  0.4551   0.4554   0.4567   0.4574   0.4578   0.4589   0.4593   0.4609
  0.4611   0.4627   0.4632   0.4649   0.4657   0.4659   0.4671   0.4679
  0.4696   0.4707   0.4711   0.4721   0.4730   0.4735   0.4743   0.4761
  0.4772   0.4790   0.4801   0.4818   0.4826   0.4835   0.4838   0.4866
  0.4877   0.4884   0.4897   0.4914   0.4920   0.4927   0.4939   0.4945
  0.4956   0.4968   0.4982   0.4998   0.5010   0.5028   0.5036   0.5042
  0.5078   0.5080   0.5094   0.5100   0.5117   0.5125   0.5145   0.5154
  0.5166   0.5177   0.5194   0.5206   0.5218   0.5229   0.5246   0.5251
  0.5271   0.5275   0.5287   0.5293   0.5320   0.5344   0.5351   0.5358
  0.5380   0.5391   0.5397   0.5414   0.5433   0.5452   0.5458   0.5471
  0.5485   0.5495   0.5508   0.5526   0.5533   0.5550   0.5556   0.5575
  0.5579   0.5593   0.5616   0.5622   0.5643   0.5649   0.5659   0.5670
  0.5686   0.5700   0.5715   0.5735   0.5736   0.5744   0.5767   0.5773
  0.5776   0.5793   0.5805   0.5816   0.5828   0.5845   0.5861   0.5873
  0.5886   0.5895   0.5913   0.5924   0.5928   0.5936   0.5952   0.5970
  0.5979   0.5990   0.6004   0.6019   0.6034   0.6037   0.6057   0.6068
  0.6072   0.6085   0.6101   0.6113   0.6125   0.6136   0.6149   0.6163
  0.6170   0.6181   0.6192   0.6194   0.6202   0.6214   0.6222   0.6229
  0.6254   0.6260   0.6276   0.6291   0.6301   0.6312   0.6316   0.6342
  0.6353   0.6359   0.6365   0.6373   0.6385   0.6404   0.6409   0.6414
  0.6431   0.6441   0.6453   0.6478   0.6488   0.6491   0.6503   0.6510
  0.6523   0.6531   0.6536   0.6552   0.6557   0.6564   0.6582   0.6592
  0.6594   0.6607   0.6614   0.6626   0.6637   0.6651   0.6662   0.6665
  0.6680   0.6681   0.6694   0.6705   0.6725   0.6730   0.6733   0.6748
  0.6750   0.6763   0.6770   0.6777   0.6798   0.6806   0.6814   0.6831
  0.6836   0.6851   0.6857   0.6868   0.6878   0.6881   0.6898   0.6907
  0.6910   0.6919   0.6926   0.6945   0.6956   0.6962   0.6979   0.6982
  0.6997   0.7018   0.7022   0.7041   0.7050   0.7065   0.7069   0.7073
  0.7089   0.7093   0.7110   0.7115   0.7120   0.7130   0.7145   0.7156
  0.7164   0.7184   0.7188   0.7192   0.7207   0.7221   0.7233   0.7242
  0.7244   0.7251   0.7261   0.7269   0.7281   0.7289   0.7302   0.7317
  0.7326   0.7331   0.7351   0.7366   0.7379   0.7384   0.7394   0.7402
  0.7425   0.7432   0.7440   0.7459   0.7469   0.7476   0.7497   0.7500
  0.7523   0.7535   0.7548   0.7559   0.7565   0.7575   0.7583   0.7609
  0.7621   0.7630   0.7642   0.7649   0.7663   0.7675   0.7694   0.7711
  0.7723   0.7734   0.7745   0.7759   0.7776   0.7792   0.7805   0.7822
  0.7830   0.7840   0.7848   0.7868   0.7887   0.7892   0.7900   0.7909
  0.7919   0.7930   0.7938   0.7953   0.7968   0.7982   0.7989   0.8002
  0.8025   0.8033   0.8044   0.8077   0.8086   0.8089   0.8094   0.8108
  0.8132   0.8145   0.8153   0.8159   0.8169   0.8174   0.8191   0.8206
  0.8214   0.8226   0.8235   0.8237   0.8254   0.8274   0.8282   0.8297
  0.8298   0.8307   0.8324   0.8332   0.8349   0.8355   0.8361   0.8385
  0.8396   0.8410   0.8415   0.8432   0.8441   0.8459   0.8466   0.8486
  0.8491   0.8503   0.8513   0.8523   0.8536   0.8543   0.8559   0.8578
  0.8585   0.8595   0.8596   0.8607   0.8620   0.8634   0.8644   0.8656
  0.8661   0.8665   0.8677   0.8682   0.8693   0.8699   0.8712   0.8733
  0.8744   0.8749   0.8759   0.8766   0.8782   0.8804   0.8826   0.8839
  0.8840   0.8858   0.8859   0.8867   0.8879   0.8890   0.8900   0.8912
  0.8932   0.8935   0.8949   0.8960   0.8977   0.8982   0.8996   0.9001
  0.9018   0.9023   0.9033   0.9048   0.9055   0.9060   0.9077   0.9079
  0.9101   0.9108   0.9123   0.9142   0.9149   0.9158   0.9166   0.9175
  0.9179   0.9183   0.9206   0.9218   0.9239   0.9241   0.9255   0.9268
  0.9275   0.9287   0.9295   0.9299   0.9312   0.9329   0.9334   0.9347
  0.9352   0.9356   0.9366   0.9377   0.9388   0.9402   0.9417   0.9418
  0.9423   0.9432   0.9449   0.9460   0.9476   0.9482   0.9494   0.9510
  0.9519   0.9534   0.9543   0.9557   0.9569   0.9576   0.9580   0.9589
  0.9595   0.9619   0.9632   0.9641   0.9649   0.9655   0.9660   0.9668
  0.9672   0.9683   0.9698   0.9706   0.9718   0.9730   0.9742   0.9751
  0.9758   0.9765   0.9779   0.9793   0.9801   0.9815   0.9829   0.9834
  0.9846   0.9850   0.9855   0.9860   0.9865   0.9888   0.9891   0.9910
  0.9917   0.9924   0.9933   0.9942   0.9951   0.9957   0.9969   0.9978
  0.9986   0.9997   1.0001   1.0005   1.0020   1.0026   1.0041   1.0050
  1.0058   1.0076   1.0088   1.0095   1.0096   1.0108   1.0117   1.0125
  1.0134   1.0141   1.0146   1.0159   1.0177   1.0183   1.0187   1.0193
  1.0202   1.0219   1.0227   1.0244   1.0249   1.0257   1.0270   1.0275
  1.0288   1.0295   1.0305   1.0322   1.0329   1.0332   1.0345   1.0360
  1.0367   1.0379   1.0386   1.0398   1.0402   1.0404   1.0422   1.0422
  1.0435   1.0443   1.0449   1.0458   1.0469   1.0473   1.0485   1.0507
  1.0517   1.0519   1.0525   1.0537   1.0546   1.0557   1.0563   1.0574
  1.0585   1.0592   1.0614   1.0637   1.0641   1.0656   1.0660   1.0669
  1.0684   1.0691   1.0703   1.0721   1.0728   1.0737   1.0745   1.0759
  1.0775   1.0785   1.0798   1.0806   1.0827   1.0833   1.0862   1.0867
  1.0880   1.0890   1.0899   1.0911   1.0927   1.0938   1.0945   1.0959
  1.0969   1.0973   1.0975   1.0991   1.0997   1.1017   1.1031   1.1044
  1.1053   1.1064   1.1078   1.1099   1.1115   1.1123   1.1127   1.1147
  1.1161   1.1167   1.1183   1.1187   1.1204   1.1212   1.1217   1.1238
  1.1252   1.1263   1.1264   1.1284   1.1295   1.1302   1.1309   1.1315
  1.1335   1.1342   1.1350   1.1363   1.1372   1.1398   1.1405   1.1413
  1.1424   1.1430   1.1437   1.1444   1.1466   1.1470   1.1494   1.1513
  1.1521   1.1529   1.1541   1.1570   1.1582   1.1583   1.1589   1.1606
  1.1619   1.1630   1.1644   1.1647   1.1655   1.1669   1.1675   1.1686
  1.1706   1.1711   1.1716   1.1730   1.1741   1.1762   1.1764   1.1776
  1.1789   1.1796   1.1809   1.1826   1.1838   1.1854   1.1863   1.1874
  1.1886   1.1901   1.1906   1.1935   1.1952   1.1964   1.1970   1.1978
  1.1993   1.2003   1.2018   1.2028   1.2050   1.2056   1.2066   1.2082
  1.2096   1.2120   1.2128   1.2144   1.2158   1.2176   1.2181   1.2193
  1.2207   1.2222   1.2240   1.2259   1.2290   1.2295   1.2305   1.2327
  1.2334   1.2368   1.2383   1.2389   1.2415   1.2418   1.2438   1.2457
  1.2460   1.2486   1.2510   1.2521   1.2544   1.2555   1.2563   1.2570
  1.2594   1.2619   1.2625   1.2645   1.2650   1.2683   1.2689   1.2719
  1.2748   1.2769   1.2790   1.2802   1.2822   1.2838   1.2852   1.2878
  1.2900   1.2919   1.2922   1.2940   1.2948   1.2997   1.3010   1.3015
  1.3057   1.3082   1.3095   1.3112   1.3123   1.3154   1.3168   1.3186
  1.3219   1.3237   1.3239   1.3274   1.3278   1.3290   1.3310   1.3339
  1.3350   1.3380   1.3384   1.3409   1.3431   1.3455   1.3463   1.3472
  1.3483   1.3495   1.3523   1.3547   1.3555   1.3581   1.3585   1.3591
  1.3610   1.3626   1.3644   1.3656   1.3678   1.3686   1.3725   1.3729
  1.3743   1.3788   1.3804   1.3805   1.3822   1.3843   1.3850   1.3863
  1.3874   1.3883   1.3898   1.3926   1.3937   1.3944   1.3952   1.3960
  1.3985   1.3988   1.4003   1.4007   1.4033   1.4049   1.4060   1.4077
  1.4102   1.4106   1.4107   1.4129   1.4133   1.4150   1.4162   1.4178
  1.4211   1.4221   1.4226   1.4239   1.4250   1.4259   1.4269   1.4284
  1.4303   1.4318   1.4334   1.4354   1.4374   1.4391   1.4404   1.4424
  1.4440   1.4451   1.4457   1.4463   1.4470   1.4494   1.4498   1.4510
  1.4522   1.4541   1.4547   1.4569   1.4581   1.4597   1.4614   1.4636
  1.4644   1.4652   1.4662   1.4678   1.4691   1.4700   1.4722   1.4745
  1.4748   1.4760   1.4774   1.4782   1.4798   1.4817   1.4835   1.4847
  1.4862   1.4876   1.4894   1.4908   1.4925   1.4937   1.4947   1.4983
  1.4998   1.5023   1.5029   1.5041   1.5081   1.5087   1.5098   1.5119
  1.5140   1.5146   1.5160   1.5184   1.5202   1.5225   1.5231   1.5252
  1.5268   1.5283   1.5299   1.5304   1.5339   1.5369   1.5380   1.5391
  1.5427   1.5431   1.5453   1.5491   1.5500   1.5517   1.5545   1.5565
  1.5592   1.5600   1.5653   1.5659   1.5669   1.5698   1.5719   1.5725
  1.5758   1.5769   1.5824   1.5858   1.5872   1.5897   1.5923   1.5941
  1.5961   1.5982   1.6011   1.6036   1.6058   1.6101   1.6118   1.6163
  1.6190   1.6216   1.6225   1.6266   1.6281   1.6314   1.6344   1.6370
  1.6402   1.6447   1.6466   1.6513   1.6550   1.6563   1.6574   1.6591
  1.6602   1.6618   1.6646   1.6666   1.6674   1.6681   1.6688   1.6731
  1.6738   1.6743   1.6774   1.6785   1.6803   1.6816   1.6838   1.6842
  1.6860   1.6878   1.6884   1.6900   1.6902   1.6912   1.6922   1.6939
  1.6944   1.6949   1.6961   1.6964   1.6979   1.6995   1.6999   1.7016
  1.7028   1.7049   1.7061   1.7072   1.7079   1.7087   1.7116   1.7120
  1.7130   1.7152   1.7161   1.7169   1.7180   1.7191   1.7200   1.7213
  1.7216   1.7224   1.7240   1.7258   1.7287   1.7309   1.7316   1.7324
  1.7334   1.7347   1.7354   1.7364   1.7380   1.7393   1.7398   1.7401
  1.7413   1.7429   1.7446   1.7448   1.7460   1.7468   1.7483   1.7488
  1.7494   1.7529   1.7538   1.7551   1.7554   1.7564   1.7574   1.7589
  1.7617   1.7620   1.7638   1.7641   1.7664   1.7685   1.7688   1.7699
  1.7713   1.7730   1.7747   1.7757   1.7774   1.7785   1.7806   1.7824
  1.7843   1.7860   1.7889   1.7904   1.7913   1.7932   1.7954   1.7971
  1.7986   1.7991   1.8003   1.8016   1.8038   1.8055   1.8073   1.8079
  1.8095   1.8107   1.8129   1.8156   1.8163   1.8183   1.8199   1.8227
  1.8236   1.8254   1.8287   1.8326   1.8334   1.8338   1.8357   1.8376
  1.8401   1.8427   1.8444   1.8468   1.8495   1.8530   1.8541   1.8554
  1.8584   1.8600   1.8609   1.8647   1.8680   1.8699   1.8724   1.8735
  1.8736   1.8771   1.8790   1.8800   1.8806   1.8813   1.8821   1.8824
  1.8853   1.8875   1.8885   1.8911   1.8919   1.8920   1.8933   1.8947
  1.8958   1.8964   1.8979   1.8989   1.9003   1.9018   1.9031   1.9046
  1.9056   1.9064   1.9074   1.9084   1.9097   1.9114   1.9121   1.9150
  1.9161   1.9172   1.9186   1.9206   1.9221   1.9232   1.9239   1.9254
  1.9265   1.9273   1.9311   1.9326   1.9338   1.9362   1.9375   1.9391
  1.9393   1.9411   1.9420   1.9430   1.9447   1.9459   1.9487   1.9500
  1.9506   1.9520   1.9531   1.9539   1.9549   1.9582   1.9618   1.9628
  1.9639   1.9650   1.9662   1.9687   1.9713   1.9740   1.9751   1.9762
  1.9782   1.9801   1.9823   1.9867   1.9888   1.9907   1.9961   2.0015
  2.0043   2.0057   2.0122   2.0228   2.0243   2.0312   2.0338   2.0357
  2.0364   2.0399   2.0421   2.0443   2.0477   2.0520   2.0555   2.0578
  2.0587   2.0597   2.0611   2.0630   2.0637   2.0658   2.0680   2.0694
  2.0705   2.0721   2.0736   2.0740   2.0751   2.0753   2.0775   2.0789
  2.0812   2.0820   2.0835   2.0848   2.0861   2.0865   2.0871   2.0896
  2.0905   2.0921   2.0930   2.0939   2.0946   2.0957   2.0988   2.0998
  2.0999   2.1003   2.1020   2.1036   2.1052   2.1072   2.1104   2.1116
  2.1137   2.1158   2.1186   2.1193   2.1202   2.1234   2.1242   2.1271
  2.1308   2.1326   2.1341   2.1343   2.1386   2.1392   2.1432   2.1437
  2.1505   2.1526   2.1531   2.1567   2.1594   2.1608   2.1622   2.1655
  2.1660   2.1678   2.1712   2.1737   2.1738   2.1752   2.1794   2.1847
  2.1854   2.1879   2.1890   2.1922   2.1928   2.1961   2.2003   2.2028
  2.2049   2.2076   2.2087   2.2107   2.2111   2.2123   2.2148   2.2161
  2.2177   2.2197   2.2204   2.2216   2.2230   2.2240   2.2245   2.2265
  2.2278   2.2293   2.2309   2.2311   2.2334   2.2354   2.2371   2.2384
  2.2413   2.2429   2.2438   2.2446   2.2457   2.2466   2.2473   2.2484
  2.2504   2.2519   2.2526   2.2537   2.2541   2.2546   2.2556   2.2564
  2.2576   2.2593   2.2601   2.2608   2.2618   2.2625   2.2631   2.2633
  2.2639   2.2657   2.2673   2.2680   2.2691   2.2695   2.2711   2.2721
  2.2723   2.2732   2.2747   2.2751   2.2766   2.2776   2.2782   2.2797
  2.2807   2.2810   2.2818   2.2825   2.2833   2.2841   2.2848   2.2858
  2.2868   2.2874   2.2877   2.2895   2.2902   2.2911   2.2916   2.2924
  2.2930   2.2938   2.2951   2.2954   2.2963   2.2980   2.2986   2.2998
  2.2999   2.3006   2.3010   2.3019   2.3028   2.3036   2.3043   2.3049
  2.3056   2.3064   2.3078   2.3078   2.3097   2.3102   2.3109   2.3119
  2.3124   2.3129   2.3149   2.3156   2.3170   2.3179   2.3184   2.3194
  2.3214   2.3223   2.3228   2.3234   2.3244   2.3252   2.3256   2.3277
  2.3278   2.3291   2.3300   2.3308   2.3317   2.3324   2.3347   2.3358
  2.3375   2.3391   2.3396   2.3406   2.3419   2.3421   2.3455   2.3464
  2.3479   2.3484   2.3502   2.3529   2.3540   2.3553   2.3565   2.3589
  2.3606   2.3625   2.3639   2.3642   2.3673   2.3685   2.3694   2.3704
  2.3716   2.3728   2.3736   2.3744   2.3758   2.3789   2.3807   2.3835
  2.3855   2.3873   2.3901   2.3948   2.3966   2.3992   2.4025   2.4045
  2.4066   2.4136   2.4160   2.4211   2.4222   2.4278   2.4318   2.4334
  2.4368   2.4467   2.4537   2.4839   2.4968   2.5362   2.5499   2.5685
  2.6086   2.6917   2.7473   2.7790   2.7850   2.8161   2.8182   2.8298
  2.8339   2.8357   2.8398   2.8419   2.8424   2.8469   2.8482   2.8490
  2.8501   2.8513   2.8532   2.8539   2.8587   2.8627   2.8662   2.8676
  2.8687   2.8715   2.8766   2.8817   2.8817   2.8859   2.8883   2.8904
  2.8941   2.8975   2.9021   2.9039   2.9076   2.9112   2.9284   2.9321
  2.9393   3.1074   3.2789   3.9449   3.9574   3.9616   3.9640   3.9650
  3.9675   3.9687   3.9725   3.9765   3.9818   3.9850   3.9855   3.9897
  3.9908   3.9942   3.9969   4.0003   4.0048   4.0106   4.0182   4.0194
  4.0216   4.0241   4.0302   4.0322   4.0374   4.0385   4.0430   4.0441
  4.0567   4.0660   4.1958   4.2179   4.2223   4.2271   4.2291   4.2337
  4.2349   4.2368   4.2402   4.2412   4.2487   4.2499   4.2585   4.2611
  4.2663   4.2668   4.2702   4.2727   4.2754   4.2796   4.2831   4.2873
  4.2902   4.2944   4.2967   4.2990   4.2993   4.3012   4.3057   4.3115
  4.3125   4.3137   4.3160   4.3183   4.3203   4.3243   4.3271   4.3285
  4.3294   4.3305   4.3340   4.3365   4.3372   4.3411   4.3453   4.3457
  4.3491   4.3522   4.3550   4.3559   4.3588   4.3601   4.3648   4.3667
  4.3690   4.3711   4.3736   4.3762   4.3780   4.3801   4.3861   4.3870
  4.3906   4.3941   4.3970   4.4033   4.4144   4.4166   4.4186   4.4210
  4.4231   4.4256   4.4385   4.4453   4.4457   4.4557   4.4588   4.4599
  4.4626   4.4684   4.4769   4.4875   4.4900   4.5071   4.5172   4.5212
  4.5331   4.5422   4.5482   4.5531   4.5573   4.5642   4.5831   4.6027
  4.6320   4.6382   4.7277   4.7583   4.7746   4.7840   4.8150   4.9359
 --------------------------------------------------------------
 
          Ground-State Mulliken Net Atomic Charges

     Atom                 Charge (a.u.)
  ----------------------------------------
      1 C                     0.020753
      2 C                    -0.446161
      3 C                    -0.033172
      4 C                    -0.983154
      5 C                    -0.667579
      6 C                    -0.825468
      7 H                     0.213270
      8 H                     0.222419
      9 H                     0.238174
     10 H                     0.227183
     11 H                     0.206480
     12 H                     0.224093
     13 H                     0.176900
     14 H                     0.225793
     15 H                     0.270827
     16 H                     0.224345
     17 H                     0.222908
     18 N                     0.186164
     19 H                     0.525283
     20 C                    -0.191610
     21 H                     0.154490
     22 O                    -0.144218
     23 C                    -0.915350
     24 H                     0.239380
     25 H                     0.265787
     26 H                     0.241026
     27 S                     0.980888
     28 C                    -0.960055
     29 H                     0.232891
     30 H                     0.245435
     31 H                     0.262230
     32 O                    -0.609570
     33 C                    -0.978255
     34 H                     0.273997
     35 H                     0.231818
     36 H                     0.281202
     37 S                     0.987256
     38 C                    -0.998921
     39 H                     0.284561
     40 H                     0.275922
     41 H                     0.242395
     42 O                    -0.671131
     43 C                    -1.061249
     44 H                     0.305962
     45 H                     0.254725
     46 H                     0.277478
     47 S                     1.207438
     48 C                    -0.971940
     49 H                     0.314355
     50 H                     0.303293
     51 H                     0.233164
     52 O                    -0.665836
     53 C                    -0.877651
     54 H                     0.294400
     55 H                     0.245516
     56 H                     0.235214
     57 S                     1.019701
     58 C                    -0.882831
     59 H                     0.260156
     60 H                     0.220964
     61 H                     0.259177
     62 O                    -0.745147
     63 C                    -0.811839
     64 H                     0.209924
     65 H                     0.324641
     66 H                     0.303114
     67 S                     0.697349
     68 C                    -0.855543
     69 H                     0.282246
     70 H                     0.253213
     71 H                     0.241034
     72 O                    -0.674179
     73 C                    -0.819561
     74 H                     0.280823
     75 H                     0.262439
     76 H                     0.248059
     77 S                     0.898110
     78 C                    -0.974695
     79 H                     0.269872
     80 H                     0.285457
     81 H                     0.253271
     82 O                    -0.712749
     83 C                    -0.790506
     84 H                     0.254747
     85 H                     0.229095
     86 H                     0.243508
     87 S                     0.891583
     88 C                    -0.787828
     89 H                     0.243179
     90 H                     0.252761
     91 H                     0.290670
     92 O                    -0.759250
     93 C                    -1.037295
     94 H                     0.276216
     95 H                     0.276568
     96 H                     0.272501
     97 S                     0.878789
     98 C                    -0.817197
     99 H                     0.325226
    100 H                     0.246756
    101 H                     0.246815
    102 O                    -0.699813
    103 C                    -0.988131
    104 H                     0.319356
    105 H                     0.291674
    106 H                     0.254168
    107 S                     1.108356
    108 C                    -1.054825
    109 H                     0.289740
    110 H                     0.283518
    111 H                     0.242424
    112 O                    -0.724921
    113 C                    -0.768564
    114 H                     0.239956
    115 H                     0.257014
    116 H                     0.253434
    117 S                     0.893702
    118 C                    -0.888481
    119 H                     0.271065
    120 H                     0.230176
    121 H                     0.252815
    122 O                    -0.721169
    123 C                    -1.194988
    124 H                     0.264579
    125 H                     0.316170
    126 H                     0.298951
    127 S                     1.209678
    128 C                    -0.969050
    129 H                     0.239953
    130 H                     0.260222
    131 H                     0.250786
    132 O                    -0.639541
    133 C                    -0.854177
    134 H                     0.262404
    135 H                     0.240447
    136 H                     0.255313
    137 S                     0.935071
    138 C                    -0.840213
    139 H                     0.231567
    140 H                     0.258388
    141 H                     0.246789
    142 O                    -0.714538
    143 C                    -0.907830
    144 H                     0.223699
    145 H                     0.249727
    146 H                     0.317292
    147 S                     0.921311
    148 C                    -1.016553
    149 H                     0.253493
    150 H                     0.291219
    151 H                     0.238763
    152 O                    -0.668312
    153 C                    -0.890234
    154 H                     0.257732
[...]
    2  -0.0249212   0.0325742   0.0031997   0.0069456  -0.0066349  -0.0073541
    3  -0.0123134   0.0032385  -0.0650888   0.0063541  -0.0181717   0.0339814
          211         212         213         214         215         216
    1   0.0092243  -0.0516424  -0.0017250   0.0241903  -0.0190105  -0.0389387
    2   0.0273795  -0.0837099  -0.0052212  -0.0250034   0.0227231  -0.0156780
    3  -0.0112793   0.0495137   0.0102290   0.0130198   0.0052105   0.0164935
          217         218         219         220         221         222
    1  -0.0312359  -0.0009991   0.0082856   0.0164695  -0.0205649   0.0939980
    2   0.0164633  -0.0099353  -0.0028207  -0.0059678  -0.0445547   0.0461482
    3  -0.0349731   0.0034366  -0.0291293   0.0286324  -0.0092046   0.0286458
          223         224         225         226         227         228
    1   0.0023324   0.0122540   0.0214295  -0.0166954   0.0223305  -0.0031183
    2  -0.0020589  -0.0276813   0.0200442   0.0162798  -0.0170447   0.0106968
    3   0.0079169   0.0055184  -0.0022441   0.0234483  -0.0474896  -0.0058892
          229         230         231         232         233         234
    1  -0.0215472  -0.0085163   0.0185250  -0.0945141   0.0085879   0.0077096
    2  -0.0020697   0.0048709   0.0189060  -0.0351427  -0.0022851  -0.0036496
    3  -0.0242278   0.0327509  -0.0230588   0.0424915   0.0078021   0.0378426
          235         236         237         238         239         240
    1   0.0232678  -0.0036450  -0.0410422  -0.0000682   0.0289826  -0.0056493
    2   0.0010940   0.0291517   0.0045960  -0.0054374   0.0013570  -0.0245747
    3  -0.0260180  -0.0036492   0.0358964  -0.0008428  -0.0159422   0.0256499
          241         242         243         244         245         246
    1  -0.0146329  -0.0009848   0.0043953  -0.0117876   0.0108603   0.0310793
    2  -0.0204832   0.0489577   0.0031815   0.0237113   0.0028600   0.0038360
    3  -0.0247995  -0.0981053   0.0066010  -0.0042146   0.0277225  -0.0072366
          247         248         249         250         251         252
    1   0.0357388  -0.0027584   0.0260513  -0.0107902  -0.0178491  -0.0965044
    2  -0.0420259   0.0040422   0.0014456  -0.0084208   0.0204738   0.0018868
    3  -0.0085728  -0.0040347  -0.0207332  -0.0367656   0.0051689   0.0492870
          253         254         255         256         257         258
    1   0.0016252   0.0187917   0.0079666  -0.0205403   0.0059284  -0.0055890
    2   0.0117174   0.0117955  -0.0183344   0.0318658  -0.0547239   0.0003595
    3  -0.0065562   0.0238878  -0.0192400  -0.0114307   0.0121376  -0.0067239
          259         260         261         262         263         264
    1  -0.0008565  -0.0293321  -0.0182221  -0.0366937  -0.0039336  -0.0264481
    2  -0.0058312  -0.0087887   0.0273400   0.0728100   0.0045949   0.0090036
    3  -0.0354763   0.0065769   0.0034413   0.0760021   0.0036457  -0.0196497
          265         266         267         268         269         270
    1  -0.0082410   0.0043236   0.0126816  -0.0029389  -0.0124402  -0.0252334
    2  -0.0133475   0.0295659   0.0208063  -0.0082979  -0.0209356   0.0020465
    3   0.0265665   0.0175426  -0.0473705   0.0028204   0.0277427  -0.0236129
          271         272         273         274         275         276
    1   0.0304129   0.0742103  -0.0036236   0.0175118  -0.0117629  -0.0208600
    2  -0.0156919  -0.0177199   0.0030212   0.0125033  -0.0233713   0.0212755
    3   0.0054157   0.0792335  -0.0049409  -0.0223886  -0.0230224   0.0077349
          277         278         279         280         281         282
    1   0.0263607  -0.0041716  -0.0216933   0.0010066  -0.0183161   0.0534104
    2  -0.0513022   0.0001964  -0.0260791  -0.0052001   0.0227603   0.0833718
    3  -0.0124463   0.0051707  -0.0071750   0.0323480   0.0120808   0.0487132
          283         284         285         286         287         288
    1  -0.0081127   0.0099040  -0.0134204  -0.0177249   0.0377350  -0.0018328
    2   0.0070791   0.0291794  -0.0250648   0.0075749  -0.0100401  -0.0067969
    3  -0.0019089  -0.0146208  -0.0164203   0.0258266  -0.0385448   0.0037875
          289         290         291         292         293         294
    1  -0.0272065   0.0027535   0.0179808   0.0138941   0.0048687   0.0259541
    2   0.0042523  -0.0334738  -0.0060019   0.0705028   0.0049781  -0.0156531
    3   0.0188289  -0.0195257   0.0247545   0.0824046   0.0040019   0.0091064
          295         296         297         298         299         300
    1   0.0135729  -0.0089404  -0.0498922  -0.0006878  -0.0271498   0.0311064
    2   0.0281767   0.0213069   0.0324904  -0.0061359  -0.0149978  -0.0134840
    3  -0.0130018   0.0280407  -0.0014575   0.0031078  -0.0130369   0.0041387
          301         302         303         304         305         306
    1   0.0044063   0.0454268   0.0014157   0.0158301  -0.0025568   0.0263846
    2   0.0045097  -0.0470193  -0.0062926  -0.0029687  -0.0353023   0.0101863
    3   0.0363110  -0.0873102  -0.0029934   0.0250099  -0.0164907  -0.0108520
          307         308         309         310         311         312
    1  -0.0457249  -0.0010711  -0.0252068   0.0262104  -0.0206828   0.0384668
    2  -0.0313147  -0.0033413   0.0198921   0.0153166  -0.0287951   0.0907518
    3   0.0259413  -0.0076190   0.0044629  -0.0073263  -0.0142986   0.0475833
          313         314         315         316         317         318
    1   0.0070424  -0.0173011  -0.0039934   0.0343983  -0.0549316   0.0071135
    2  -0.0040370  -0.0292843   0.0221604   0.0047939   0.0179655   0.0036088
    3  -0.0062146  -0.0064887  -0.0232250   0.0010860  -0.0041954   0.0048001
          319         320         321         322         323         324
    1   0.0070582  -0.0008476   0.0314059   0.0370760  -0.0011323   0.0065405
    2   0.0231280   0.0127925   0.0024032  -0.0728128  -0.0086202  -0.0328058
    3  -0.0240555   0.0334208   0.0104064   0.0728468  -0.0097359   0.0029064
          325         326         327         328         329         330
    1  -0.0308103   0.0213894   0.0098176   0.0044901   0.0234289   0.0023385
    2   0.0068392   0.0207604   0.0613857  -0.0053854   0.0085409   0.0032284
    3  -0.0103558  -0.0140584  -0.0032382   0.0033544  -0.0205333   0.0330044
          331         332
    1   0.0010359  -0.0787013
    2  -0.0288261  -0.0444793
    3  -0.0079606   0.0608854
  --- DONE ESP SUMMARY ---
Archival summary:
1\1\node029\SP\ProcedureUnspecified\6-31+G*\313162h22\ymao90\SatDec405:37:012021SatDec405:37:012021\0\\#,ProcedureUnspecified,6-31+G*,\\0,1\S\O,1,1.4966\C,1,1.80615,2,100.922\H,3,1.09315,1,112.64,2,61.276,0\H,3,1.09341,1,111.894,2,176.915,0\H,3,1.09345,1,109.528,2,-60.2056,0\C,1,1.80678,2,103.041,3,97.5548,0\H,7,1.0929,1,111.175,2,-48.7392,0\H,7,1.09331,1,103.365,2,77.4096,0\H,7,1.09373,1,110.292,2,-167.243,0\Gh,2,1.8444,1,119.674,3,68.5427,0\Gh,11,1.01274,2,161.343,1,10.4969,0\Gh,12,1.37907,11,112.489,2,48.4276,0\Gh,13,1.1056,12,116.972,11,5.31968,0\Gh,13,1.21854,12,122.957,11,172.945,0\Gh,12,1.46151,11,119.411,2,-130.588,0\Gh,16,1.09709,12,108.783,11,165.699,0\Gh,16,1.53719,12,111.441,11,49.206,0\Gh,18,1.09634,16,111.372,12,-60.0642,0\Gh,18,1.0964,16,103.602,12,56.6544,0\Gh,18,1.53742,16,109.158,12,167.519,0\Gh,21,1.09615,18,111.789,16,-64.1524,0\Gh,21,1.09682,18,103.276,16,-178.808,0\Gh,21,1.53766,18,105.078,16,65.0914,0\Gh,24,1.09641,21,116.58,18,176.249,0\Gh,24,1.0975,21,101.594,18,57.2612,0\Gh,24,1.53759,21,114.64,18,-58.8654,0\Gh,27,1.09668,24,103.462,21,-75.4607,0\Gh,27,1.09718,24,117.82,21,174.111,0\Gh,16,1.53773,12,113.861,11,-77.8489,0\Gh,30,1.09635,16,106.926,12,58.167,0\Gh,30,1.0972,16,110.16,12,-53.8883,0\H,17,1.95131,16,144.768,12,116.552,0\C,33,1.09302,17,135.193,16,-54.3291,0\H,34,1.09293,33,107.091,17,-53.2126,0\H,34,1.09333,33,109.45,17,76.9396,0\S,34,1.80738,33,111.129,17,-165.794,0\O,37,1.4972,34,101.423,33,167.847,0\C,37,1.80693,34,95.8939,33,67.6008,0\H,39,1.0928,37,101.488,34,-48.0329,0\H,39,1.09282,37,109.84,34,67.5495,0\H,39,1.09288,37,111.172,34,-171.275,0\H,5,2.19236,3,127.987,1,60.9474,0\C,43,1.09285,5,105.085,3,136.625,0\H,44,1.09319,43,115.123,5,-42.3638,0\H,44,1.09346,43,103.98,5,-173.746,0\S,44,1.80765,43,100.259,5,70.2304,0\O,47,1.49732,44,99.4464,43,-77.4986,0\C,47,1.80686,44,100.439,43,171.885,0\H,49,1.09244,47,110.426,44,165.293,0\H,49,1.09281,47,111.028,44,53.4827,0\H,49,1.09362,47,110.354,44,-75.235,0\H,32,2.20204,30,133.218,16,151.906,0\C,53,1.09346,32,116.422,30,138.4,0\H,54,1.09294,53,112.045,32,-0.596893,0\H,54,1.09353,53,106.281,32,-132.936,0\S,54,1.80609,53,99.8554,32,115.903,0\O,57,1.49686,54,104.376,53,179.132,0\C,57,1.80702,54,98.021,53,-74.0679,0\H,59,1.09276,57,108.31,54,-44.5597,0\H,59,1.09295,57,119.85,54,-172.684,0\H,59,1.09308,57,103.868,54,64.3298,0\H,42,2.22339,39,109.702,37,90.2533,0\C,63,1.09376,42,122.945,39,-60.5917,0\H,64,1.09251,63,120.306,42,-131.388,0\H,64,1.09299,63,107.553,42,-6.63357,0\S,64,1.80725,63,105.597,42,108.443,0\O,67,1.49673,64,106.187,63,-81.186,0\C,67,1.80714,64,93.7318,63,173.233,0\H,69,1.09259,67,104.531,64,68.8556,0\H,69,1.09316,67,108.037,64,-52.498,0\H,69,1.09345,67,111.174,64,-174.777,0\H,56,2.25073,54,128.36,53,86.9109,0\C,73,1.09265,56,137.949,54,-122.177,0\H,74,1.09278,73,111.712,56,179.697,0\H,74,1.09335,73,112.297,56,-54.3922,0\S,74,1.80649,73,101.989,56,62.3885,0\O,77,1.49724,74,107.61,73,-88.3782,0\C,77,1.8069,74,96.961,73,155.984,0\H,79,1.0928,77,105.247,74,-179.964,0\H,79,1.09356,77,108.654,74,59.9858,0\H,79,1.09373,77,116.017,74,-56.4612,0\H,78,2.31065,77,115.118,74,-128.615,0\C,83,1.09262,78,160.425,77,-106.658,0\H,84,1.09313,83,114.41,78,-152.738,0\H,84,1.09374,83,104.166,78,-40.6864,0\S,84,1.80705,83,119.322,78,80.9078,0\O,87,1.49729,84,99.7703,83,52.4731,0\C,87,1.80679,84,102.879,83,-52.1209,0\H,89,1.09293,87,108.394,84,-62.7022,0\H,89,1.09318,87,106.867,84,47.3721,0\H,89,1.09322,87,109.421,84,-179.427,0\H,60,2.34512,59,112.607,57,-64.1054,0\C,93,1.09321,60,147.462,59,-125.761,0\H,94,1.09295,93,117.624,60,-178.901,0\H,94,1.09303,93,113.634,60,-57.2321,0\S,94,1.80768,93,107.07,60,59.8209,0\O,97,1.49732,94,102.218,93,170.159,0\C,97,1.80664,94,98.8884,93,67.8507,0\H,99,1.09291,97,103.026,94,38.3124,0\H,99,1.09361,97,106.897,94,-75.1424,0\H,99,1.09368,97,114.112,94,155.362,0\H,101,2.2936,99,159.002,97,158.615,0\C,103,1.09296,101,159.167,99,95.9672,0\H,104,1.09285,103,109.69,101,163.39,0\H,104,1.09291,103,113.752,101,-79.7613,0\S,104,1.80729,103,115.219,101,42.8826,0\O,107,1.49751,104,107.229,103,-162.142,0\C,107,1.8072,104,91.8678,103,-60.8924,0\H,109,1.09273,107,109.462,104,-169.718,0\H,109,1.09293,107,105.482,104,71.5081,0\H,109,1.09303,107,115.005,104,-47.2841,0\H,105,2.15607,104,121.304,103,105.72,0\C,113,1.09371,105,118.077,104,134.97,0\H,114,1.09316,113,111.1,105,-70.5987,0\H,114,1.09352,113,106.133,105,179.624,0\S,114,1.8066,113,116.025,105,60.0717,0\O,117,1.49714,114,99.3778,113,173.391,0\C,117,1.80746,114,100.342,113,64.8472,0\H,119,1.09252,117,102.925,114,77.0518,0\H,119,1.0929,117,110.92,114,-159.164,0\H,119,1.09347,117,112.28,114,-39.6251,0\H,45,2.35536,44,145.813,43,43.933,0\C,123,1.09309,45,138.869,44,75.8392,0\H,124,1.09279,123,112.658,45,171.47,0\H,124,1.0933,123,103.59,45,-68.5441,0\S,124,1.80711,123,107.375,45,45.776,0\O,127,1.49708,124,106.627,123,76.378,0\C,127,1.80686,124,97.5567,123,-176.548,0\H,129,1.09223,127,116.036,124,75.1797,0\H,129,1.09346,127,112.29,124,-43.6377,0\H,129,1.09347,127,113.871,124,-159.936,0\H,128,2.23826,127,137.54,124,12.7301,0\C,133,1.09316,128,154.847,127,-168.624,0\H,134,1.09196,133,114.758,128,-143.552,0\H,134,1.09247,133,112.862,128,-15.696,0\S,134,1.80661,133,95.7533,128,100.769,0\O,137,1.49675,134,102.114,133,160.85,0\C,137,1.80715,134,96.2238,133,55.9668,0\H,139,1.09207,137,115.968,134,170.777,0\H,139,1.09235,137,110.591,134,55.4074,0\H,139,1.0936,137,95.8637,134,-62.5697,0\H,140,2.08603,139,157.811,137,32.1611,0\C,143,1.09211,140,104.984,139,-1.48025,0\H,144,1.09271,143,109.789,140,-44.698,0\H,144,1.09345,143,116.453,140,-161.312,0\S,144,1.80749,143,113.4,140,80.7126,0\O,147,1.49788,144,104.407,143,-33.9632,0\C,147,1.80696,144,96.0743,143,72.4521,0\H,149,1.09282,147,108.953,144,77.0702,0\H,149,1.09292,147,100.546,144,-48.4105,0\H,149,1.09312,147,110.011,144,-159.142,0\H,152,2.14455,149,144.547,147,-130.695,0\C,153,1.09279,152,128.064,149,57.9938,0\H,154,1.09268,153,104.096,152,20.2516,0\H,154,1.09323,153,111.139,152,140.467,0\S,154,1.80701,153,104.873,152,-104.286,0\O,157,1.49736,154,104.796,153,52.3791,0\C,157,1.80715,154,93.5719,153,169.41,0\H,159,1.09269,157,105.024,154,-156.693,0\H,159,1.09305,157,105.183,154,-33.6168,0\H,159,1.09323,157,110.769,154,88.1738,0\O,110,2.37155,109,144.815,107,-19.648,0\S,163,1.49727,110,150.953,109,34.7429,0\C,164,1.8069,163,101.255,110,31.023,0\H,165,1.09246,164,111.883,163,52.01,0\H,165,1.09275,164,114.559,163,175.668,0\H,165,1.0931,164,102.135,163,-67.687,0\C,164,1.80699,163,98.3611,110,131.842,0\H,169,1.09304,164,115.154,163,-35.4409,0\H,169,1.09306,164,110.328,163,-157.3,0\H,169,1.09344,164,104.094,163,82.1086,0\H,168,2.12372,165,131.537,164,-23.6062,0\C,173,1.09285,168,119.13,165,-128.975,0\H,174,1.09329,173,105.924,168,-42.8896,0\H,174,1.09338,173,112.969,168,-166.665,0\S,174,1.8065,173,109.535,168,68.142,0\O,177,1.49721,174,101.221,173,-51.3858,0\C,177,1.80667,174,92.8374,173,53.6137,0\H,179,1.09236,177,99.383,174,-176.346,0\H,179,1.09298,177,111.095,174,59.6765,0\H,179,1.09336,177,111.533,174,-61.6075,0\H,175,1.93634,174,149.851,173,146.591,0\C,183,1.09303,175,117.254,174,19.1608,0\H,184,1.09296,183,106.448,175,-56.1231,0\H,184,1.09324,183,107.417,175,178.519,0\S,184,1.80721,183,100.503,175,62.0266,0\O,187,1.49648,184,96.3126,183,18.3456,0\C,187,1.807,184,98.2508,183,118.346,0\H,189,1.09229,187,113.284,184,-46.0573,0\H,189,1.09313,187,118.224,184,-159.076,0\H,189,1.09317,187,109.944,184,71.5799,0\H,192,2.22876,189,128.162,187,44.8645,0\C,193,1.09357,192,164.628,189,-130.682,0\H,194,1.09284,193,108.612,192,-136.091,0\H,194,1.09319,193,120.576,192,101.996,0\S,194,1.80685,193,103.627,192,-17.1485,0\O,197,1.49653,194,104.881,193,-37.533,0\C,197,1.80744,194,96.6965,193,68.8066,0\H,199,1.09245,197,112.677,194,114.457,0\H,199,1.09265,197,108.709,194,-4.71938,0\H,199,1.09273,197,109.592,194,-119.895,0\H,28,2.42368,27,129.172,24,-38.7457,0\C,203,1.09254,28,145.617,27,-82.6813,0\H,204,1.09285,203,108.216,28,96.4869,0\H,204,1.09354,203,107.159,28,-147.333,0\S,204,1.80611,203,110.603,28,-25.6364,0\O,207,1.49693,204,109.604,203,58.7247,0\C,207,1.8065,204,94.8888,203,164.213,0\H,209,1.09282,207,105.449,204,-176.827,0\H,209,1.09287,207,108.703,204,-58.4628,0\H,209,1.09373,207,112.843,204,69.5525,0\H,212,2.23916,209,113.221,207,-143.772,0\C,213,1.09319,212,142.658,209,101.302,0\H,214,1.09229,213,106.303,212,-91.0041,0\H,214,1.09348,213,113.081,212,146.69,0\S,214,1.80749,213,107.711,212,20.5269,0\O,217,1.4972,214,97.9467,213,86.7955,0\C,217,1.80758,214,94.6816,213,-168.689,0\H,219,1.09251,217,104.997,214,-163.374,0\H,219,1.09286,217,113.553,214,80.9202,0\H,219,1.09311,217,108.028,214,-38.1815,0\H,221,2.28863,219,136.927,217,68.7894,0\C,223,1.09255,221,114.278,219,-80.4457,0\H,224,1.09229,223,116.569,221,60.5054,0\H,224,1.09361,223,103.466,221,-56.2323,0\S,224,1.80771,223,105.057,221,-166.396,0\O,227,1.49704,224,99.9609,223,-67.7141,0\C,227,1.80685,224,97.5173,223,40.1286,0\H,229,1.09273,227,121.751,224,-33.7494,0\H,229,1.09297,227,103.327,224,88.2793,0\H,229,1.09301,227,98.9064,224,-159.108,0\O,226,2.21499,224,141.644,223,135.486,0\S,233,1.49776,226,125.255,224,94.4676,0\C,234,1.80648,233,101.267,226,128.299,0\H,235,1.09292,234,107.075,233,-161.627,0\H,235,1.09311,234,100.321,233,72.318,0\H,235,1.09335,234,108.565,233,-36.9893,0\C,234,1.8065,233,98.3625,226,29.3473,0\H,239,1.09242,234,103.376,233,168.669,0\H,239,1.0933,234,113.546,233,44.256,0\H,239,1.09337,234,113.599,233,-72.9958,0\O,111,2.42827,109,120.181,107,63.4766,0\S,243,1.49714,111,152.362,109,-58.2468,0\C,244,1.80629,243,105.59,111,-139.83,0\H,245,1.09282,244,111.923,243,-64.7191,0\H,245,1.09298,244,114.193,243,178.895,0\H,245,1.0938,244,110.212,243,52.1941,0\C,244,1.80632,243,99.3942,111,115.923,0\H,249,1.09238,244,106.26,243,155.512,0\H,249,1.09288,244,103.558,243,37.2877,0\H,249,1.09349,244,106.642,243,-88.232,0\H,150,2.49325,149,170.756,147,-117.456,0\C,253,1.09308,150,104.854,149,24.3932,0\H,254,1.09263,253,111.303,150,-112.501,0\H,254,1.09297,253,116.12,150,12.6795,0\S,254,1.80695,253,101.435,150,132.192,0\O,257,1.49692,254,103.712,253,106.485,0\C,257,1.8076,254,95.7145,253,-150.805,0\H,259,1.09228,257,112.713,254,-155.162,0\H,259,1.09265,257,113.138,254,-37.3047,0\H,259,1.09283,257,108.914,254,83.4568,0\H,48,2.51724,47,117.042,44,155.188,0\C,263,1.09289,48,143.326,47,176.845,0\H,264,1.09318,263,108.143,48,103.248,0\H,264,1.0934,263,108.229,48,-135.856,0\S,264,1.80739,263,109.3,48,-8.73389,0\O,267,1.49652,264,101.697,263,76.7544,0\C,267,1.80776,264,94.4857,263,-176.895,0\H,269,1.09195,267,101.362,264,85.4222,0\H,269,1.09269,267,111.968,264,-25.9813,0\H,269,1.09328,267,112.845,264,-157.47,0\H,268,2.26378,267,115.3,264,-177.632,0\C,273,1.09331,268,124.504,267,-21.4648,0\H,274,1.0924,273,111.95,268,-98.6353,0\H,274,1.09346,273,114.13,268,27.8455,0\S,274,1.80667,273,103.913,268,146.251,0\O,277,1.49645,274,97.0411,273,63.9174,0\C,277,1.80707,274,98.9193,273,162.278,0\H,279,1.09254,277,110.157,274,88.5307,0\H,279,1.09305,277,115.23,274,-149.328,0\H,279,1.09335,277,110.699,274,-18.0723,0\O,275,2.18981,274,144.219,273,124.551,0\S,283,1.4971,275,87.9011,274,-147.378,0\C,284,1.80645,283,108.159,275,-63.1676,0\H,285,1.09258,284,102.427,283,-175.979,0\H,285,1.09307,284,106.914,283,64.5539,0\H,285,1.09324,284,108.883,283,-56.0433,0\C,284,1.80692,283,101.437,275,-165.382,0\H,289,1.09225,284,109.238,283,167.105,0\H,289,1.09346,284,107.092,283,31.1521,0\H,289,1.09367,284,108.532,283,-80.0076,0\H,73,2.53334,56,117.485,54,70.6499,0\C,293,1.09283,73,148.693,56,62.437,0\H,294,1.09272,293,108.471,73,154.008,0\H,294,1.09333,293,112.192,73,-84.1613,0\S,294,1.80703,293,112.436,73,43.3266,0\O,297,1.49698,294,109.133,293,26.3247,0\C,297,1.80714,294,93.726,293,-71.2626,0\H,299,1.09225,297,109.564,294,179.088,0\H,299,1.09302,297,102.792,294,62.3852,0\H,299,1.09312,297,114.074,294,-60.8423,0\H,172,2.56367,169,119.429,164,73.3797,0\C,303,1.09307,172,116.728,169,-157.214,0\H,304,1.09309,303,112.564,172,9.39165,0\H,304,1.09322,303,111.399,172,-112.734,0\S,304,1.80651,303,113.729,172,124.269,0\O,307,1.49667,304,105.31,303,-56.1535,0\C,307,1.8066,304,93.0305,303,46.6518,0\H,309,1.09197,307,114.507,304,-160.735,0\H,309,1.09333,307,98.9333,304,-40.0601,0\H,309,1.09343,307,112.695,304,74.5477,0\H,310,2.28329,309,117.453,307,-129.748,0\C,313,1.09323,310,113.587,309,162.493,0\H,314,1.09256,313,110.111,310,-80.4054,0\H,314,1.09307,313,107.536,310,156.951,0\S,314,1.80691,313,113.525,310,40.9961,0\O,317,1.49756,314,108.216,313,-65.9424,0\C,317,1.80707,314,94.0144,313,41.3142,0\H,319,1.09193,317,107.732,314,67.854,0\H,319,1.09325,317,107.725,314,-52.1547,0\H,319,1.09331,317,104.261,314,-174.528,0\O,66,2.75956,64,138.159,63,-125.465,0\S,323,1.49735,66,84.9757,64,27.3346,0\C,324,1.80643,323,105.525,66,-128.783,0\H,325,1.09238,324,107.956,323,161.658,0\H,325,1.09261,324,115.315,323,-70.2009,0\H,325,1.09306,324,101.184,323,48.863,0\C,324,1.80654,323,99.8058,66,134.86,0\H,329,1.09281,324,112.366,323,38.6022,0\H,329,1.09281,324,105.199,323,-78.7158,0\H,329,1.09296,324,110.544,323,159.661,0\\\@

 Total job time:  77.74s(wall), 227.79s(cpu) 
 Sat Dec  4 05:37:01 2021

        *************************************************************
        *                                                           *
        *  Thank you very much for using Q-Chem.  Have a nice day.  *
        *                                                           *
        *************************************************************


