                  Welcome to Q-Chem
     A Quantum Leap Into The Future Of Chemistry


 Q-Chem 5.2 (devel), Q-Chem, Inc., Pleasanton, CA (2019)

 Yihan Shao,  Zhengting Gan,  E. Epifanovsky,  A. T. B. Gilbert,  M. Wormit,  
 J. Kussmann,  A. W. Lange,  A. Behn,  Jia Deng,  Xintian Feng,  D. Ghosh,  
 M. Goldey,  P. R. Horn,  L. D. Jacobson,  I. Kaliman,  T. Kus,  A. Landau,  
 Jie Liu,  E. I. Proynov,  R. M. Richard,  R. P. Steele,  E. J. Sundstrom,  
 H. L. Woodcock III,  P. M. Zimmerman,  D. Zuev,  B. Alam,  B. Albrecht,  
 E. Alguire,  S. A. Baeppler,  D. Barton,  Z. Benda,  Y. A. Bernard,  
 E. J. Berquist,  K. B. Bravaya,  H. Burton,  K. Carter-Fenk,  D. Casanova,  
 Chun-Min Chang,  Yunqing Chen,  A. Chien,  K. D. Closser,  M. P. Coons,  
 S. Coriani,  S. Dasgupta,  A. L. Dempwolff,  M. Diedenhofen,  Hainam Do,  
 R. G. Edgar,  Po-Tung Fang,  S. Faraji,  S. Fatehi,  Qingguo Feng,  
 J. Fosso-Tande,  J. Gayvert,  Qinghui Ge,  A. Ghysels,  G. Gidofalvi,  
 J. Gomes,  J. Gonthier,  A. Gunina,  D. Hait,  M. W. D. Hanson-Heine,  
 P. H. P. Harbach,  A. W. Hauser,  M. F. Herbst,  J. E. Herr,  
 E. G. Hohenstein,  Z. C. Holden,  Kerwin Hui,  B. C. Huynh,  T.-C. Jagau,  
 Hyunjun Ji,  B. Kaduk,  K. Khistyaev,  Jaehoon Kim,  P. Klunzinger,  K. Koh,  
 D. Kosenkov,  L. Koulias,  T. Kowalczyk,  C. M. Krauter,  A. Kunitsa,  
 Ka Un Lao,  A. Laurent,  K. V. Lawler,  Joonho Lee,  D. Lefrancois,  
 S. Lehtola,  D. S. Levine,  Yi-Pei Li,  You-Sheng Lin,  Fenglai Liu,  
 Kuan-Yu Liu,  E. Livshits,  M. Loipersberger,  A. Luenser,  P. Manohar,  
 E. Mansoor,  S. F. Manzer,  Shan-Ping Mao,  Yuezhi Mao,  N. Mardirossian,  
 A. V. Marenich,  T. Markovich,  L. A. Martinez-Martinez,  S. A. Maurer,  
 N. J. Mayhall,  S. C. McKenzie,  J.-M. Mewes,  P. Morgante,  A. F. Morrison,  
 J. W. Mullinax,  K. Nanda,  T. S. Nguyen-Beck,  R. Olivares-Amaya,  
 J. A. Parkhill,  S. K. Paul,  F. Pavosevic,  Zheng Pei,  T. M. Perrine,  
 F. Plasser,  P. Pokhilko,  S. Prager,  A. Prociuk,  E. Ramos,  B. Rana,  
 D. R. Rehn,  F. Rob,  M. Scheurer,  M. Schneider,  N. Sergueev,  
 S. M. Sharada,  S. Sharma,  D. W. Small,  T. Stauch,  C. J. Stein,  
 T. Stein,  Yu-Chuan Su,  S. P. Veccham,  Zhen Tao,  A. J. W. Thom,  
 A. Tkatchenko,  T. Tsuchimochi,  N. M. Tubman,  L. Vogt,  M. L. Vidal,  
 O. Vydrov,  M. A. Watson,  J. Wenzel,  M. de Wergifosse,  T. A. Wesolowski,  
 A. White,  J. Witte,  A. Yamada,  Jun Yang,  K. Yao,  S. Yeganeh,  
 S. R. Yost,  Zhi-Qiang You,  A. Zech,  Igor Ying Zhang,  Xing Zhang,  
 Yan Zhao,  Ying Zhu,  B. R. Brooks,  G. K. L. Chan,  C. J. Cramer,  
 M. S. Gordon,  W. J. Hehre,  A. Klamt,  M. W. Schmidt,  C. D. Sherrill,  
 D. G. Truhlar,  A. Aspuru-Guzik,  R. Baer,  A. T. Bell,  N. A. Besley,  
 Jeng-Da Chai,  A. E. DePrince, III,  R. A. DiStasio Jr.,  A. Dreuw,  
 B. D. Dunietz,  T. R. Furlani,  Chao-Ping Hsu,  Yousung Jung,  Jing Kong,  
 D. S. Lambrecht,  WanZhen Liang,  C. Ochsenfeld,  V. A. Rassolov,  
 L. V. Slipchenko,  J. E. Subotnik,  T. Van Voorhis,  J. M. Herbert,  
 A. I. Krylov,  P. M. W. Gill,  M. Head-Gordon

 Contributors to earlier versions of Q-Chem not listed above: 
 R. D. Adamson,  B. Austin,  J. Baker,  G. J. O. Beran,  K. Brandhorst,  
 S. T. Brown,  E. F. C. Byrd,  A. K. Chakraborty,  C.-L. Cheng,  
 Siu Hung Chien,  D. M. Chipman,  D. L. Crittenden,  H. Dachsel,  
 R. J. Doerksen,  A. D. Dutoi,  L. Fusti-Molnar,  W. A. Goddard III,  
 A. Golubeva-Zadorozhnaya,  S. R. Gwaltney,  G. Hawkins,  A. Heyden,  
 S. Hirata,  G. Kedziora,  F. J. Keil,  C. Kelley,  Jihan Kim,  R. A. King,  
 R. Z. Khaliullin,  P. P. Korambath,  W. Kurlancheek,  A. M. Lee,  M. S. Lee,  
 S. V. Levchenko,  Ching Yeh Lin,  D. Liotard,  R. C. Lochan,  I. Lotan,  
 P. E. Maslen,  N. Nair,  D. P. O'Neill,  D. Neuhauser,  E. Neuscamman,  
 C. M. Oana,  R. Olson,  B. Peters,  R. Peverati,  P. A. Pieniazek,  
 Y. M. Rhee,  J. Ritchie,  M. A. Rohrdanz,  E. Rosta,  N. J. Russ,  
 H. F. Schaefer III,  N. E. Schultz,  N. Shenvi,  A. C. Simmonett,  A. Sodt,  
 D. Stuck,  K. S. Thanthiriwatte,  V. Vanovschi,  Tao Wang,  A. Warshel,  
 C. F. Williams,  Q. Wu,  X. Xu,  W. Zhang

 Please cite Q-Chem as follows:
 Y. Shao et al., Mol. Phys. 113, 184-215 (2015)
 DOI: 10.1080/00268976.2014.952696

 Q-Chem 5.2.2 for Intel X86 EM64T Linux

 Parts of Q-Chem use Armadillo 9.800.1 (Horizon Scraper).
 http://arma.sourceforge.net/

 Q-Chem begins on Sat Dec  4 02:11:02 2021  

Host: node026
0

     Scratch files written to /home/ymao90/scratch/r7.00_frame_0099_spade_B3LYP_dp20211203120856//

Checking the input file for inconsistencies... 	...done.

--------------------------------------------------------------
User input:
--------------------------------------------------------------
$molecule
0 1
--
0 1
C    22.34600   30.70900   26.38900  
C    23.72900   31.10800   26.93100  
C    24.77100   30.14300   26.34300  
C    24.64500   29.98700   24.81900  
C    23.25700   29.53800   24.33200  
C    22.23900   30.56200   24.86200  
H    25.76900   30.51000   26.61400  
H    24.08500   32.04500   26.48700  
H    22.10100   29.77400   26.90700  
H    21.62000   31.49400   26.63200  
H    24.94900   30.84400   24.20600  
H    25.38300   29.23200   24.52300  
H    23.28900   29.50200   23.23600  
H    23.00800   28.52100   24.65800  
H    22.49400   31.51300   24.37900  
H    21.23100   30.17200   24.67300  
H    24.82100   29.21900   26.93200  
N    23.85800   31.24500   28.38100  
H    23.21100   30.87200   29.06500  
C    24.87100   31.95800   28.98800  
H    24.90000   31.97200   30.09300  
O    25.72400   32.52500   28.33000  
--
0 1
C    20.94000   25.02000   20.62000  
H    21.45300   25.51400   19.79100  
H    21.18000   23.95500   20.68800  
H    19.86600   25.05600   20.42000  
S    21.55400   25.71100   22.17300  
C    20.83200   27.32900   21.81700  
H    19.74800   27.20200   21.85500  
H    21.13500   27.94100   22.67000  
H    21.24600   27.78400   20.91300  
O    22.99800   25.99600   21.90200  
C    29.12800   30.75100   29.96500  
H    28.91400   29.86800   30.57200  
H    29.13500   31.59800   30.65700  
H    28.31700   31.01400   29.28100  
S    30.77300   30.64500   29.22700  
C    31.72800   30.68100   30.76100  
H    32.81000   30.69500   30.60500  
H    31.48800   31.63400   31.23800  
H    31.51700   29.88200   31.47600  
O    31.04400   31.92000   28.49000  
C    23.73200   29.44000   17.53300  
H    24.22800   28.68600   18.14900  
H    24.52400   29.79300   16.86700  
H    23.19100   30.16500   18.14700  
S    22.48600   28.60600   16.52500  
C    21.59500   27.73400   17.83300  
H    21.26200   26.72900   17.56200  
H    22.32300   27.74800   18.64900  
H    20.69400   28.26700   18.14700  
O    23.37300   27.59200   15.87300  
C    26.78700   35.37200   26.43600  
H    26.42300   35.95100   25.58300  
H    26.02400   34.83200   27.00200  
H    27.43600   35.94800   27.10100  
S    27.79400   34.05800   25.71300  
C    28.70800   33.61800   27.20900  
H    29.55000   32.97900   26.92800  
H    29.16100   34.50400   27.66000  
H    27.99200   33.30400   27.97300  
O    28.96900   34.70000   25.04200  
C    25.52400   30.24900   20.47200  
H    25.17200   31.15500   19.97200  
H    25.96200   29.50800   19.79900  
H    24.67200   29.76100   20.95200  
S    26.65600   30.64000   21.82500  
C    26.00000   32.24900   22.32300  
H    26.23500   32.89800   21.47600  
H    24.91700   32.29900   22.46300  
H    26.56400   32.66400   23.16200  
O    28.05800   30.83100   21.33500  
C    28.70300   30.37300   24.97400  
H    28.48000   30.02700   23.96200  
H    27.86500   30.14800   25.63900  
H    28.90300   31.42600   24.76200  
S    30.13600   29.54000   25.69300  
C    31.04900   29.28100   24.15600  
H    31.81600   28.53800   24.39000  
H    30.31300   28.93800   23.42400  
H    31.52100   30.20400   23.80900  
O    29.57500   28.15400   25.75800  
C    27.30600   37.04400   22.91300  
H    27.98000   37.86200   22.64700  
H    26.35700   37.49000   23.22200  
H    27.70100   36.50700   23.77900  
S    26.92400   35.93700   21.53700  
C    27.63900   36.96800   20.23700  
H    27.54700   36.64700   19.19700  
H    27.13300   37.91900   20.42200  
H    28.70400   37.10200   20.44500  
O    25.47900   36.10100   21.18400  
C    28.03700   38.49900   30.97200  
H    28.82600   37.74200   30.99400  
H    28.43100   39.35500   31.52500  
H    27.15500   38.21600   31.55200  
S    27.47500   39.03900   29.34200  
C    26.08600   39.97400   30.02200  
H    25.60200   40.22100   29.07300  
H    25.44000   39.33100   30.62500  
H    26.47200   40.85200   30.54600  
O    26.94200   37.75900   28.77800  
C    26.63000   27.90500   29.87500  
H    27.62000   28.35400   29.99200  
H    26.22700   28.25200   28.92100  
H    26.01000   28.06900   30.76100  
S    26.76200   26.11600   29.65800  
C    27.40400   26.12100   27.96900  
H    28.34300   26.67700   28.02200  
H    27.56800   25.10500   27.60000  
H    26.76300   26.78500   27.38300  
O    25.30100   25.82200   29.51700  
C    23.88200   23.68300   24.24400  
H    24.26800   22.70400   23.95000  
H    22.79000   23.66000   24.25700  
H    24.22600   24.43800   23.53200  
S    24.57900   24.12100   25.85300  
C    23.52400   25.58100   25.99300  
H    23.68800   26.19200   25.10200  
H    22.50400   25.19300   26.04900  
H    23.72000   26.08100   26.94500  
O    25.88000   24.63100   25.31400  
C    14.51500   32.95500   26.86400  
H    13.48600   33.22500   27.11800  
H    14.98700   33.80900   26.37100  
H    14.48100   32.03700   26.27200  
S    15.42100   32.60700   28.38800  
C    14.32600   31.39600   29.16100  
H    13.98800   30.72400   28.36800  
H    14.95800   30.97000   29.94400  
H    13.54900   32.00800   29.62600  
O    15.31000   33.89800   29.13600  
C    19.39700   39.08200   27.40700  
H    19.91400   39.96100   27.80000  
H    18.50900   39.33700   26.82200  
H    19.00600   38.68000   28.34400  
S    20.48400   37.95000   26.51100  
C    19.98700   38.62700   24.91100  
H    20.29900   39.67400   24.89800  
H    20.48600   37.96300   24.20100  
H    18.90200   38.52700   24.82100  
O    19.77200   36.64300   26.67200  
C    26.71200   24.53500   21.57400  
H    26.68600   24.29500   22.64000  
H    25.68400   24.64900   21.22000  
H    27.32800   23.97600   20.86500  
S    27.29500   26.24300   21.65300  
C    26.01100   26.93000   22.72300  
H    25.89500   28.00700   22.57700  
H    25.06300   26.44300   22.48400  
H    26.28300   26.63600   23.74000  
O    26.82700   26.61000   20.27900  
C    23.61200   35.48900   23.92400  
H    24.25500   34.61100   24.02200  
H    23.74800   35.86300   22.90600  
H    23.95500   36.21800   24.66200  
S    21.86100   35.15300   24.21900  
C    22.15200   34.47200   25.86700  
H    22.75900   35.16000   26.46200  
H    21.15900   34.30000   26.29000  
H    22.72800   33.54400   25.91400  
O    21.56100   33.85600   23.53500  
C    23.15900   28.28400   35.66800  
H    23.33700   29.27400   35.24000  
H    22.36600   27.79200   35.09900  
H    22.91200   28.47700   36.71600  
S    24.69600   27.33600   35.61800  
C    25.69400   28.39500   36.68800  
H    25.13100   28.62900   37.59500  
H    26.66600   27.95600   36.92700  
H    25.84100   29.37100   36.21800  
O    25.14300   27.61800   34.21700  
C    18.47000   33.92200   25.36600  
H    19.08700   34.34900   24.57100  
H    17.38700   33.95600   25.22000  
H    18.81200   34.22800   26.35800  
S    18.74400   32.13700   25.40500  
C    17.66800   31.70900   24.01800  
H    17.95500   32.23400   23.10300  
H    17.65300   30.63300   23.82600  
H    16.67500   32.06400   24.30600  
O    18.22000   31.57200   26.68800  
C    18.64300   23.63600   24.92300  
H    18.00300   24.14700   24.19900  
H    19.56100   23.29700   24.43700  
H    18.17900   22.75300   25.36800  
S    19.08400   24.82700   26.20900  
C    19.92100   25.94900   25.06800  
H    19.20600   26.21300   24.28400  
H    20.16500   26.91000   25.52800  
H    20.75000   25.43900   24.57000  
O    20.10800   24.08300   27.00900  
C    19.66300   33.23700   29.33900  
H    19.60000   32.76800   28.35400  
H    18.66700   33.40900   29.75400  
H    20.30600   34.11300   29.46100  
S    20.44700   31.93700   30.32000  
C    19.19100   30.64900   30.14200  
H    19.55400   29.82700   30.76400  
H    18.20800   30.99400   30.47000  
H    19.11200   30.29400   29.11100  
O    20.38500   32.31400   31.76700  
C    22.89800   30.70800   32.77700  
H    23.02000   29.63800   32.96100  
H    22.01500   31.13900   33.25500  
H    22.77100   30.73200   31.69200  
S    24.40000   31.61400   33.21400  
C    25.61700   30.54000   32.42100  
H    25.37300   29.48800   32.58600  
H    25.75000   30.84900   31.38100  
H    26.53300   30.77600   32.96900  
O    24.50500   31.32400   34.67900  
C    20.66000   27.28500   28.66700  
H    20.45800   26.21100   28.62500  
H    19.92200   27.71200   29.35000  
H    20.44500   27.71800   27.68700  
S    22.35000   27.70900   29.14700  
C    22.14000   26.90200   30.75000  
H    22.17700   25.82300   30.57700  
H    23.00300   27.23100   31.33500  
H    21.17500   27.18200   31.17900  
O    22.31500   29.15800   29.52200  
C    30.48400   26.75800   19.35100  
H    30.21500   26.69100   18.29400  
H    31.56000   26.94500   19.29600  
H    30.33900   25.83400   19.91800  
S    29.84500   28.29300   20.05800  
C    30.00800   29.10400   18.45100  
H    29.63600   30.12900   18.52900  
H    31.08000   29.12800   18.23800  
H    29.48400   28.49400   17.71100  
O    31.08200   28.82700   20.71000  
C    29.64000   33.79400   19.63600  
H    29.74100   33.71300   18.55100  
H    28.57700   33.59800   19.79800  
H    29.93500   34.78200   19.99800  
S    30.58500   32.57000   20.57100  
C    30.10400   33.11400   22.22600  
H    30.83100   32.62000   22.87500  
H    30.14800   34.17100   22.49900  
H    29.11100   32.71400   22.44800  
O    31.96500   33.15100   20.56100  
C    14.60800   28.43900   24.33100  
H    14.08600   28.22700   25.26700  
H    14.91300   29.48900   24.32100  
H    13.94200   28.18300   23.50200  
S    16.13900   27.49000   24.19600  
C    16.81100   28.02300   25.78700  
H    16.57100   29.07700   25.95300  
H    16.27200   27.38500   26.49300  
H    17.90300   28.02400   25.80600  
O    16.82100   28.16000   23.04400  
C    22.24800   35.16900   32.18500  
H    21.85200   34.17200   31.97400  
H    22.39300   35.23400   33.26600  
H    21.50200   35.92200   31.92100  
S    23.83300   35.44600   31.36200  
C    23.11800   35.43100   29.70300  
H    23.93900   35.11100   29.05600  
H    22.38700   34.62000   29.67200  
H    22.63800   36.38800   29.47900  
O    24.34400   34.03900   31.33300  
C    20.04900   31.46400   21.51200  
H    20.41600   31.95900   22.41500  
H    19.30600   32.12600   21.06100  
H    19.69900   30.45000   21.72600  
S    21.46000   31.30100   20.39500  
C    21.96100   33.03600   20.34400  
H    21.69700   33.50500   21.29500  
H    23.02700   33.12200   20.11800  
H    21.50700   33.48700   19.45900  
O    20.91500   31.00100   19.03200  
C    29.52600   24.92600   24.63200  
H    28.49900   25.02500   24.27300  
H    29.67300   24.14300   25.38000  
H    29.99700   25.82200   25.04500  
S    30.66400   24.24000   23.40600  
C    31.37600   25.86000   23.04100  
H    31.91500   26.21200   23.92500  
H    32.08100   25.60400   22.24600  
H    30.57800   26.51100   22.67700  
O    29.76800   23.82900   22.27900  
C    28.22900   26.13000   33.03000  
H    27.86200   25.92300   34.03900  
H    27.38900   26.60400   32.51500  
H    28.67200   25.25700   32.54400  
S    29.51700   27.39200   32.91700  
C    28.55300   28.57200   33.88700  
H    28.34400   28.04600   34.82200  
H    29.12500   29.44600   34.21000  
H    27.60200   28.85300   33.42700  
O    29.27500   27.86500   31.51700  
C    27.89700   34.69900   30.99100  
H    28.39900   33.96900   30.35000  
H    27.15300   35.30200   30.46500  
H    28.69000   35.42000   31.20600  
S    27.23800   33.97300   32.50900  
C    27.01200   35.44200   33.53700  
H    27.90400   36.06700   33.44600  
H    26.07000   35.96000   33.34100  
H    26.90400   35.04900   34.55100  
O    28.42700   33.25900   33.07100  
$end

$rem
JOBTYPE  SP
METHOD  B3LYP
BASIS  6-31+G(D)
SYMMETRY  FALSE
SYM_IGNORE  TRUE
MEM_TOTAL  16000
MEM_STATIC  8000
MAX_SUB_FILE_NUM  16000
BASIS_LIN_DEP_THRESH  6
THRESH  14
SCF_CONVERGENCE  8
GEN_SCFMAN  TRUE
SCF_GUESS  SAD
FD_MAT_VEC_PROD  FALSE
XC_GRID  000075000302
NL_GRID  1
MAX_SCF_CYCLES  200
ENV_METHOD  B3LYP
GEN_SCFMAN_EMBED  TRUE
SPADE_PARTITION  TRUE
$end

$development
embedding_early_stop  1
$end

--------------------------------------------------------------
 ----------------------------------------------------------------
             Standard Nuclear Orientation (Angstroms)
    I     Atom           X                Y                Z
 ----------------------------------------------------------------
    1      C      22.3460000000    30.7090000000    26.3890000000
    2      C      23.7290000000    31.1080000000    26.9310000000
    3      C      24.7710000000    30.1430000000    26.3430000000
    4      C      24.6450000000    29.9870000000    24.8190000000
    5      C      23.2570000000    29.5380000000    24.3320000000
    6      C      22.2390000000    30.5620000000    24.8620000000
    7      H      25.7690000000    30.5100000000    26.6140000000
    8      H      24.0850000000    32.0450000000    26.4870000000
    9      H      22.1010000000    29.7740000000    26.9070000000
   10      H      21.6200000000    31.4940000000    26.6320000000
   11      H      24.9490000000    30.8440000000    24.2060000000
   12      H      25.3830000000    29.2320000000    24.5230000000
   13      H      23.2890000000    29.5020000000    23.2360000000
   14      H      23.0080000000    28.5210000000    24.6580000000
   15      H      22.4940000000    31.5130000000    24.3790000000
   16      H      21.2310000000    30.1720000000    24.6730000000
   17      H      24.8210000000    29.2190000000    26.9320000000
   18      N      23.8580000000    31.2450000000    28.3810000000
   19      H      23.2110000000    30.8720000000    29.0650000000
   20      C      24.8710000000    31.9580000000    28.9880000000
   21      H      24.9000000000    31.9720000000    30.0930000000
   22      O      25.7240000000    32.5250000000    28.3300000000
   23      C      20.9400000000    25.0200000000    20.6200000000
   24      H      21.4530000000    25.5140000000    19.7910000000
   25      H      21.1800000000    23.9550000000    20.6880000000
   26      H      19.8660000000    25.0560000000    20.4200000000
   27      S      21.5540000000    25.7110000000    22.1730000000
   28      C      20.8320000000    27.3290000000    21.8170000000
   29      H      19.7480000000    27.2020000000    21.8550000000
   30      H      21.1350000000    27.9410000000    22.6700000000
   31      H      21.2460000000    27.7840000000    20.9130000000
   32      O      22.9980000000    25.9960000000    21.9020000000
   33      C      29.1280000000    30.7510000000    29.9650000000
   34      H      28.9140000000    29.8680000000    30.5720000000
   35      H      29.1350000000    31.5980000000    30.6570000000
   36      H      28.3170000000    31.0140000000    29.2810000000
   37      S      30.7730000000    30.6450000000    29.2270000000
   38      C      31.7280000000    30.6810000000    30.7610000000
   39      H      32.8100000000    30.6950000000    30.6050000000
   40      H      31.4880000000    31.6340000000    31.2380000000
   41      H      31.5170000000    29.8820000000    31.4760000000
   42      O      31.0440000000    31.9200000000    28.4900000000
   43      C      23.7320000000    29.4400000000    17.5330000000
   44      H      24.2280000000    28.6860000000    18.1490000000
   45      H      24.5240000000    29.7930000000    16.8670000000
   46      H      23.1910000000    30.1650000000    18.1470000000
   47      S      22.4860000000    28.6060000000    16.5250000000
   48      C      21.5950000000    27.7340000000    17.8330000000
   49      H      21.2620000000    26.7290000000    17.5620000000
   50      H      22.3230000000    27.7480000000    18.6490000000
   51      H      20.6940000000    28.2670000000    18.1470000000
   52      O      23.3730000000    27.5920000000    15.8730000000
   53      C      26.7870000000    35.3720000000    26.4360000000
   54      H      26.4230000000    35.9510000000    25.5830000000
   55      H      26.0240000000    34.8320000000    27.0020000000
   56      H      27.4360000000    35.9480000000    27.1010000000
   57      S      27.7940000000    34.0580000000    25.7130000000
   58      C      28.7080000000    33.6180000000    27.2090000000
   59      H      29.5500000000    32.9790000000    26.9280000000
   60      H      29.1610000000    34.5040000000    27.6600000000
   61      H      27.9920000000    33.3040000000    27.9730000000
   62      O      28.9690000000    34.7000000000    25.0420000000
   63      C      25.5240000000    30.2490000000    20.4720000000
   64      H      25.1720000000    31.1550000000    19.9720000000
   65      H      25.9620000000    29.5080000000    19.7990000000
   66      H      24.6720000000    29.7610000000    20.9520000000
   67      S      26.6560000000    30.6400000000    21.8250000000
   68      C      26.0000000000    32.2490000000    22.3230000000
   69      H      26.2350000000    32.8980000000    21.4760000000
   70      H      24.9170000000    32.2990000000    22.4630000000
   71      H      26.5640000000    32.6640000000    23.1620000000
   72      O      28.0580000000    30.8310000000    21.3350000000
   73      C      28.7030000000    30.3730000000    24.9740000000
   74      H      28.4800000000    30.0270000000    23.9620000000
   75      H      27.8650000000    30.1480000000    25.6390000000
   76      H      28.9030000000    31.4260000000    24.7620000000
   77      S      30.1360000000    29.5400000000    25.6930000000
   78      C      31.0490000000    29.2810000000    24.1560000000
   79      H      31.8160000000    28.5380000000    24.3900000000
   80      H      30.3130000000    28.9380000000    23.4240000000
   81      H      31.5210000000    30.2040000000    23.8090000000
   82      O      29.5750000000    28.1540000000    25.7580000000
   83      C      27.3060000000    37.0440000000    22.9130000000
   84      H      27.9800000000    37.8620000000    22.6470000000
   85      H      26.3570000000    37.4900000000    23.2220000000
   86      H      27.7010000000    36.5070000000    23.7790000000
   87      S      26.9240000000    35.9370000000    21.5370000000
   88      C      27.6390000000    36.9680000000    20.2370000000
   89      H      27.5470000000    36.6470000000    19.1970000000
   90      H      27.1330000000    37.9190000000    20.4220000000
   91      H      28.7040000000    37.1020000000    20.4450000000
   92      O      25.4790000000    36.1010000000    21.1840000000
   93      C      28.0370000000    38.4990000000    30.9720000000
   94      H      28.8260000000    37.7420000000    30.9940000000
   95      H      28.4310000000    39.3550000000    31.5250000000
   96      H      27.1550000000    38.2160000000    31.5520000000
   97      S      27.4750000000    39.0390000000    29.3420000000
   98      C      26.0860000000    39.9740000000    30.0220000000
   99      H      25.6020000000    40.2210000000    29.0730000000
  100      H      25.4400000000    39.3310000000    30.6250000000
  101      H      26.4720000000    40.8520000000    30.5460000000
  102      O      26.9420000000    37.7590000000    28.7780000000
  103      C      26.6300000000    27.9050000000    29.8750000000
  104      H      27.6200000000    28.3540000000    29.9920000000
  105      H      26.2270000000    28.2520000000    28.9210000000
  106      H      26.0100000000    28.0690000000    30.7610000000
  107      S      26.7620000000    26.1160000000    29.6580000000
  108      C      27.4040000000    26.1210000000    27.9690000000
  109      H      28.3430000000    26.6770000000    28.0220000000
  110      H      27.5680000000    25.1050000000    27.6000000000
  111      H      26.7630000000    26.7850000000    27.3830000000
  112      O      25.3010000000    25.8220000000    29.5170000000
  113      C      23.8820000000    23.6830000000    24.2440000000
  114      H      24.2680000000    22.7040000000    23.9500000000
  115      H      22.7900000000    23.6600000000    24.2570000000
  116      H      24.2260000000    24.4380000000    23.5320000000
  117      S      24.5790000000    24.1210000000    25.8530000000
  118      C      23.5240000000    25.5810000000    25.9930000000
  119      H      23.6880000000    26.1920000000    25.1020000000
  120      H      22.5040000000    25.1930000000    26.0490000000
  121      H      23.7200000000    26.0810000000    26.9450000000
  122      O      25.8800000000    24.6310000000    25.3140000000
  123      C      14.5150000000    32.9550000000    26.8640000000
  124      H      13.4860000000    33.2250000000    27.1180000000
  125      H      14.9870000000    33.8090000000    26.3710000000
  126      H      14.4810000000    32.0370000000    26.2720000000
  127      S      15.4210000000    32.6070000000    28.3880000000
  128      C      14.3260000000    31.3960000000    29.1610000000
  129      H      13.9880000000    30.7240000000    28.3680000000
  130      H      14.9580000000    30.9700000000    29.9440000000
  131      H      13.5490000000    32.0080000000    29.6260000000
  132      O      15.3100000000    33.8980000000    29.1360000000
  133      C      19.3970000000    39.0820000000    27.4070000000
  134      H      19.9140000000    39.9610000000    27.8000000000
  135      H      18.5090000000    39.3370000000    26.8220000000
  136      H      19.0060000000    38.6800000000    28.3440000000
  137      S      20.4840000000    37.9500000000    26.5110000000
  138      C      19.9870000000    38.6270000000    24.9110000000
  139      H      20.2990000000    39.6740000000    24.8980000000
  140      H      20.4860000000    37.9630000000    24.2010000000
  141      H      18.9020000000    38.5270000000    24.8210000000
  142      O      19.7720000000    36.6430000000    26.6720000000
  143      C      26.7120000000    24.5350000000    21.5740000000
  144      H      26.6860000000    24.2950000000    22.6400000000
  145      H      25.6840000000    24.6490000000    21.2200000000
  146      H      27.3280000000    23.9760000000    20.8650000000
  147      S      27.2950000000    26.2430000000    21.6530000000
  148      C      26.0110000000    26.9300000000    22.7230000000
  149      H      25.8950000000    28.0070000000    22.5770000000
  150      H      25.0630000000    26.4430000000    22.4840000000
  151      H      26.2830000000    26.6360000000    23.7400000000
  152      O      26.8270000000    26.6100000000    20.2790000000
  153      C      23.6120000000    35.4890000000    23.9240000000
  154      H      24.2550000000    34.6110000000    24.0220000000
  155      H      23.7480000000    35.8630000000    22.9060000000
  156      H      23.9550000000    36.2180000000    24.6620000000
  157      S      21.8610000000    35.1530000000    24.2190000000
  158      C      22.1520000000    34.4720000000    25.8670000000
  159      H      22.7590000000    35.1600000000    26.4620000000
  160      H      21.1590000000    34.3000000000    26.2900000000
  161      H      22.7280000000    33.5440000000    25.9140000000
  162      O      21.5610000000    33.8560000000    23.5350000000
  163      C      23.1590000000    28.2840000000    35.6680000000
  164      H      23.3370000000    29.2740000000    35.2400000000
  165      H      22.3660000000    27.7920000000    35.0990000000
  166      H      22.9120000000    28.4770000000    36.7160000000
  167      S      24.6960000000    27.3360000000    35.6180000000
  168      C      25.6940000000    28.3950000000    36.6880000000
  169      H      25.1310000000    28.6290000000    37.5950000000
  170      H      26.6660000000    27.9560000000    36.9270000000
  171      H      25.8410000000    29.3710000000    36.2180000000
  172      O      25.1430000000    27.6180000000    34.2170000000
  173      C      18.4700000000    33.9220000000    25.3660000000
  174      H      19.0870000000    34.3490000000    24.5710000000
  175      H      17.3870000000    33.9560000000    25.2200000000
  176      H      18.8120000000    34.2280000000    26.3580000000
  177      S      18.7440000000    32.1370000000    25.4050000000
  178      C      17.6680000000    31.7090000000    24.0180000000
  179      H      17.9550000000    32.2340000000    23.1030000000
  180      H      17.6530000000    30.6330000000    23.8260000000
  181      H      16.6750000000    32.0640000000    24.3060000000
  182      O      18.2200000000    31.5720000000    26.6880000000
  183      C      18.6430000000    23.6360000000    24.9230000000
  184      H      18.0030000000    24.1470000000    24.1990000000
  185      H      19.5610000000    23.2970000000    24.4370000000
  186      H      18.1790000000    22.7530000000    25.3680000000
  187      S      19.0840000000    24.8270000000    26.2090000000
  188      C      19.9210000000    25.9490000000    25.0680000000
  189      H      19.2060000000    26.2130000000    24.2840000000
  190      H      20.1650000000    26.9100000000    25.5280000000
  191      H      20.7500000000    25.4390000000    24.5700000000
  192      O      20.1080000000    24.0830000000    27.0090000000
  193      C      19.6630000000    33.2370000000    29.3390000000
  194      H      19.6000000000    32.7680000000    28.3540000000
  195      H      18.6670000000    33.4090000000    29.7540000000
  196      H      20.3060000000    34.1130000000    29.4610000000
  197      S      20.4470000000    31.9370000000    30.3200000000
  198      C      19.1910000000    30.6490000000    30.1420000000
  199      H      19.5540000000    29.8270000000    30.7640000000
  200      H      18.2080000000    30.9940000000    30.4700000000
  201      H      19.1120000000    30.2940000000    29.1110000000
  202      O      20.3850000000    32.3140000000    31.7670000000
  203      C      22.8980000000    30.7080000000    32.7770000000
  204      H      23.0200000000    29.6380000000    32.9610000000
  205      H      22.0150000000    31.1390000000    33.2550000000
  206      H      22.7710000000    30.7320000000    31.6920000000
  207      S      24.4000000000    31.6140000000    33.2140000000
  208      C      25.6170000000    30.5400000000    32.4210000000
  209      H      25.3730000000    29.4880000000    32.5860000000
  210      H      25.7500000000    30.8490000000    31.3810000000
  211      H      26.5330000000    30.7760000000    32.9690000000
  212      O      24.5050000000    31.3240000000    34.6790000000
  213      C      20.6600000000    27.2850000000    28.6670000000
  214      H      20.4580000000    26.2110000000    28.6250000000
  215      H      19.9220000000    27.7120000000    29.3500000000
  216      H      20.4450000000    27.7180000000    27.6870000000
  217      S      22.3500000000    27.7090000000    29.1470000000
  218      C      22.1400000000    26.9020000000    30.7500000000
  219      H      22.1770000000    25.8230000000    30.5770000000
  220      H      23.0030000000    27.2310000000    31.3350000000
  221      H      21.1750000000    27.1820000000    31.1790000000
  222      O      22.3150000000    29.1580000000    29.5220000000
  223      C      30.4840000000    26.7580000000    19.3510000000
  224      H      30.2150000000    26.6910000000    18.2940000000
  225      H      31.5600000000    26.9450000000    19.2960000000
  226      H      30.3390000000    25.8340000000    19.9180000000
  227      S      29.8450000000    28.2930000000    20.0580000000
  228      C      30.0080000000    29.1040000000    18.4510000000
  229      H      29.6360000000    30.1290000000    18.5290000000
  230      H      31.0800000000    29.1280000000    18.2380000000
  231      H      29.4840000000    28.4940000000    17.7110000000
  232      O      31.0820000000    28.8270000000    20.7100000000
  233      C      29.6400000000    33.7940000000    19.6360000000
  234      H      29.7410000000    33.7130000000    18.5510000000
  235      H      28.5770000000    33.5980000000    19.7980000000
  236      H      29.9350000000    34.7820000000    19.9980000000
  237      S      30.5850000000    32.5700000000    20.5710000000
  238      C      30.1040000000    33.1140000000    22.2260000000
  239      H      30.8310000000    32.6200000000    22.8750000000
  240      H      30.1480000000    34.1710000000    22.4990000000
  241      H      29.1110000000    32.7140000000    22.4480000000
  242      O      31.9650000000    33.1510000000    20.5610000000
  243      C      14.6080000000    28.4390000000    24.3310000000
  244      H      14.0860000000    28.2270000000    25.2670000000
  245      H      14.9130000000    29.4890000000    24.3210000000
  246      H      13.9420000000    28.1830000000    23.5020000000
  247      S      16.1390000000    27.4900000000    24.1960000000
  248      C      16.8110000000    28.0230000000    25.7870000000
  249      H      16.5710000000    29.0770000000    25.9530000000
  250      H      16.2720000000    27.3850000000    26.4930000000
  251      H      17.9030000000    28.0240000000    25.8060000000
  252      O      16.8210000000    28.1600000000    23.0440000000
  253      C      22.2480000000    35.1690000000    32.1850000000
  254      H      21.8520000000    34.1720000000    31.9740000000
  255      H      22.3930000000    35.2340000000    33.2660000000
  256      H      21.5020000000    35.9220000000    31.9210000000
  257      S      23.8330000000    35.4460000000    31.3620000000
  258      C      23.1180000000    35.4310000000    29.7030000000
  259      H      23.9390000000    35.1110000000    29.0560000000
  260      H      22.3870000000    34.6200000000    29.6720000000
  261      H      22.6380000000    36.3880000000    29.4790000000
  262      O      24.3440000000    34.0390000000    31.3330000000
  263      C      20.0490000000    31.4640000000    21.5120000000
  264      H      20.4160000000    31.9590000000    22.4150000000
  265      H      19.3060000000    32.1260000000    21.0610000000
  266      H      19.6990000000    30.4500000000    21.7260000000
  267      S      21.4600000000    31.3010000000    20.3950000000
  268      C      21.9610000000    33.0360000000    20.3440000000
  269      H      21.6970000000    33.5050000000    21.2950000000
  270      H      23.0270000000    33.1220000000    20.1180000000
  271      H      21.5070000000    33.4870000000    19.4590000000
  272      O      20.9150000000    31.0010000000    19.0320000000
  273      C      29.5260000000    24.9260000000    24.6320000000
  274      H      28.4990000000    25.0250000000    24.2730000000
  275      H      29.6730000000    24.1430000000    25.3800000000
  276      H      29.9970000000    25.8220000000    25.0450000000
  277      S      30.6640000000    24.2400000000    23.4060000000
  278      C      31.3760000000    25.8600000000    23.0410000000
  279      H      31.9150000000    26.2120000000    23.9250000000
  280      H      32.0810000000    25.6040000000    22.2460000000
  281      H      30.5780000000    26.5110000000    22.6770000000
  282      O      29.7680000000    23.8290000000    22.2790000000
  283      C      28.2290000000    26.1300000000    33.0300000000
  284      H      27.8620000000    25.9230000000    34.0390000000
  285      H      27.3890000000    26.6040000000    32.5150000000
  286      H      28.6720000000    25.2570000000    32.5440000000
  287      S      29.5170000000    27.3920000000    32.9170000000
  288      C      28.5530000000    28.5720000000    33.8870000000
  289      H      28.3440000000    28.0460000000    34.8220000000
  290      H      29.1250000000    29.4460000000    34.2100000000
  291      H      27.6020000000    28.8530000000    33.4270000000
  292      O      29.2750000000    27.8650000000    31.5170000000
  293      C      27.8970000000    34.6990000000    30.9910000000
  294      H      28.3990000000    33.9690000000    30.3500000000
  295      H      27.1530000000    35.3020000000    30.4650000000
  296      H      28.6900000000    35.4200000000    31.2060000000
  297      S      27.2380000000    33.9730000000    32.5090000000
  298      C      27.0120000000    35.4420000000    33.5370000000
  299      H      27.9040000000    36.0670000000    33.4460000000
  300      H      26.0700000000    35.9600000000    33.3410000000
  301      H      26.9040000000    35.0490000000    34.5510000000
  302      O      28.4270000000    33.2590000000    33.0710000000
 ----------------------------------------------------------------
 Nuclear Repulsion Energy =       50496.85511237 hartrees
 There are      623 alpha and      623 beta electrons
 Requested basis set is 6-31+G(d)
 There are 995 shells and 2773 basis functions

 Total QAlloc Memory Limit  16000 MB
 Mega-Array Size      7821 MB
 MEM_STATIC part      8000 MB
 A cutoff of  1.0D-14 yielded 181955 shell pairs
 There are   1586326 function pairs
 Smallest overlap matrix eigenvalue = 5.69E-07
 Linear dependence detected in AO basis
 Tighter screening thresholds may be required for diffuse basis sets
 Use S2THRESH > 14 and THRESH = 14 in case of SCF convergence issues
 Number of orthogonalized atomic orbitals = 2771
 Maximum deviation from orthogonality = 2.021E-10

 Scale SEOQF with 1.000000e-03/1.000000e-03/1.000000e-03

 Standard Electronic Orientation quadrupole field applied
 Nucleus-field energy     =     0.0000001775 hartrees
 Guess from superposition of atomic densities
 Warning:  Energy on first SCF cycle will be non-variational
 SAD guess density has 1246.000002 electrons

 -----------------------------------------------------------------------
  General SCF calculation program by
  Eric Jon Sundstrom, Paul Horn, Yuezhi Mao, Dmitri Zuev, Alec White,
  David Stuck, Shaama M.S., Shane Yost, Joonho Lee, David Small,
  Daniel Levine, Susi Lehtola, Hugh Burton, Evgeny Epifanovsky,
  Bang C. Huynh
 -----------------------------------------------------------------------
=================================================
        Doing projection-based embedding         
      F. Manby et al. JCTC, 8, 2564 (2012)       
=================================================

****************************************************
   Low-level SCF calculation for the whole system   
****************************************************
----------------------------------------------
 Summary of the low-level theory: 
 Exchange:     0.2000 Hartree-Fock + 0.0800 Slater + 0.7200 B88
 Correlation:  0.1900 VWN1RPA + 0.8100 LYP
 Using Euler-Maclaurin-Lebedev (75,302) quadrature formula
----------------------------------------------
 using 16 threads for integral computing
 -------------------------------------------------------
 OpenMP Integral computing Module                
 Release: version 2.0, May 2017, Q-Chem Inc. Pleasanton 
 -------------------------------------------------------
 A restricted SCF calculation will be
 performed using DIIS
 SCF converges when DIIS error is below 1.0e-08
 ---------------------------------------
  Cycle       Energy         DIIS error
 ---------------------------------------
    1  -15913.6856568462      1.33e-02  
    2  -15888.8847030713      2.47e-03  
    3  -15868.6853353040      5.04e-03  
    4  -15882.3312034292      2.20e-03  
    5  -15891.3927390590      1.17e-03  
    6  -15893.8150619825      3.36e-04  
    7  -15893.8418590130      3.24e-04  
    8  -15893.9145892036      1.00e-04  
    9  -15893.9221834023      4.92e-05  
   10  -15893.9245119071      2.69e-05  
   11  -15893.9251702274      1.63e-05  
   12  -15893.9254088934      4.82e-06  
   13  -15893.9254307946      1.26e-06  
   14  -15893.9254321503      5.83e-07  
   15  -15893.9254323936      2.19e-07  
   16  -15893.9254324316      4.80e-08  
   17  -15893.9254324336      2.07e-08  
   18  -15893.9254324341      8.12e-09  Convergence criterion met
 ---------------------------------------
 SCF time:   CPU 230037.33s  wall 14541.00s 
 SCF   energy in the final basis set =   -15893.9254324341
 Total energy in the final basis set =   -15893.9254324341

****************************************************
             Start embedding calculation            
****************************************************
----------------------------------------------
 Summary of the high-level theory: 
 Exchange:     0.2000 Hartree-Fock + 0.0800 Slater + 0.7200 B88
 Correlation:  0.1900 VWN1RPA + 0.8100 LYP
 Using Euler-Maclaurin-Lebedev (75,302) quadrature formula
----------------------------------------------
Doing R-in-R Embedding Calculation
Number of fragments: 2
Embedded fragment(s): 1 
NOcc for each fragment
           35
          588
NBasis for each fragment
          197
         2576
Variational space of the embedded problem: 
NOcc (active)  = 35
NOcc (fixed)   = 588
NVir (total)   = 2148
Read converged orbitals from disk
=========================================================
       Doing SPADE partition for the orbital space       
     D. CLaudino and N. Mayhall JCTC 15, 1053 (2019)     
=========================================================
SPADE singular values:
 1.0000 1.0000 1.0000 1.0000 1.0000 1.0000 1.0000 1.0000 1.0000 0.9999
 0.9998 0.9997 0.9997 0.9996 0.9996 0.9995 0.9992 0.9990 0.9981 0.9978
 0.9974 0.9968 0.9966 0.9962 0.9956 0.9955 0.9946 0.9940 0.9933 0.9925
 0.9912 0.9900 0.9879 0.9855 0.9802 0.2079 0.1865 0.1694 0.1465 0.1441
 0.1396 0.1301 0.1293 0.1151 0.1056 0.0932 0.0835 0.0805 0.0717 0.0696
 0.0603 0.0531 0.0529 0.0495 0.0443 0.0440 0.0401 0.0390 0.0354 0.0341
 0.0313 0.0278 0.0265 0.0254 0.0235 0.0222 0.0211 0.0206 0.0197 0.0183
 0.0166 0.0156 0.0147 0.0145 0.0138 0.0134 0.0123 0.0119 0.0108 0.0105
 0.0095 0.0094 0.0083 0.0082 0.0078 0.0073 0.0069 0.0066 0.0062 0.0059
 0.0058 0.0056 0.0054 0.0050 0.0048 0.0046 0.0044 0.0040 0.0039 0.0037
 0.0035 0.0034 0.0031 0.0031 0.0028 0.0026 0.0025 0.0024 0.0022 0.0021
 0.0021 0.0020 0.0020 0.0018 0.0018 0.0017 0.0016 0.0016 0.0016 0.0015
 0.0014 0.0014 0.0014 0.0013 0.0012 0.0012 0.0012 0.0011 0.0010 0.0010
 0.0010 0.0010 0.0009 0.0009 0.0009 0.0008 0.0008 0.0008 0.0007 0.0007
 0.0007 0.0006 0.0006 0.0006 0.0006 0.0005 0.0005 0.0005 0.0005 0.0004
 0.0004 0.0004 0.0004 0.0004 0.0004 0.0003 0.0003 0.0003 0.0003 0.0003
 0.0003 0.0003 0.0002 0.0002 0.0002 0.0002 0.0002 0.0002 0.0002 0.0002
 0.0002 0.0002 0.0002 0.0002 0.0002 0.0002 0.0002 0.0002 0.0001 0.0001
 0.0001 0.0001 0.0001 0.0001 0.0001 0.0001 0.0001 0.0001 0.0001 0.0001
 0.0001 0.0001 0.0001 0.0001 0.0001 0.0001 0.0000
Early stop requested!
588 environment occs will be part of frozen-core in future post-HF calculations
 
 --------------------------------------------------------------
 
                    Orbital Energies (a.u.)
 --------------------------------------------------------------
 
 Alpha MOs
 -- Occupied --
 -0.5308  -0.4674  -0.4844  -0.4660  -0.4927  -0.4651  -0.4577  -0.4617
 -0.4829  -0.4390  -0.4324  -0.4225  -0.3908  -0.4696  -0.4545  -0.4355
 -0.4586  -0.4981  -0.4985  -0.5028  -0.3880  -0.5088  -0.6620  -0.5760
 -0.5527  -0.6521  -0.4964  -0.5513  -0.5136  -0.5442  -0.5139  -0.5549
 -0.6456  -0.5449  -0.5506  -0.6129  -0.6049  -0.5408  -0.5629  -0.6002
 -0.5429  -0.5388  -0.5697  -0.5775  -0.6356  -0.5916  -0.5392  -0.5619
 -0.5980  -0.6256  -0.5812  -0.5793  -0.4959  -0.6562  -0.6326  -0.6419
 -0.6069  -0.5941  -0.6705  -0.5820  -0.6655  -0.6786  -0.6671  -0.8796
 -0.8562  -0.7798  -0.7749  -0.6958  -1.0593  -0.6777  -0.9074  -0.9481
 -0.8673  -0.9834  -0.7902  -0.8510  -0.9703  -1.2980  -0.9832  -0.9577
 -0.6746  -0.9457  -0.8566  -0.8076  -1.3734  -0.8810  -0.8732  -1.1542
 -0.9980  -0.9156  -1.4348  -1.3419  -1.0374  -0.9711  -1.3732  -1.1399
 -1.4958  -1.6787  -1.6424  -1.2939  -1.4695  -1.5772  -1.2323  -1.1704
 -1.2536  -1.9855  -1.2039  -1.9983  -1.2017  -2.2636  -1.2950  -1.0704
 -1.3872  -2.0122  -1.5331  -2.6998  -1.4397  -1.1962  -1.5593  -1.6067
 -1.5086  -1.2663  -2.0006  -1.0624  -1.6117  -1.3913  -1.6264  -1.7397
 -2.2829  -1.7121  -1.5374  -1.6634  -1.3294  -1.2766  -1.9837  -1.9380
 -1.4115  -1.3291  -1.2501  -1.2178  -1.4184  -1.4516  -1.3598  -1.9097
 -1.4519  -1.5367  -1.6697  -1.1889  -1.7328  -1.8022  -1.3926  -1.3417
 -1.3985  -1.7702  -1.8134  -1.9578  -1.8398  -1.5862  -2.6798  -1.5591
 -1.4440  -1.9234  -5.9522  -6.2877  -5.9611  -5.9232  -5.9536  -5.5197
 -5.8629  -5.9170  -5.9839  -5.9765  -5.8708  -5.9662  -5.7074  -5.9087
 -5.9464  -5.9755  -5.8946  -5.9783  -5.9592  -5.9696  -5.9526  -5.8565
 -5.9108  -5.9502  -5.9615  -5.9622  -5.9593  -5.9641  -5.9584  -5.9481
 -5.9695  -5.9239  -5.9503  -5.9567  -5.9500  -5.9694  -1.7515  -3.2076
-21.3236  -2.7732 -21.0642  -1.5810  -6.2903 -36.6977 -33.0976  -1.5470
 -6.6314  -1.7130  -6.1760 -10.6189  -1.9467  -1.3484  -9.9993  -4.9799
 -2.8684  -4.9648  -3.6268  -1.8906  -4.2287  -1.2758  -4.1811  -1.2940
 -1.9851  -4.0862  -1.2980 -74.0607  -1.5260  -1.4238  -3.2532 -81.4164
 -1.4227 -13.1675 -15.8414  -1.6791  -5.9041 -15.4222  -8.8060  -1.8591
 -6.7037 -13.4525 -10.6906  -1.1868  -1.3790  -5.4013  -3.1673  -7.7569
 -1.6662  -3.1758  -6.2358  -6.1236  -1.1047  -1.6025  -7.2566  -1.2276
 -4.6926  -1.4674  -1.2956  -1.7204 -14.6123  -0.9832 -39.7320 -39.0408
-74.9713  -7.5596 -23.7923  -5.8394  -7.0860  -1.8151  -7.4878 -12.6817
-10.4291  -0.8771  -3.4918  -1.2537  -6.9203  -1.2546  -6.6556  -6.2823
 -4.4905  -6.8247  -8.4779  -1.4867  -1.1422  -6.8525  -0.9503  -1.3596
 -1.3020  -3.9153 -33.1230 -51.0046  -1.3648  -6.5244 -13.1357  -6.3896
-43.2508  -1.1557 -42.7263  -1.6320  -6.1788  -1.6113  -9.3345  -7.3388
 -1.4775  -2.4235  -5.4336  -1.5398  -5.5725  -4.8050  -5.4676  -7.5703
 -9.2256 -46.7691  -1.0797  -1.0310 -65.3678  -3.8389  -3.9542 -71.2049
 -2.7294  -3.4891  -5.5464 -15.5930  -2.9600  -0.7100  -1.7591  -3.2583
 -4.2746  -1.1612  -0.8381 -12.1903  -5.4948 -57.7779  -9.3242 -13.4052
 -5.7832  -7.7872  -7.8193  -4.2015  -8.0513  -8.1423  -0.9922  -8.5695
 -1.1006 -10.4612 -10.5225  -6.4195  -9.0298 -11.7252 -14.7151 -10.1002
-22.1497 -15.4987 -22.7346  -2.0081 -14.5059 -20.3923  -7.0152 -14.9007
 -6.9244  -5.6695  -7.4084 -12.1672 -10.1047  -6.9836  -9.1545  -0.9054
 -7.1880  -1.5689  -2.3884 -40.3412  -2.5084  -4.4934  -7.7637  -1.1199
-21.9841  -9.0340  -2.6561  -1.8409 -13.8104  -6.1586  -6.0812  -4.7958
 -7.8972  -2.8335  -4.0190 -10.9201  -3.9637  -4.3913  -6.9613  -3.1718
-11.3264  -9.6617  -5.0857  -7.3381  -5.5295 -18.1432  -3.7943  -6.4285
 -3.5293 -12.4342  -4.0749  -6.2364  -6.0767  -6.9887  -5.4606  -9.3754
 -3.7024  -8.2159 -12.8608  -7.3460 -22.5086 -14.0170  -9.1896 -12.3967
 -8.2135  -4.2341  -9.8771  -7.6528  -1.5574 -11.4824 -10.9059  -7.2459
 -4.3918  -2.3655  -4.2775  -1.8207  -1.8152  -1.9827  -4.3311  -6.6011
 -5.6571  -2.3165  -5.9257  -9.0986 -18.3843  -6.7956  -7.4352  -8.8222
 -5.2569  -4.5713  -5.1611  -9.8084 -11.3610  -7.3279  -3.3104  -4.7591
 -3.0476  -1.6550 -12.8407 -21.7437 -12.1010 -15.6443 -11.8690 -46.0525
 -8.0303  -6.5762  -6.0403 -13.4729  -5.2206  -3.5899  -7.7341  -6.6452
-11.9108  -4.6243  -8.1987 -12.6313  -6.1809  -4.8522  -3.5584 -24.6426
-15.6287  -6.3506 -23.8587  -9.5644 -12.0224 -10.5421  -2.2734  -4.2797
-11.8884  -6.7920  -7.0833  -8.4423 -10.9501 -15.4194 -26.7514  -6.5290
 -6.3223  -8.6966 -33.5895 -17.5246  -6.6266 -11.2288  -7.8387 -27.4943
 -9.1994  -5.3200  -7.2208  -1.0197  -3.9183 -11.6598  -2.5343 -12.7119
-23.5713 -10.6638  -7.2053 -12.8185 -54.7468  -9.5443  -2.2876  -8.4970
-54.8322 -11.7038  -8.6999  -4.8499  -9.0681  -5.3935  -4.5792 -54.1109
 -6.5316 -19.0130 -15.8956  -1.9694  -4.1836  -4.5772  -2.9454  -3.9556
-69.1096  -9.0743  -4.8295  -8.6477 -79.0825  -9.6703 -17.7587  -0.7061
-12.1219  -3.1167 -55.8114  -4.8374 -10.4511  -9.9275 -18.0365  -6.3845
 -2.9786 -11.0584  -1.2396 -21.2891  -6.8002  -2.6407  -1.9592 -41.9292
 -8.5435 -10.2966 -41.4029  -5.5167 -31.0354 -10.7657 -27.3779  -8.5605
-22.0708 -46.0016  -4.5881  -2.3805  -8.6503 -11.7950 -13.6408  -4.4603
 -2.5034 -11.1250 -33.9023  -3.0762 -11.3239 -18.4735  -4.0065  -6.1338
 -9.3146 -10.5652  -6.5946 -12.2903 -13.9328  -4.2376  -7.2721  -6.5267
 -4.8891  -5.2262  -4.7441  -6.3719 -10.8527 -12.0409 -15.9278 -10.1950
-13.6330 -10.1060 -10.4344 -10.8280 -10.1461  -0.6978  -0.7264  -0.8005
 -0.7973  -0.8591  -0.6022  -0.6735  -0.7766  -0.4004  -0.4724  -0.3913
 -0.4172  -0.4329  -0.4230  -0.4655  -0.5156  -0.4233  -0.4130  -0.3583
 -0.4095  -0.5207  -0.4525  -0.4700  -0.5089  -0.5037  -0.5029
 -- Virtual --
 -0.0455  -0.0393  -0.0385  -0.0354  -0.0346  -0.0337  -0.0286  -0.0250
 -0.0242  -0.0224  -0.0217  -0.0204  -0.0190  -0.0167  -0.0145  -0.0141
 -0.0125  -0.0120  -0.0099  -0.0084  -0.0059  -0.0055  -0.0047  -0.0041
 -0.0026  -0.0018  -0.0013   0.0005   0.0014   0.0018   0.0036   0.0045
  0.0047   0.0056   0.0059   0.0071   0.0074   0.0081   0.0090   0.0099
  0.0101   0.0116   0.0117   0.0127   0.0128   0.0146   0.0151   0.0158
  0.0161   0.0171   0.0174   0.0188   0.0190   0.0193   0.0204   0.0209
  0.0222   0.0229   0.0238   0.0241   0.0243   0.0254   0.0260   0.0263
  0.0273   0.0277   0.0287   0.0289   0.0295   0.0300   0.0307   0.0312
  0.0316   0.0323   0.0325   0.0336   0.0347   0.0350   0.0362   0.0369
  0.0374   0.0375   0.0384   0.0386   0.0390   0.0401   0.0405   0.0413
  0.0418   0.0426   0.0432   0.0442   0.0449   0.0454   0.0456   0.0460
  0.0472   0.0474   0.0476   0.0481   0.0494   0.0500   0.0503   0.0506
  0.0511   0.0519   0.0526   0.0528   0.0545   0.0547   0.0552   0.0554
  0.0560   0.0565   0.0573   0.0577   0.0585   0.0591   0.0594   0.0596
  0.0605   0.0611   0.0613   0.0622   0.0630   0.0638   0.0645   0.0651
  0.0656   0.0664   0.0669   0.0672   0.0678   0.0685   0.0689   0.0696
  0.0707   0.0711   0.0715   0.0723   0.0729   0.0739   0.0741   0.0751
  0.0756   0.0760   0.0765   0.0772   0.0774   0.0777   0.0791   0.0799
  0.0808   0.0817   0.0822   0.0825   0.0828   0.0837   0.0850   0.0854
  0.0857   0.0860   0.0866   0.0869   0.0879   0.0886   0.0891   0.0897
  0.0903   0.0907   0.0908   0.0911   0.0925   0.0927   0.0931   0.0943
  0.0948   0.0958   0.0963   0.0968   0.0971   0.0979   0.0990   0.0993
  0.1001   0.1006   0.1007   0.1023   0.1028   0.1030   0.1036   0.1046
  0.1049   0.1061   0.1061   0.1072   0.1077   0.1082   0.1090   0.1092
  0.1101   0.1103   0.1111   0.1118   0.1124   0.1138   0.1141   0.1146
  0.1148   0.1157   0.1161   0.1166   0.1173   0.1181   0.1187   0.1189
  0.1195   0.1204   0.1207   0.1212   0.1217   0.1221   0.1235   0.1238
  0.1242   0.1250   0.1253   0.1253   0.1260   0.1264   0.1265   0.1278
  0.1282   0.1288   0.1292   0.1302   0.1307   0.1311   0.1319   0.1326
  0.1337   0.1339   0.1346   0.1353   0.1356   0.1359   0.1367   0.1369
  0.1375   0.1379   0.1385   0.1390   0.1399   0.1406   0.1411   0.1416
  0.1424   0.1432   0.1436   0.1437   0.1441   0.1453   0.1454   0.1461
  0.1468   0.1474   0.1479   0.1487   0.1491   0.1496   0.1498   0.1503
  0.1516   0.1518   0.1522   0.1527   0.1540   0.1544   0.1554   0.1559
  0.1566   0.1569   0.1572   0.1581   0.1586   0.1593   0.1595   0.1600
  0.1607   0.1610   0.1613   0.1626   0.1630   0.1639   0.1649   0.1652
  0.1658   0.1665   0.1676   0.1681   0.1686   0.1692   0.1697   0.1706
  0.1709   0.1715   0.1719   0.1726   0.1732   0.1738   0.1743   0.1745
  0.1750   0.1757   0.1759   0.1762   0.1773   0.1777   0.1787   0.1791
  0.1797   0.1809   0.1810   0.1825   0.1828   0.1835   0.1837   0.1842
  0.1849   0.1852   0.1858   0.1864   0.1871   0.1875   0.1876   0.1881
  0.1886   0.1894   0.1898   0.1908   0.1911   0.1914   0.1921   0.1936
  0.1942   0.1943   0.1951   0.1955   0.1958   0.1963   0.1968   0.1973
  0.1975   0.1982   0.1991   0.1994   0.2006   0.2010   0.2020   0.2021
  0.2027   0.2033   0.2038   0.2051   0.2055   0.2060   0.2065   0.2078
  0.2080   0.2085   0.2087   0.2094   0.2097   0.2104   0.2116   0.2123
  0.2125   0.2132   0.2138   0.2141   0.2144   0.2146   0.2160   0.2168
  0.2172   0.2179   0.2187   0.2195   0.2197   0.2205   0.2216   0.2227
  0.2230   0.2238   0.2239   0.2241   0.2247   0.2251   0.2257   0.2268
  0.2272   0.2281   0.2285   0.2294   0.2301   0.2302   0.2308   0.2314
  0.2320   0.2324   0.2342   0.2345   0.2348   0.2350   0.2357   0.2370
  0.2373   0.2383   0.2385   0.2392   0.2395   0.2398   0.2413   0.2422
  0.2427   0.2434   0.2436   0.2443   0.2450   0.2457   0.2461   0.2472
  0.2484   0.2491   0.2496   0.2501   0.2503   0.2510   0.2515   0.2518
  0.2534   0.2539   0.2543   0.2545   0.2554   0.2563   0.2565   0.2570
  0.2581   0.2588   0.2590   0.2599   0.2606   0.2615   0.2620   0.2627
  0.2644   0.2651   0.2661   0.2664   0.2672   0.2679   0.2688   0.2700
  0.2707   0.2711   0.2715   0.2722   0.2725   0.2739   0.2744   0.2760
  0.2762   0.2768   0.2774   0.2784   0.2788   0.2795   0.2800   0.2806
  0.2817   0.2827   0.2828   0.2840   0.2851   0.2855   0.2857   0.2871
  0.2872   0.2885   0.2900   0.2906   0.2910   0.2916   0.2922   0.2926
  0.2938   0.2946   0.2948   0.2956   0.2969   0.2980   0.2990   0.2996
  0.3002   0.3014   0.3016   0.3026   0.3042   0.3048   0.3054   0.3057
  0.3071   0.3072   0.3078   0.3087   0.3096   0.3099   0.3108   0.3114
  0.3129   0.3133   0.3140   0.3146   0.3160   0.3164   0.3171   0.3178
  0.3188   0.3189   0.3198   0.3202   0.3214   0.3224   0.3225   0.3238
  0.3242   0.3247   0.3259   0.3261   0.3266   0.3284   0.3291   0.3291
  0.3302   0.3307   0.3329   0.3334   0.3338   0.3347   0.3355   0.3363
  0.3363   0.3366   0.3381   0.3394   0.3398   0.3409   0.3428   0.3433
  0.3445   0.3448   0.3453   0.3468   0.3480   0.3481   0.3500   0.3504
  0.3512   0.3517   0.3521   0.3534   0.3540   0.3546   0.3548   0.3555
  0.3571   0.3575   0.3583   0.3589   0.3594   0.3600   0.3616   0.3623
  0.3630   0.3644   0.3648   0.3654   0.3661   0.3672   0.3681   0.3688
  0.3694   0.3706   0.3712   0.3718   0.3723   0.3732   0.3744   0.3752
  0.3767   0.3779   0.3789   0.3807   0.3812   0.3824   0.3826   0.3826
  0.3841   0.3848   0.3850   0.3862   0.3871   0.3880   0.3890   0.3892
  0.3912   0.3919   0.3922   0.3934   0.3939   0.3950   0.3959   0.3964
  0.3971   0.3977   0.3990   0.4002   0.4006   0.4020   0.4029   0.4032
  0.4040   0.4053   0.4063   0.4070   0.4072   0.4091   0.4096   0.4102
  0.4118   0.4122   0.4139   0.4145   0.4147   0.4157   0.4161   0.4170
  0.4183   0.4193   0.4207   0.4221   0.4225   0.4226   0.4234   0.4235
  0.4259   0.4261   0.4265   0.4283   0.4287   0.4297   0.4299   0.4321
  0.4330   0.4336   0.4341   0.4349   0.4362   0.4373   0.4385   0.4402
  0.4406   0.4429   0.4437   0.4456   0.4466   0.4471   0.4475   0.4484
  0.4504   0.4517   0.4537   0.4538   0.4543   0.4566   0.4574   0.4595
  0.4599   0.4609   0.4616   0.4635   0.4639   0.4654   0.4683   0.4691
  0.4695   0.4699   0.4709   0.4720   0.4723   0.4729   0.4753   0.4768
  0.4769   0.4789   0.4797   0.4805   0.4812   0.4821   0.4824   0.4842
  0.4854   0.4874   0.4887   0.4893   0.4917   0.4943   0.4947   0.4964
  0.4974   0.4983   0.5000   0.5011   0.5019   0.5036   0.5051   0.5071
  0.5081   0.5093   0.5101   0.5120   0.5133   0.5141   0.5150   0.5174
  0.5180   0.5198   0.5204   0.5230   0.5244   0.5256   0.5271   0.5293
  0.5307   0.5320   0.5323   0.5329   0.5354   0.5363   0.5394   0.5401
  0.5417   0.5426   0.5433   0.5452   0.5463   0.5473   0.5488   0.5501
  0.5503   0.5508   0.5536   0.5549   0.5575   0.5585   0.5588   0.5603
  0.5617   0.5623   0.5639   0.5644   0.5674   0.5684   0.5699   0.5722
  0.5734   0.5750   0.5777   0.5806   0.5814   0.5834   0.5840   0.5842
  0.5861   0.5872   0.5886   0.5896   0.5901   0.5923   0.5925   0.5942
  0.5956   0.5969   0.5976   0.5986   0.5995   0.6011   0.6025   0.6038
  0.6064   0.6080   0.6099   0.6111   0.6119   0.6134   0.6150   0.6159
  0.6165   0.6169   0.6174   0.6188   0.6222   0.6227   0.6234   0.6247
  0.6264   0.6273   0.6282   0.6292   0.6303   0.6307   0.6313   0.6333
  0.6342   0.6357   0.6361   0.6377   0.6395   0.6401   0.6419   0.6432
  0.6437   0.6449   0.6451   0.6468   0.6472   0.6477   0.6491   0.6510
  0.6513   0.6523   0.6542   0.6550   0.6553   0.6559   0.6580   0.6600
  0.6605   0.6620   0.6625   0.6637   0.6657   0.6662   0.6674   0.6683
  0.6701   0.6707   0.6727   0.6733   0.6754   0.6765   0.6773   0.6779
  0.6784   0.6796   0.6806   0.6810   0.6828   0.6851   0.6853   0.6859
  0.6869   0.6882   0.6891   0.6902   0.6906   0.6919   0.6926   0.6938
  0.6953   0.6971   0.6986   0.6987   0.6994   0.7001   0.7017   0.7027
  0.7036   0.7041   0.7058   0.7065   0.7073   0.7089   0.7104   0.7122
  0.7131   0.7149   0.7158   0.7173   0.7180   0.7184   0.7211   0.7220
  0.7226   0.7236   0.7256   0.7261   0.7270   0.7286   0.7312   0.7339
  0.7342   0.7361   0.7361   0.7379   0.7385   0.7399   0.7431   0.7451
  0.7469   0.7477   0.7493   0.7506   0.7513   0.7526   0.7551   0.7565
  0.7575   0.7596   0.7621   0.7628   0.7647   0.7649   0.7654   0.7668
  0.7678   0.7701   0.7704   0.7714   0.7724   0.7735   0.7745   0.7767
  0.7786   0.7796   0.7805   0.7814   0.7838   0.7842   0.7850   0.7865
  0.7876   0.7888   0.7895   0.7911   0.7930   0.7932   0.7938   0.7950
  0.7977   0.7994   0.8004   0.8013   0.8037   0.8046   0.8055   0.8066
  0.8078   0.8094   0.8100   0.8126   0.8135   0.8152   0.8160   0.8179
  0.8188   0.8201   0.8216   0.8217   0.8224   0.8249   0.8279   0.8289
  0.8305   0.8319   0.8322   0.8337   0.8350   0.8360   0.8377   0.8389
  0.8403   0.8407   0.8425   0.8438   0.8447   0.8468   0.8480   0.8492
  0.8506   0.8509   0.8548   0.8552   0.8566   0.8574   0.8576   0.8592
  0.8600   0.8613   0.8636   0.8641   0.8643   0.8663   0.8680   0.8686
  0.8697   0.8711   0.8719   0.8738   0.8748   0.8774   0.8778   0.8797
  0.8800   0.8812   0.8820   0.8830   0.8850   0.8858   0.8877   0.8888
  0.8897   0.8913   0.8921   0.8926   0.8946   0.8952   0.8977   0.8993
  0.9000   0.9007   0.9019   0.9030   0.9040   0.9059   0.9073   0.9081
  0.9091   0.9098   0.9104   0.9108   0.9122   0.9134   0.9157   0.9165
  0.9170   0.9182   0.9185   0.9201   0.9212   0.9221   0.9233   0.9258
  0.9268   0.9273   0.9283   0.9314   0.9317   0.9325   0.9332   0.9344
  0.9349   0.9354   0.9370   0.9383   0.9389   0.9405   0.9409   0.9415
  0.9435   0.9447   0.9456   0.9466   0.9480   0.9486   0.9505   0.9513
  0.9533   0.9551   0.9573   0.9578   0.9593   0.9606   0.9616   0.9628
  0.9643   0.9654   0.9663   0.9672   0.9674   0.9679   0.9689   0.9695
  0.9702   0.9727   0.9740   0.9743   0.9751   0.9759   0.9764   0.9771
  0.9785   0.9799   0.9815   0.9821   0.9837   0.9842   0.9851   0.9862
  0.9880   0.9882   0.9891   0.9897   0.9899   0.9916   0.9937   0.9943
  0.9961   0.9971   0.9974   0.9980   0.9990   1.0007   1.0013   1.0019
  1.0035   1.0039   1.0055   1.0061   1.0085   1.0091   1.0101   1.0114
  1.0116   1.0127   1.0135   1.0156   1.0160   1.0169   1.0181   1.0200
  1.0204   1.0214   1.0220   1.0229   1.0252   1.0267   1.0278   1.0289
  1.0304   1.0308   1.0317   1.0323   1.0330   1.0359   1.0370   1.0386
  1.0394   1.0399   1.0414   1.0422   1.0444   1.0458   1.0462   1.0469
  1.0473   1.0492   1.0511   1.0525   1.0542   1.0543   1.0563   1.0571
  1.0586   1.0598   1.0610   1.0614   1.0626   1.0627   1.0651   1.0665
  1.0683   1.0688   1.0694   1.0704   1.0720   1.0742   1.0755   1.0762
  1.0785   1.0794   1.0821   1.0824   1.0843   1.0850   1.0853   1.0870
  1.0890   1.0904   1.0914   1.0921   1.0926   1.0946   1.0956   1.0963
  1.0973   1.0983   1.0989   1.1003   1.1016   1.1022   1.1043   1.1061
  1.1068   1.1091   1.1114   1.1120   1.1137   1.1139   1.1149   1.1178
  1.1180   1.1190   1.1207   1.1230   1.1241   1.1254   1.1257   1.1272
  1.1281   1.1288   1.1300   1.1315   1.1334   1.1342   1.1347   1.1367
  1.1392   1.1401   1.1415   1.1420   1.1430   1.1441   1.1450   1.1461
  1.1468   1.1488   1.1514   1.1518   1.1538   1.1544   1.1547   1.1574
  1.1577   1.1583   1.1598   1.1613   1.1617   1.1622   1.1631   1.1663
  1.1674   1.1683   1.1703   1.1705   1.1727   1.1735   1.1762   1.1773
  1.1780   1.1801   1.1811   1.1821   1.1836   1.1862   1.1869   1.1889
  1.1903   1.1907   1.1915   1.1919   1.1946   1.1952   1.1965   1.1980
  1.1994   1.2004   1.2010   1.2034   1.2055   1.2084   1.2096   1.2100
  1.2120   1.2148   1.2168   1.2182   1.2192   1.2199   1.2206   1.2237
  1.2262   1.2284   1.2313   1.2323   1.2331   1.2345   1.2373   1.2401
  1.2412   1.2427   1.2448   1.2453   1.2461   1.2484   1.2510   1.2537
  1.2550   1.2568   1.2588   1.2622   1.2631   1.2660   1.2680   1.2684
  1.2712   1.2722   1.2738   1.2770   1.2784   1.2806   1.2807   1.2866
  1.2884   1.2899   1.2920   1.2956   1.2966   1.2996   1.3003   1.3027
  1.3050   1.3077   1.3085   1.3102   1.3120   1.3131   1.3142   1.3175
  1.3184   1.3217   1.3222   1.3250   1.3258   1.3279   1.3283   1.3302
  1.3337   1.3352   1.3364   1.3389   1.3395   1.3424   1.3449   1.3453
  1.3466   1.3485   1.3493   1.3528   1.3530   1.3534   1.3554   1.3576
  1.3577   1.3587   1.3604   1.3623   1.3644   1.3661   1.3669   1.3693
  1.3700   1.3724   1.3736   1.3750   1.3770   1.3793   1.3804   1.3817
  1.3841   1.3854   1.3863   1.3881   1.3885   1.3911   1.3921   1.3946
  1.3964   1.3969   1.3992   1.4010   1.4037   1.4041   1.4057   1.4069
  1.4090   1.4102   1.4120   1.4138   1.4145   1.4158   1.4178   1.4181
  1.4200   1.4236   1.4243   1.4260   1.4279   1.4293   1.4308   1.4337
  1.4357   1.4367   1.4371   1.4377   1.4418   1.4421   1.4439   1.4460
  1.4471   1.4491   1.4510   1.4512   1.4525   1.4562   1.4574   1.4578
  1.4593   1.4612   1.4631   1.4651   1.4661   1.4698   1.4704   1.4719
  1.4723   1.4751   1.4752   1.4773   1.4798   1.4820   1.4833   1.4845
  1.4854   1.4889   1.4908   1.4912   1.4930   1.4945   1.4977   1.4983
  1.5016   1.5026   1.5037   1.5063   1.5098   1.5113   1.5132   1.5148
  1.5157   1.5171   1.5202   1.5211   1.5261   1.5272   1.5294   1.5328
  1.5358   1.5367   1.5397   1.5415   1.5428   1.5472   1.5485   1.5536
  1.5555   1.5569   1.5598   1.5615   1.5643   1.5673   1.5721   1.5740
  1.5765   1.5776   1.5803   1.5853   1.5861   1.5903   1.5931   1.5951
  1.5989   1.6010   1.6024   1.6081   1.6112   1.6119   1.6186   1.6201
  1.6234   1.6260   1.6286   1.6322   1.6346   1.6351   1.6383   1.6399
  1.6410   1.6431   1.6447   1.6455   1.6486   1.6512   1.6550   1.6561
  1.6599   1.6606   1.6631   1.6638   1.6658   1.6664   1.6675   1.6733
  1.6742   1.6750   1.6760   1.6775   1.6781   1.6808   1.6809   1.6828
  1.6847   1.6863   1.6887   1.6892   1.6916   1.6926   1.6945   1.6951
  1.6962   1.6979   1.7003   1.7013   1.7019   1.7034   1.7039   1.7075
  1.7092   1.7103   1.7109   1.7125   1.7140   1.7145   1.7154   1.7164
  1.7168   1.7185   1.7204   1.7213   1.7224   1.7241   1.7251   1.7265
  1.7285   1.7292   1.7302   1.7310   1.7314   1.7339   1.7348   1.7377
  1.7387   1.7413   1.7418   1.7423   1.7435   1.7440   1.7449   1.7466
  1.7472   1.7488   1.7500   1.7514   1.7533   1.7542   1.7561   1.7581
  1.7589   1.7604   1.7624   1.7632   1.7648   1.7655   1.7663   1.7692
  1.7698   1.7738   1.7751   1.7756   1.7762   1.7778   1.7788   1.7791
  1.7828   1.7854   1.7885   1.7892   1.7914   1.7927   1.7952   1.7969
  1.7977   1.8022   1.8039   1.8045   1.8074   1.8100   1.8113   1.8139
  1.8169   1.8185   1.8205   1.8221   1.8241   1.8249   1.8273   1.8301
  1.8307   1.8344   1.8356   1.8380   1.8391   1.8428   1.8447   1.8458
  1.8516   1.8522   1.8550   1.8564   1.8578   1.8590   1.8613   1.8624
  1.8638   1.8671   1.8678   1.8699   1.8720   1.8745   1.8761   1.8780
  1.8798   1.8820   1.8845   1.8856   1.8870   1.8895   1.8916   1.8935
  1.8943   1.8954   1.8960   1.8968   1.8989   1.9010   1.9023   1.9043
  1.9071   1.9089   1.9095   1.9123   1.9134   1.9156   1.9159   1.9164
  1.9177   1.9186   1.9188   1.9209   1.9226   1.9260   1.9271   1.9280
  1.9309   1.9318   1.9337   1.9351   1.9371   1.9377   1.9384   1.9400
  1.9416   1.9444   1.9455   1.9474   1.9508   1.9519   1.9530   1.9570
  1.9582   1.9597   1.9608   1.9636   1.9660   1.9683   1.9704   1.9737
  1.9764   1.9784   1.9796   1.9827   1.9840   1.9881   1.9922   1.9951
  1.9978   2.0077   2.0151   2.0205   2.0263   2.0280   2.0352   2.0354
  2.0371   2.0412   2.0446   2.0477   2.0495   2.0527   2.0532   2.0543
  2.0570   2.0585   2.0623   2.0639   2.0667   2.0675   2.0688   2.0719
  2.0745   2.0777   2.0798   2.0806   2.0835   2.0845   2.0866   2.0871
  2.0879   2.0914   2.0937   2.0958   2.0967   2.0982   2.0989   2.1004
  2.1024   2.1044   2.1064   2.1070   2.1094   2.1099   2.1118   2.1125
  2.1140   2.1172   2.1197   2.1209   2.1216   2.1240   2.1255   2.1268
  2.1277   2.1295   2.1311   2.1322   2.1341   2.1353   2.1373   2.1407
  2.1429   2.1453   2.1495   2.1502   2.1524   2.1536   2.1569   2.1608
  2.1680   2.1699   2.1713   2.1731   2.1761   2.1786   2.1790   2.1845
  2.1886   2.1922   2.1945   2.1975   2.1986   2.1998   2.2009   2.2023
  2.2045   2.2047   2.2058   2.2065   2.2075   2.2079   2.2100   2.2125
  2.2146   2.2165   2.2182   2.2194   2.2234   2.2245   2.2262   2.2294
  2.2304   2.2321   2.2339   2.2349   2.2361   2.2371   2.2384   2.2390
  2.2404   2.2413   2.2429   2.2436   2.2448   2.2450   2.2462   2.2470
  2.2477   2.2496   2.2510   2.2533   2.2537   2.2539   2.2550   2.2559
  2.2569   2.2570   2.2574   2.2588   2.2597   2.2609   2.2613   2.2631
  2.2636   2.2659   2.2661   2.2668   2.2683   2.2688   2.2705   2.2717
  2.2721   2.2731   2.2738   2.2745   2.2764   2.2769   2.2773   2.2782
  2.2791   2.2802   2.2819   2.2833   2.2837   2.2849   2.2854   2.2861
  2.2874   2.2879   2.2883   2.2896   2.2902   2.2917   2.2928   2.2938
  2.2949   2.2961   2.2968   2.2989   2.2997   2.3006   2.3013   2.3020
  2.3036   2.3040   2.3049   2.3064   2.3070   2.3084   2.3090   2.3103
  2.3110   2.3118   2.3140   2.3172   2.3192   2.3198   2.3210   2.3217
  2.3223   2.3246   2.3251   2.3272   2.3278   2.3295   2.3304   2.3311
  2.3333   2.3338   2.3352   2.3364   2.3383   2.3397   2.3401   2.3409
  2.3433   2.3437   2.3451   2.3469   2.3478   2.3500   2.3521   2.3549
  2.3554   2.3588   2.3608   2.3624   2.3635   2.3668   2.3686   2.3695
  2.3728   2.3740   2.3758   2.3767   2.3784   2.3805   2.3820   2.3833
  2.3852   2.3904   2.3912   2.3920   2.3941   2.3962   2.4020   2.4070
  2.4107   2.4146   2.4184   2.4213   2.4249   2.4271   2.4492   2.4795
  2.4894   2.5194   2.5503   2.5691   2.6718   2.7215   2.7557   2.7752
  2.8016   2.8136   2.8186   2.8214   2.8232   2.8237   2.8330   2.8394
  2.8436   2.8449   2.8507   2.8512   2.8535   2.8556   2.8567   2.8595
  2.8639   2.8662   2.8709   2.8738   2.8767   2.8786   2.8801   2.8808
  2.8859   2.8911   2.8960   2.8988   2.9030   2.9078   2.9085   2.9228
  2.9687   3.1039   3.2533   3.9310   3.9375   3.9468   3.9547   3.9557
  3.9666   3.9735   3.9737   3.9800   3.9863   3.9867   3.9878   3.9905
  3.9938   4.0037   4.0067   4.0095   4.0107   4.0119   4.0166   4.0188
  4.0228   4.0287   4.0344   4.0373   4.0409   4.0443   4.0611   4.1874
  4.1892   4.2046   4.2073   4.2106   4.2180   4.2255   4.2354   4.2446
  4.2484   4.2496   4.2518   4.2571   4.2642   4.2655   4.2679   4.2719
  4.2728   4.2730   4.2744   4.2767   4.2834   4.2847   4.2862   4.2890
  4.2921   4.2944   4.2955   4.2974   4.2987   4.2990   4.3007   4.3046
  4.3057   4.3081   4.3090   4.3119   4.3159   4.3191   4.3208   4.3264
  4.3273   4.3317   4.3319   4.3351   4.3367   4.3376   4.3414   4.3443
  4.3456   4.3504   4.3539   4.3563   4.3632   4.3675   4.3691   4.3732
  4.3750   4.3796   4.3844   4.3878   4.3899   4.3911   4.3945   4.3978
  4.4024   4.4075   4.4171   4.4217   4.4305   4.4349   4.4436   4.4571
  4.4660   4.4731   4.4767   4.4799   4.4901   4.4940   4.5040   4.5165
  4.5294   4.5442   4.5561   4.5687   4.5843   4.6150   4.6192   4.6374
  4.7071   4.7498   4.7586   4.9173
 --------------------------------------------------------------
 
          Ground-State Mulliken Net Atomic Charges

     Atom                 Charge (a.u.)
  ----------------------------------------
      1 C                    -0.099062
      2 C                    -0.912758
      3 C                    -0.712184
      4 C                    -1.105881
      5 C                     0.564775
      6 C                    -0.752272
      7 H                     0.234995
      8 H                     0.198647
      9 H                     0.211570
     10 H                     0.214897
     11 H                     0.207887
     12 H                     0.248682
     13 H                     0.209236
     14 H                     0.198240
     15 H                     0.245753
     16 H                     0.185933
     17 H                     0.232851
     18 N                     0.326551
     19 H                     0.512060
     20 C                    -0.004177
     21 H                     0.175254
     22 O                    -0.323179
     23 C                    -0.937554
     24 H                     0.275958
     25 H                     0.245827
     26 H                     0.246718
     27 S                     0.999003
     28 C                    -0.965336
     29 H                     0.264903
     30 H                     0.265938
     31 H                     0.280969
     32 O                    -0.641325
     33 C                    -0.840145
     34 H                     0.299430
     35 H                     0.271072
     36 H                     0.271383
     37 S                     0.874265
     38 C                    -1.078135
     39 H                     0.250116
     40 H                     0.259814
     41 H                     0.253561
     42 O                    -0.641541
     43 C                    -0.840560
     44 H                     0.268110
     45 H                     0.254404
     46 H                     0.244944
     47 S                     0.901148
     48 C                    -0.815068
     49 H                     0.248327
     50 H                     0.235315
     51 H                     0.265756
     52 O                    -0.732918
     53 C                    -1.088693
     54 H                     0.212506
     55 H                     0.264800
     56 H                     0.291500
     57 S                     1.175673
     58 C                    -1.045314
     59 H                     0.305558
     60 H                     0.267524
     61 H                     0.277735
     62 O                    -0.658142
     63 C                    -0.796678
     64 H                     0.238425
     65 H                     0.324820
     66 H                     0.274449
     67 S                     0.189900
     68 C                    -0.786722
     69 H                     0.279267
     70 H                     0.263321
     71 H                     0.295230
     72 O                    -0.529603
     73 C                    -0.735439
     74 H                     0.279856
     75 H                     0.246188
     76 H                     0.248565
     77 S                     0.482278
     78 C                    -0.565713
     79 H                     0.236889
     80 H                     0.284273
     81 H                     0.245383
     82 O                    -0.640964
     83 C                    -1.023734
     84 H                     0.252567
     85 H                     0.260595
     86 H                     0.304699
     87 S                     1.139223
     88 C                    -0.934495
     89 H                     0.262405
     90 H                     0.247282
     91 H                     0.247667
     92 O                    -0.713369
     93 C                    -0.831152
     94 H                     0.259460
     95 H                     0.235440
     96 H                     0.244879
     97 S                     0.848510
     98 C                    -0.758778
     99 H                     0.239282
    100 H                     0.248165
    101 H                     0.241889
    102 O                    -0.705259
    103 C                    -1.003700
    104 H                     0.284412
    105 H                     0.244054
    106 H                     0.263119
    107 S                     0.522174
    108 C                    -0.548718
    109 H                     0.286146
    110 H                     0.271316
    111 H                     0.253391
    112 O                    -0.642383
    113 C                    -0.950683
    114 H                     0.249298
    115 H                     0.201529
    116 H                     0.314707
    117 S                     1.073783
    118 C                    -0.817683
    119 H                     0.265454
    120 H                     0.246293
    121 H                     0.286754
    122 O                    -0.741617
    123 C                    -0.851364
    124 H                     0.254582
    125 H                     0.255039
    126 H                     0.215431
    127 S                     0.950589
    128 C                    -0.818474
    129 H                     0.215593
    130 H                     0.249717
    131 H                     0.267226
    132 O                    -0.695142
    133 C                    -0.926305
    134 H                     0.241614
    135 H                     0.242497
    136 H                     0.276293
    137 S                     0.956414
    138 C                    -0.779707
    139 H                     0.242357
    140 H                     0.256805
    141 H                     0.262894
    142 O                    -0.685293
    143 C                    -0.851847
    144 H                     0.254963
    145 H                     0.264796
    146 H                     0.277144
    147 S                     0.699503
    148 C                    -0.798394
    149 H                     0.242330
    150 H                     0.296739
    151 H                     0.287419
    152 O                    -0.712225
    153 C                    -0.764523
    154 H                     0.279215
    155 H                     0.323576
    156 H                     0.245716
    157 S                     0.549569
    158 C                    -0.973775
    159 H                     0.245437
    160 H                     0.290544
    161 H                     0.285596
    162 O                    -0.668579
    163 C                    -0.856326
    164 H                     0.327436
    165 H                     0.245428
    166 H                     0.216762
    167 S                     0.906860
    168 C                    -0.869128
    169 H                     0.232496
    170 H                     0.237583
    171 H                     0.317736
    172 O                    -0.732700
    173 C                    -0.655259
    174 H                     0.272526
    175 H                     0.219446
    176 H                     0.295537
    177 S                     0.212510
    178 C                    -0.810894
    179 H                     0.258525
    180 H                     0.293310
    181 H                     0.237260
    182 O                    -0.458173
    183 C                    -0.920693
    184 H                     0.234065
    185 H                     0.265803
    186 H                     0.264591
    187 S                     1.027009
    188 C                    -1.128192
    189 H                     0.257656
    190 H                     0.260001
    191 H                     0.264994
    192 O                    -0.670594
    193 C                    -0.834025
    194 H                     0.250205
    195 H                     0.275159
    196 H                     0.232350
    197 S                     0.950216
    198 C                    -0.930373
    199 H                     0.259066
    200 H                     0.244186
    201 H                     0.269344
    202 O                    -0.631803
    203 C                    -0.780503
    204 H                     0.258128
    205 H                     0.287742
    206 H                     0.255798
    207 S                     0.514094
    208 C                    -0.648199
    209 H                     0.291672
    210 H                     0.230891
    211 H                     0.283578
    212 O                    -0.633332
    213 C                    -0.780231
    214 H                     0.294602
    215 H                     0.262798
    216 H                     0.222341
    217 S                     0.607944
    218 C                    -0.837943
    219 H                     0.275710
    220 H                     0.285927
    221 H                     0.238200
    222 O                    -0.588844
    223 C                    -1.027724
    224 H                     0.229066
    225 H                     0.273524
    226 H                     0.274071
    227 S                     1.197570
    228 C                    -0.963800
    229 H                     0.251494
    230 H                     0.267829
    231 H                     0.224121
    232 O                    -0.688904
    233 C                    -0.935484
    234 H                     0.240829
    235 H                     0.227726
    236 H                     0.238982
    237 S                     1.199024
    238 C                    -0.922928
    239 H                     0.253245
    240 H                     0.264511
    241 H                     0.249367
    242 O                    -0.740667
    243 C                    -0.854149
    244 H                     0.235520
    245 H                     0.255692
    246 H                     0.260381
    247 S                     0.876571
    248 C                    -0.849479
    249 H                     0.276692
    250 H                     0.249368
    251 H                     0.269845
    252 O                    -0.673777
    253 C                    -0.956443
    254 H                     0.339005
    255 H                     0.250547
    256 H                     0.230686
    257 S                     0.938145
    258 C                    -0.857618
    259 H                     0.285716
    260 H                     0.259279
    261 H                     0.221113
    262 O                    -0.719132
    263 C                    -0.896156
    264 H                     0.303653
    265 H                     0.252867
    266 H                     0.259899
    267 S                     0.870529
    268 C                    -0.943175
    269 H                     0.300766
    270 H                     0.255996
    271 H                     0.277486
    272 O                    -0.700898
    273 C                    -0.772320
    274 H                     0.288806
    275 H                     0.218479
    276 H                     0.292407
    277 S                     0.820279
    278 C                    -0.859967
    279 H                     0.231778
    280 H                     0.240980
    281 H                     0.288194
    282 O                    -0.674758
    283 C                    -0.870100
    284 H                     0.239151
    285 H                     0.282351
    286 H                     0.247696
    287 S                     1.007844
    288 C                    -0.900768
    289 H                     0.218637
    290 H                     0.261199
    291 H                     0.288646
    292 O                    -0.770409
    293 C                    -0.916125
    294 H                     0.278854
    295 H                     0.269357
    296 H                     0.228507
    297 S                     1.102431
[...]
    2  -0.0012540   0.0234265   0.0013072  -0.0314786   0.0123684   0.0263437
    3   0.0369072  -0.1008501  -0.0078292   0.0006641  -0.0313537   0.0167273
          157         158         159         160         161         162
    1  -0.0270200  -0.0014426   0.0044808  -0.0238053   0.0082671  -0.0219398
    2   0.0422949  -0.0055329   0.0241802  -0.0014787  -0.0311927  -0.0968315
    3   0.0030817   0.0100551   0.0250056   0.0202086  -0.0182011  -0.0469755
          163         164         165         166         167         168
    1  -0.0049721   0.0127393  -0.0217782  -0.0197547  -0.0076059   0.0034500
    2   0.0126078   0.0295045  -0.0167636   0.0032093  -0.0517679   0.0115238
    3  -0.0016764  -0.0162454  -0.0130352   0.0291640   0.0202073   0.0017375
          169         170         171         172         173         174
    1  -0.0122036   0.0252967   0.0027524   0.0306663  -0.0010104   0.0126522
    2   0.0037930  -0.0147341   0.0275355   0.0195857   0.0060510   0.0142251
    3   0.0320458   0.0070773  -0.0228705  -0.1031821   0.0032843  -0.0223011
          175         176         177         178         179         180
    1  -0.0304366   0.0012512   0.0669660  -0.0067757   0.0110357  -0.0005666
    2   0.0246481   0.0248403  -0.0103055  -0.0031431   0.0142237  -0.0314271
    3   0.0000480   0.0255323  -0.0193381  -0.0049202  -0.0247998  -0.0062726
          181         182         183         184         185         186
    1  -0.0348947  -0.0332452  -0.0001332  -0.0239263   0.0277970  -0.0164524
    2   0.0043199  -0.0427369  -0.0057620   0.0059275  -0.0108432  -0.0226701
    3   0.0037039   0.0954797  -0.0056151  -0.0241019  -0.0129861   0.0139837
          187         188         189         190         191         192
    1  -0.0461149   0.0063916  -0.0209512   0.0177982   0.0260833   0.0732585
    2   0.0240755   0.0025435   0.0080719   0.0224198  -0.0095126  -0.0558237
    3   0.0236080  -0.0063412  -0.0255516   0.0175206  -0.0049792   0.0615411
          193         194         195         196         197         198
    1  -0.0055286  -0.0065587  -0.0297463   0.0108469   0.0561026  -0.0028369
    2   0.0007569  -0.0036701   0.0104807   0.0259826  -0.0196254  -0.0065940
    3  -0.0015525  -0.0348431   0.0082722  -0.0064191  -0.0298938  -0.0016393
          199         200         201         202         203         204
    1   0.0107393  -0.0251903   0.0016706  -0.0008818  -0.0066879   0.0050045
    2  -0.0219715   0.0119527  -0.0072659   0.0236819  -0.0043174  -0.0281625
    3   0.0179517   0.0145359  -0.0319369   0.1049851  -0.0088094   0.0125218
          205         206         207         208         209         210
    1  -0.0227955  -0.0083282  -0.0017960   0.0011524  -0.0104552  -0.0025059
    2   0.0138108   0.0055350   0.0569990  -0.0052243  -0.0302916   0.0049132
    3   0.0075024  -0.0419245  -0.0284819  -0.0029387   0.0040951  -0.0340264
          211         212         213         214         215         216
    1   0.0266026   0.0063689  -0.0069782   0.0026440  -0.0146474  -0.0027798
    2   0.0069763  -0.0175151   0.0003009  -0.0332826   0.0186983   0.0155966
    3   0.0119126   0.1054612  -0.0008646  -0.0032768   0.0228720  -0.0274792
          217         218         219         220         221         222
    1   0.0412167   0.0029768   0.0068677   0.0216986  -0.0227378   0.0059705
    2  -0.0240966  -0.0022437  -0.0317496   0.0046989   0.0137117   0.1194430
    3  -0.0325246   0.0072872   0.0016324   0.0215367   0.0161716   0.0234783
          223         224         225         226         227         228
    1   0.0066198  -0.0170836   0.0329668  -0.0125016  -0.0510300   0.0015461
    2  -0.0063128  -0.0156964   0.0069675  -0.0243611  -0.0015617   0.0026667
    3  -0.0034735  -0.0264888   0.0079062   0.0155101   0.0215537  -0.0052119
          229         230         231         232         233         234
    1  -0.0115629   0.0313122  -0.0193527   0.0899785  -0.0030568   0.0162758
    2   0.0274029   0.0026492  -0.0072585   0.0396717   0.0035426  -0.0039818
    3   0.0009821  -0.0028078  -0.0277952   0.0467848  -0.0008222  -0.0306601
          235         236         237         238         239         240
    1  -0.0337421   0.0120562  -0.0112080  -0.0048016   0.0207681   0.0048482
    2  -0.0026320   0.0270359  -0.0542744   0.0004776  -0.0137645   0.0326648
    3   0.0102881   0.0072808  -0.0100409   0.0085094   0.0189043  -0.0016970
          241         242         243         244         245         246
    1  -0.0262075   0.1029818  -0.0058056  -0.0182060   0.0044796  -0.0158879
    2  -0.0128935   0.0405438   0.0057352  -0.0062873   0.0309980  -0.0031724
    3   0.0077021  -0.0001793   0.0001723   0.0285239  -0.0075607  -0.0256099
          247         248         249         250         251         252
    1  -0.0090380   0.0026818  -0.0064091  -0.0021440   0.0304215   0.0483620
    2  -0.0582987   0.0075244   0.0314748  -0.0168371  -0.0110728   0.0460573
    3   0.0015589   0.0062489   0.0108501   0.0321413   0.0049589  -0.0876722
          253         254         255         256         257         258
    1  -0.0100743  -0.0070390   0.0030120  -0.0260040   0.0206492  -0.0047345
    2  -0.0084380  -0.0343057  -0.0026699   0.0213541   0.0376506  -0.0031403
    3   0.0046699  -0.0076186   0.0328153  -0.0071991   0.0129936  -0.0043550
          259         260         261         262         263         264
    1   0.0177930  -0.0195648  -0.0131259   0.0356712  -0.0042790   0.0100072
    2  -0.0004496  -0.0259628   0.0271301  -0.1096949   0.0029575   0.0127039
    3  -0.0180254   0.0034354  -0.0165023   0.0005490   0.0055881   0.0312456
          265         266         267         268         269         270
    1  -0.0254130  -0.0174221   0.0417929  -0.0000535  -0.0026720   0.0328281
    2   0.0124988  -0.0246627  -0.0322871   0.0107334   0.0209907   0.0014629
    3  -0.0185184   0.0054973   0.0263156   0.0006255   0.0276564   0.0016657
          271         272         273         274         275         276
    1  -0.0240122  -0.0392571  -0.0031595  -0.0261078  -0.0199604  -0.0042859
    2   0.0126496  -0.0221156   0.0040588   0.0008841  -0.0176792   0.0335761
    3  -0.0227423  -0.1001185   0.0072098  -0.0069972   0.0355984   0.0140353
          277         278         279         280         281         282
    1   0.0356108   0.0005063   0.0142388   0.0244502  -0.0172115  -0.0659201
    2  -0.0298812   0.0041648   0.0152734   0.0096220   0.0229959  -0.0340747
    3   0.0272585  -0.0054209   0.0219551  -0.0266823  -0.0089202  -0.0808778
          283         284         285         286         287         288
    1  -0.0095239  -0.0079643  -0.0251855  -0.0026099   0.0433783  -0.0071036
    2  -0.0036601  -0.0104698   0.0017081  -0.0294240  -0.0127296   0.0058408
    3  -0.0013815   0.0293839  -0.0196973  -0.0172727   0.0237340   0.0053777
          289         290         291         292         293         294
    1  -0.0151804   0.0159665  -0.0245682  -0.0170319   0.0045155   0.0069979
    2  -0.0108306   0.0291725   0.0030880   0.0325405   0.0067821  -0.0255194
    3   0.0304135  -0.0003614  -0.0159152  -0.1016027  -0.0037370  -0.0105459
          295         296         297         298         299         300
    1  -0.0248306   0.0285820  -0.0572248   0.0004994   0.0243602  -0.0259174
    2   0.0118907   0.0178863  -0.0344931   0.0034166   0.0203570   0.0178110
    3  -0.0186433   0.0168262  -0.0091728   0.0054625   0.0041577  -0.0108717
          301         302
    1   0.0032774   0.0853845
    2  -0.0120222  -0.0555355
    3   0.0313684   0.0424969
  --- DONE ESP SUMMARY ---
Archival summary:
1\1\node026\SP\ProcedureUnspecified\6-31+G*\282856h22\ymao90\SatDec406:25:342021SatDec406:25:342021\0\\#,ProcedureUnspecified,6-31+G*,\\0,1\S\O,1,1.49739\C,1,1.80691,2,111.663\H,3,1.09264,1,110.906,2,44.2297,0\H,3,1.09291,1,104.841,2,158.53,0\H,3,1.09304,1,111.402,2,-84.1227,0\C,1,1.80755,2,108.446,3,-109.092,0\H,7,1.09263,1,103.716,2,48.8984,0\H,7,1.09281,1,111.239,2,-63.4617,0\H,7,1.09316,1,115.82,2,165.271,0\Gh,10,2.2707,7,93.155,1,64.4261,0\Gh,11,1.09665,10,157.806,7,-133.477,0\Gh,12,1.09649,11,101.573,10,98.9739,0\Gh,12,1.53714,11,116.883,10,-145.752,0\Gh,14,1.0969,12,116.784,11,-158.739,0\Gh,14,1.09733,12,110.692,11,-50.1019,0\Gh,14,1.53712,12,112.794,11,71.2703,0\Gh,17,1.09629,14,99.2951,12,-67.3232,0\Gh,17,1.46216,14,112.233,12,179.875,0\Gh,19,1.01272,17,125.375,14,-108.636,0\Gh,19,1.37949,17,123.338,14,74.0175,0\Gh,21,1.10547,19,117.752,17,-177.92,0\Gh,21,1.2174,19,121.16,17,0.270822,0\Gh,12,1.53796,11,107.537,10,-15.1222,0\Gh,24,1.09662,12,112.429,11,162.134,0\Gh,24,1.09706,12,107.434,11,46.0689,0\Gh,17,1.53807,14,108.173,12,49.3817,0\Gh,27,1.09652,17,109.362,14,-168.91,0\Gh,27,1.09662,17,104.81,14,72.0654,0\Gh,27,1.53779,17,115.931,14,-51.743,0\Gh,30,1.09668,27,109.771,17,-59.7189,0\Gh,30,1.09722,27,105.602,17,173.953,0\H,22,1.90855,21,132.75,19,90.3345,0\C,33,1.09306,22,138.96,21,-153.716,0\H,34,1.09246,33,116.302,22,113.516,0\H,34,1.09319,33,108.299,22,-123.894,0\S,34,1.80649,33,109.364,22,-12.9491,0\O,37,1.49711,34,105.494,33,-167.827,0\C,37,1.80771,34,98.9555,33,87.6114,0\H,39,1.09254,37,110.938,34,46.1463,0\H,39,1.09267,37,109.003,34,-64.966,0\H,39,1.09267,37,111.593,34,174.123,0\O,20,1.98733,19,139.554,17,50.9691,0\S,43,1.49715,20,140.049,19,9.35975,0\C,44,1.80692,43,101.966,20,140.205,0\H,45,1.09255,44,109.666,43,61.6944,0\H,45,1.09327,44,104.392,43,-61.071,0\H,45,1.09341,44,107.244,43,-178.672,0\C,44,1.80728,43,105.767,20,-125.012,0\H,49,1.09246,44,111.96,43,-43.0447,0\H,49,1.09276,44,109.221,43,73.8395,0\H,49,1.09364,44,114.413,43,-164.257,0\H,18,2.10161,17,120.689,14,145.424,0\C,53,1.09324,18,163.211,17,109.574,0\H,54,1.09296,53,109.176,18,-101.504,0\H,54,1.09353,53,102.604,18,18.7504,0\S,54,1.80675,53,116.361,18,139.376,0\O,57,1.49668,54,97.0368,53,41.6242,0\C,57,1.80719,54,93.6073,53,-65.3058,0\H,59,1.09258,57,108.54,54,-62.6177,0\H,59,1.09267,57,113.962,54,56.3764,0\H,59,1.09302,57,109.646,54,175.725,0\H,36,2.24732,34,108.422,33,-108.023,0\C,63,1.09314,36,136.017,34,175.725,0\H,64,1.09297,63,108.502,36,113.904,0\H,64,1.09334,63,111.961,36,0.404091,0\S,64,1.80627,63,113.969,36,-130.381,0\O,67,1.49743,64,102.091,63,38.3901,0\C,67,1.80675,64,92.4221,63,-61.7951,0\H,69,1.09297,67,103.955,64,-175.571,0\H,69,1.09339,67,102.44,64,62.5743,0\H,69,1.09344,67,115.418,64,-50.8982,0\H,68,2.24396,67,134.562,64,32.1548,0\C,73,1.09267,68,157.484,67,110.329,0\H,74,1.09304,73,113.376,68,131.118,0\H,74,1.09377,73,105.997,68,-117.362,0\S,74,1.80607,73,110.974,68,-1.12654,0\O,77,1.49741,74,108.42,73,-176.089,0\C,77,1.80734,74,97.6595,73,-64.4157,0\H,79,1.0924,77,105.777,74,-60.753,0\H,79,1.09277,77,116.024,74,58.992,0\H,79,1.09328,77,113.709,74,-176.15,0\H,73,2.07438,68,64.3177,67,-132.74,0\C,83,1.09334,73,153.443,68,121.717,0\H,84,1.09222,83,107.283,73,86.8787,0\H,84,1.09375,83,111.409,73,-42.1012,0\S,84,1.80694,83,110.689,73,-160.64,0\O,87,1.49694,84,97.7277,83,-179.437,0\C,87,1.80691,84,97.7859,83,-73.0197,0\H,89,1.09255,87,105.155,84,59.7129,0\H,89,1.09324,87,107.122,84,-49.1219,0\H,89,1.0933,87,111.482,84,-179.768,0\H,58,2.27141,57,124.932,54,-159.371,0\C,93,1.09273,58,159.893,57,130.635,0\H,94,1.09213,93,115.313,58,173.766,0\H,94,1.09308,93,112.444,58,-70.0551,0\S,94,1.80661,93,108.701,58,52.7452,0\O,97,1.49826,94,105.515,93,140.477,0\C,97,1.80698,94,98.4742,93,29.8467,0\H,99,1.09256,97,109.3,94,60.9228,0\H,99,1.09322,97,106.816,94,-54.6889,0\H,99,1.09384,97,106.689,94,-173.983,0\H,51,2.32219,49,136.025,44,108.165,0\C,103,1.093,51,136.396,49,20.6326,0\H,104,1.09332,103,115.63,51,-106.936,0\H,104,1.09342,103,103.618,51,137.095,0\S,104,1.80592,103,112.57,51,21.3139,0\O,107,1.49737,104,109.227,103,-85.5898,0\C,107,1.80742,104,94.1831,103,169.418,0\H,109,1.09225,107,110.272,104,174.527,0\H,109,1.09263,107,108.417,104,58.0518,0\H,109,1.09311,107,107.822,104,-61.0305,0\H,105,2.30748,104,109.521,103,54.7664,0\C,113,1.09274,105,129.705,104,-119.043,0\H,114,1.09275,113,112.359,105,1.75277,0\H,114,1.09303,113,106.569,105,128.956,0\S,114,1.80672,113,105.195,105,-114.927,0\O,117,1.49774,114,105.067,113,161.179,0\C,117,1.80736,114,92.2712,113,64.7858,0\H,119,1.09232,117,112.336,114,-50.9135,0\H,119,1.09264,117,108.69,114,-172.527,0\H,119,1.0933,117,106.922,114,69.4612,0\H,40,2.32955,39,109.45,37,63.6969,0\C,123,1.09315,40,120.158,39,160.268,0\H,124,1.09301,123,108.782,40,-31.304,0\H,124,1.09387,123,104.601,40,-154.045,0\S,124,1.80654,123,109.018,40,90.4893,0\O,127,1.49738,124,100.431,123,-46.1188,0\C,127,1.80621,124,98.3969,123,62.1721,0\H,129,1.09287,127,109.423,124,48.1734,0\H,129,1.09299,127,112.67,124,172.507,0\H,129,1.0932,127,110.063,124,-65.0285,0\H,16,2.33985,14,131.304,12,-33.1132,0\C,133,1.0932,16,155.272,14,92.9641,0\H,134,1.09251,133,109.988,16,-81.4651,0\H,134,1.09259,133,117.175,16,30.9633,0\S,134,1.80675,133,105.725,16,156.7,0\O,137,1.49664,134,98.4502,133,55.1421,0\C,137,1.80638,134,97.3757,133,151.727,0\H,139,1.0932,137,105.66,134,-164.539,0\H,139,1.09322,137,111.546,134,76.1839,0\H,139,1.09324,137,105.928,134,-43.5658,0\H,55,2.34909,54,157.482,53,-122.758,0\C,143,1.09301,55,107.153,54,36.1825,0\H,144,1.09318,143,111.967,55,-37.0487,0\H,144,1.09333,143,114.988,55,-173.361,0\S,144,1.80633,143,102.099,55,78.7384,0\O,147,1.49663,144,109.783,143,46.466,0\C,147,1.80686,144,97.3062,143,162.059,0\H,149,1.0931,147,112.097,144,-179.827,0\H,149,1.09317,147,105.176,144,-59.4694,0\H,149,1.09326,147,111.863,144,57.09,0\H,13,2.35578,12,136.663,11,-67.1073,0\C,153,1.09302,13,115.157,12,-130.648,0\H,154,1.09224,153,108.542,13,95.9388,0\H,154,1.09303,153,114.565,13,-24.1159,0\S,154,1.80708,153,111.772,13,-144.41,0\O,157,1.49719,154,103.185,153,-57.7942,0\C,157,1.80649,154,98.9765,153,-155.343,0\H,159,1.09299,157,109.271,154,174.115,0\H,159,1.09299,157,99.9411,154,-56.4391,0\H,159,1.0932,157,102.653,154,55.1849,0\O,155,2.19152,154,165.214,153,-0.161923,0\S,163,1.4966,155,154.146,154,-96.5082,0\C,164,1.80719,163,100.329,155,101.399,0\H,165,1.09208,164,106.594,163,172.596,0\H,165,1.09269,164,103.703,163,-73.2578,0\H,165,1.09345,164,112.591,163,43.1069,0\C,164,1.80729,163,104.182,155,-163.715,0\H,169,1.09291,164,108.633,163,-34.7765,0\H,169,1.09306,164,118.584,163,-158.371,0\H,169,1.09382,164,104.141,163,85.4312,0\H,140,2.37409,139,130.785,137,102.024,0\C,173,1.09356,140,116.945,139,27.9802,0\H,174,1.09229,173,115.953,140,-21.1746,0\H,174,1.09297,173,110.209,140,106.837,0\S,174,1.80681,173,108.635,140,-143.344,0\O,177,1.49729,174,109.261,173,172.245,0\C,177,1.80796,174,92.5691,173,66.7035,0\H,179,1.09243,177,113.783,174,102.942,0\H,179,1.0928,177,96.178,174,-136.704,0\H,179,1.09326,177,107.215,174,-28.1267,0\H,78,2.40694,77,125.57,74,-48.6549,0\C,183,1.09373,78,124.623,77,81.5104,0\H,184,1.09252,183,105.109,78,66.5194,0\H,184,1.09314,183,121.063,78,-48.5581,0\S,184,1.80749,183,108.594,78,-174.951,0\O,187,1.49767,184,94.499,183,-58.5029,0\C,187,1.80648,184,97.3364,183,-167.072,0\H,189,1.09276,187,103.714,184,-76.4235,0\H,189,1.09325,187,107.203,184,41.174,0\H,189,1.09332,187,104.984,184,161.769,0\H,192,2.27966,189,124.05,187,-41.8086,0\C,193,1.09286,192,122.976,189,176.872,0\H,194,1.09277,193,109.742,192,132.863,0\H,194,1.09316,193,106.873,192,16.7186,0\S,194,1.80686,193,112.261,192,-99.5273,0\O,197,1.49651,194,108.459,193,122.356,0\C,197,1.80671,194,96.5849,193,-136.248,0\H,199,1.09229,197,118.951,194,-176.277,0\H,199,1.09301,197,101.041,194,-53.0535,0\H,199,1.09336,197,108.574,194,60.589,0\H,2,2.42761,1,110.796,3,138.612,0\C,203,1.09331,2,125.778,1,-175.344,0\H,204,1.09257,203,109.864,2,153.657,0\H,204,1.0926,203,108.561,2,-91.7996,0\S,204,1.8073,203,108.514,2,19.8636,0\O,207,1.49735,204,97.7359,203,-176.285,0\C,207,1.80705,204,97.5131,203,79.9774,0\H,209,1.0927,207,114.534,204,179.789,0\H,209,1.0928,207,107.447,204,54.9744,0\H,209,1.09299,207,108.086,204,-66.1422,0\H,148,2.47192,147,101.517,144,-61.0392,0\C,213,1.09277,148,147.924,147,144.066,0\H,214,1.09262,213,110.939,148,-14.7839,0\H,214,1.09348,213,118.574,148,-145.817,0\S,214,1.80749,213,101.861,148,99.5017,0\O,217,1.49659,214,109.003,213,-169.666,0\C,217,1.80781,214,99.0695,213,-61.1046,0\H,219,1.0922,217,111.758,214,-55.9888,0\H,219,1.09286,217,104.423,214,-176.594,0\H,219,1.09326,217,111.988,214,66.2593,0\H,216,2.15224,214,140.194,213,-77.4445,0\C,223,1.09227,216,145.567,214,171.387,0\H,224,1.09318,223,105.574,216,-133.909,0\H,224,1.09381,223,110.495,216,-5.67016,0\S,224,1.80658,223,107.284,216,115.169,0\O,227,1.4972,224,96.2859,223,58.0375,0\C,227,1.80729,224,94.003,223,-41.9374,0\H,229,1.09235,227,112.534,224,-56.1488,0\H,229,1.09262,227,108.968,224,-174.388,0\H,229,1.09332,227,111.687,224,67.5525,0\H,76,2.50152,74,130.878,73,-145.105,0\C,233,1.09352,76,134.096,74,142.27,0\H,234,1.09262,233,113.504,76,-140.066,0\H,234,1.09312,233,102.861,76,109.412,0\S,234,1.80712,233,113.055,76,-10.8062,0\O,237,1.49645,234,102.557,233,52.3774,0\C,237,1.80716,234,101.354,233,161.683,0\H,239,1.09275,237,113.023,234,83.3978,0\H,239,1.09284,237,104.35,234,-163.585,0\H,239,1.09296,237,108.386,234,-44.8687,0\H,236,2.33562,234,132.853,233,127.225,0\C,243,1.09364,236,130.388,234,23.6542,0\H,244,1.0926,243,105.78,236,142.018,0\H,244,1.09289,243,113.099,236,29.9904,0\S,244,1.80675,243,116.708,236,-95.8791,0\O,247,1.49686,244,101.251,243,61.7184,0\C,247,1.80719,244,93.1095,243,170.858,0\H,249,1.09287,247,110.948,244,-56.9073,0\H,249,1.09291,247,108.941,244,70.201,0\H,249,1.09356,247,97.4984,244,-172.279,0\H,168,2.50737,165,154.575,164,26.889,0\C,253,1.09363,168,112.828,165,91.3184,0\H,254,1.09287,253,113.555,168,-86.6876,0\H,254,1.09293,253,109.157,168,30.7996,0\S,254,1.80697,253,101.87,168,149.69,0\O,257,1.49669,254,106.297,253,82.7515,0\C,257,1.80669,254,99.147,253,-18.9187,0\H,259,1.0927,257,108.002,254,52.901,0\H,259,1.0933,257,106.152,254,-66.7243,0\H,259,1.09336,257,107.984,254,164.487,0\H,103,2.53672,51,81.5369,49,121.328,0\C,263,1.09217,103,152.78,51,-126.314,0\H,264,1.09362,263,118.822,103,64.1605,0\H,264,1.09365,263,102.468,103,-173.297,0\S,264,1.80747,263,112.788,103,-55.4982,0\O,267,1.49704,264,112.086,263,-46.491,0\C,267,1.80632,264,95.4173,263,-151.829,0\H,269,1.09249,267,111.535,264,-53.2605,0\H,269,1.09345,267,105.51,264,65.0883,0\H,269,1.09377,267,109.663,264,-173.15,0\O,143,2.61771,55,66.9701,54,-78.4503,0\S,273,1.49704,143,165.233,55,57.2882,0\C,274,1.80702,273,106.948,143,53.9993,0\H,275,1.09258,274,106.919,273,166.24,0\H,275,1.0927,274,102.83,273,-70.705,0\H,275,1.09331,274,108.154,273,45.7889,0\C,274,1.80715,273,101.975,143,150.095,0\H,279,1.092,274,114.218,273,41.4114,0\H,279,1.09288,274,113.426,273,153.893,0\H,279,1.09352,274,111.671,273,-77.1802,0\H,146,2.66579,144,146.348,143,-27.2886,0\C,283,1.09323,146,128.791,144,-65.6119,0\H,284,1.09286,283,115.172,146,-52.8479,0\H,284,1.09374,283,108.547,146,-173.635,0\S,284,1.8068,283,108.321,146,68.3017,0\O,287,1.49616,284,102.609,283,58.4176,0\C,287,1.8064,284,100.726,283,170.482,0\H,289,1.0927,287,102.556,284,165.641,0\H,289,1.09293,287,103.746,284,-80.9759,0\H,289,1.09301,287,106.807,284,41.685,0\O,142,2.82303,139,118.207,137,168.92,0\S,293,1.49681,142,101.986,139,178.691,0\C,294,1.80676,293,100.444,142,-119.13,0\H,295,1.09275,294,110.092,293,-129.253,0\H,295,1.09351,294,102.85,293,-21.4156,0\H,295,1.09375,294,117.904,293,96.6277,0\C,294,1.80741,293,98.7824,142,149.155,0\H,299,1.09283,294,107.96,293,153.765,0\H,299,1.0932,294,109.062,293,-81.7381,0\H,299,1.09322,294,105.755,293,35.4525,0\\\@

 Total job time:  61.36s(wall), 189.50s(cpu) 
 Sat Dec  4 06:25:34 2021

        *************************************************************
        *                                                           *
        *  Thank you very much for using Q-Chem.  Have a nice day.  *
        *                                                           *
        *************************************************************


