                  Welcome to Q-Chem
     A Quantum Leap Into The Future Of Chemistry


 Q-Chem 5.2 (devel), Q-Chem, Inc., Pleasanton, CA (2019)

 Yihan Shao,  Zhengting Gan,  E. Epifanovsky,  A. T. B. Gilbert,  M. Wormit,  
 J. Kussmann,  A. W. Lange,  A. Behn,  Jia Deng,  Xintian Feng,  D. Ghosh,  
 M. Goldey,  P. R. Horn,  L. D. Jacobson,  I. Kaliman,  T. Kus,  A. Landau,  
 Jie Liu,  E. I. Proynov,  R. M. Richard,  R. P. Steele,  E. J. Sundstrom,  
 H. L. Woodcock III,  P. M. Zimmerman,  D. Zuev,  B. Alam,  B. Albrecht,  
 E. Alguire,  S. A. Baeppler,  D. Barton,  Z. Benda,  Y. A. Bernard,  
 E. J. Berquist,  K. B. Bravaya,  H. Burton,  K. Carter-Fenk,  D. Casanova,  
 Chun-Min Chang,  Yunqing Chen,  A. Chien,  K. D. Closser,  M. P. Coons,  
 S. Coriani,  S. Dasgupta,  A. L. Dempwolff,  M. Diedenhofen,  Hainam Do,  
 R. G. Edgar,  Po-Tung Fang,  S. Faraji,  S. Fatehi,  Qingguo Feng,  
 J. Fosso-Tande,  J. Gayvert,  Qinghui Ge,  A. Ghysels,  G. Gidofalvi,  
 J. Gomes,  J. Gonthier,  A. Gunina,  D. Hait,  M. W. D. Hanson-Heine,  
 P. H. P. Harbach,  A. W. Hauser,  M. F. Herbst,  J. E. Herr,  
 E. G. Hohenstein,  Z. C. Holden,  Kerwin Hui,  B. C. Huynh,  T.-C. Jagau,  
 Hyunjun Ji,  B. Kaduk,  K. Khistyaev,  Jaehoon Kim,  P. Klunzinger,  K. Koh,  
 D. Kosenkov,  L. Koulias,  T. Kowalczyk,  C. M. Krauter,  A. Kunitsa,  
 Ka Un Lao,  A. Laurent,  K. V. Lawler,  Joonho Lee,  D. Lefrancois,  
 S. Lehtola,  D. S. Levine,  Yi-Pei Li,  You-Sheng Lin,  Fenglai Liu,  
 Kuan-Yu Liu,  E. Livshits,  M. Loipersberger,  A. Luenser,  P. Manohar,  
 E. Mansoor,  S. F. Manzer,  Shan-Ping Mao,  Yuezhi Mao,  N. Mardirossian,  
 A. V. Marenich,  T. Markovich,  L. A. Martinez-Martinez,  S. A. Maurer,  
 N. J. Mayhall,  S. C. McKenzie,  J.-M. Mewes,  P. Morgante,  A. F. Morrison,  
 J. W. Mullinax,  K. Nanda,  T. S. Nguyen-Beck,  R. Olivares-Amaya,  
 J. A. Parkhill,  S. K. Paul,  F. Pavosevic,  Zheng Pei,  T. M. Perrine,  
 F. Plasser,  P. Pokhilko,  S. Prager,  A. Prociuk,  E. Ramos,  B. Rana,  
 D. R. Rehn,  F. Rob,  M. Scheurer,  M. Schneider,  N. Sergueev,  
 S. M. Sharada,  S. Sharma,  D. W. Small,  T. Stauch,  C. J. Stein,  
 T. Stein,  Yu-Chuan Su,  S. P. Veccham,  Zhen Tao,  A. J. W. Thom,  
 A. Tkatchenko,  T. Tsuchimochi,  N. M. Tubman,  L. Vogt,  M. L. Vidal,  
 O. Vydrov,  M. A. Watson,  J. Wenzel,  M. de Wergifosse,  T. A. Wesolowski,  
 A. White,  J. Witte,  A. Yamada,  Jun Yang,  K. Yao,  S. Yeganeh,  
 S. R. Yost,  Zhi-Qiang You,  A. Zech,  Igor Ying Zhang,  Xing Zhang,  
 Yan Zhao,  Ying Zhu,  B. R. Brooks,  G. K. L. Chan,  C. J. Cramer,  
 M. S. Gordon,  W. J. Hehre,  A. Klamt,  M. W. Schmidt,  C. D. Sherrill,  
 D. G. Truhlar,  A. Aspuru-Guzik,  R. Baer,  A. T. Bell,  N. A. Besley,  
 Jeng-Da Chai,  A. E. DePrince, III,  R. A. DiStasio Jr.,  A. Dreuw,  
 B. D. Dunietz,  T. R. Furlani,  Chao-Ping Hsu,  Yousung Jung,  Jing Kong,  
 D. S. Lambrecht,  WanZhen Liang,  C. Ochsenfeld,  V. A. Rassolov,  
 L. V. Slipchenko,  J. E. Subotnik,  T. Van Voorhis,  J. M. Herbert,  
 A. I. Krylov,  P. M. W. Gill,  M. Head-Gordon

 Contributors to earlier versions of Q-Chem not listed above: 
 R. D. Adamson,  B. Austin,  J. Baker,  G. J. O. Beran,  K. Brandhorst,  
 S. T. Brown,  E. F. C. Byrd,  A. K. Chakraborty,  C.-L. Cheng,  
 Siu Hung Chien,  D. M. Chipman,  D. L. Crittenden,  H. Dachsel,  
 R. J. Doerksen,  A. D. Dutoi,  L. Fusti-Molnar,  W. A. Goddard III,  
 A. Golubeva-Zadorozhnaya,  S. R. Gwaltney,  G. Hawkins,  A. Heyden,  
 S. Hirata,  G. Kedziora,  F. J. Keil,  C. Kelley,  Jihan Kim,  R. A. King,  
 R. Z. Khaliullin,  P. P. Korambath,  W. Kurlancheek,  A. M. Lee,  M. S. Lee,  
 S. V. Levchenko,  Ching Yeh Lin,  D. Liotard,  R. C. Lochan,  I. Lotan,  
 P. E. Maslen,  N. Nair,  D. P. O'Neill,  D. Neuhauser,  E. Neuscamman,  
 C. M. Oana,  R. Olson,  B. Peters,  R. Peverati,  P. A. Pieniazek,  
 Y. M. Rhee,  J. Ritchie,  M. A. Rohrdanz,  E. Rosta,  N. J. Russ,  
 H. F. Schaefer III,  N. E. Schultz,  N. Shenvi,  A. C. Simmonett,  A. Sodt,  
 D. Stuck,  K. S. Thanthiriwatte,  V. Vanovschi,  Tao Wang,  A. Warshel,  
 C. F. Williams,  Q. Wu,  X. Xu,  W. Zhang

 Please cite Q-Chem as follows:
 Y. Shao et al., Mol. Phys. 113, 184-215 (2015)
 DOI: 10.1080/00268976.2014.952696

 Q-Chem 5.2.2 for Intel X86 EM64T Linux

 Parts of Q-Chem use Armadillo 9.800.1 (Horizon Scraper).
 http://arma.sourceforge.net/

 Q-Chem begins on Fri Dec  3 22:46:53 2021  

Host: node028
0

     Scratch files written to /home/ymao90/scratch/r7.00_frame_0070_spade_B3LYP_dp20211203120854//

Checking the input file for inconsistencies... 	...done.

--------------------------------------------------------------
User input:
--------------------------------------------------------------
$molecule
0 1
--
0 1
C    26.22900   24.25800   26.21400  
C    26.28300   25.74600   26.60000  
C    24.92200   26.43100   26.80300  
C    23.93900   25.61800   27.66100  
C    23.84600   24.12300   27.31400  
C    25.23200   23.49200   27.09900  
H    25.11200   27.42200   27.23300  
H    26.69900   25.75900   27.61500  
H    25.79800   24.12200   25.21500  
H    27.22800   23.80600   26.24900  
H    24.32900   25.65100   28.68600  
H    22.93000   26.03400   27.55200  
H    23.18200   23.65900   28.05300  
H    23.32400   24.07000   26.35000  
H    25.64000   23.38700   28.11200  
H    25.23900   22.47300   26.69500  
H    24.41400   26.68800   25.86400  
N    27.12200   26.41700   25.60900  
H    27.02700   26.28100   24.61000  
C    28.01000   27.42700   25.91400  
H    28.56400   27.76200   25.01800  
O    28.22200   27.77200   27.06300  
--
0 1
C    24.04300   28.83500   23.73800  
H    24.71400   29.69300   23.82400  
H    23.50600   28.59600   24.65900  
H    24.63300   27.93900   23.52700  
S    22.91200   29.09000   22.35100  
C    21.91600   30.41400   23.07200  
H    22.57700   31.08400   23.62700  
H    21.43800   31.11900   22.38700  
H    21.10500   30.02100   23.69100  
O    21.93300   27.97400   22.54200  
C    22.42900   27.93200   31.05400  
H    21.66500   28.27900   30.35400  
H    22.66300   28.77100   31.71400  
H    23.25300   27.59000   30.42200  
S    21.83900   26.58700   32.10800  
C    21.57400   25.60900   30.61200  
H    20.68300   25.84400   30.02500  
H    22.49200   25.45100   30.03900  
H    21.34200   24.63000   31.03900  
O    20.43600   26.96000   32.47400  
C    25.73100   30.10200   31.34500  
H    25.55800   29.38700   30.53700  
H    24.86800   30.75500   31.49700  
H    26.62200   30.72000   31.20700  
S    25.91000   29.07600   32.82200  
C    27.53700   28.40600   32.41100  
H    27.74400   27.63400   33.15700  
H    27.39500   27.84600   31.48300  
H    28.29400   29.19300   32.45500  
O    24.99400   27.96200   32.41800  
C    30.31100   29.06200   29.42400  
H    30.10700   28.03000   29.13100  
H    30.04600   29.11100   30.48300  
H    29.68300   29.81000   28.93400  
S    32.03500   29.51400   29.12400  
C    32.57600   28.16300   30.19500  
H    32.56500   27.18600   29.70500  
H    33.60600   28.28400   30.54200  
H    31.82600   28.13100   30.98900  
O    32.24500   30.71000   30.00100  
C    27.70800   21.67400   28.83500  
H    27.31000   21.00300   28.07000  
H    27.05300   21.62300   29.70800  
H    27.70200   22.68500   28.42000  
S    29.34000   21.26300   29.49400  
C    29.92300   20.47800   27.97400  
H    29.50600   19.47200   27.88200  
H    29.66800   21.18400   27.18000  
H    31.01100   20.38400   28.03100  
O    28.98800   20.04000   30.28300  
C    28.41300   35.21600   27.89600  
H    27.41100   35.65100   27.92500  
H    29.09200   36.06500   27.78800  
H    28.49500   34.61700   26.98500  
S    28.84700   34.16500   29.30000  
C    30.56100   33.82000   28.84600  
H    30.92200   33.02600   29.50500  
H    30.57700   33.51500   27.79700  
H    31.05500   34.76100   29.10200  
O    28.08100   32.88700   29.15300  
C    25.08100   23.73400   32.05100  
H    24.29000   24.22800   31.48200  
H    25.57600   23.06900   31.33800  
H    24.66400   23.17400   32.89200  
S    26.32100   24.77400   32.85500  
C    27.47900   24.55300   31.48600  
H    27.29500   25.23700   30.65300  
H    28.45500   24.74100   31.94100  
H    27.60300   23.52400   31.13700  
O    26.78900   23.89300   33.97100  
C    19.71500   22.14000   28.13300  
H    20.69300   22.40800   28.53900  
H    18.97300   22.45300   28.87200  
H    19.59500   21.08400   27.87900  
S    19.54100   23.08700   26.60400  
C    20.98800   22.27300   25.89000  
H    21.04800   22.73700   24.90200  
H    21.85900   22.48000   26.51600  
H    20.84400   21.19100   25.93800  
O    20.11200   24.42100   26.97100  
C    30.98900   27.14100   22.71400  
H    30.26500   26.53300   23.26300  
H    30.60400   28.12300   22.42700  
H    31.32800   26.71300   21.76700  
S    32.52800   27.13300   23.66100  
C    33.37000   28.53600   22.89400  
H    32.80800   29.37300   23.31700  
H    34.45100   28.59200   23.04900  
H    33.19900   28.55800   21.81500  
O    33.16800   25.88200   23.14500  
C    18.57300   26.93500   22.30800  
H    19.40700   26.51500   21.74000  
H    17.84600   26.12700   22.42500  
H    18.13200   27.78900   21.78800  
S    19.10000   27.54600   23.92400  
C    19.64300   25.93700   24.54100  
H    20.48000   25.62800   23.90900  
H    20.05400   26.18900   25.52100  
H    18.78400   25.27200   24.66600  
O    17.81500   27.67100   24.68200  
C    17.65900   25.19400   29.73200  
H    18.42900   25.46000   29.00200  
H    17.64000   26.08500   30.36500  
H    17.91900   24.39000   30.42500  
S    16.21300   24.91900   28.68400  
C    15.63100   26.62000   28.49800  
H    16.52000   27.02200   28.00400  
H    14.70800   26.66700   27.91500  
H    15.47300   26.99600   29.51200  
O    15.14400   24.27300   29.51000  
C    19.20700   17.33400   30.02200  
H    18.46100   18.03000   30.41200  
H    18.98300   16.27600   30.17700  
H    20.16900   17.67800   30.41100  
S    19.58200   17.66800   28.28600  
C    20.93500   16.47100   28.25300  
H    20.44400   15.51600   28.45700  
H    21.34100   16.34600   27.24600  
H    21.75000   16.56900   28.97400  
O    20.28600   18.97800   28.45600  
C    29.04800   30.88200   26.39800  
H    28.37500   31.08400   25.56100  
H    28.68500   30.03700   26.99000  
H    29.23600   31.75800   27.02400  
S    30.57200   30.36900   25.57400  
C    30.79400   31.92600   24.68400  
H    29.86200   32.20200   24.18500  
H    31.00300   32.66000   25.46700  
H    31.62100   31.80800   23.97900  
O    30.27700   29.41500   24.45900  
C    17.90600   21.48400   31.23200  
H    17.42000   21.07600   32.12200  
H    17.55800   22.51400   31.12500  
H    17.51300   20.83600   30.44500  
S    19.71000   21.44400   31.33800  
C    19.85500   20.13200   32.57200  
H    19.62800   20.53500   33.56300  
H    19.08000   19.38300   32.39000  
H    20.87500   19.75000   32.66700  
O    19.80400   22.73300   32.09400  
C    28.11800   27.84300   19.62700  
H    28.65700   28.65600   19.13600  
H    28.85900   27.24600   20.16500  
H    27.57000   27.25300   18.88800  
S    27.04400   28.48400   20.93100  
C    28.22300   29.75400   21.44400  
H    29.23000   29.38200   21.23900  
H    27.99300   30.69200   20.93200  
H    28.11700   29.96400   22.51200  
O    27.13200   27.39200   21.95100  
C    24.63300   33.68100   27.13000  
H    25.70700   33.67100   26.93000  
H    24.10600   34.38500   26.48200  
H    24.44300   33.92100   28.18000  
S    23.97100   32.01000   26.94600  
C    25.15900   31.08400   27.94500  
H    25.53400   31.65100   28.80100  
H    24.70900   30.19100   28.38600  
H    26.00400   30.75500   27.33500  
O    24.27500   31.66300   25.52100  
C    20.09400   22.94600   21.06700  
H    21.15000   22.87400   21.33900  
H    19.69600   22.14800   20.43400  
H    19.97200   23.91500   20.57600  
S    19.00200   23.08700   22.49900  
C    19.09900   21.32200   22.87300  
H    20.10500   20.96200   23.10400  
H    18.41900   21.08900   23.69700  
H    18.81900   20.79700   21.95700  
O    17.60700   23.29500   21.99700  
C    19.45000   30.05000   27.05300  
H    18.82500   29.39400   26.44200  
H    18.99000   30.20600   28.03300  
H    19.68500   31.04000   26.65600  
S    20.99600   29.15200   27.31400  
C    20.14400   27.82800   28.19900  
H    19.66200   27.05900   27.59000  
H    20.95000   27.19800   28.58400  
H    19.51600   28.17900   29.02200  
O    21.63100   30.03400   28.34400  
C    23.32200   18.95500   22.22300  
H    22.33600   19.31300   21.91500  
H    23.87700   18.47700   21.41100  
H    23.05300   18.30600   23.06000  
S    24.25000   20.35200   22.89400  
C    25.17200   19.41800   24.13500  
H    24.42500   19.14900   24.88700  
H    25.70000   18.53200   23.77300  
H    25.94300   20.09200   24.51800  
O    23.14500   21.20400   23.43500  
C    23.63700   19.48000   27.88900  
H    24.50100   19.81400   27.30900  
H    23.73100   18.39100   27.89600  
H    22.64200   19.84100   27.61600  
S    24.12400   19.97700   29.55600  
C    22.54700   19.69400   30.39100  
H    22.10000   18.69800   30.44700  
H    22.51200   20.21200   31.35300  
H    21.84000   20.12400   29.67700  
O    24.29000   21.44900   29.33900  
C    25.16500   23.97700   21.84000  
H    26.02600   23.93600   21.16700  
H    25.47400   24.11300   22.88000  
H    24.55800   23.09400   21.62600  
S    24.21000   25.44700   21.40300  
C    23.29100   25.23200   22.94500  
H    22.40900   25.86900   22.84100  
H    22.93200   24.20100   23.00200  
H    23.88500   25.61100   23.78000  
O    23.28600   24.96700   20.32800  
C    28.03400   21.54800   23.94300  
H    27.88800   22.01300   24.92100  
H    27.29400   21.90000   23.21900  
H    28.23600   20.47900   24.05100  
S    29.55300   22.30900   23.32900  
C    29.03100   24.03700   23.25700  
H    29.64400   24.56600   23.99200  
H    29.02700   24.53000   22.28200  
H    28.01200   24.05900   23.65100  
O    29.47000   21.87300   21.89900  
C    27.65600   15.37000   29.27500  
H    27.09200   14.65900   29.88300  
H    28.43700   14.82600   28.73800  
H    28.03000   16.05500   30.04000  
S    26.56900   16.09700   28.02800  
C    27.74300   17.23200   27.25400  
H    28.74200   16.80100   27.15100  
H    27.26300   17.49800   26.30900  
H    27.74600   18.05900   27.96800  
O    25.67000   17.09200   28.69300  
C    29.73800   25.02900   28.53100  
H    30.27200   25.85100   29.01500  
H    28.97300   25.58200   27.98000  
H    29.14300   24.48800   29.27100  
S    30.63700   23.96300   27.38100  
C    31.23200   25.49000   26.62000  
H    31.81500   25.07300   25.79500  
H    30.44300   26.13400   26.22400  
H    31.92900   25.94200   27.33100  
O    29.59500   23.43400   26.44500  
$end

$rem
JOBTYPE  SP
METHOD  B3LYP
BASIS  6-31+G(D)
SYMMETRY  FALSE
SYM_IGNORE  TRUE
MEM_TOTAL  16000
MEM_STATIC  8000
MAX_SUB_FILE_NUM  16000
BASIS_LIN_DEP_THRESH  6
THRESH  14
SCF_CONVERGENCE  8
GEN_SCFMAN  TRUE
SCF_GUESS  SAD
FD_MAT_VEC_PROD  FALSE
XC_GRID  000075000302
NL_GRID  1
MAX_SCF_CYCLES  200
ENV_METHOD  B3LYP
GEN_SCFMAN_EMBED  TRUE
SPADE_PARTITION  TRUE
$end

$development
embedding_early_stop  1
$end

--------------------------------------------------------------
 ----------------------------------------------------------------
             Standard Nuclear Orientation (Angstroms)
    I     Atom           X                Y                Z
 ----------------------------------------------------------------
    1      C      26.2290000000    24.2580000000    26.2140000000
    2      C      26.2830000000    25.7460000000    26.6000000000
    3      C      24.9220000000    26.4310000000    26.8030000000
    4      C      23.9390000000    25.6180000000    27.6610000000
    5      C      23.8460000000    24.1230000000    27.3140000000
    6      C      25.2320000000    23.4920000000    27.0990000000
    7      H      25.1120000000    27.4220000000    27.2330000000
    8      H      26.6990000000    25.7590000000    27.6150000000
    9      H      25.7980000000    24.1220000000    25.2150000000
   10      H      27.2280000000    23.8060000000    26.2490000000
   11      H      24.3290000000    25.6510000000    28.6860000000
   12      H      22.9300000000    26.0340000000    27.5520000000
   13      H      23.1820000000    23.6590000000    28.0530000000
   14      H      23.3240000000    24.0700000000    26.3500000000
   15      H      25.6400000000    23.3870000000    28.1120000000
   16      H      25.2390000000    22.4730000000    26.6950000000
   17      H      24.4140000000    26.6880000000    25.8640000000
   18      N      27.1220000000    26.4170000000    25.6090000000
   19      H      27.0270000000    26.2810000000    24.6100000000
   20      C      28.0100000000    27.4270000000    25.9140000000
   21      H      28.5640000000    27.7620000000    25.0180000000
   22      O      28.2220000000    27.7720000000    27.0630000000
   23      C      24.0430000000    28.8350000000    23.7380000000
   24      H      24.7140000000    29.6930000000    23.8240000000
   25      H      23.5060000000    28.5960000000    24.6590000000
   26      H      24.6330000000    27.9390000000    23.5270000000
   27      S      22.9120000000    29.0900000000    22.3510000000
   28      C      21.9160000000    30.4140000000    23.0720000000
   29      H      22.5770000000    31.0840000000    23.6270000000
   30      H      21.4380000000    31.1190000000    22.3870000000
   31      H      21.1050000000    30.0210000000    23.6910000000
   32      O      21.9330000000    27.9740000000    22.5420000000
   33      C      22.4290000000    27.9320000000    31.0540000000
   34      H      21.6650000000    28.2790000000    30.3540000000
   35      H      22.6630000000    28.7710000000    31.7140000000
   36      H      23.2530000000    27.5900000000    30.4220000000
   37      S      21.8390000000    26.5870000000    32.1080000000
   38      C      21.5740000000    25.6090000000    30.6120000000
   39      H      20.6830000000    25.8440000000    30.0250000000
   40      H      22.4920000000    25.4510000000    30.0390000000
   41      H      21.3420000000    24.6300000000    31.0390000000
   42      O      20.4360000000    26.9600000000    32.4740000000
   43      C      25.7310000000    30.1020000000    31.3450000000
   44      H      25.5580000000    29.3870000000    30.5370000000
   45      H      24.8680000000    30.7550000000    31.4970000000
   46      H      26.6220000000    30.7200000000    31.2070000000
   47      S      25.9100000000    29.0760000000    32.8220000000
   48      C      27.5370000000    28.4060000000    32.4110000000
   49      H      27.7440000000    27.6340000000    33.1570000000
   50      H      27.3950000000    27.8460000000    31.4830000000
   51      H      28.2940000000    29.1930000000    32.4550000000
   52      O      24.9940000000    27.9620000000    32.4180000000
   53      C      30.3110000000    29.0620000000    29.4240000000
   54      H      30.1070000000    28.0300000000    29.1310000000
   55      H      30.0460000000    29.1110000000    30.4830000000
   56      H      29.6830000000    29.8100000000    28.9340000000
   57      S      32.0350000000    29.5140000000    29.1240000000
   58      C      32.5760000000    28.1630000000    30.1950000000
   59      H      32.5650000000    27.1860000000    29.7050000000
   60      H      33.6060000000    28.2840000000    30.5420000000
   61      H      31.8260000000    28.1310000000    30.9890000000
   62      O      32.2450000000    30.7100000000    30.0010000000
   63      C      27.7080000000    21.6740000000    28.8350000000
   64      H      27.3100000000    21.0030000000    28.0700000000
   65      H      27.0530000000    21.6230000000    29.7080000000
   66      H      27.7020000000    22.6850000000    28.4200000000
   67      S      29.3400000000    21.2630000000    29.4940000000
   68      C      29.9230000000    20.4780000000    27.9740000000
   69      H      29.5060000000    19.4720000000    27.8820000000
   70      H      29.6680000000    21.1840000000    27.1800000000
   71      H      31.0110000000    20.3840000000    28.0310000000
   72      O      28.9880000000    20.0400000000    30.2830000000
   73      C      28.4130000000    35.2160000000    27.8960000000
   74      H      27.4110000000    35.6510000000    27.9250000000
   75      H      29.0920000000    36.0650000000    27.7880000000
   76      H      28.4950000000    34.6170000000    26.9850000000
   77      S      28.8470000000    34.1650000000    29.3000000000
   78      C      30.5610000000    33.8200000000    28.8460000000
   79      H      30.9220000000    33.0260000000    29.5050000000
   80      H      30.5770000000    33.5150000000    27.7970000000
   81      H      31.0550000000    34.7610000000    29.1020000000
   82      O      28.0810000000    32.8870000000    29.1530000000
   83      C      25.0810000000    23.7340000000    32.0510000000
   84      H      24.2900000000    24.2280000000    31.4820000000
   85      H      25.5760000000    23.0690000000    31.3380000000
   86      H      24.6640000000    23.1740000000    32.8920000000
   87      S      26.3210000000    24.7740000000    32.8550000000
   88      C      27.4790000000    24.5530000000    31.4860000000
   89      H      27.2950000000    25.2370000000    30.6530000000
   90      H      28.4550000000    24.7410000000    31.9410000000
   91      H      27.6030000000    23.5240000000    31.1370000000
   92      O      26.7890000000    23.8930000000    33.9710000000
   93      C      19.7150000000    22.1400000000    28.1330000000
   94      H      20.6930000000    22.4080000000    28.5390000000
   95      H      18.9730000000    22.4530000000    28.8720000000
   96      H      19.5950000000    21.0840000000    27.8790000000
   97      S      19.5410000000    23.0870000000    26.6040000000
   98      C      20.9880000000    22.2730000000    25.8900000000
   99      H      21.0480000000    22.7370000000    24.9020000000
  100      H      21.8590000000    22.4800000000    26.5160000000
  101      H      20.8440000000    21.1910000000    25.9380000000
  102      O      20.1120000000    24.4210000000    26.9710000000
  103      C      30.9890000000    27.1410000000    22.7140000000
  104      H      30.2650000000    26.5330000000    23.2630000000
  105      H      30.6040000000    28.1230000000    22.4270000000
  106      H      31.3280000000    26.7130000000    21.7670000000
  107      S      32.5280000000    27.1330000000    23.6610000000
  108      C      33.3700000000    28.5360000000    22.8940000000
  109      H      32.8080000000    29.3730000000    23.3170000000
  110      H      34.4510000000    28.5920000000    23.0490000000
  111      H      33.1990000000    28.5580000000    21.8150000000
  112      O      33.1680000000    25.8820000000    23.1450000000
  113      C      18.5730000000    26.9350000000    22.3080000000
  114      H      19.4070000000    26.5150000000    21.7400000000
  115      H      17.8460000000    26.1270000000    22.4250000000
  116      H      18.1320000000    27.7890000000    21.7880000000
  117      S      19.1000000000    27.5460000000    23.9240000000
  118      C      19.6430000000    25.9370000000    24.5410000000
  119      H      20.4800000000    25.6280000000    23.9090000000
  120      H      20.0540000000    26.1890000000    25.5210000000
  121      H      18.7840000000    25.2720000000    24.6660000000
  122      O      17.8150000000    27.6710000000    24.6820000000
  123      C      17.6590000000    25.1940000000    29.7320000000
  124      H      18.4290000000    25.4600000000    29.0020000000
  125      H      17.6400000000    26.0850000000    30.3650000000
  126      H      17.9190000000    24.3900000000    30.4250000000
  127      S      16.2130000000    24.9190000000    28.6840000000
  128      C      15.6310000000    26.6200000000    28.4980000000
  129      H      16.5200000000    27.0220000000    28.0040000000
  130      H      14.7080000000    26.6670000000    27.9150000000
  131      H      15.4730000000    26.9960000000    29.5120000000
  132      O      15.1440000000    24.2730000000    29.5100000000
  133      C      19.2070000000    17.3340000000    30.0220000000
  134      H      18.4610000000    18.0300000000    30.4120000000
  135      H      18.9830000000    16.2760000000    30.1770000000
  136      H      20.1690000000    17.6780000000    30.4110000000
  137      S      19.5820000000    17.6680000000    28.2860000000
  138      C      20.9350000000    16.4710000000    28.2530000000
  139      H      20.4440000000    15.5160000000    28.4570000000
  140      H      21.3410000000    16.3460000000    27.2460000000
  141      H      21.7500000000    16.5690000000    28.9740000000
  142      O      20.2860000000    18.9780000000    28.4560000000
  143      C      29.0480000000    30.8820000000    26.3980000000
  144      H      28.3750000000    31.0840000000    25.5610000000
  145      H      28.6850000000    30.0370000000    26.9900000000
  146      H      29.2360000000    31.7580000000    27.0240000000
  147      S      30.5720000000    30.3690000000    25.5740000000
  148      C      30.7940000000    31.9260000000    24.6840000000
  149      H      29.8620000000    32.2020000000    24.1850000000
  150      H      31.0030000000    32.6600000000    25.4670000000
  151      H      31.6210000000    31.8080000000    23.9790000000
  152      O      30.2770000000    29.4150000000    24.4590000000
  153      C      17.9060000000    21.4840000000    31.2320000000
  154      H      17.4200000000    21.0760000000    32.1220000000
  155      H      17.5580000000    22.5140000000    31.1250000000
  156      H      17.5130000000    20.8360000000    30.4450000000
  157      S      19.7100000000    21.4440000000    31.3380000000
  158      C      19.8550000000    20.1320000000    32.5720000000
  159      H      19.6280000000    20.5350000000    33.5630000000
  160      H      19.0800000000    19.3830000000    32.3900000000
  161      H      20.8750000000    19.7500000000    32.6670000000
  162      O      19.8040000000    22.7330000000    32.0940000000
  163      C      28.1180000000    27.8430000000    19.6270000000
  164      H      28.6570000000    28.6560000000    19.1360000000
  165      H      28.8590000000    27.2460000000    20.1650000000
  166      H      27.5700000000    27.2530000000    18.8880000000
  167      S      27.0440000000    28.4840000000    20.9310000000
  168      C      28.2230000000    29.7540000000    21.4440000000
  169      H      29.2300000000    29.3820000000    21.2390000000
  170      H      27.9930000000    30.6920000000    20.9320000000
  171      H      28.1170000000    29.9640000000    22.5120000000
  172      O      27.1320000000    27.3920000000    21.9510000000
  173      C      24.6330000000    33.6810000000    27.1300000000
  174      H      25.7070000000    33.6710000000    26.9300000000
  175      H      24.1060000000    34.3850000000    26.4820000000
  176      H      24.4430000000    33.9210000000    28.1800000000
  177      S      23.9710000000    32.0100000000    26.9460000000
  178      C      25.1590000000    31.0840000000    27.9450000000
  179      H      25.5340000000    31.6510000000    28.8010000000
  180      H      24.7090000000    30.1910000000    28.3860000000
  181      H      26.0040000000    30.7550000000    27.3350000000
  182      O      24.2750000000    31.6630000000    25.5210000000
  183      C      20.0940000000    22.9460000000    21.0670000000
  184      H      21.1500000000    22.8740000000    21.3390000000
  185      H      19.6960000000    22.1480000000    20.4340000000
  186      H      19.9720000000    23.9150000000    20.5760000000
  187      S      19.0020000000    23.0870000000    22.4990000000
  188      C      19.0990000000    21.3220000000    22.8730000000
  189      H      20.1050000000    20.9620000000    23.1040000000
  190      H      18.4190000000    21.0890000000    23.6970000000
  191      H      18.8190000000    20.7970000000    21.9570000000
  192      O      17.6070000000    23.2950000000    21.9970000000
  193      C      19.4500000000    30.0500000000    27.0530000000
  194      H      18.8250000000    29.3940000000    26.4420000000
  195      H      18.9900000000    30.2060000000    28.0330000000
  196      H      19.6850000000    31.0400000000    26.6560000000
  197      S      20.9960000000    29.1520000000    27.3140000000
  198      C      20.1440000000    27.8280000000    28.1990000000
  199      H      19.6620000000    27.0590000000    27.5900000000
  200      H      20.9500000000    27.1980000000    28.5840000000
  201      H      19.5160000000    28.1790000000    29.0220000000
  202      O      21.6310000000    30.0340000000    28.3440000000
  203      C      23.3220000000    18.9550000000    22.2230000000
  204      H      22.3360000000    19.3130000000    21.9150000000
  205      H      23.8770000000    18.4770000000    21.4110000000
  206      H      23.0530000000    18.3060000000    23.0600000000
  207      S      24.2500000000    20.3520000000    22.8940000000
  208      C      25.1720000000    19.4180000000    24.1350000000
  209      H      24.4250000000    19.1490000000    24.8870000000
  210      H      25.7000000000    18.5320000000    23.7730000000
  211      H      25.9430000000    20.0920000000    24.5180000000
  212      O      23.1450000000    21.2040000000    23.4350000000
  213      C      23.6370000000    19.4800000000    27.8890000000
  214      H      24.5010000000    19.8140000000    27.3090000000
  215      H      23.7310000000    18.3910000000    27.8960000000
  216      H      22.6420000000    19.8410000000    27.6160000000
  217      S      24.1240000000    19.9770000000    29.5560000000
  218      C      22.5470000000    19.6940000000    30.3910000000
  219      H      22.1000000000    18.6980000000    30.4470000000
  220      H      22.5120000000    20.2120000000    31.3530000000
  221      H      21.8400000000    20.1240000000    29.6770000000
  222      O      24.2900000000    21.4490000000    29.3390000000
  223      C      25.1650000000    23.9770000000    21.8400000000
  224      H      26.0260000000    23.9360000000    21.1670000000
  225      H      25.4740000000    24.1130000000    22.8800000000
  226      H      24.5580000000    23.0940000000    21.6260000000
  227      S      24.2100000000    25.4470000000    21.4030000000
  228      C      23.2910000000    25.2320000000    22.9450000000
  229      H      22.4090000000    25.8690000000    22.8410000000
  230      H      22.9320000000    24.2010000000    23.0020000000
  231      H      23.8850000000    25.6110000000    23.7800000000
  232      O      23.2860000000    24.9670000000    20.3280000000
  233      C      28.0340000000    21.5480000000    23.9430000000
  234      H      27.8880000000    22.0130000000    24.9210000000
  235      H      27.2940000000    21.9000000000    23.2190000000
  236      H      28.2360000000    20.4790000000    24.0510000000
  237      S      29.5530000000    22.3090000000    23.3290000000
  238      C      29.0310000000    24.0370000000    23.2570000000
  239      H      29.6440000000    24.5660000000    23.9920000000
  240      H      29.0270000000    24.5300000000    22.2820000000
  241      H      28.0120000000    24.0590000000    23.6510000000
  242      O      29.4700000000    21.8730000000    21.8990000000
  243      C      27.6560000000    15.3700000000    29.2750000000
  244      H      27.0920000000    14.6590000000    29.8830000000
  245      H      28.4370000000    14.8260000000    28.7380000000
  246      H      28.0300000000    16.0550000000    30.0400000000
  247      S      26.5690000000    16.0970000000    28.0280000000
  248      C      27.7430000000    17.2320000000    27.2540000000
  249      H      28.7420000000    16.8010000000    27.1510000000
  250      H      27.2630000000    17.4980000000    26.3090000000
  251      H      27.7460000000    18.0590000000    27.9680000000
  252      O      25.6700000000    17.0920000000    28.6930000000
  253      C      29.7380000000    25.0290000000    28.5310000000
  254      H      30.2720000000    25.8510000000    29.0150000000
  255      H      28.9730000000    25.5820000000    27.9800000000
  256      H      29.1430000000    24.4880000000    29.2710000000
  257      S      30.6370000000    23.9630000000    27.3810000000
  258      C      31.2320000000    25.4900000000    26.6200000000
  259      H      31.8150000000    25.0730000000    25.7950000000
  260      H      30.4430000000    26.1340000000    26.2240000000
  261      H      31.9290000000    25.9420000000    27.3310000000
  262      O      29.5950000000    23.4340000000    26.4450000000
 ----------------------------------------------------------------
 Nuclear Repulsion Energy =       39508.58594287 hartrees
 There are      539 alpha and      539 beta electrons
 Requested basis set is 6-31+G(d)
 There are 863 shells and 2405 basis functions

 Total QAlloc Memory Limit  16000 MB
 Mega-Array Size      7821 MB
 MEM_STATIC part      8000 MB
 A cutoff of  1.0D-14 yielded 149053 shell pairs
 There are   1279160 function pairs
 Smallest overlap matrix eigenvalue = 5.62E-07
 Linear dependence detected in AO basis
 Tighter screening thresholds may be required for diffuse basis sets
 Use S2THRESH > 14 and THRESH = 14 in case of SCF convergence issues
 Number of orthogonalized atomic orbitals = 2403
 Maximum deviation from orthogonality = 9.745E-11

 Scale SEOQF with 1.000000e-03/1.000000e-03/1.000000e-03

 Standard Electronic Orientation quadrupole field applied
 Nucleus-field energy     =    -0.0000000982 hartrees
 Guess from superposition of atomic densities
 Warning:  Energy on first SCF cycle will be non-variational
 SAD guess density has 1078.000002 electrons

 -----------------------------------------------------------------------
  General SCF calculation program by
  Eric Jon Sundstrom, Paul Horn, Yuezhi Mao, Dmitri Zuev, Alec White,
  David Stuck, Shaama M.S., Shane Yost, Joonho Lee, David Small,
  Daniel Levine, Susi Lehtola, Hugh Burton, Evgeny Epifanovsky,
  Bang C. Huynh
 -----------------------------------------------------------------------
=================================================
        Doing projection-based embedding         
      F. Manby et al. JCTC, 8, 2564 (2012)       
=================================================

****************************************************
   Low-level SCF calculation for the whole system   
****************************************************
----------------------------------------------
 Summary of the low-level theory: 
 Exchange:     0.2000 Hartree-Fock + 0.0800 Slater + 0.7200 B88
 Correlation:  0.1900 VWN1RPA + 0.8100 LYP
 Using Euler-Maclaurin-Lebedev (75,302) quadrature formula
----------------------------------------------
 using 16 threads for integral computing
 -------------------------------------------------------
 OpenMP Integral computing Module                
 Release: version 2.0, May 2017, Q-Chem Inc. Pleasanton 
 -------------------------------------------------------
 A restricted SCF calculation will be
 performed using DIIS
 SCF converges when DIIS error is below 1.0e-08
 ---------------------------------------
  Cycle       Energy         DIIS error
 ---------------------------------------
    1  -13698.3887188843      1.43e-02  
    2  -13676.7571488318      2.64e-03  
    3  -13663.5790729057      5.19e-03  
    4  -13680.1062804702      1.20e-03  
    5  -13681.0834900330      1.96e-04  
    6  -13681.0960997512      1.55e-04  
    7  -13681.1091622207      6.12e-05  
    8  -13681.1113806825      1.30e-05  
    9  -13681.1114739026      5.58e-06  
   10  -13681.1114908923      1.98e-06  
   11  -13681.1114930366      6.19e-07  
   12  -13681.1114932506      2.19e-07  
   13  -13681.1114932793      7.02e-08  
   14  -13681.1114932818      3.24e-08  
   15  -13681.1114932823      8.82e-09  Convergence criterion met
 ---------------------------------------
 SCF time:   CPU 138284.21s  wall 8740.00s 
 SCF   energy in the final basis set =   -13681.1114932823
 Total energy in the final basis set =   -13681.1114932823

****************************************************
             Start embedding calculation            
****************************************************
----------------------------------------------
 Summary of the high-level theory: 
 Exchange:     0.2000 Hartree-Fock + 0.0800 Slater + 0.7200 B88
 Correlation:  0.1900 VWN1RPA + 0.8100 LYP
 Using Euler-Maclaurin-Lebedev (75,302) quadrature formula
----------------------------------------------
Doing R-in-R Embedding Calculation
Number of fragments: 2
Embedded fragment(s): 1 
NOcc for each fragment
           35
          504
NBasis for each fragment
          197
         2208
Variational space of the embedded problem: 
NOcc (active)  = 35
NOcc (fixed)   = 504
NVir (total)   = 1864
Read converged orbitals from disk
=========================================================
       Doing SPADE partition for the orbital space       
     D. CLaudino and N. Mayhall JCTC 15, 1053 (2019)     
=========================================================
SPADE singular values:
 1.0000 1.0000 1.0000 1.0000 1.0000 1.0000 1.0000 1.0000 1.0000 0.9999
 0.9999 0.9998 0.9997 0.9997 0.9996 0.9995 0.9994 0.9988 0.9985 0.9984
 0.9979 0.9974 0.9973 0.9966 0.9960 0.9952 0.9947 0.9940 0.9936 0.9921
 0.9909 0.9904 0.9881 0.9863 0.9827 0.2054 0.1771 0.1653 0.1565 0.1510
 0.1458 0.1275 0.1135 0.1075 0.0991 0.0881 0.0786 0.0758 0.0659 0.0593
 0.0578 0.0529 0.0467 0.0425 0.0398 0.0390 0.0354 0.0347 0.0333 0.0300
 0.0292 0.0278 0.0262 0.0249 0.0234 0.0220 0.0196 0.0189 0.0182 0.0178
 0.0163 0.0152 0.0142 0.0138 0.0131 0.0128 0.0120 0.0113 0.0107 0.0105
 0.0097 0.0092 0.0088 0.0079 0.0074 0.0072 0.0069 0.0067 0.0064 0.0061
 0.0060 0.0056 0.0053 0.0052 0.0049 0.0045 0.0044 0.0041 0.0040 0.0037
 0.0034 0.0033 0.0032 0.0031 0.0028 0.0027 0.0026 0.0025 0.0025 0.0021
 0.0021 0.0020 0.0019 0.0018 0.0017 0.0017 0.0016 0.0016 0.0015 0.0015
 0.0014 0.0014 0.0013 0.0012 0.0012 0.0011 0.0011 0.0011 0.0010 0.0010
 0.0010 0.0010 0.0009 0.0009 0.0008 0.0008 0.0008 0.0007 0.0007 0.0006
 0.0006 0.0006 0.0006 0.0005 0.0005 0.0005 0.0005 0.0004 0.0004 0.0004
 0.0004 0.0004 0.0004 0.0003 0.0003 0.0003 0.0003 0.0003 0.0003 0.0003
 0.0003 0.0002 0.0002 0.0002 0.0002 0.0002 0.0002 0.0002 0.0002 0.0002
 0.0002 0.0002 0.0002 0.0002 0.0002 0.0002 0.0001 0.0001 0.0001 0.0001
 0.0001 0.0001 0.0001 0.0001 0.0001 0.0001 0.0001 0.0001 0.0001 0.0001
 0.0001 0.0001 0.0001 0.0001 0.0000 0.0000 0.0000
Early stop requested!
504 environment occs will be part of frozen-core in future post-HF calculations
 
 --------------------------------------------------------------
 
                    Orbital Energies (a.u.)
 --------------------------------------------------------------
 
 Alpha MOs
 -- Occupied --
 -0.5038  -0.5172  -0.4730  -0.5251  -0.5163  -0.4886  -0.5017  -0.4801
 -0.5078  -0.4620  -0.4461  -0.4707  -0.4712  -0.4562  -0.4903  -0.5217
 -0.4397  -0.5868  -0.4665  -0.5893  -0.5016  -0.4976  -0.5059  -0.5557
 -0.5518  -0.5187  -0.5038  -0.5300  -0.5349  -0.5237  -0.4985  -0.5661
 -0.5324  -0.5265  -0.5407  -0.4950  -0.5683  -0.5370  -0.5140  -0.4779
 -0.5335  -0.5185  -0.5028  -0.5760  -0.4966  -0.5275  -0.5210  -0.5410
 -0.5456  -0.5540  -0.5071  -0.5703  -0.5374  -0.5807  -0.5864  -0.5739
 -0.6008  -0.5722  -0.5698  -0.7108  -0.6443  -0.7109  -0.6828  -0.5658
 -0.6979  -0.6064  -0.6064  -0.6216  -0.5354  -0.7950  -0.6336  -0.7219
 -0.6935  -0.6713  -0.7339  -0.8120  -0.9144  -0.8152  -0.7766  -0.8970
 -0.8599  -0.8804  -1.0756  -0.8221  -0.8590  -0.9674  -0.8899  -0.8680
 -0.8872  -0.7415  -0.7796  -0.8805  -0.8681  -1.0334  -0.7543  -1.0099
 -0.7556  -0.8220  -1.2945  -0.9603  -1.4994  -1.2473  -1.0008  -0.9438
 -1.0501  -0.7955  -0.9508  -0.9899  -1.1163  -0.9932  -0.9370  -1.1663
 -1.0179  -1.7917  -0.9738  -1.1130  -1.3714  -1.1364  -1.0931  -1.3162
 -1.1761  -1.3364  -1.5642  -0.8976  -1.1267  -1.2636  -1.2954  -2.1194
 -1.4049  -1.1855  -1.2603  -1.5904  -1.8813  -1.1552  -1.5225  -1.2073
 -1.3419  -1.3861  -1.3851  -1.5753  -1.5481  -1.6776  -1.8362  -1.5457
 -1.4718  -1.3994  -1.7256  -1.9991  -1.8820  -2.2539  -1.3176  -1.3739
 -1.3347  -2.0560  -2.0778  -1.6507  -2.3979  -2.3249  -1.9338  -2.1404
 -2.1508  -2.7486  -5.8595  -5.9310  -5.9611  -5.9515 -31.7604  -1.4492
-23.6707  -6.0563  -1.8266  -4.0879  -1.4961  -2.7493  -6.5251  -2.7624
 -2.2396  -2.9095  -2.5454  -5.4158 -12.6320  -6.6373  -4.5249  -1.7551
 -6.5227  -5.5063  -3.6395  -4.3862  -1.2536  -1.7587  -5.7236 -62.4958
 -1.1220  -5.4791  -1.8467 -14.9726 -72.2252  -6.4630  -4.1932  -5.0408
 -1.4544  -3.4425  -3.2670  -2.9111  -4.3548 -28.9885 -21.4516 -10.5314
 -5.6115  -4.2335 -13.3850  -7.0270  -6.2141  -5.8607  -1.7330  -1.9094
 -9.0965  -0.8809  -0.9969 -72.5997  -5.8795  -5.1735  -1.1335 -66.1813
 -2.9786 -12.4124  -6.4167  -5.0682  -3.2461  -2.4939 -13.2449  -4.9891
-15.1358  -9.6469  -2.4200 -10.0619  -6.3003  -6.7956  -4.9131  -2.7443
-10.0879  -3.6830  -8.3024  -1.2983 -54.2753 -15.1802  -3.2266  -3.2604
 -4.0847  -4.6525  -3.6461  -1.1235 -63.6502  -1.7569  -3.4864  -3.6467
-14.9707  -5.8501 -11.0282 -17.3028 -10.0034 -11.6777  -8.2101  -5.0524
-52.3547  -5.1832 -11.8735  -1.1632  -2.2784  -7.7766 -49.7119 -55.2246
 -1.2316  -3.4307  -4.9604  -1.0134  -4.4462  -3.5258 -20.3945 -17.5011
-31.3351  -2.1574 -10.0825 -11.8049  -9.4853  -1.9558  -7.3943  -3.4556
 -2.6750 -11.4927  -8.0404  -3.5143  -2.5966  -7.0225  -5.5583  -4.9846
-13.3518  -4.7459  -4.3201 -31.6621 -17.3779  -7.9371  -5.9829  -4.7361
 -2.7177  -2.8065  -5.6370  -3.5889  -4.1122  -3.9285 -10.0684  -9.0747
 -5.8770  -5.4525  -5.0306 -10.1747 -13.3501 -19.3512  -2.8349  -2.8090
-11.2662 -16.5316  -6.4383  -7.6145 -13.2715 -27.6302  -5.9815  -5.0364
 -5.0963  -2.2606  -6.5605 -16.5880 -23.7357 -16.4228  -4.8677  -6.2569
 -8.9024  -5.3465 -16.0667  -5.0948  -2.9608  -9.4248 -13.9727  -3.1123
-20.2542  -4.7571 -13.0173  -6.1471 -10.3035 -19.9941  -6.4979  -8.4665
 -7.3125  -7.7624 -13.7300 -19.9925  -9.9987 -10.7396  -3.1326  -1.4591
-14.6838  -7.4845  -6.7071  -9.5425  -7.9476  -5.1645  -6.7405  -8.4729
 -6.3347  -4.3542 -13.2560  -2.7319  -3.3173 -13.5678  -9.3052  -6.4046
 -9.8814  -6.1698  -5.7503  -8.5185  -3.0208  -6.0694  -4.9857  -5.5117
 -6.7881  -6.4559  -7.8737  -4.7374  -6.0690  -4.8509 -10.0071  -7.8929
 -7.1642 -22.0999  -5.6601  -1.6768 -11.3129 -13.8552 -11.3160  -9.2637
 -8.6542 -10.8333 -18.1496  -9.4078  -5.8203  -8.6954  -8.2075 -20.3696
-16.6662 -20.6537  -4.7190  -9.2071  -5.4637 -33.5519  -6.4582 -16.9646
 -7.6072  -7.6293 -13.1162  -7.5862 -25.1137  -9.0601 -26.7148  -6.9157
-13.3134  -3.5602  -3.4316  -1.8259  -9.7318  -8.4071  -9.8968  -5.1601
 -8.1529  -4.8055  -5.0980  -4.2300  -5.8202 -21.3146  -9.8734 -30.4494
-21.8973 -19.0461  -8.7923 -19.4928 -17.1686 -44.3475 -14.3082 -18.8349
 -1.6360 -59.7194  -4.7582 -10.3638 -72.3507 -14.3263  -2.8579 -58.9366
 -1.6071 -37.2721 -14.2774  -2.9277 -11.4855  -6.6096 -44.8007  -3.4155
-44.4771  -8.2653  -6.0598 -32.8503  -7.3485 -52.8218  -3.5766  -3.3345
 -2.9264  -4.1650 -11.7698 -14.7245  -6.1875  -8.6776 -10.0091  -7.7099
 -8.8167  -2.8969  -9.2201 -20.1854 -12.0020  -6.2618  -8.5228 -10.5783
-10.7864  -9.1117  -7.5403 -11.2427 -10.6577  -9.0664  -9.7998  -9.9127
 -9.1055  -9.1233 -17.1772 -18.5903  -9.2220  -6.0386  -5.5115  -5.9538
-13.4464 -10.1746 -11.4047 -16.0198 -10.2323 -10.4145 -10.1388 -10.1195
-12.1176  -0.7089  -0.7660  -0.6387  -0.8343  -0.7234  -0.7666  -0.8955
 -0.7949  -0.4369  -0.4793  -0.5470  -0.4320  -0.4695  -0.4313  -0.4529
 -0.4073  -0.4450  -0.4708  -0.4267  -0.3938  -0.4039  -0.4421  -0.4479
 -0.4159  -0.5770  -0.5351
 -- Virtual --
 -0.0382  -0.0359  -0.0302  -0.0298  -0.0296  -0.0265  -0.0258  -0.0256
 -0.0211  -0.0188  -0.0171  -0.0163  -0.0146  -0.0138  -0.0121  -0.0112
 -0.0093  -0.0083  -0.0072  -0.0067  -0.0060  -0.0049  -0.0044  -0.0030
 -0.0019  -0.0008   0.0008   0.0010   0.0029   0.0033   0.0041   0.0047
  0.0057   0.0057   0.0069   0.0077   0.0078   0.0090   0.0098   0.0101
  0.0109   0.0128   0.0131   0.0138   0.0142   0.0146   0.0155   0.0165
  0.0171   0.0183   0.0195   0.0201   0.0213   0.0217   0.0225   0.0232
  0.0242   0.0243   0.0251   0.0257   0.0264   0.0273   0.0285   0.0290
  0.0301   0.0302   0.0306   0.0311   0.0316   0.0327   0.0340   0.0342
  0.0349   0.0355   0.0366   0.0373   0.0377   0.0387   0.0390   0.0403
  0.0405   0.0409   0.0416   0.0433   0.0439   0.0441   0.0444   0.0448
  0.0460   0.0471   0.0485   0.0496   0.0498   0.0506   0.0508   0.0513
  0.0528   0.0529   0.0532   0.0537   0.0545   0.0554   0.0560   0.0566
  0.0576   0.0579   0.0590   0.0601   0.0610   0.0615   0.0623   0.0630
  0.0634   0.0641   0.0647   0.0653   0.0655   0.0666   0.0672   0.0684
  0.0688   0.0693   0.0699   0.0710   0.0712   0.0722   0.0733   0.0738
  0.0743   0.0747   0.0752   0.0757   0.0767   0.0773   0.0779   0.0784
  0.0790   0.0797   0.0800   0.0802   0.0816   0.0822   0.0835   0.0837
  0.0849   0.0854   0.0861   0.0871   0.0872   0.0880   0.0890   0.0895
  0.0902   0.0913   0.0920   0.0920   0.0924   0.0938   0.0941   0.0947
  0.0962   0.0966   0.0975   0.0982   0.0988   0.0995   0.1003   0.1007
  0.1015   0.1022   0.1032   0.1039   0.1043   0.1045   0.1053   0.1061
  0.1072   0.1075   0.1084   0.1087   0.1094   0.1101   0.1117   0.1122
  0.1127   0.1131   0.1137   0.1152   0.1154   0.1167   0.1168   0.1175
  0.1184   0.1185   0.1196   0.1213   0.1219   0.1221   0.1224   0.1233
  0.1242   0.1250   0.1252   0.1258   0.1267   0.1274   0.1276   0.1287
  0.1294   0.1298   0.1299   0.1305   0.1313   0.1316   0.1323   0.1329
  0.1343   0.1346   0.1352   0.1369   0.1375   0.1385   0.1388   0.1393
  0.1397   0.1401   0.1405   0.1408   0.1420   0.1431   0.1437   0.1439
  0.1442   0.1461   0.1466   0.1470   0.1473   0.1479   0.1486   0.1495
  0.1505   0.1509   0.1516   0.1524   0.1531   0.1538   0.1546   0.1549
  0.1560   0.1563   0.1565   0.1569   0.1581   0.1588   0.1593   0.1605
  0.1609   0.1621   0.1626   0.1634   0.1639   0.1650   0.1654   0.1661
  0.1669   0.1682   0.1688   0.1691   0.1698   0.1701   0.1709   0.1713
  0.1717   0.1729   0.1732   0.1734   0.1740   0.1745   0.1760   0.1767
  0.1769   0.1787   0.1789   0.1792   0.1802   0.1805   0.1808   0.1815
  0.1818   0.1824   0.1832   0.1837   0.1847   0.1856   0.1859   0.1866
  0.1876   0.1878   0.1884   0.1891   0.1895   0.1906   0.1908   0.1915
  0.1926   0.1932   0.1937   0.1944   0.1951   0.1956   0.1962   0.1970
  0.1975   0.1984   0.1991   0.1994   0.2015   0.2022   0.2032   0.2037
  0.2046   0.2051   0.2057   0.2062   0.2076   0.2080   0.2087   0.2094
  0.2101   0.2104   0.2113   0.2119   0.2125   0.2130   0.2141   0.2144
  0.2152   0.2162   0.2166   0.2171   0.2180   0.2184   0.2188   0.2193
  0.2199   0.2214   0.2223   0.2229   0.2237   0.2245   0.2253   0.2261
  0.2271   0.2274   0.2282   0.2284   0.2293   0.2301   0.2308   0.2312
  0.2322   0.2323   0.2330   0.2335   0.2347   0.2358   0.2361   0.2367
  0.2377   0.2394   0.2396   0.2400   0.2405   0.2410   0.2418   0.2421
  0.2431   0.2440   0.2447   0.2455   0.2463   0.2470   0.2475   0.2483
  0.2493   0.2500   0.2505   0.2507   0.2523   0.2525   0.2544   0.2549
  0.2559   0.2562   0.2564   0.2576   0.2583   0.2592   0.2593   0.2605
  0.2612   0.2617   0.2622   0.2629   0.2635   0.2654   0.2657   0.2666
  0.2673   0.2686   0.2699   0.2709   0.2717   0.2718   0.2734   0.2741
  0.2746   0.2750   0.2758   0.2773   0.2778   0.2787   0.2797   0.2807
  0.2809   0.2824   0.2829   0.2836   0.2838   0.2853   0.2856   0.2873
  0.2877   0.2886   0.2902   0.2915   0.2925   0.2930   0.2947   0.2953
  0.2955   0.2961   0.2966   0.2978   0.2996   0.3005   0.3008   0.3018
  0.3025   0.3043   0.3049   0.3060   0.3068   0.3073   0.3081   0.3088
  0.3094   0.3107   0.3110   0.3126   0.3134   0.3140   0.3148   0.3156
  0.3162   0.3180   0.3191   0.3206   0.3212   0.3224   0.3231   0.3239
  0.3243   0.3248   0.3255   0.3262   0.3276   0.3285   0.3292   0.3310
  0.3316   0.3323   0.3330   0.3344   0.3356   0.3363   0.3368   0.3378
  0.3398   0.3401   0.3406   0.3412   0.3424   0.3433   0.3450   0.3459
  0.3479   0.3481   0.3482   0.3492   0.3504   0.3519   0.3522   0.3534
  0.3537   0.3540   0.3557   0.3564   0.3574   0.3596   0.3601   0.3610
  0.3619   0.3628   0.3637   0.3644   0.3653   0.3661   0.3673   0.3681
  0.3687   0.3697   0.3703   0.3710   0.3719   0.3732   0.3745   0.3764
  0.3768   0.3774   0.3784   0.3796   0.3797   0.3814   0.3821   0.3825
  0.3833   0.3842   0.3849   0.3864   0.3868   0.3878   0.3884   0.3894
  0.3900   0.3911   0.3920   0.3936   0.3941   0.3950   0.3959   0.3978
  0.3990   0.3997   0.4001   0.4009   0.4028   0.4035   0.4048   0.4056
  0.4061   0.4068   0.4091   0.4105   0.4112   0.4121   0.4128   0.4149
  0.4152   0.4157   0.4165   0.4183   0.4191   0.4204   0.4212   0.4216
  0.4234   0.4241   0.4252   0.4255   0.4265   0.4294   0.4298   0.4302
  0.4322   0.4324   0.4345   0.4349   0.4360   0.4373   0.4377   0.4400
  0.4412   0.4426   0.4438   0.4471   0.4479   0.4486   0.4499   0.4504
  0.4511   0.4519   0.4533   0.4538   0.4548   0.4561   0.4571   0.4596
  0.4602   0.4615   0.4628   0.4645   0.4657   0.4670   0.4685   0.4707
  0.4725   0.4726   0.4746   0.4758   0.4762   0.4780   0.4783   0.4799
  0.4818   0.4831   0.4850   0.4862   0.4872   0.4890   0.4894   0.4912
  0.4948   0.4959   0.4971   0.4996   0.5023   0.5031   0.5043   0.5063
  0.5076   0.5098   0.5125   0.5138   0.5162   0.5171   0.5193   0.5201
  0.5226   0.5230   0.5258   0.5265   0.5273   0.5300   0.5313   0.5332
  0.5344   0.5359   0.5370   0.5391   0.5411   0.5417   0.5450   0.5478
  0.5499   0.5513   0.5533   0.5540   0.5553   0.5559   0.5590   0.5610
  0.5626   0.5643   0.5660   0.5670   0.5693   0.5707   0.5735   0.5736
  0.5743   0.5754   0.5778   0.5790   0.5802   0.5836   0.5845   0.5862
  0.5879   0.5902   0.5917   0.5930   0.5939   0.5960   0.5967   0.5990
  0.6000   0.6015   0.6036   0.6042   0.6061   0.6097   0.6102   0.6106
  0.6109   0.6137   0.6145   0.6155   0.6168   0.6183   0.6193   0.6208
  0.6223   0.6239   0.6242   0.6267   0.6273   0.6285   0.6298   0.6315
  0.6321   0.6332   0.6362   0.6379   0.6390   0.6409   0.6425   0.6433
  0.6457   0.6465   0.6476   0.6482   0.6493   0.6509   0.6516   0.6527
  0.6540   0.6550   0.6573   0.6580   0.6604   0.6607   0.6614   0.6634
  0.6649   0.6656   0.6669   0.6679   0.6685   0.6691   0.6698   0.6708
  0.6714   0.6738   0.6745   0.6760   0.6779   0.6787   0.6801   0.6815
  0.6822   0.6835   0.6851   0.6862   0.6870   0.6884   0.6905   0.6911
  0.6924   0.6930   0.6950   0.6962   0.6984   0.6989   0.6994   0.7000
  0.7029   0.7051   0.7056   0.7069   0.7084   0.7097   0.7105   0.7118
  0.7125   0.7149   0.7155   0.7177   0.7194   0.7201   0.7219   0.7237
  0.7239   0.7251   0.7259   0.7265   0.7297   0.7309   0.7317   0.7338
  0.7343   0.7377   0.7404   0.7409   0.7433   0.7439   0.7448   0.7456
  0.7481   0.7508   0.7519   0.7537   0.7544   0.7550   0.7573   0.7597
  0.7612   0.7625   0.7633   0.7654   0.7659   0.7689   0.7700   0.7711
  0.7735   0.7759   0.7774   0.7790   0.7818   0.7834   0.7858   0.7876
  0.7881   0.7902   0.7910   0.7938   0.7951   0.7958   0.7966   0.8004
  0.8013   0.8015   0.8029   0.8048   0.8080   0.8103   0.8110   0.8123
  0.8130   0.8147   0.8157   0.8166   0.8196   0.8211   0.8218   0.8238
  0.8254   0.8256   0.8271   0.8294   0.8312   0.8317   0.8328   0.8346
  0.8348   0.8360   0.8392   0.8405   0.8415   0.8422   0.8438   0.8453
  0.8475   0.8487   0.8504   0.8515   0.8555   0.8562   0.8576   0.8582
  0.8612   0.8621   0.8625   0.8647   0.8674   0.8679   0.8688   0.8710
  0.8735   0.8744   0.8760   0.8765   0.8781   0.8790   0.8800   0.8826
  0.8834   0.8836   0.8837   0.8867   0.8881   0.8894   0.8905   0.8922
  0.8932   0.8949   0.8965   0.8972   0.8984   0.9004   0.9021   0.9032
  0.9051   0.9059   0.9079   0.9089   0.9107   0.9113   0.9118   0.9132
  0.9141   0.9150   0.9166   0.9183   0.9189   0.9213   0.9228   0.9236
  0.9240   0.9256   0.9274   0.9281   0.9285   0.9303   0.9322   0.9333
  0.9344   0.9370   0.9375   0.9400   0.9406   0.9420   0.9431   0.9448
  0.9459   0.9474   0.9486   0.9499   0.9509   0.9519   0.9528   0.9535
  0.9559   0.9573   0.9580   0.9591   0.9601   0.9612   0.9625   0.9638
  0.9651   0.9656   0.9667   0.9671   0.9697   0.9704   0.9718   0.9726
  0.9746   0.9748   0.9760   0.9774   0.9788   0.9798   0.9811   0.9819
  0.9835   0.9838   0.9857   0.9864   0.9882   0.9892   0.9896   0.9908
  0.9917   0.9929   0.9934   0.9950   0.9967   0.9974   0.9990   1.0006
  1.0015   1.0029   1.0035   1.0049   1.0057   1.0083   1.0085   1.0095
  1.0104   1.0123   1.0133   1.0145   1.0163   1.0190   1.0194   1.0207
  1.0216   1.0238   1.0256   1.0260   1.0270   1.0283   1.0296   1.0308
  1.0335   1.0338   1.0352   1.0371   1.0380   1.0408   1.0418   1.0441
  1.0446   1.0462   1.0482   1.0493   1.0496   1.0509   1.0522   1.0536
  1.0559   1.0571   1.0581   1.0597   1.0603   1.0610   1.0628   1.0631
  1.0657   1.0678   1.0693   1.0704   1.0726   1.0747   1.0765   1.0770
  1.0784   1.0793   1.0813   1.0818   1.0838   1.0845   1.0860   1.0895
  1.0922   1.0935   1.0951   1.0960   1.0977   1.0994   1.1019   1.1029
  1.1035   1.1040   1.1057   1.1082   1.1103   1.1116   1.1126   1.1137
  1.1151   1.1160   1.1172   1.1182   1.1194   1.1202   1.1221   1.1229
  1.1247   1.1262   1.1268   1.1292   1.1304   1.1329   1.1344   1.1348
  1.1364   1.1371   1.1377   1.1426   1.1429   1.1431   1.1443   1.1481
  1.1488   1.1504   1.1520   1.1533   1.1539   1.1557   1.1570   1.1585
  1.1611   1.1630   1.1642   1.1669   1.1683   1.1689   1.1705   1.1719
  1.1748   1.1784   1.1788   1.1796   1.1812   1.1827   1.1845   1.1860
  1.1887   1.1891   1.1903   1.1924   1.1939   1.1946   1.1971   1.2007
  1.2020   1.2037   1.2059   1.2086   1.2106   1.2119   1.2128   1.2153
  1.2154   1.2164   1.2189   1.2231   1.2257   1.2267   1.2281   1.2306
  1.2332   1.2347   1.2391   1.2418   1.2430   1.2444   1.2469   1.2487
  1.2498   1.2516   1.2534   1.2581   1.2597   1.2600   1.2640   1.2655
  1.2672   1.2700   1.2739   1.2761   1.2777   1.2801   1.2836   1.2839
  1.2863   1.2893   1.2917   1.2955   1.2956   1.2990   1.3007   1.3057
  1.3068   1.3084   1.3094   1.3132   1.3157   1.3167   1.3188   1.3221
  1.3245   1.3252   1.3297   1.3304   1.3327   1.3339   1.3353   1.3371
  1.3396   1.3415   1.3436   1.3438   1.3451   1.3491   1.3500   1.3508
  1.3534   1.3547   1.3562   1.3569   1.3585   1.3607   1.3644   1.3656
  1.3662   1.3676   1.3702   1.3715   1.3727   1.3773   1.3785   1.3805
  1.3811   1.3846   1.3856   1.3868   1.3872   1.3881   1.3911   1.3924
  1.3932   1.3961   1.3981   1.3990   1.4007   1.4016   1.4019   1.4044
  1.4060   1.4088   1.4089   1.4123   1.4140   1.4152   1.4181   1.4198
  1.4206   1.4219   1.4244   1.4253   1.4277   1.4290   1.4297   1.4323
  1.4329   1.4353   1.4360   1.4377   1.4387   1.4406   1.4426   1.4450
  1.4472   1.4485   1.4496   1.4515   1.4524   1.4565   1.4570   1.4589
  1.4615   1.4633   1.4642   1.4662   1.4686   1.4702   1.4709   1.4718
  1.4734   1.4756   1.4783   1.4791   1.4818   1.4839   1.4889   1.4901
  1.4917   1.4932   1.4972   1.5001   1.5019   1.5043   1.5051   1.5068
  1.5096   1.5118   1.5155   1.5189   1.5212   1.5240   1.5242   1.5300
  1.5330   1.5358   1.5374   1.5402   1.5434   1.5469   1.5529   1.5542
  1.5610   1.5620   1.5638   1.5660   1.5674   1.5697   1.5738   1.5788
  1.5827   1.5879   1.5917   1.5943   1.5979   1.6026   1.6060   1.6123
  1.6159   1.6212   1.6270   1.6279   1.6335   1.6370   1.6376   1.6481
  1.6518   1.6548   1.6558   1.6565   1.6599   1.6627   1.6642   1.6657
  1.6666   1.6693   1.6718   1.6757   1.6764   1.6776   1.6798   1.6812
  1.6822   1.6839   1.6851   1.6878   1.6900   1.6908   1.6916   1.6928
  1.6947   1.6955   1.6967   1.6982   1.6999   1.7008   1.7018   1.7034
  1.7045   1.7056   1.7060   1.7077   1.7098   1.7111   1.7126   1.7139
  1.7154   1.7158   1.7173   1.7185   1.7200   1.7202   1.7212   1.7227
  1.7256   1.7260   1.7278   1.7293   1.7306   1.7322   1.7339   1.7365
  1.7377   1.7399   1.7408   1.7423   1.7459   1.7471   1.7487   1.7510
  1.7518   1.7533   1.7558   1.7569   1.7574   1.7588   1.7597   1.7606
  1.7624   1.7645   1.7665   1.7672   1.7690   1.7702   1.7714   1.7726
  1.7755   1.7772   1.7783   1.7785   1.7792   1.7828   1.7859   1.7878
  1.7895   1.7904   1.7911   1.7951   1.7961   1.7985   1.8014   1.8061
  1.8089   1.8127   1.8158   1.8174   1.8195   1.8253   1.8267   1.8295
  1.8323   1.8346   1.8352   1.8377   1.8454   1.8464   1.8499   1.8523
  1.8561   1.8568   1.8598   1.8640   1.8649   1.8652   1.8688   1.8696
  1.8714   1.8720   1.8730   1.8736   1.8746   1.8778   1.8816   1.8818
  1.8848   1.8866   1.8876   1.8888   1.8897   1.8915   1.8926   1.8934
  1.8945   1.8969   1.8991   1.9000   1.9008   1.9013   1.9054   1.9060
  1.9074   1.9094   1.9102   1.9122   1.9133   1.9150   1.9155   1.9168
  1.9175   1.9193   1.9209   1.9220   1.9233   1.9260   1.9293   1.9305
  1.9311   1.9328   1.9334   1.9369   1.9408   1.9435   1.9455   1.9469
  1.9480   1.9493   1.9549   1.9559   1.9572   1.9599   1.9645   1.9697
  1.9739   1.9758   1.9862   1.9961   2.0003   2.0104   2.0283   2.0309
  2.0331   2.0359   2.0386   2.0394   2.0398   2.0428   2.0447   2.0502
  2.0544   2.0589   2.0603   2.0612   2.0642   2.0688   2.0712   2.0712
  2.0721   2.0748   2.0762   2.0767   2.0781   2.0795   2.0804   2.0809
  2.0828   2.0832   2.0840   2.0865   2.0878   2.0902   2.0916   2.0972
  2.0982   2.0989   2.1004   2.1010   2.1019   2.1050   2.1059   2.1079
  2.1081   2.1107   2.1149   2.1170   2.1221   2.1255   2.1307   2.1322
  2.1329   2.1370   2.1393   2.1429   2.1437   2.1465   2.1472   2.1486
  2.1487   2.1558   2.1623   2.1662   2.1740   2.1765   2.1818   2.1851
  2.1857   2.1888   2.1901   2.1915   2.1929   2.1934   2.1953   2.1977
  2.1988   2.2021   2.2053   2.2066   2.2083   2.2124   2.2135   2.2147
  2.2175   2.2199   2.2220   2.2243   2.2260   2.2269   2.2273   2.2298
  2.2314   2.2330   2.2333   2.2355   2.2382   2.2396   2.2413   2.2431
  2.2445   2.2453   2.2486   2.2500   2.2508   2.2516   2.2522   2.2540
  2.2550   2.2559   2.2566   2.2571   2.2596   2.2597   2.2612   2.2613
  2.2625   2.2634   2.2643   2.2645   2.2655   2.2662   2.2669   2.2692
  2.2712   2.2728   2.2741   2.2752   2.2753   2.2767   2.2775   2.2788
  2.2807   2.2814   2.2817   2.2832   2.2836   2.2845   2.2858   2.2875
  2.2891   2.2910   2.2914   2.2918   2.2942   2.2949   2.2958   2.2964
  2.2998   2.3000   2.3016   2.3022   2.3033   2.3049   2.3059   2.3063
  2.3084   2.3104   2.3111   2.3122   2.3145   2.3162   2.3175   2.3176
  2.3184   2.3202   2.3215   2.3233   2.3248   2.3258   2.3260   2.3285
  2.3311   2.3333   2.3357   2.3370   2.3380   2.3417   2.3442   2.3451
  2.3466   2.3480   2.3494   2.3514   2.3532   2.3547   2.3573   2.3589
  2.3597   2.3624   2.3640   2.3661   2.3677   2.3710   2.3724   2.3746
  2.3773   2.3801   2.3820   2.3832   2.3894   2.3931   2.3936   2.3981
  2.3996   2.4075   2.4084   2.4121   2.4196   2.4412   2.4474   2.4499
  2.4691   2.5014   2.5152   2.5856   2.6525   2.7128   2.7351   2.7846
  2.8082   2.8148   2.8157   2.8209   2.8239   2.8288   2.8304   2.8313
  2.8357   2.8421   2.8460   2.8487   2.8500   2.8531   2.8564   2.8641
  2.8686   2.8709   2.8714   2.8718   2.8731   2.8804   2.8821   2.8868
  2.8917   2.8966   2.8997   2.9028   2.9416   3.0706   3.2163   3.9493
  3.9503   3.9548   3.9593   3.9648   3.9676   3.9695   3.9711   3.9781
  3.9808   3.9829   3.9844   3.9853   3.9882   3.9905   3.9941   4.0004
  4.0058   4.0074   4.0154   4.0183   4.0204   4.0215   4.0355   4.2052
  4.2159   4.2215   4.2240   4.2274   4.2289   4.2297   4.2346   4.2348
  4.2404   4.2407   4.2416   4.2496   4.2539   4.2584   4.2627   4.2642
  4.2653   4.2686   4.2704   4.2711   4.2745   4.2788   4.2808   4.2852
  4.2863   4.2922   4.2930   4.2954   4.2988   4.3028   4.3069   4.3095
  4.3113   4.3137   4.3157   4.3204   4.3214   4.3216   4.3297   4.3310
  4.3341   4.3387   4.3396   4.3446   4.3460   4.3492   4.3519   4.3529
  4.3567   4.3620   4.3700   4.3740   4.3750   4.3801   4.3848   4.3912
  4.3945   4.4025   4.4099   4.4142   4.4229   4.4296   4.4326   4.4419
  4.4521   4.4576   4.4667   4.4841   4.4849   4.4933   4.5029   4.5039
  4.5120   4.5421   4.5652   4.6101   4.7026   4.7154   4.7471   4.8175
 --------------------------------------------------------------
 
          Ground-State Mulliken Net Atomic Charges

     Atom                 Charge (a.u.)
  ----------------------------------------
      1 C                    -0.469726
      2 C                    -0.309786
      3 C                    -0.677031
      4 C                    -0.588477
      5 C                     0.157701
      6 C                    -0.912812
      7 H                     0.227042
      8 H                     0.219028
      9 H                     0.198957
     10 H                     0.266423
     11 H                     0.198619
     12 H                     0.225578
     13 H                     0.241253
     14 H                     0.209838
     15 H                     0.244058
     16 H                     0.204372
     17 H                     0.209236
     18 N                     0.234639
     19 H                     0.458253
     20 C                    -0.343566
     21 H                     0.224918
     22 O                    -0.366521
     23 C                    -0.928923
     24 H                     0.269108
     25 H                     0.276846
     26 H                     0.275125
     27 S                     1.023563
     28 C                    -0.910128
     29 H                     0.279982
     30 H                     0.240946
     31 H                     0.281656
     32 O                    -0.735623
     33 C                    -1.000936
     34 H                     0.288242
     35 H                     0.246389
     36 H                     0.241424
     37 S                     1.303862
     38 C                    -1.142939
     39 H                     0.268614
     40 H                     0.227027
     41 H                     0.298909
     42 O                    -0.667082
     43 C                    -0.879423
     44 H                     0.270420
     45 H                     0.265051
     46 H                     0.250875
     47 S                     0.903399
     48 C                    -0.839966
     49 H                     0.271242
     50 H                     0.254940
     51 H                     0.231228
     52 O                    -0.747164
     53 C                    -0.912930
     54 H                     0.256476
     55 H                     0.254064
     56 H                     0.264394
     57 S                     1.031220
     58 C                    -0.884969
     59 H                     0.224584
     60 H                     0.258391
     61 H                     0.246313
     62 O                    -0.720447
     63 C                    -1.417321
     64 H                     0.258631
     65 H                     0.296366
     66 H                     0.253298
     67 S                     1.280086
     68 C                    -0.981519
     69 H                     0.245703
     70 H                     0.278311
     71 H                     0.248569
     72 O                    -0.716811
     73 C                    -0.787518
     74 H                     0.262238
     75 H                     0.240358
     76 H                     0.244601
     77 S                     0.756535
     78 C                    -0.791102
     79 H                     0.318180
     80 H                     0.208913
     81 H                     0.238597
     82 O                    -0.697124
     83 C                    -0.832610
     84 H                     0.251397
     85 H                     0.249495
     86 H                     0.260634
     87 S                     1.097215
     88 C                    -1.044481
     89 H                     0.239893
     90 H                     0.253763
     91 H                     0.257090
     92 O                    -0.716469
     93 C                    -0.705119
     94 H                     0.286226
     95 H                     0.248151
     96 H                     0.275948
     97 S                     0.566324
     98 C                    -0.789722
     99 H                     0.262891
    100 H                     0.285433
    101 H                     0.243086
    102 O                    -0.551120
    103 C                    -0.846154
    104 H                     0.253988
    105 H                     0.249025
    106 H                     0.257863
    107 S                     0.958625
    108 C                    -1.006744
    109 H                     0.235785
    110 H                     0.255870
    111 H                     0.243307
    112 O                    -0.673311
    113 C                    -1.094664
    114 H                     0.255525
    115 H                     0.287988
    116 H                     0.237092
    117 S                     1.179482
    118 C                    -1.045614
    119 H                     0.226028
    120 H                     0.276617
    121 H                     0.271421
    122 O                    -0.720675
    123 C                    -0.924411
    124 H                     0.262929
    125 H                     0.281687
    126 H                     0.271354
    127 S                     0.929927
    128 C                    -0.821220
    129 H                     0.235057
    130 H                     0.256538
    131 H                     0.252201
    132 O                    -0.718163
    133 C                    -0.795471
    134 H                     0.254820
    135 H                     0.232148
    136 H                     0.241564
    137 S                     1.017705
    138 C                    -0.882221
    139 H                     0.230052
    140 H                     0.257517
    141 H                     0.273544
    142 O                    -0.792572
    143 C                    -0.917146
    144 H                     0.260238
    145 H                     0.312044
    146 H                     0.254007
    147 S                     0.817122
    148 C                    -0.823002
    149 H                     0.256711
    150 H                     0.221417
    151 H                     0.252133
    152 O                    -0.626030
    153 C                    -0.958958
    154 H                     0.254488
    155 H                     0.288450
    156 H                     0.235278
    157 S                     1.077886
    158 C                    -1.032681
    159 H                     0.289181
    160 H                     0.232817
    161 H                     0.238396
    162 O                    -0.652648
    163 C                    -0.887439
    164 H                     0.240761
    165 H                     0.276437
    166 H                     0.260915
    167 S                     1.020151
    168 C                    -0.889448
    169 H                     0.241043
    170 H                     0.243578
    171 H                     0.276608
    172 O                    -0.693941
    173 C                    -0.925849
    174 H                     0.246655
    175 H                     0.249281
    176 H                     0.234843
    177 S                     1.047079
    178 C                    -0.839717
    179 H                     0.258638
    180 H                     0.273085
    181 H                     0.259201
    182 O                    -0.717736
    183 C                    -0.808180
    184 H                     0.273217
    185 H                     0.228725
    186 H                     0.268355
    187 S                     0.891909
    188 C                    -0.990122
    189 H                     0.265504
    190 H                     0.250517
    191 H                     0.242171
    192 O                    -0.659294
    193 C                    -0.911697
    194 H                     0.285617
    195 H                     0.257163
    196 H                     0.245584
    197 S                     1.139461
    198 C                    -1.238613
    199 H                     0.289585
    200 H                     0.254395
    201 H                     0.269714
    202 O                    -0.687583
    203 C                    -0.766631
    204 H                     0.270260
    205 H                     0.246813
    206 H                     0.239608
    207 S                     0.389306
    208 C                    -0.499341
    209 H                     0.257790
    210 H                     0.254109
    211 H                     0.262166
    212 O                    -0.616683
    213 C                    -0.796168
    214 H                     0.238193
    215 H                     0.278682
    216 H                     0.272227
    217 S                     0.680970
    218 C                    -0.763043
    219 H                     0.239023
    220 H                     0.232704
    221 H                     0.301135
    222 O                    -0.606395
    223 C                    -0.826675
    224 H                     0.252007
    225 H                     0.214682
    226 H                     0.276625
    227 S                     0.884816
    228 C                    -1.042509
    229 H                     0.328317
    230 H                     0.274117
    231 H                     0.232497
    232 O                    -0.660599
    233 C                    -0.993230
    234 H                     0.268038
    235 H                     0.277947
    236 H                     0.239176
    237 S                     1.056092
    238 C                    -0.898383
    239 H                     0.246873
    240 H                     0.288670
    241 H                     0.255007
    242 O                    -0.739092
    243 C                    -0.842148
    244 H                     0.252238
    245 H                     0.227220
    246 H                     0.281787
    247 S                     0.884759
    248 C                    -0.783103
    249 H                     0.231385
    250 H                     0.233270
    251 H                     0.294676
    252 O                    -0.739614
    253 C                    -0.911190
    254 H                     0.233071
    255 H                     0.318873
    256 H                     0.270450
    257 S                     1.099861
    258 C                    -0.963218
    259 H                     0.279965
    260 H                     0.301350
    261 H                     0.236584
    262 O                    -0.702806
  ----------------------------------------
  Sum of atomic charges =     0.000000

 -----------------------------------------------------------------
                    Cartesian Multipole Moments
 -----------------------------------------------------------------
    Charge (ESU x 10^10)
                -0.0000
    Dipole Moment (Debye)
         X      17.0551      Y      -2.3371      Z      -6.1894
       Tot      18.2934
    Quadrupole Moments (Debye-Ang)
        XX    -129.1657     XY     517.3536     YY    -651.4327
        XZ     294.5710     YZ    -267.3892     ZZ   -1318.9335
    Octopole Moments (Debye-Ang^2)
       XXX  -39922.6994    XXY    2579.7783    XYY    2046.6601
       YYY  -45455.2805    XXZ   -7588.5147    XYZ    8559.7913
       YYZ  -23942.0915    XZZ  -20771.9378    YZZ  -37407.0547
       ZZZ  -93585.2801
    Hexadecapole Moments (Debye-Ang^3)
      XXXX ************   XXXY -779220.8475   XXYY -142550.9176
      XYYY -579217.7954   YYYY ************   XXXZ ************
      XXYZ  -67261.6465   XYYZ -112997.2232   YYYZ ************
      XXZZ -944072.1187   XYZZ -523082.6977   YYZZ ************
      XZZZ ************   YZZZ ************   ZZZZ ************
 -----------------------------------------------------------------
Archival summary:
[...]
    2  -0.0245695  -0.0048147   0.0243532  -0.0912554  -0.0095065   0.0182569
    3   0.0165764  -0.0299286  -0.0008733  -0.0059178  -0.0046785  -0.0121169
           85          86          87          88          89          90
    1   0.0053753  -0.0158213  -0.0183371   0.0046087  -0.0101151   0.0306828
    2  -0.0270897  -0.0196959   0.0559683  -0.0054384   0.0171519   0.0109689
    3  -0.0162690   0.0194145   0.0063835  -0.0011829  -0.0222671   0.0112542
           91          92          93          94          95          96
    1  -0.0084632   0.0319409   0.0023327   0.0306834  -0.0225746   0.0026944
    2  -0.0323855  -0.0631274  -0.0044957   0.0047280   0.0098064  -0.0351795
    3  -0.0062442   0.0847121   0.0063137   0.0117351   0.0147651   0.0056770
           97          98          99         100         101         102
    1  -0.0425368   0.0075742   0.0177431   0.0246131  -0.0010703   0.0423920
    2  -0.0120987  -0.0003558   0.0014290   0.0152128  -0.0327507   0.0974506
    3  -0.0254480  -0.0016072  -0.0305380   0.0137601  -0.0131324   0.0250389
          103         104         105         106         107         108
    1  -0.0082595  -0.0273658  -0.0171788   0.0031664  -0.0092725  -0.0000326
    2   0.0013735  -0.0121047   0.0290992  -0.0279289   0.0080229   0.0053414
    3  -0.0082100   0.0069573   0.0110490  -0.0245534   0.0569216  -0.0056391
          109         110         111         112         113         114
    1  -0.0086470   0.0282607  -0.0040614   0.0465861  -0.0034796   0.0285563
    2   0.0319660  -0.0035920  -0.0043738  -0.0929846  -0.0050477  -0.0035568
    3   0.0103601   0.0120636  -0.0343654  -0.0374428  -0.0062810  -0.0188846
          115         116         117         118         119         120
    1  -0.0266527  -0.0143310   0.0413132   0.0046927   0.0221523   0.0118397
    2  -0.0194038   0.0199504   0.0339529  -0.0034765  -0.0207262  -0.0103496
    3   0.0071493  -0.0198652  -0.0019111   0.0056898  -0.0141980   0.0301042
          121         122         123         124         125         126
    1  -0.0223595  -0.0940707   0.0081488   0.0350070  -0.0107560   0.0087831
    2  -0.0157348   0.0090071   0.0054425  -0.0069323   0.0258792  -0.0247871
    3  -0.0005013   0.0550595   0.0053968  -0.0173032   0.0234783   0.0111807
          127         128         129         130         131         132
    1   0.0145494   0.0000166   0.0145215  -0.0220172  -0.0057604  -0.0800419
    2  -0.0229281   0.0060597   0.0363555  -0.0005616   0.0154891  -0.0481069
    3  -0.0513072   0.0014764  -0.0211813  -0.0200360   0.0274206   0.0586464
          133         134         135         136         137         138
    1   0.0025547  -0.0264522  -0.0081826   0.0231784  -0.0384972   0.0063620
    2   0.0002777   0.0152726  -0.0287423   0.0026432  -0.0113050  -0.0071672
    3   0.0077164   0.0070565   0.0145127   0.0276257  -0.0358024  -0.0006486
          139         140         141         142         143         144
    1  -0.0079981   0.0143096   0.0220520   0.0510950  -0.0091255  -0.0317402
    2  -0.0360173   0.0036547   0.0140614   0.0957131   0.0049747   0.0095693
    3   0.0059215  -0.0290257   0.0207798   0.0119271  -0.0017798  -0.0219042
          145         146         147         148         149         150
    1  -0.0131477  -0.0039867   0.0449995  -0.0001443  -0.0252545   0.0140741
    2  -0.0055739   0.0276916  -0.0052141   0.0051792   0.0062486   0.0310101
    3   0.0072142   0.0205154   0.0359687  -0.0044472  -0.0214174   0.0129613
          151         152         153         154         155         156
    1   0.0224287  -0.0214260  -0.0109041  -0.0093936  -0.0051416  -0.0136665
    2   0.0006093  -0.0743609   0.0008651  -0.0034440   0.0261546  -0.0117805
    3  -0.0208490  -0.0851614  -0.0011023   0.0336052  -0.0042309  -0.0328832
          157         158         159         160         161         162
    1   0.0263440  -0.0007620  -0.0080478  -0.0148141   0.0256808   0.0053759
    2  -0.0081393  -0.0016981   0.0227943  -0.0293641  -0.0156366   0.0960248
    3  -0.0496835   0.0089104   0.0254525  -0.0045532  -0.0025469   0.0548523
          163         164         165         166         167         168
    1   0.0059918   0.0138117   0.0168791  -0.0154423  -0.0499757   0.0051099
    2  -0.0050022   0.0227374  -0.0245676  -0.0195456   0.0215787   0.0026176
    3  -0.0031152  -0.0201692   0.0150671  -0.0175072  -0.0179337   0.0060383
          169         170         171         172         173         174
    1   0.0294143  -0.0023957  -0.0009992   0.0041936   0.0034630   0.0301583
    2  -0.0046696   0.0265000  -0.0047886  -0.0830793   0.0044419   0.0013285
    3   0.0001667  -0.0194867   0.0323826   0.0783208   0.0012449  -0.0075198
          175         176         177         178         179         180
    1  -0.0167497  -0.0024798  -0.0607114   0.0059233   0.0142505  -0.0269800
    2   0.0164878   0.0172872  -0.0027185  -0.0049547   0.0225318  -0.0238107
    3  -0.0210023   0.0308485   0.0232376   0.0049187   0.0217652   0.0049023
          181         182         183         184         185         186
    1   0.0188192   0.0187320   0.0037572   0.0317768  -0.0054956   0.0016094
    2  -0.0021631  -0.0257040   0.0024064  -0.0062389  -0.0198478   0.0246355
    3  -0.0232892  -0.1049236  -0.0071213   0.0059743  -0.0242767  -0.0238943
          187         188         189         190         191         192
    1   0.0268594  -0.0001129   0.0331866  -0.0212805  -0.0193081  -0.1032295
    2   0.0332041  -0.0073640  -0.0030467  -0.0073961  -0.0169013   0.0177385
    3   0.0426727   0.0001092   0.0119879   0.0202658  -0.0235487  -0.0344024
          193         194         195         196         197         198
    1  -0.0082610  -0.0292965  -0.0111738   0.0030332   0.0198146  -0.0013979
    2   0.0015997  -0.0090137   0.0041503   0.0259018  -0.0170746  -0.0101235
    3  -0.0014355  -0.0255408   0.0281595  -0.0182537  -0.0476958   0.0048419
          199         200         201         202         203         204
    1  -0.0224701   0.0227780  -0.0152494   0.0453750  -0.0064837  -0.0219484
    2  -0.0145334  -0.0149517   0.0112994   0.0661828  -0.0044011   0.0188295
    3  -0.0271392   0.0182143   0.0232793   0.0727826  -0.0019579  -0.0175900
          205         206         207         208         209         210
    1   0.0116389  -0.0027236   0.0402812   0.0016202  -0.0148107   0.0101329
    2  -0.0180734  -0.0280159   0.0233168  -0.0009666  -0.0078603  -0.0260500
    3  -0.0226988   0.0214948  -0.0462921   0.0093263   0.0301660  -0.0182149
          211         212         213         214         215         216
    1   0.0171713  -0.0800336  -0.0018110   0.0157779  -0.0009119  -0.0247463
    2   0.0196532   0.0658314  -0.0042167   0.0177219  -0.0346026   0.0126769
    3   0.0183962   0.0355404  -0.0047897  -0.0232314  -0.0046521  -0.0106930
          217         218         219         220         221         222
    1   0.0485986  -0.0122489   0.0046880   0.0048743  -0.0276014   0.0148123
    2  -0.0372162   0.0046026  -0.0345190   0.0161840   0.0219574   0.1081935
    3   0.0188777  -0.0027433   0.0041576   0.0235032  -0.0099821  -0.0186385
          223         224         225         226         227         228
    1   0.0040441   0.0293143   0.0135598  -0.0211114   0.0311828  -0.0101398
    2  -0.0041792  -0.0028561  -0.0048460  -0.0215606   0.0458508   0.0028501
    3  -0.0009543  -0.0138335   0.0307311   0.0012629   0.0025819   0.0040997
          229         230         231         232         233         234
    1  -0.0192981  -0.0024520   0.0149366  -0.0663875  -0.0045817  -0.0132906
    2   0.0253086  -0.0310180   0.0044573  -0.0319262   0.0049818   0.0101131
    3  -0.0001009   0.0091106   0.0301638  -0.0800096   0.0027258   0.0340229
          235         236         237         238         239         240
    1  -0.0254437   0.0005805   0.0456186  -0.0056482   0.0134559   0.0043988
    2  -0.0028722  -0.0289013  -0.0093069   0.0103694   0.0173008   0.0037956
    3  -0.0215752  -0.0041393   0.0309319   0.0017105   0.0172239  -0.0306974
          241         242         243         244         245         246
    1  -0.0322831  -0.0050294   0.0047485  -0.0203925   0.0282818   0.0151029
    2   0.0121683  -0.0314493  -0.0013432  -0.0251341  -0.0169589   0.0307729
    3   0.0089822  -0.1056986   0.0085889   0.0124630  -0.0089683   0.0136504
          247         248         249         250         251         252
    1  -0.0181928   0.0041297   0.0303049  -0.0050470   0.0003986  -0.0658667
    2  -0.0396198   0.0070600  -0.0091557   0.0145052   0.0275417   0.0739132
    3  -0.0362428   0.0017783  -0.0090345  -0.0287597   0.0180880   0.0486288
          253         254         255         256         257         258
    1  -0.0114084   0.0286293  -0.0204037  -0.0089668   0.0432441   0.0067774
    2  -0.0009481   0.0077901  -0.0027028  -0.0239185  -0.0275882   0.0007350
    3   0.0062514   0.0205718  -0.0243018   0.0253150   0.0230482  -0.0116129
          259         260         261         262
    1   0.0237907  -0.0205716   0.0235108  -0.0772136
    2   0.0019593   0.0141344   0.0189600  -0.0416116
    3  -0.0332873  -0.0123547   0.0114796  -0.0695832
  --- DONE ESP SUMMARY ---
Archival summary:
1\1\node028\SP\ProcedureUnspecified\6-31+G*\242448h22\ymao90\SatDec401:21:082021SatDec401:21:082021\0\\#,ProcedureUnspecified,6-31+G*,\\0,1\S\O,1,1.49676\C,1,1.80691,2,102.879\H,3,1.09231,1,105.792,2,-40.6185,0\H,3,1.09273,1,107.41,2,-163.856,0\H,3,1.093,1,110.896,2,74.6211,0\C,1,1.80726,2,101.119,3,-93.8445,0\H,7,1.09241,1,109.065,2,43.1544,0\H,7,1.0926,1,108.854,2,157.809,0\H,7,1.09318,1,102.112,2,-76.8602,0\Gh,8,2.16838,7,129.328,1,-92.6583,0\Gh,11,1.09754,8,106.828,7,163.041,0\Gh,12,1.0965,11,106.47,8,-21.6593,0\Gh,12,1.53756,11,105.899,8,-135.559,0\Gh,14,1.09682,12,106.9,11,50.4344,0\Gh,14,1.09718,12,105.164,11,172.076,0\Gh,14,1.53734,12,115.272,11,-71.3927,0\Gh,17,1.09685,14,111.701,12,-167.281,0\Gh,17,1.0981,14,107.771,12,81.741,0\Gh,17,1.53713,14,113.84,12,-45.2701,0\Gh,20,1.09702,17,102.022,14,-66.8417,0\Gh,20,1.46159,17,113.155,14,170.436,0\Gh,22,1.01268,20,123.598,17,-81.7022,0\Gh,22,1.37901,20,123.774,17,89.6972,0\Gh,24,1.10542,22,111.433,20,177.94,0\Gh,24,1.21827,22,121.875,20,5.05473,0\Gh,12,1.53798,11,106.619,8,104.905,0\Gh,27,1.09619,12,116.019,11,-55.2342,0\Gh,27,1.09711,12,104.201,11,-169.394,0\Gh,27,1.53753,12,117.415,11,69.003,0\Gh,30,1.09648,27,101.99,12,-71.7706,0\Gh,30,1.09706,27,111.522,12,171.3,0\H,29,2.19989,27,120.557,12,-174.762,0\C,33,1.09288,29,110.702,27,-108.941,0\H,34,1.09259,33,110.078,29,-50.6968,0\H,34,1.09264,33,107.472,29,66.9318,0\S,34,1.80738,33,110.719,29,-164.948,0\O,37,1.49738,34,99.5314,33,166.198,0\C,37,1.80735,34,94.7837,33,-93.3649,0\H,39,1.09266,37,104.786,34,48.0654,0\H,39,1.09288,37,110.336,34,-77.9615,0\H,39,1.09354,37,108.327,34,164.309,0\H,41,2.25866,39,150.455,37,47.2258,0\C,43,1.09258,41,116.794,39,145.02,0\H,44,1.09279,43,112.463,41,-88.9462,0\H,44,1.09287,43,110.952,41,40.8718,0\S,44,1.80709,43,101.379,41,160.822,0\O,47,1.49681,44,99.3793,43,31.5802,0\C,47,1.80696,44,99.0599,43,-79.3348,0\H,49,1.09237,47,109.596,44,178.086,0\H,49,1.09282,47,106.923,44,-64.4188,0\H,49,1.09285,47,115.898,44,64.3197,0\H,2,2.28729,1,121.588,3,-174.991,0\C,53,1.09217,2,113.58,1,-4.0617,0\H,54,1.09338,53,107.205,2,-90.6706,0\H,54,1.09349,53,109.473,2,40.6096,0\S,54,1.80677,53,102.359,2,157.454,0\O,57,1.49714,54,99.1725,53,-78.9583,0\C,57,1.80624,54,95.2768,53,176.582,0\H,59,1.09279,57,106.207,54,176.17,0\H,59,1.09297,57,111.858,54,-62.3901,0\H,59,1.0932,57,110.383,54,55.631,0\H,55,2.21805,54,155.976,53,-60.6767,0\C,63,1.09294,55,126.348,54,124.587,0\H,64,1.09257,63,108.016,55,-86.9473,0\H,64,1.0932,63,106.835,55,40.6573,0\S,64,1.80791,63,105.055,55,156.217,0\O,67,1.4966,64,105.11,63,-61.3238,0\C,67,1.80663,64,88.0304,63,-165.126,0\H,69,1.09267,67,108.452,64,77.7864,0\H,69,1.09342,67,106.156,64,-47.9267,0\H,69,1.09359,67,107.327,64,-167.345,0\O,63,2.17876,55,88.9143,54,-32.4074,0\S,73,1.49679,63,126.511,55,154.046,0\C,74,1.80688,73,97.7517,63,-150.531,0\H,75,1.09263,74,108.575,73,142.495,0\H,75,1.09304,74,117.62,73,-103.994,0\H,75,1.09331,74,111.803,73,17.884,0\C,74,1.80775,73,101.896,63,-50.4399,0\H,79,1.09258,74,111.723,73,-42.6659,0\H,79,1.09261,74,109.502,73,-169.98,0\H,79,1.09336,74,107.767,73,71.4577,0\H,53,2.27845,2,73.9694,1,141.641,0\C,83,1.09296,53,134.328,2,122.796,0\H,84,1.09305,83,96.6568,53,-81.249,0\H,84,1.09312,83,113.084,53,163.557,0\S,84,1.80613,83,116.794,53,28.4948,0\O,87,1.49735,84,107.145,83,-177.094,0\C,87,1.80683,84,91.8042,83,82.1189,0\H,89,1.09222,87,108.596,84,170.387,0\H,89,1.09283,87,105.77,84,-62.4817,0\H,89,1.09377,87,107.536,84,55.3146,0\H,85,1.99527,84,123.15,83,-76.2649,0\C,93,1.09255,85,115.142,84,-154.177,0\H,94,1.09297,93,103.265,85,-158.698,0\H,94,1.09363,93,115.73,85,-44.9525,0\S,94,1.80686,93,116.617,85,91.464,0\O,97,1.49716,94,101.526,93,27.6439,0\C,97,1.80777,94,88.1575,93,-77.545,0\H,99,1.09275,97,112.43,94,60.9382,0\H,99,1.09283,97,106.796,94,178.033,0\H,99,1.09333,97,110.504,94,-55.8062,0\O,5,2.29034,3,142.837,1,147.419,0\S,103,1.49687,5,129.362,3,153.608,0\C,104,1.80679,103,103.278,5,155.519,0\H,105,1.09255,104,119.152,103,43.5383,0\H,105,1.09294,104,111.763,103,-86.5029,0\H,105,1.09303,104,103.83,103,162.2,0\C,104,1.80717,103,98.641,5,-109.413,0\H,109,1.09226,104,111.528,103,68.8304,0\H,109,1.0925,104,110.966,103,-161.227,0\H,109,1.09321,104,95.8003,103,-40.775,0\H,112,2.18414,109,158.561,104,16.8604,0\C,113,1.09314,112,141.83,109,62.7375,0\H,114,1.09295,113,97.3205,112,-35.4858,0\H,114,1.09316,113,111.936,112,81.3513,0\S,114,1.80672,113,121.555,112,-143.955,0\O,117,1.49714,114,108.528,113,165.519,0\C,117,1.8064,114,98.5159,113,62.346,0\H,119,1.09291,117,101.1,114,169.643,0\H,119,1.09307,117,104.183,114,-82.7963,0\H,119,1.0931,117,112.645,114,41.4263,0\H,116,2.14937,114,117.421,113,-30.337,0\C,123,1.09332,116,125.614,114,-78.0673,0\H,124,1.09305,123,115.883,116,116.934,0\H,124,1.09363,123,104.103,116,-128.513,0\S,124,1.80697,123,112.823,116,-9.82418,0\O,127,1.4973,124,105.975,123,-95.9328,0\C,127,1.80755,124,97.8282,123,167.393,0\H,129,1.09245,127,110.153,124,141.723,0\H,129,1.09258,127,112.837,124,-92.3403,0\H,129,1.09305,127,112.814,124,22.4113,0\H,130,2.03462,129,147.833,127,31.0565,0\C,133,1.09282,130,148.683,129,113.057,0\H,134,1.09313,133,103.686,130,133.419,0\H,134,1.09387,133,115.761,130,-116.3,0\S,134,1.80689,133,116.502,130,4.04716,0\O,137,1.49745,134,108.483,133,41.1815,0\C,137,1.80741,134,100.029,133,149.149,0\H,139,1.09272,137,111.554,134,-177.382,0\H,139,1.09295,137,105.953,134,-56.4952,0\H,139,1.0936,137,97.5086,134,61.4055,0\H,21,2.3099,20,121.239,17,-158.286,0\C,143,1.09299,21,143.849,20,-127.505,0\H,144,1.09284,143,102.166,21,-13.2855,0\H,144,1.0932,143,100.641,21,-126.41,0\S,144,1.8075,143,109.012,21,107.881,0\O,147,1.49723,144,105.069,143,-39.1295,0\C,147,1.8069,144,86.1775,143,65.7334,0\H,149,1.09274,147,114.388,144,-60.4191,0\H,149,1.09289,147,99.854,144,-177.402,0\H,149,1.09345,147,106.582,144,70.3591,0\H,146,2.18831,144,137.337,143,1.98868,0\C,153,1.09201,146,160.247,144,176.298,0\H,154,1.0927,153,114.787,146,177.901,0\H,154,1.09275,153,104.898,146,-66.9904,0\S,154,1.80734,153,111.716,146,55.0352,0\O,157,1.49788,154,103.664,153,-160.406,0\C,157,1.80691,154,90.0128,153,-58.0435,0\H,159,1.09268,157,104.306,154,-36.1208,0\H,159,1.09305,157,113.552,154,80.0232,0\H,159,1.09359,157,112.789,154,-161.313,0\H,155,2.19697,154,136.769,153,-31.5194,0\C,163,1.09374,155,114.079,154,-116.966,0\H,164,1.09284,163,110.669,155,-167.064,0\H,164,1.09298,163,111.487,155,-39.9167,0\S,164,1.80685,163,107.904,155,81.1016,0\O,167,1.49679,164,110.759,163,72.7683,0\C,167,1.80711,164,94.7951,163,177.447,0\H,169,1.09261,167,109.742,164,-49.3382,0\H,169,1.0931,167,108.516,164,-172.28,0\H,169,1.0934,167,104.429,164,67.0195,0\H,32,2.32681,30,123.889,27,84.3514,0\C,173,1.09271,32,151.24,30,56.5171,0\H,174,1.09327,173,110.632,32,-168.098,0\H,174,1.09347,173,111.419,32,-31.4123,0\S,174,1.80651,173,103.726,32,77.6293,0\O,177,1.49729,174,98.9359,173,-166.84,0\C,177,1.80656,174,99.9926,173,-61.8638,0\H,179,1.09256,177,117.92,174,-118.04,0\H,179,1.09274,177,105.922,174,2.96735,0\H,179,1.09354,177,105.9,174,114.924,0\H,182,2.18773,179,111.721,177,140.547,0\C,183,1.09327,182,148.796,179,-88.3549,0\H,184,1.09312,183,115.003,182,44.1601,0\H,184,1.09312,183,113.466,182,163.063,0\S,184,1.80704,183,107.36,182,-67.1437,0\O,187,1.49695,184,100.788,183,86.0626,0\C,187,1.80711,184,99.8435,183,-163.668,0\H,189,1.09269,187,111.213,184,-39.1087,0\H,189,1.09332,187,100.99,184,73.728,0\H,189,1.09349,187,116.117,184,-161.867,0\H,186,2.21005,184,150.675,183,-67.4696,0\C,193,1.09291,186,131.752,184,90.0727,0\H,194,1.09311,193,113.459,186,152.372,0\H,194,1.0936,193,109.746,186,34.2669,0\S,194,1.80724,193,107.978,186,-86.1465,0\O,197,1.49687,194,106.313,193,73.3634,0\C,197,1.80687,194,93.8064,193,-29.7137,0\H,199,1.09205,197,110.717,194,-37.4401,0\H,199,1.09294,197,112.424,194,-161.185,0\H,199,1.09313,197,103.974,194,77.2208,0\H,166,2.34155,164,152.746,163,128.537,0\C,203,1.09256,166,121.201,164,-142.463,0\H,204,1.09318,203,111.79,166,63.9199,0\H,204,1.09318,203,117.292,166,-168.346,0\S,204,1.80636,203,107.971,166,-54.1108,0\O,207,1.49721,204,107.323,203,62.6686,0\C,207,1.8067,204,98.2635,203,-48.4345,0\H,209,1.09248,207,112.309,204,-55.3364,0\H,209,1.09274,207,115.545,204,-176.093,0\H,209,1.09336,207,108.106,204,62.8051,0\H,175,2.37186,174,90.0211,173,75.3882,0\C,213,1.09335,175,135.507,174,128.641,0\H,214,1.09308,213,105.965,175,27.7777,0\H,214,1.09356,213,113.107,175,149.598,0\S,214,1.80624,213,106.372,175,-96.2124,0\O,217,1.49653,214,115.019,213,-84.9773,0\C,217,1.80639,214,96.7505,213,169.227,0\H,219,1.09276,217,107.533,214,38.3015,0\H,219,1.09326,217,108.345,214,146.527,0\H,219,1.09355,217,110.679,214,-88.9865,0\H,145,2.42611,144,130.361,143,-43.6845,0\C,223,1.09344,145,96.4685,144,-150.806,0\H,224,1.09314,223,111.085,145,62.3373,0\H,224,1.09363,223,111.38,145,-49.5981,0\S,224,1.80664,223,113.135,145,178.416,0\O,227,1.49688,224,107.011,223,-173.57,0\C,227,1.8071,224,91.8501,223,83.3092,0\H,229,1.09246,227,117.925,224,-97.1303,0\H,229,1.09306,227,102.375,224,140.932,0\H,229,1.09344,227,109.238,224,22.8978,0\O,101,2.56586,99,96.7863,97,82.0062,0\S,233,1.49775,101,113.272,99,153.759,0\C,234,1.80692,233,102.33,101,-151.426,0\H,235,1.09287,234,110.336,233,167.96,0\H,235,1.09314,234,105.431,233,37.5828,0\H,235,1.09332,234,106.087,233,-72.3557,0\C,234,1.80728,233,98.1191,101,-52.8662,0\H,239,1.09271,234,104.39,233,-31.4482,0\H,239,1.09283,234,107.684,233,87.3314,0\H,239,1.09309,234,110.085,233,-154.112,0\H,240,2.44827,239,119.32,234,165.354,0\C,243,1.0929,240,118.69,239,45.4531,0\H,244,1.09287,243,107.314,240,88.6682,0\H,244,1.09309,243,104.424,240,-27.1125,0\S,244,1.80743,243,111.778,240,-149.746,0\O,247,1.49782,244,105.888,243,-101.404,0\C,247,1.80675,244,100.178,243,151.064,0\H,249,1.09236,247,111.031,244,172.947,0\H,249,1.09251,247,109.456,244,49.028,0\H,249,1.09371,247,103.714,244,-68.7919,0\H,10,2.69679,7,107.699,1,-103.414,0\C,253,1.09316,10,104.237,7,102.858,0\H,254,1.09228,253,104.763,10,164.327,0\H,254,1.09346,253,110.052,10,-75.4312,0\S,254,1.8068,253,114.51,10,48.1686,0\O,257,1.49709,254,104.783,253,170.725,0\C,257,1.80637,254,93.1752,253,61.2127,0\H,259,1.09284,257,113.078,254,-78.0964,0\H,259,1.09313,257,102.675,254,167.975,0\H,259,1.09357,257,107.207,254,51.7966,0\\\@

 Total job time:  45.13s(wall), 144.30s(cpu) 
 Sat Dec  4 01:21:08 2021

        *************************************************************
        *                                                           *
        *  Thank you very much for using Q-Chem.  Have a nice day.  *
        *                                                           *
        *************************************************************


