                  Welcome to Q-Chem
     A Quantum Leap Into The Future Of Chemistry


 Q-Chem 5.2 (devel), Q-Chem, Inc., Pleasanton, CA (2019)

 Yihan Shao,  Zhengting Gan,  E. Epifanovsky,  A. T. B. Gilbert,  M. Wormit,  
 J. Kussmann,  A. W. Lange,  A. Behn,  Jia Deng,  Xintian Feng,  D. Ghosh,  
 M. Goldey,  P. R. Horn,  L. D. Jacobson,  I. Kaliman,  T. Kus,  A. Landau,  
 Jie Liu,  E. I. Proynov,  R. M. Richard,  R. P. Steele,  E. J. Sundstrom,  
 H. L. Woodcock III,  P. M. Zimmerman,  D. Zuev,  B. Alam,  B. Albrecht,  
 E. Alguire,  S. A. Baeppler,  D. Barton,  Z. Benda,  Y. A. Bernard,  
 E. J. Berquist,  K. B. Bravaya,  H. Burton,  K. Carter-Fenk,  D. Casanova,  
 Chun-Min Chang,  Yunqing Chen,  A. Chien,  K. D. Closser,  M. P. Coons,  
 S. Coriani,  S. Dasgupta,  A. L. Dempwolff,  M. Diedenhofen,  Hainam Do,  
 R. G. Edgar,  Po-Tung Fang,  S. Faraji,  S. Fatehi,  Qingguo Feng,  
 J. Fosso-Tande,  J. Gayvert,  Qinghui Ge,  A. Ghysels,  G. Gidofalvi,  
 J. Gomes,  J. Gonthier,  A. Gunina,  D. Hait,  M. W. D. Hanson-Heine,  
 P. H. P. Harbach,  A. W. Hauser,  M. F. Herbst,  J. E. Herr,  
 E. G. Hohenstein,  Z. C. Holden,  Kerwin Hui,  B. C. Huynh,  T.-C. Jagau,  
 Hyunjun Ji,  B. Kaduk,  K. Khistyaev,  Jaehoon Kim,  P. Klunzinger,  K. Koh,  
 D. Kosenkov,  L. Koulias,  T. Kowalczyk,  C. M. Krauter,  A. Kunitsa,  
 Ka Un Lao,  A. Laurent,  K. V. Lawler,  Joonho Lee,  D. Lefrancois,  
 S. Lehtola,  D. S. Levine,  Yi-Pei Li,  You-Sheng Lin,  Fenglai Liu,  
 Kuan-Yu Liu,  E. Livshits,  M. Loipersberger,  A. Luenser,  P. Manohar,  
 E. Mansoor,  S. F. Manzer,  Shan-Ping Mao,  Yuezhi Mao,  N. Mardirossian,  
 A. V. Marenich,  T. Markovich,  L. A. Martinez-Martinez,  S. A. Maurer,  
 N. J. Mayhall,  S. C. McKenzie,  J.-M. Mewes,  P. Morgante,  A. F. Morrison,  
 J. W. Mullinax,  K. Nanda,  T. S. Nguyen-Beck,  R. Olivares-Amaya,  
 J. A. Parkhill,  S. K. Paul,  F. Pavosevic,  Zheng Pei,  T. M. Perrine,  
 F. Plasser,  P. Pokhilko,  S. Prager,  A. Prociuk,  E. Ramos,  B. Rana,  
 D. R. Rehn,  F. Rob,  M. Scheurer,  M. Schneider,  N. Sergueev,  
 S. M. Sharada,  S. Sharma,  D. W. Small,  T. Stauch,  C. J. Stein,  
 T. Stein,  Yu-Chuan Su,  S. P. Veccham,  Zhen Tao,  A. J. W. Thom,  
 A. Tkatchenko,  T. Tsuchimochi,  N. M. Tubman,  L. Vogt,  M. L. Vidal,  
 O. Vydrov,  M. A. Watson,  J. Wenzel,  M. de Wergifosse,  T. A. Wesolowski,  
 A. White,  J. Witte,  A. Yamada,  Jun Yang,  K. Yao,  S. Yeganeh,  
 S. R. Yost,  Zhi-Qiang You,  A. Zech,  Igor Ying Zhang,  Xing Zhang,  
 Yan Zhao,  Ying Zhu,  B. R. Brooks,  G. K. L. Chan,  C. J. Cramer,  
 M. S. Gordon,  W. J. Hehre,  A. Klamt,  M. W. Schmidt,  C. D. Sherrill,  
 D. G. Truhlar,  A. Aspuru-Guzik,  R. Baer,  A. T. Bell,  N. A. Besley,  
 Jeng-Da Chai,  A. E. DePrince, III,  R. A. DiStasio Jr.,  A. Dreuw,  
 B. D. Dunietz,  T. R. Furlani,  Chao-Ping Hsu,  Yousung Jung,  Jing Kong,  
 D. S. Lambrecht,  WanZhen Liang,  C. Ochsenfeld,  V. A. Rassolov,  
 L. V. Slipchenko,  J. E. Subotnik,  T. Van Voorhis,  J. M. Herbert,  
 A. I. Krylov,  P. M. W. Gill,  M. Head-Gordon

 Contributors to earlier versions of Q-Chem not listed above: 
 R. D. Adamson,  B. Austin,  J. Baker,  G. J. O. Beran,  K. Brandhorst,  
 S. T. Brown,  E. F. C. Byrd,  A. K. Chakraborty,  C.-L. Cheng,  
 Siu Hung Chien,  D. M. Chipman,  D. L. Crittenden,  H. Dachsel,  
 R. J. Doerksen,  A. D. Dutoi,  L. Fusti-Molnar,  W. A. Goddard III,  
 A. Golubeva-Zadorozhnaya,  S. R. Gwaltney,  G. Hawkins,  A. Heyden,  
 S. Hirata,  G. Kedziora,  F. J. Keil,  C. Kelley,  Jihan Kim,  R. A. King,  
 R. Z. Khaliullin,  P. P. Korambath,  W. Kurlancheek,  A. M. Lee,  M. S. Lee,  
 S. V. Levchenko,  Ching Yeh Lin,  D. Liotard,  R. C. Lochan,  I. Lotan,  
 P. E. Maslen,  N. Nair,  D. P. O'Neill,  D. Neuhauser,  E. Neuscamman,  
 C. M. Oana,  R. Olson,  B. Peters,  R. Peverati,  P. A. Pieniazek,  
 Y. M. Rhee,  J. Ritchie,  M. A. Rohrdanz,  E. Rosta,  N. J. Russ,  
 H. F. Schaefer III,  N. E. Schultz,  N. Shenvi,  A. C. Simmonett,  A. Sodt,  
 D. Stuck,  K. S. Thanthiriwatte,  V. Vanovschi,  Tao Wang,  A. Warshel,  
 C. F. Williams,  Q. Wu,  X. Xu,  W. Zhang

 Please cite Q-Chem as follows:
 Y. Shao et al., Mol. Phys. 113, 184-215 (2015)
 DOI: 10.1080/00268976.2014.952696

 Q-Chem 5.2.2 for Intel X86 EM64T Linux

 Parts of Q-Chem use Armadillo 9.800.1 (Horizon Scraper).
 http://arma.sourceforge.net/

 Q-Chem begins on Fri Dec  3 12:08:51 2021  

Host: node023
0

     Scratch files written to /home/ymao90/scratch/r7.00_frame_0003_spade_B3LYP_dp20211203120846//

Checking the input file for inconsistencies... 	...done.

--------------------------------------------------------------
User input:
--------------------------------------------------------------
$molecule
0 1
--
0 1
C    19.32600   21.89900   28.35500  
C    19.68100   20.41700   28.55800  
C    19.35200   19.60300   27.29600  
C    19.97300   20.19600   26.02000  
C    19.57700   21.66700   25.81100  
C    19.96400   22.45700   27.07200  
H    19.62100   18.56900   27.54300  
H    20.75500   20.31500   28.75700  
H    18.24100   22.01400   28.24300  
H    19.61900   22.47700   29.24000  
H    21.06200   20.07100   26.04300  
H    19.62700   19.77800   25.06700  
H    19.96800   22.28000   24.99000  
H    18.48500   21.64900   25.71000  
H    21.04600   22.37000   27.22700  
H    19.79400   23.52800   26.90700  
H    18.26100   19.51800   27.22300  
N    18.76600   19.88500   29.56700  
H    17.77700   19.72100   29.41900  
C    19.22200   19.15500   30.64400  
H    18.42400   18.67000   31.23500  
O    20.40400   19.03200   30.91400  
--
0 1
C    22.80900   18.67600   28.68600  
H    22.98000   18.02400   29.54700  
H    23.19300   19.63600   29.04000  
H    21.73100   18.65800   28.50300  
S    23.68200   18.26100   27.16000  
C    25.22900   17.67500   27.88800  
H    25.63200   18.45000   28.54400  
H    24.88400   16.81500   28.46800  
H    25.85600   17.38200   27.04200  
O    23.98800   19.62900   26.63400  
C    22.24800   13.30500   29.57200  
H    21.75100   14.25700   29.36300  
H    23.32700   13.47500   29.60200  
H    21.90100   12.67100   28.75200  
S    21.48200   12.61300   31.05400  
C    21.99800   13.79700   32.31800  
H    23.04000   14.01100   32.06400  
H    21.43600   14.73400   32.26600  
H    21.77600   13.20000   33.20500  
O    22.21200   11.35700   31.41800  
C    18.44700   22.59600   37.10900  
H    18.46700   21.65900   37.67100  
H    18.91900   23.41700   37.65600  
H    17.42100   22.85400   36.83500  
S    19.32800   22.44400   35.53900  
C    18.13800   23.35100   34.52500  
H    18.62700   23.47200   33.55500  
H    17.22300   22.75300   34.51200  
H    17.93900   24.32000   34.99100  
O    18.93700   21.04100   35.19000  
C    15.76700   19.99000   33.72300  
H    16.76000   19.99400   34.17900  
H    15.29500   19.00400   33.72600  
H    15.69000   20.38200   32.70600  
S    14.66700   21.13200   34.58800  
C    15.18000   20.81700   36.29200  
H    14.88800   19.80900   36.59800  
H    16.26500   20.90700   36.38600  
H    14.66700   21.54200   36.92900  
O    13.35900   20.42100   34.43600  
C    14.68900   16.80600   29.67100  
H    14.29000   16.05800   30.36100  
H    13.92000   17.21500   29.01000  
H    15.45900   16.30200   29.08200  
S    15.38700   18.07000   30.75800  
C    13.78100   18.86300   30.99000  
H    13.85500   19.70500   31.68300  
H    13.39900   19.16900   30.01300  
H    13.13100   18.08000   31.38800  
O    15.96800   19.15900   29.91100  
C    21.94400   17.03000   21.97900  
H    22.59500   16.17200   22.16200  
H    21.82500   17.26200   20.91700  
H    22.37900   17.94300   22.39400  
S    20.33200   16.60500   22.67700  
C    20.80300   16.74700   24.41600  
H    21.61400   16.02400   24.53400  
H    21.15500   17.77200   24.55400  
H    19.99300   16.56500   25.12700  
O    20.20900   15.13700   22.41300  
C    25.41700   21.77200   28.45400  
H    25.40100   21.21400   27.51500  
H    26.02100   22.68300   28.43700  
H    25.78400   21.15200   29.27600  
S    23.76300   22.38500   28.84600  
C    23.56800   23.24300   27.26800  
H    23.64400   22.49900   26.47000  
H    22.59500   23.72000   27.12800  
H    24.36400   23.97500   27.10800  
O    24.02300   23.43300   29.88300  
C    21.24400   23.23800   31.70700  
H    21.47100   23.51500   32.74000  
H    20.64000   22.32800   31.66500  
H    22.22700   23.03000   31.27700  
S    20.59600   24.64300   30.77400  
C    21.87100   25.87900   31.10900  
H    22.73500   25.29600   30.77800  
H    21.74300   26.86600   30.65900  
H    21.92900   26.00500   32.19300  
O    19.48600   25.06800   31.68400  
C    19.92900   26.63100   27.62000  
H    19.39500   26.74000   26.67200  
H    19.68000   25.63300   27.99000  
H    19.65300   27.34900   28.39500  
S    21.66800   26.53700   27.13700  
C    21.69100   28.23400   26.51600  
H    21.15600   28.15400   25.56600  
H    21.13500   28.81800   27.25400  
H    22.70200   28.59900   26.31600  
O    21.77400   25.75300   25.86600  
C    12.17900   24.35000   28.28800  
H    11.23000   24.75400   28.65200  
H    13.01400   25.05200   28.34800  
H    12.00100   23.97300   27.27700  
S    12.63300   22.97000   29.36300  
C    11.06400   22.12600   29.05800  
H    10.99100   21.19700   29.62800  
H    10.22800   22.76700   29.34700  
H    11.02800   21.98800   27.97400  
O    12.33400   23.58200   30.69600  
C    16.34900   14.87300   33.70500  
H    16.45100   13.89000   34.17200  
H    16.82200   15.65300   34.30700  
H    15.27000   15.04700   33.70700  
S    17.03500   14.98200   32.03700  
C    16.22300   13.50400   31.38700  
H    16.49700   13.21700   30.36800  
H    16.45200   12.64100   32.01600  
H    15.16500   13.77600   31.42400  
O    18.44400   14.48800   32.15000  
C    23.54100   19.47500   32.28000  
H    24.39900   20.14000   32.41100  
H    22.98600   19.68000   31.36100  
H    22.93700   19.56500   33.18700  
S    24.22900   17.80900   32.15400  
C    25.28900   17.78100   33.61700  
H    25.82700   18.73100   33.67200  
H    24.61800   17.66300   34.47200  
H    26.03300   16.98100   33.59500  
O    25.15400   17.89000   30.98000  
C    20.03900   18.15500   34.55700  
H    20.56200   19.10900   34.66100  
H    19.44800   17.97900   33.65500  
H    19.38900   18.10200   35.43400  
S    21.23300   16.83900   34.88700  
C    20.20800   15.38800   35.21800  
H    19.74200   15.01900   34.30100  
H    20.83300   14.59900   35.64400  
H    19.39500   15.68200   35.88600  
O    21.80000   17.10900   36.24600  
C    22.23300   26.62300   22.47500  
H    22.44100   25.63500   22.05800  
H    22.91600   27.29700   21.95100  
H    22.48500   26.54900   23.53600  
S    20.51500   27.11900   22.21400  
C    19.82500   25.65400   23.01700  
H    18.74200   25.53600   22.93500  
H    20.19000   24.73700   22.54800  
H    19.96900   25.61900   24.10000  
O    20.35300   26.78800   20.76300  
C    25.50600   18.18800   23.86800  
H    26.35900   18.15900   24.55100  
H    24.87000   19.07400   23.93100  
H    25.04400   17.19800   23.91500  
S    26.17700   18.21700   22.19000  
C    27.38000   16.91300   22.53400  
H    28.24700   16.82300   21.87400  
H    27.72300   17.23100   23.52200  
H    26.83800   15.97300   22.65900  
O    27.00900   19.46000   22.13300  
C    21.36500   20.53500   20.36300  
H    21.78500   19.58500   20.02400  
H    21.42900   21.19200   19.49200  
H    21.96800   20.82600   21.22800  
S    19.64100   20.39300   20.88300  
C    19.49600   22.17000   21.17800  
H    20.33200   22.47200   21.81500  
H    19.65100   22.61700   20.19300  
H    18.47700   22.50500   21.38900  
O    19.71800   19.77400   22.24400  
C    16.42600   29.76300   24.28300  
H    15.62400   30.25200   24.84300  
H    16.97800   30.62200   23.89200  
H    16.08800   29.13000   23.45900  
S    17.41300   28.74800   25.40600  
C    18.15300   30.10900   26.33700  
H    18.71900   30.63900   25.56700  
H    17.39800   30.84300   26.63100  
H    18.83400   29.84500   27.15000  
O    18.68400   28.35900   24.71900  
C    25.12700   22.50400   23.94600  
H    25.54600   22.32600   24.93900  
H    25.45200   21.71100   23.26900  
H    25.53000   23.43600   23.54000  
S    23.34900   22.72000   23.70300  
C    22.95100   20.96200   23.82000  
H    23.14400   20.58000   24.82600  
H    21.86400   20.93900   23.70900  
H    23.43100   20.32200   23.07500  
O    23.13900   22.91300   22.23400  
C    15.40700   21.54800   27.32700  
H    16.17900   21.39700   26.56800  
H    15.23600   22.61100   27.51500  
H    15.76200   21.06100   28.23900  
S    13.97400   20.55600   26.85000  
C    14.77900   18.96400   26.55900  
H    14.02900   18.22200   26.27100  
H    15.49900   19.18600   25.76800  
H    15.32300   18.63200   27.44700  
O    13.55900   21.02500   25.49000  
C    17.19700   25.09000   26.10600  
H    18.21000   25.01200   25.70400  
H    17.19600   25.86300   26.87900  
H    16.97600   24.13700   26.59300  
S    16.10700   25.42500   24.70400  
C    14.52000   24.98300   25.44600  
H    14.65100   23.93000   25.71100  
H    14.26900   25.59100   26.31800  
H    13.67700   25.16000   24.77400  
O    16.27900   24.18700   23.88000  
C    18.45300   15.83500   28.81200  
H    18.77700   14.86200   29.18900  
H    19.27300   16.49400   28.52000  
H    17.75400   16.45200   29.38200  
S    17.69800   15.58700   27.18900  
C    19.05500   14.53600   26.62500  
H    19.20400   14.66600   25.55000  
H    19.97900   14.80000   27.14700  
H    18.75200   13.49300   26.74700  
O    17.89200   16.89600   26.48900  
C    16.64700   22.82000   31.05900  
H    17.19900   22.17900   30.36700  
H    17.04100   22.94300   32.07100  
H    15.65400   22.36400   31.10300  
S    16.73500   24.45900   30.30500  
C    15.36400   24.93900   31.38000  
H    15.15900   25.99600   31.18700  
H    14.55200   24.26300   31.10200  
H    15.69400   24.85300   32.41800  
O    16.12700   24.37200   28.94000  
C    16.98000   18.06800   23.50600  
H    16.19600   17.84700   24.23500  
H    17.14200   17.13300   22.96300  
H    17.89800   18.38400   24.00700  
S    16.51600   19.44200   22.42800  
C    16.82700   20.74200   23.64300  
H    17.87400   21.03900   23.74500  
H    16.49900   21.69400   23.21700  
H    16.36500   20.58500   24.62100  
O    15.06800   19.35600   22.05500  
$end

$rem
JOBTYPE  SP
METHOD  B3LYP
BASIS  6-31+G(D)
SYMMETRY  FALSE
SYM_IGNORE  TRUE
MEM_TOTAL  16000
MEM_STATIC  8000
MAX_SUB_FILE_NUM  16000
BASIS_LIN_DEP_THRESH  6
THRESH  14
SCF_CONVERGENCE  8
GEN_SCFMAN  TRUE
SCF_GUESS  SAD
FD_MAT_VEC_PROD  FALSE
XC_GRID  000075000302
NL_GRID  1
MAX_SCF_CYCLES  200
ENV_METHOD  B3LYP
GEN_SCFMAN_EMBED  TRUE
SPADE_PARTITION  TRUE
$end

$development
embedding_early_stop  1
$end

--------------------------------------------------------------
 ----------------------------------------------------------------
             Standard Nuclear Orientation (Angstroms)
    I     Atom           X                Y                Z
 ----------------------------------------------------------------
    1      C      19.3260000000    21.8990000000    28.3550000000
    2      C      19.6810000000    20.4170000000    28.5580000000
    3      C      19.3520000000    19.6030000000    27.2960000000
    4      C      19.9730000000    20.1960000000    26.0200000000
    5      C      19.5770000000    21.6670000000    25.8110000000
    6      C      19.9640000000    22.4570000000    27.0720000000
    7      H      19.6210000000    18.5690000000    27.5430000000
    8      H      20.7550000000    20.3150000000    28.7570000000
    9      H      18.2410000000    22.0140000000    28.2430000000
   10      H      19.6190000000    22.4770000000    29.2400000000
   11      H      21.0620000000    20.0710000000    26.0430000000
   12      H      19.6270000000    19.7780000000    25.0670000000
   13      H      19.9680000000    22.2800000000    24.9900000000
   14      H      18.4850000000    21.6490000000    25.7100000000
   15      H      21.0460000000    22.3700000000    27.2270000000
   16      H      19.7940000000    23.5280000000    26.9070000000
   17      H      18.2610000000    19.5180000000    27.2230000000
   18      N      18.7660000000    19.8850000000    29.5670000000
   19      H      17.7770000000    19.7210000000    29.4190000000
   20      C      19.2220000000    19.1550000000    30.6440000000
   21      H      18.4240000000    18.6700000000    31.2350000000
   22      O      20.4040000000    19.0320000000    30.9140000000
   23      C      22.8090000000    18.6760000000    28.6860000000
   24      H      22.9800000000    18.0240000000    29.5470000000
   25      H      23.1930000000    19.6360000000    29.0400000000
   26      H      21.7310000000    18.6580000000    28.5030000000
   27      S      23.6820000000    18.2610000000    27.1600000000
   28      C      25.2290000000    17.6750000000    27.8880000000
   29      H      25.6320000000    18.4500000000    28.5440000000
   30      H      24.8840000000    16.8150000000    28.4680000000
   31      H      25.8560000000    17.3820000000    27.0420000000
   32      O      23.9880000000    19.6290000000    26.6340000000
   33      C      22.2480000000    13.3050000000    29.5720000000
   34      H      21.7510000000    14.2570000000    29.3630000000
   35      H      23.3270000000    13.4750000000    29.6020000000
   36      H      21.9010000000    12.6710000000    28.7520000000
   37      S      21.4820000000    12.6130000000    31.0540000000
   38      C      21.9980000000    13.7970000000    32.3180000000
   39      H      23.0400000000    14.0110000000    32.0640000000
   40      H      21.4360000000    14.7340000000    32.2660000000
   41      H      21.7760000000    13.2000000000    33.2050000000
   42      O      22.2120000000    11.3570000000    31.4180000000
   43      C      18.4470000000    22.5960000000    37.1090000000
   44      H      18.4670000000    21.6590000000    37.6710000000
   45      H      18.9190000000    23.4170000000    37.6560000000
   46      H      17.4210000000    22.8540000000    36.8350000000
   47      S      19.3280000000    22.4440000000    35.5390000000
   48      C      18.1380000000    23.3510000000    34.5250000000
   49      H      18.6270000000    23.4720000000    33.5550000000
   50      H      17.2230000000    22.7530000000    34.5120000000
   51      H      17.9390000000    24.3200000000    34.9910000000
   52      O      18.9370000000    21.0410000000    35.1900000000
   53      C      15.7670000000    19.9900000000    33.7230000000
   54      H      16.7600000000    19.9940000000    34.1790000000
   55      H      15.2950000000    19.0040000000    33.7260000000
   56      H      15.6900000000    20.3820000000    32.7060000000
   57      S      14.6670000000    21.1320000000    34.5880000000
   58      C      15.1800000000    20.8170000000    36.2920000000
   59      H      14.8880000000    19.8090000000    36.5980000000
   60      H      16.2650000000    20.9070000000    36.3860000000
   61      H      14.6670000000    21.5420000000    36.9290000000
   62      O      13.3590000000    20.4210000000    34.4360000000
   63      C      14.6890000000    16.8060000000    29.6710000000
   64      H      14.2900000000    16.0580000000    30.3610000000
   65      H      13.9200000000    17.2150000000    29.0100000000
   66      H      15.4590000000    16.3020000000    29.0820000000
   67      S      15.3870000000    18.0700000000    30.7580000000
   68      C      13.7810000000    18.8630000000    30.9900000000
   69      H      13.8550000000    19.7050000000    31.6830000000
   70      H      13.3990000000    19.1690000000    30.0130000000
   71      H      13.1310000000    18.0800000000    31.3880000000
   72      O      15.9680000000    19.1590000000    29.9110000000
   73      C      21.9440000000    17.0300000000    21.9790000000
   74      H      22.5950000000    16.1720000000    22.1620000000
   75      H      21.8250000000    17.2620000000    20.9170000000
   76      H      22.3790000000    17.9430000000    22.3940000000
   77      S      20.3320000000    16.6050000000    22.6770000000
   78      C      20.8030000000    16.7470000000    24.4160000000
   79      H      21.6140000000    16.0240000000    24.5340000000
   80      H      21.1550000000    17.7720000000    24.5540000000
   81      H      19.9930000000    16.5650000000    25.1270000000
   82      O      20.2090000000    15.1370000000    22.4130000000
   83      C      25.4170000000    21.7720000000    28.4540000000
   84      H      25.4010000000    21.2140000000    27.5150000000
   85      H      26.0210000000    22.6830000000    28.4370000000
   86      H      25.7840000000    21.1520000000    29.2760000000
   87      S      23.7630000000    22.3850000000    28.8460000000
   88      C      23.5680000000    23.2430000000    27.2680000000
   89      H      23.6440000000    22.4990000000    26.4700000000
   90      H      22.5950000000    23.7200000000    27.1280000000
   91      H      24.3640000000    23.9750000000    27.1080000000
   92      O      24.0230000000    23.4330000000    29.8830000000
   93      C      21.2440000000    23.2380000000    31.7070000000
   94      H      21.4710000000    23.5150000000    32.7400000000
   95      H      20.6400000000    22.3280000000    31.6650000000
   96      H      22.2270000000    23.0300000000    31.2770000000
   97      S      20.5960000000    24.6430000000    30.7740000000
   98      C      21.8710000000    25.8790000000    31.1090000000
   99      H      22.7350000000    25.2960000000    30.7780000000
  100      H      21.7430000000    26.8660000000    30.6590000000
  101      H      21.9290000000    26.0050000000    32.1930000000
  102      O      19.4860000000    25.0680000000    31.6840000000
  103      C      19.9290000000    26.6310000000    27.6200000000
  104      H      19.3950000000    26.7400000000    26.6720000000
  105      H      19.6800000000    25.6330000000    27.9900000000
  106      H      19.6530000000    27.3490000000    28.3950000000
  107      S      21.6680000000    26.5370000000    27.1370000000
  108      C      21.6910000000    28.2340000000    26.5160000000
  109      H      21.1560000000    28.1540000000    25.5660000000
  110      H      21.1350000000    28.8180000000    27.2540000000
  111      H      22.7020000000    28.5990000000    26.3160000000
  112      O      21.7740000000    25.7530000000    25.8660000000
  113      C      12.1790000000    24.3500000000    28.2880000000
  114      H      11.2300000000    24.7540000000    28.6520000000
  115      H      13.0140000000    25.0520000000    28.3480000000
  116      H      12.0010000000    23.9730000000    27.2770000000
  117      S      12.6330000000    22.9700000000    29.3630000000
  118      C      11.0640000000    22.1260000000    29.0580000000
  119      H      10.9910000000    21.1970000000    29.6280000000
  120      H      10.2280000000    22.7670000000    29.3470000000
  121      H      11.0280000000    21.9880000000    27.9740000000
  122      O      12.3340000000    23.5820000000    30.6960000000
  123      C      16.3490000000    14.8730000000    33.7050000000
  124      H      16.4510000000    13.8900000000    34.1720000000
  125      H      16.8220000000    15.6530000000    34.3070000000
  126      H      15.2700000000    15.0470000000    33.7070000000
  127      S      17.0350000000    14.9820000000    32.0370000000
  128      C      16.2230000000    13.5040000000    31.3870000000
  129      H      16.4970000000    13.2170000000    30.3680000000
  130      H      16.4520000000    12.6410000000    32.0160000000
  131      H      15.1650000000    13.7760000000    31.4240000000
  132      O      18.4440000000    14.4880000000    32.1500000000
  133      C      23.5410000000    19.4750000000    32.2800000000
  134      H      24.3990000000    20.1400000000    32.4110000000
  135      H      22.9860000000    19.6800000000    31.3610000000
  136      H      22.9370000000    19.5650000000    33.1870000000
  137      S      24.2290000000    17.8090000000    32.1540000000
  138      C      25.2890000000    17.7810000000    33.6170000000
  139      H      25.8270000000    18.7310000000    33.6720000000
  140      H      24.6180000000    17.6630000000    34.4720000000
  141      H      26.0330000000    16.9810000000    33.5950000000
  142      O      25.1540000000    17.8900000000    30.9800000000
  143      C      20.0390000000    18.1550000000    34.5570000000
  144      H      20.5620000000    19.1090000000    34.6610000000
  145      H      19.4480000000    17.9790000000    33.6550000000
  146      H      19.3890000000    18.1020000000    35.4340000000
  147      S      21.2330000000    16.8390000000    34.8870000000
  148      C      20.2080000000    15.3880000000    35.2180000000
  149      H      19.7420000000    15.0190000000    34.3010000000
  150      H      20.8330000000    14.5990000000    35.6440000000
  151      H      19.3950000000    15.6820000000    35.8860000000
  152      O      21.8000000000    17.1090000000    36.2460000000
  153      C      22.2330000000    26.6230000000    22.4750000000
  154      H      22.4410000000    25.6350000000    22.0580000000
  155      H      22.9160000000    27.2970000000    21.9510000000
  156      H      22.4850000000    26.5490000000    23.5360000000
  157      S      20.5150000000    27.1190000000    22.2140000000
  158      C      19.8250000000    25.6540000000    23.0170000000
  159      H      18.7420000000    25.5360000000    22.9350000000
  160      H      20.1900000000    24.7370000000    22.5480000000
  161      H      19.9690000000    25.6190000000    24.1000000000
  162      O      20.3530000000    26.7880000000    20.7630000000
  163      C      25.5060000000    18.1880000000    23.8680000000
  164      H      26.3590000000    18.1590000000    24.5510000000
  165      H      24.8700000000    19.0740000000    23.9310000000
  166      H      25.0440000000    17.1980000000    23.9150000000
  167      S      26.1770000000    18.2170000000    22.1900000000
  168      C      27.3800000000    16.9130000000    22.5340000000
  169      H      28.2470000000    16.8230000000    21.8740000000
  170      H      27.7230000000    17.2310000000    23.5220000000
  171      H      26.8380000000    15.9730000000    22.6590000000
  172      O      27.0090000000    19.4600000000    22.1330000000
  173      C      21.3650000000    20.5350000000    20.3630000000
  174      H      21.7850000000    19.5850000000    20.0240000000
  175      H      21.4290000000    21.1920000000    19.4920000000
  176      H      21.9680000000    20.8260000000    21.2280000000
  177      S      19.6410000000    20.3930000000    20.8830000000
  178      C      19.4960000000    22.1700000000    21.1780000000
  179      H      20.3320000000    22.4720000000    21.8150000000
  180      H      19.6510000000    22.6170000000    20.1930000000
  181      H      18.4770000000    22.5050000000    21.3890000000
  182      O      19.7180000000    19.7740000000    22.2440000000
  183      C      16.4260000000    29.7630000000    24.2830000000
  184      H      15.6240000000    30.2520000000    24.8430000000
  185      H      16.9780000000    30.6220000000    23.8920000000
  186      H      16.0880000000    29.1300000000    23.4590000000
  187      S      17.4130000000    28.7480000000    25.4060000000
  188      C      18.1530000000    30.1090000000    26.3370000000
  189      H      18.7190000000    30.6390000000    25.5670000000
  190      H      17.3980000000    30.8430000000    26.6310000000
  191      H      18.8340000000    29.8450000000    27.1500000000
  192      O      18.6840000000    28.3590000000    24.7190000000
  193      C      25.1270000000    22.5040000000    23.9460000000
  194      H      25.5460000000    22.3260000000    24.9390000000
  195      H      25.4520000000    21.7110000000    23.2690000000
  196      H      25.5300000000    23.4360000000    23.5400000000
  197      S      23.3490000000    22.7200000000    23.7030000000
  198      C      22.9510000000    20.9620000000    23.8200000000
  199      H      23.1440000000    20.5800000000    24.8260000000
  200      H      21.8640000000    20.9390000000    23.7090000000
  201      H      23.4310000000    20.3220000000    23.0750000000
  202      O      23.1390000000    22.9130000000    22.2340000000
  203      C      15.4070000000    21.5480000000    27.3270000000
  204      H      16.1790000000    21.3970000000    26.5680000000
  205      H      15.2360000000    22.6110000000    27.5150000000
  206      H      15.7620000000    21.0610000000    28.2390000000
  207      S      13.9740000000    20.5560000000    26.8500000000
  208      C      14.7790000000    18.9640000000    26.5590000000
  209      H      14.0290000000    18.2220000000    26.2710000000
  210      H      15.4990000000    19.1860000000    25.7680000000
  211      H      15.3230000000    18.6320000000    27.4470000000
  212      O      13.5590000000    21.0250000000    25.4900000000
  213      C      17.1970000000    25.0900000000    26.1060000000
  214      H      18.2100000000    25.0120000000    25.7040000000
  215      H      17.1960000000    25.8630000000    26.8790000000
  216      H      16.9760000000    24.1370000000    26.5930000000
  217      S      16.1070000000    25.4250000000    24.7040000000
  218      C      14.5200000000    24.9830000000    25.4460000000
  219      H      14.6510000000    23.9300000000    25.7110000000
  220      H      14.2690000000    25.5910000000    26.3180000000
  221      H      13.6770000000    25.1600000000    24.7740000000
  222      O      16.2790000000    24.1870000000    23.8800000000
  223      C      18.4530000000    15.8350000000    28.8120000000
  224      H      18.7770000000    14.8620000000    29.1890000000
  225      H      19.2730000000    16.4940000000    28.5200000000
  226      H      17.7540000000    16.4520000000    29.3820000000
  227      S      17.6980000000    15.5870000000    27.1890000000
  228      C      19.0550000000    14.5360000000    26.6250000000
  229      H      19.2040000000    14.6660000000    25.5500000000
  230      H      19.9790000000    14.8000000000    27.1470000000
  231      H      18.7520000000    13.4930000000    26.7470000000
  232      O      17.8920000000    16.8960000000    26.4890000000
  233      C      16.6470000000    22.8200000000    31.0590000000
  234      H      17.1990000000    22.1790000000    30.3670000000
  235      H      17.0410000000    22.9430000000    32.0710000000
  236      H      15.6540000000    22.3640000000    31.1030000000
  237      S      16.7350000000    24.4590000000    30.3050000000
  238      C      15.3640000000    24.9390000000    31.3800000000
  239      H      15.1590000000    25.9960000000    31.1870000000
  240      H      14.5520000000    24.2630000000    31.1020000000
  241      H      15.6940000000    24.8530000000    32.4180000000
  242      O      16.1270000000    24.3720000000    28.9400000000
  243      C      16.9800000000    18.0680000000    23.5060000000
  244      H      16.1960000000    17.8470000000    24.2350000000
  245      H      17.1420000000    17.1330000000    22.9630000000
  246      H      17.8980000000    18.3840000000    24.0070000000
  247      S      16.5160000000    19.4420000000    22.4280000000
  248      C      16.8270000000    20.7420000000    23.6430000000
  249      H      17.8740000000    21.0390000000    23.7450000000
  250      H      16.4990000000    21.6940000000    23.2170000000
  251      H      16.3650000000    20.5850000000    24.6210000000
  252      O      15.0680000000    19.3560000000    22.0550000000
 ----------------------------------------------------------------
 Nuclear Repulsion Energy =       37707.92391035 hartrees
 There are      518 alpha and      518 beta electrons
 Requested basis set is 6-31+G(d)
 There are 830 shells and 2313 basis functions

 Total QAlloc Memory Limit  16000 MB
 Mega-Array Size      7821 MB
 MEM_STATIC part      8000 MB
 A cutoff of  1.0D-14 yielded 144256 shell pairs
 There are   1239130 function pairs
 Smallest overlap matrix eigenvalue = 3.25E-07
 Linear dependence detected in AO basis
 Tighter screening thresholds may be required for diffuse basis sets
 Use S2THRESH > 14 and THRESH = 14 in case of SCF convergence issues
 Number of orthogonalized atomic orbitals = 2311
 Maximum deviation from orthogonality = 1.259E-10

 Scale SEOQF with 1.000000e-03/1.000000e-03/1.000000e-03

 Standard Electronic Orientation quadrupole field applied
 Nucleus-field energy     =    -0.0000004188 hartrees
 Guess from superposition of atomic densities
 Warning:  Energy on first SCF cycle will be non-variational
 SAD guess density has 1036.000002 electrons

 -----------------------------------------------------------------------
  General SCF calculation program by
  Eric Jon Sundstrom, Paul Horn, Yuezhi Mao, Dmitri Zuev, Alec White,
  David Stuck, Shaama M.S., Shane Yost, Joonho Lee, David Small,
  Daniel Levine, Susi Lehtola, Hugh Burton, Evgeny Epifanovsky,
  Bang C. Huynh
 -----------------------------------------------------------------------
=================================================
        Doing projection-based embedding         
      F. Manby et al. JCTC, 8, 2564 (2012)       
=================================================

****************************************************
   Low-level SCF calculation for the whole system   
****************************************************
----------------------------------------------
 Summary of the low-level theory: 
 Exchange:     0.2000 Hartree-Fock + 0.0800 Slater + 0.7200 B88
 Correlation:  0.1900 VWN1RPA + 0.8100 LYP
 Using Euler-Maclaurin-Lebedev (75,302) quadrature formula
----------------------------------------------
 using 16 threads for integral computing
 -------------------------------------------------------
 OpenMP Integral computing Module                
 Release: version 2.0, May 2017, Q-Chem Inc. Pleasanton 
 -------------------------------------------------------
 A restricted SCF calculation will be
 performed using DIIS
 SCF converges when DIIS error is below 1.0e-08
 ---------------------------------------
  Cycle       Energy         DIIS error
 ---------------------------------------
    1  -13144.5803316972      1.45e-02  
    2  -13123.7923354783      2.69e-03  
    3  -13103.4915754895      5.67e-03  
    4  -13107.1169698495      3.46e-03  
    5  -13127.2341117917      1.08e-03  
    6  -13127.9093897911      3.21e-04  
    7  -13127.9401765758      2.13e-04  
    8  -13127.9666350070      5.89e-05  
    9  -13127.9684988896      3.08e-05  
   10  -13127.9690665136      1.54e-05  
   11  -13127.9691871256      6.68e-06  
   12  -13127.9692108373      1.95e-06  
   13  -13127.9692128937      7.06e-07  
   14  -13127.9692131209      3.06e-07  
   15  -13127.9692131714      8.97e-08  
   16  -13127.9692131760      2.90e-08  
   17  -13127.9692131766      1.06e-08  
   18  -13127.9692131765      4.08e-09  Convergence criterion met
 ---------------------------------------
 SCF time:   CPU 158034.21s  wall 9997.00s 
 SCF   energy in the final basis set =   -13127.9692131765
 Total energy in the final basis set =   -13127.9692131765

****************************************************
             Start embedding calculation            
****************************************************
----------------------------------------------
 Summary of the high-level theory: 
 Exchange:     0.2000 Hartree-Fock + 0.0800 Slater + 0.7200 B88
 Correlation:  0.1900 VWN1RPA + 0.8100 LYP
 Using Euler-Maclaurin-Lebedev (75,302) quadrature formula
----------------------------------------------
Doing R-in-R Embedding Calculation
Number of fragments: 2
Embedded fragment(s): 1 
NOcc for each fragment
           35
          483
NBasis for each fragment
          197
         2116
Variational space of the embedded problem: 
NOcc (active)  = 35
NOcc (fixed)   = 483
NVir (total)   = 1793
Read converged orbitals from disk
=========================================================
       Doing SPADE partition for the orbital space       
     D. CLaudino and N. Mayhall JCTC 15, 1053 (2019)     
=========================================================
SPADE singular values:
 1.0000 1.0000 1.0000 1.0000 1.0000 1.0000 1.0000 1.0000 1.0000 0.9999
 0.9998 0.9997 0.9996 0.9994 0.9993 0.9992 0.9992 0.9989 0.9984 0.9980
 0.9974 0.9965 0.9957 0.9954 0.9945 0.9935 0.9934 0.9929 0.9922 0.9915
 0.9908 0.9903 0.9881 0.9857 0.9780 0.2257 0.1847 0.1829 0.1683 0.1531
 0.1485 0.1355 0.1292 0.1043 0.1018 0.0975 0.0929 0.0887 0.0696 0.0636
 0.0566 0.0544 0.0510 0.0478 0.0459 0.0441 0.0422 0.0379 0.0346 0.0337
 0.0327 0.0298 0.0283 0.0268 0.0266 0.0257 0.0230 0.0222 0.0209 0.0197
 0.0186 0.0178 0.0169 0.0161 0.0157 0.0149 0.0136 0.0129 0.0121 0.0109
 0.0104 0.0103 0.0099 0.0091 0.0088 0.0084 0.0081 0.0079 0.0079 0.0072
 0.0070 0.0065 0.0062 0.0057 0.0055 0.0052 0.0050 0.0046 0.0046 0.0044
 0.0041 0.0040 0.0038 0.0034 0.0033 0.0030 0.0028 0.0028 0.0026 0.0025
 0.0024 0.0023 0.0023 0.0021 0.0021 0.0020 0.0019 0.0018 0.0018 0.0017
 0.0017 0.0015 0.0015 0.0014 0.0013 0.0013 0.0013 0.0012 0.0012 0.0011
 0.0011 0.0010 0.0010 0.0009 0.0009 0.0009 0.0008 0.0008 0.0008 0.0007
 0.0007 0.0007 0.0006 0.0006 0.0006 0.0006 0.0005 0.0005 0.0005 0.0005
 0.0005 0.0005 0.0004 0.0004 0.0004 0.0004 0.0004 0.0003 0.0003 0.0003
 0.0003 0.0003 0.0003 0.0003 0.0003 0.0003 0.0002 0.0002 0.0002 0.0002
 0.0002 0.0002 0.0002 0.0002 0.0002 0.0002 0.0002 0.0002 0.0002 0.0002
 0.0001 0.0001 0.0001 0.0001 0.0001 0.0001 0.0001 0.0001 0.0001 0.0001
 0.0001 0.0001 0.0001 0.0001 0.0001 0.0001 0.0001
Early stop requested!
483 environment occs will be part of frozen-core in future post-HF calculations
 
 --------------------------------------------------------------
 
                    Orbital Energies (a.u.)
 --------------------------------------------------------------
 
 Alpha MOs
 -- Occupied --
 -0.5298  -0.5055  -0.5317  -0.5027  -0.4932  -0.4958  -0.5059  -0.4896
 -0.4916  -0.4999  -0.4782  -0.4641  -0.4602  -0.4980  -0.5105  -0.5055
 -0.4367  -0.4829  -0.4840  -0.4672  -0.4836  -0.4883  -0.5281  -0.6390
 -0.5749  -0.5144  -0.5915  -0.5476  -0.6080  -0.5221  -0.6325  -0.6227
 -0.6125  -0.6182  -0.5422  -0.6511  -0.5798  -0.5572  -0.5816  -0.5801
 -0.5642  -0.5061  -0.5052  -0.5148  -0.6392  -0.5621  -0.5611  -0.5455
 -0.5748  -0.5453  -0.6014  -0.5637  -0.5779  -0.5862  -0.5762  -0.5732
 -0.6285  -0.6675  -0.6294  -0.6537  -0.6376  -0.6076  -0.6387  -0.6291
 -0.7354  -0.6961  -0.7280  -0.6300  -0.7313  -0.6842  -1.0431  -0.8666
 -0.9761  -0.7574  -0.8821  -0.9547  -1.1738  -1.0269  -0.8677  -0.9302
 -0.8430  -0.8456  -1.1144  -1.2794  -0.7004  -0.9802  -1.0437  -1.4696
 -1.7914  -1.2790  -1.0822  -1.2314  -1.6274  -0.9265  -1.1217  -0.9653
 -1.3794  -1.2136  -0.9914  -1.3128  -1.5622  -1.1279  -1.3097  -0.9624
 -1.4907  -0.9989  -1.0056  -1.4774  -4.3728  -1.3258  -1.2921  -1.9072
 -1.4337  -2.5690  -1.2309  -1.3140  -3.6756  -1.0471  -1.3680  -1.2497
 -1.6658  -1.4712  -1.3319  -1.2740  -1.3171  -1.6799  -1.2513  -1.2628
 -1.4149  -1.6350  -1.2984  -1.3187  -1.5175  -1.4479  -1.7151  -1.5766
 -1.7461  -1.3002  -1.1773  -2.0195  -1.6488  -1.1454  -1.6473  -1.0775
 -1.8759  -2.0276  -1.7611  -1.5851  -1.9251  -1.6799  -1.7984  -1.9674
 -1.7957  -1.9531  -1.6600  -1.6935  -2.1523  -2.0680  -1.7282  -2.0908
 -2.1364  -3.0172 -10.7766  -8.9552  -1.6396  -1.5776  -5.4679  -8.7330
 -5.7960 -18.7475 -12.8520  -2.3553  -1.3361  -4.7651  -1.5873  -5.6272
 -5.6071 -11.3318  -3.8232  -3.4238  -2.0487  -4.9493 -57.8666  -7.8005
 -2.7985 -55.3274 -25.7091  -1.7508  -2.0836  -1.2016  -1.2067  -7.2726
-10.1707 -10.8398  -5.4126  -9.1071  -1.9964 -18.2555  -2.2880  -3.8847
-13.0465  -5.9095  -6.3560  -6.0790  -6.5808  -2.5687  -3.3234  -9.9166
 -2.4639 -54.2331  -3.0370  -8.7814  -3.9764 -70.7253  -1.0530  -6.8456
 -3.1449 -10.5415 -12.2910  -4.3061  -8.0083  -1.9359  -1.2373 -10.8625
-20.2616 -15.4193  -7.1335  -8.4509  -7.3431  -3.7074  -7.9748  -3.3748
 -6.0444  -3.9881 -47.2155  -1.7211 -16.4933  -1.0663  -2.0833 -59.2431
-13.0520  -9.4293  -6.9217  -5.8924  -2.0441  -1.2185  -8.5996  -9.4876
 -3.5087  -0.9581 -11.8750  -7.3791 -16.6886  -4.6969 -46.4126  -4.8884
 -3.3796 -36.5714 -20.2990 -41.2442  -8.6490  -3.9747 -10.5726  -5.0954
 -2.5223  -9.4067  -6.6854  -6.7575 -26.3298 -17.6504  -2.5396  -2.2988
 -5.2022 -25.8609 -20.5687  -3.4898 -11.9931  -3.9590  -7.8075  -3.8640
 -2.8025 -14.4829  -6.9088 -16.4067 -12.3469  -4.3211  -5.4319  -5.8478
 -4.2915  -4.1074  -9.2730 -10.8825  -8.3558 -15.4378  -3.5922  -4.1775
-24.9922 -11.9056  -6.6744  -7.0789  -7.4036  -8.3424  -8.9770  -3.5862
 -9.0027  -5.1234  -4.9901 -12.1760  -2.6753  -8.9492  -5.9796  -4.2379
 -3.1844  -4.3685  -3.8854 -10.3079 -11.2550  -9.6775  -9.0694  -5.7884
 -6.8052  -7.0565 -10.0908  -5.3694  -8.1372 -35.1375 -14.5919  -3.0773
-12.8441 -14.6148 -25.7584  -2.6060  -9.0751 -12.4909  -6.3147  -7.3475
-14.2957  -3.5337  -4.8200 -17.4514  -3.4504  -6.6878 -19.0995  -7.5609
 -5.7985  -3.0989  -7.9195  -6.8662  -6.0106  -4.1996 -13.7955  -3.3393
 -8.4290  -6.0796  -4.6446  -8.1971  -9.5461  -8.2013  -2.6874  -8.8100
 -8.2061  -5.1749  -7.8573  -9.4223  -6.0572  -8.5061  -5.9173  -3.0335
 -5.6864  -7.3752 -10.5742  -7.3856  -4.3793  -4.8554  -7.2577  -9.0504
 -3.2304  -6.6897  -6.3456  -9.4087  -8.1247  -7.7014 -17.1044  -6.2688
 -6.9650  -6.1577 -15.6388 -33.9641  -3.7742 -26.3244 -11.6231  -4.7636
-34.8443 -10.3202  -5.3007 -12.2173 -12.7635  -3.2965 -10.3967 -10.0922
-15.3124  -8.1048 -20.1453  -7.7730 -36.8378  -3.2579 -14.3913  -3.7871
-10.2207 -27.9487  -5.8638 -10.9354 -12.2632  -5.2132 -15.6724  -1.6032
 -9.3635  -5.8998  -1.6346 -44.8904  -3.7537 -26.7207  -8.6574 -10.1487
-10.7686  -7.3429 -49.3158 -18.2937  -6.2325 -10.5323 -69.1483 -68.2336
 -2.8065 -14.4207  -9.1843  -3.8033 -65.4473 -20.4201 -18.7506  -4.6382
-13.6896 -11.4654  -7.7029  -6.8960  -2.6397 -10.6068 -21.1369 -22.3151
-23.0407  -3.8190 -19.7759  -7.5522  -2.6416  -4.2054  -6.3076 -21.6104
-10.5734 -11.4028 -38.5457 -11.0479 -35.0101 -12.8915 -15.2442  -4.6238
 -7.0361 -21.4122  -8.0647 -16.3638  -6.7468  -5.9937  -4.0792  -9.4904
-32.2682  -4.7979  -4.1353 -15.1255  -4.1159  -8.4342  -9.3600 -15.4021
 -9.3868  -5.6035 -11.1722 -14.4689 -17.4982 -10.5829 -10.1545 -10.4122
-10.1456 -10.4386 -10.1234 -10.3991  -0.9072  -0.8625  -0.7681  -0.5349
 -0.5935  -0.7291  -0.8045  -0.6782  -0.4293  -0.4561  -0.4281  -0.3530
 -0.5082  -0.4891  -0.4880  -0.4126  -0.4233  -0.4493  -0.4385  -0.5710
 -0.4809  -0.4076  -0.4664  -0.4703  -0.5107  -0.5247
 -- Virtual --
 -0.0537  -0.0478  -0.0443  -0.0312  -0.0307  -0.0280  -0.0273  -0.0250
 -0.0232  -0.0203  -0.0197  -0.0163  -0.0150  -0.0148  -0.0131  -0.0127
 -0.0121  -0.0105  -0.0103  -0.0095  -0.0076  -0.0075  -0.0070  -0.0059
 -0.0050  -0.0049  -0.0042  -0.0032  -0.0020  -0.0003   0.0002   0.0007
  0.0019   0.0032   0.0038   0.0043   0.0059   0.0060   0.0073   0.0102
  0.0102   0.0112   0.0121   0.0134   0.0150   0.0155   0.0159   0.0166
  0.0173   0.0177   0.0187   0.0196   0.0201   0.0217   0.0218   0.0230
  0.0234   0.0245   0.0248   0.0262   0.0276   0.0283   0.0301   0.0308
  0.0309   0.0318   0.0322   0.0331   0.0344   0.0347   0.0356   0.0360
  0.0366   0.0372   0.0375   0.0386   0.0395   0.0409   0.0414   0.0423
  0.0431   0.0435   0.0442   0.0447   0.0451   0.0457   0.0458   0.0468
  0.0477   0.0477   0.0492   0.0501   0.0504   0.0514   0.0524   0.0535
  0.0537   0.0545   0.0550   0.0559   0.0560   0.0566   0.0572   0.0575
  0.0591   0.0593   0.0602   0.0611   0.0614   0.0617   0.0627   0.0629
  0.0644   0.0655   0.0659   0.0668   0.0671   0.0683   0.0691   0.0697
  0.0699   0.0706   0.0716   0.0729   0.0735   0.0744   0.0753   0.0755
  0.0764   0.0777   0.0778   0.0781   0.0792   0.0796   0.0803   0.0815
  0.0827   0.0832   0.0846   0.0855   0.0861   0.0863   0.0866   0.0872
  0.0879   0.0891   0.0895   0.0904   0.0912   0.0918   0.0922   0.0930
  0.0937   0.0944   0.0950   0.0957   0.0969   0.0971   0.0973   0.0995
  0.1000   0.1003   0.1012   0.1017   0.1018   0.1023   0.1042   0.1045
  0.1055   0.1061   0.1063   0.1072   0.1078   0.1085   0.1095   0.1109
  0.1111   0.1113   0.1120   0.1134   0.1141   0.1142   0.1153   0.1158
  0.1163   0.1168   0.1181   0.1185   0.1197   0.1203   0.1210   0.1216
  0.1221   0.1225   0.1237   0.1242   0.1245   0.1250   0.1260   0.1265
  0.1278   0.1281   0.1294   0.1297   0.1301   0.1313   0.1320   0.1325
  0.1327   0.1339   0.1345   0.1348   0.1355   0.1365   0.1368   0.1379
  0.1387   0.1394   0.1398   0.1408   0.1415   0.1423   0.1426   0.1431
  0.1443   0.1451   0.1465   0.1467   0.1471   0.1476   0.1483   0.1485
  0.1495   0.1510   0.1516   0.1520   0.1524   0.1537   0.1541   0.1545
  0.1555   0.1557   0.1566   0.1575   0.1576   0.1577   0.1590   0.1600
  0.1606   0.1613   0.1617   0.1619   0.1620   0.1630   0.1642   0.1645
  0.1649   0.1663   0.1675   0.1685   0.1689   0.1703   0.1710   0.1714
  0.1719   0.1724   0.1731   0.1734   0.1744   0.1746   0.1755   0.1756
  0.1766   0.1773   0.1776   0.1791   0.1796   0.1800   0.1813   0.1826
  0.1834   0.1837   0.1847   0.1848   0.1862   0.1862   0.1867   0.1871
  0.1882   0.1884   0.1889   0.1899   0.1904   0.1915   0.1918   0.1929
  0.1935   0.1939   0.1941   0.1948   0.1957   0.1964   0.1969   0.1973
  0.1985   0.1995   0.1998   0.2002   0.2012   0.2019   0.2030   0.2036
  0.2038   0.2049   0.2053   0.2054   0.2074   0.2083   0.2092   0.2104
  0.2105   0.2112   0.2121   0.2129   0.2134   0.2139   0.2142   0.2151
  0.2162   0.2168   0.2175   0.2181   0.2198   0.2201   0.2206   0.2216
  0.2216   0.2224   0.2233   0.2240   0.2243   0.2257   0.2262   0.2267
  0.2285   0.2292   0.2296   0.2307   0.2314   0.2321   0.2329   0.2331
  0.2349   0.2353   0.2360   0.2368   0.2370   0.2372   0.2383   0.2391
  0.2401   0.2409   0.2411   0.2422   0.2430   0.2435   0.2436   0.2463
  0.2471   0.2477   0.2479   0.2490   0.2500   0.2503   0.2513   0.2521
  0.2531   0.2542   0.2543   0.2550   0.2560   0.2568   0.2571   0.2583
  0.2594   0.2600   0.2606   0.2615   0.2620   0.2632   0.2645   0.2650
  0.2653   0.2662   0.2674   0.2678   0.2687   0.2696   0.2705   0.2708
  0.2734   0.2739   0.2749   0.2752   0.2766   0.2775   0.2779   0.2788
  0.2800   0.2812   0.2817   0.2822   0.2828   0.2843   0.2852   0.2863
  0.2868   0.2886   0.2891   0.2897   0.2911   0.2914   0.2919   0.2940
  0.2945   0.2949   0.2960   0.2975   0.2983   0.3000   0.3005   0.3015
  0.3019   0.3025   0.3034   0.3052   0.3058   0.3060   0.3074   0.3083
  0.3088   0.3096   0.3116   0.3128   0.3138   0.3146   0.3157   0.3162
  0.3174   0.3180   0.3184   0.3192   0.3199   0.3209   0.3222   0.3229
  0.3250   0.3251   0.3258   0.3269   0.3274   0.3287   0.3296   0.3316
  0.3327   0.3335   0.3336   0.3351   0.3359   0.3364   0.3372   0.3383
  0.3396   0.3405   0.3421   0.3425   0.3432   0.3436   0.3444   0.3453
  0.3464   0.3468   0.3493   0.3499   0.3510   0.3514   0.3520   0.3533
  0.3537   0.3546   0.3554   0.3565   0.3591   0.3598   0.3605   0.3614
  0.3615   0.3626   0.3639   0.3647   0.3655   0.3671   0.3687   0.3693
  0.3700   0.3703   0.3716   0.3720   0.3733   0.3744   0.3751   0.3766
  0.3773   0.3781   0.3791   0.3813   0.3820   0.3827   0.3839   0.3841
  0.3854   0.3871   0.3875   0.3880   0.3903   0.3911   0.3924   0.3931
  0.3933   0.3951   0.3969   0.3982   0.3995   0.4003   0.4009   0.4019
  0.4025   0.4045   0.4051   0.4068   0.4077   0.4083   0.4089   0.4105
  0.4121   0.4130   0.4140   0.4142   0.4161   0.4171   0.4178   0.4182
  0.4203   0.4222   0.4229   0.4233   0.4255   0.4271   0.4273   0.4282
  0.4292   0.4301   0.4314   0.4334   0.4345   0.4368   0.4371   0.4392
  0.4395   0.4419   0.4426   0.4434   0.4444   0.4454   0.4461   0.4478
  0.4488   0.4512   0.4528   0.4531   0.4543   0.4553   0.4571   0.4574
  0.4585   0.4612   0.4621   0.4643   0.4651   0.4669   0.4680   0.4697
  0.4713   0.4726   0.4744   0.4748   0.4768   0.4777   0.4791   0.4811
  0.4837   0.4847   0.4871   0.4886   0.4910   0.4938   0.4961   0.4974
  0.4981   0.4992   0.5022   0.5032   0.5062   0.5083   0.5099   0.5108
  0.5129   0.5155   0.5171   0.5184   0.5198   0.5233   0.5259   0.5275
  0.5285   0.5311   0.5344   0.5355   0.5379   0.5385   0.5401   0.5420
  0.5430   0.5438   0.5467   0.5482   0.5503   0.5529   0.5534   0.5539
  0.5559   0.5577   0.5587   0.5601   0.5622   0.5635   0.5639   0.5661
  0.5669   0.5690   0.5699   0.5715   0.5756   0.5763   0.5768   0.5799
  0.5805   0.5844   0.5853   0.5892   0.5907   0.5931   0.5936   0.5959
  0.5969   0.5979   0.5997   0.5998   0.6012   0.6019   0.6042   0.6068
  0.6075   0.6107   0.6115   0.6134   0.6167   0.6177   0.6183   0.6192
  0.6204   0.6216   0.6216   0.6235   0.6246   0.6256   0.6268   0.6283
  0.6288   0.6304   0.6314   0.6343   0.6358   0.6366   0.6395   0.6410
  0.6429   0.6440   0.6450   0.6466   0.6469   0.6483   0.6501   0.6510
  0.6514   0.6520   0.6543   0.6545   0.6567   0.6571   0.6589   0.6597
  0.6608   0.6623   0.6627   0.6655   0.6673   0.6685   0.6697   0.6703
  0.6719   0.6744   0.6751   0.6761   0.6772   0.6791   0.6806   0.6819
  0.6837   0.6838   0.6843   0.6865   0.6871   0.6879   0.6897   0.6909
  0.6919   0.6927   0.6935   0.6951   0.6963   0.6966   0.6989   0.7011
  0.7024   0.7046   0.7068   0.7091   0.7098   0.7110   0.7120   0.7142
  0.7149   0.7168   0.7181   0.7205   0.7213   0.7226   0.7247   0.7256
  0.7266   0.7278   0.7310   0.7322   0.7329   0.7341   0.7354   0.7382
  0.7398   0.7401   0.7407   0.7426   0.7436   0.7451   0.7476   0.7481
  0.7488   0.7498   0.7534   0.7553   0.7564   0.7579   0.7591   0.7617
  0.7642   0.7647   0.7654   0.7679   0.7710   0.7724   0.7732   0.7745
  0.7765   0.7781   0.7796   0.7821   0.7837   0.7851   0.7875   0.7883
  0.7912   0.7920   0.7923   0.7941   0.7963   0.7979   0.7989   0.8012
  0.8019   0.8038   0.8055   0.8071   0.8094   0.8107   0.8126   0.8145
  0.8159   0.8171   0.8193   0.8216   0.8231   0.8254   0.8266   0.8286
  0.8294   0.8328   0.8340   0.8347   0.8360   0.8374   0.8386   0.8416
  0.8430   0.8438   0.8445   0.8476   0.8487   0.8490   0.8504   0.8527
  0.8539   0.8547   0.8563   0.8579   0.8598   0.8602   0.8613   0.8640
  0.8658   0.8670   0.8689   0.8699   0.8717   0.8721   0.8732   0.8757
  0.8780   0.8794   0.8803   0.8814   0.8818   0.8839   0.8847   0.8873
  0.8880   0.8890   0.8908   0.8933   0.8938   0.8953   0.8965   0.8979
  0.8995   0.9020   0.9028   0.9030   0.9062   0.9076   0.9095   0.9107
  0.9129   0.9132   0.9151   0.9184   0.9196   0.9207   0.9220   0.9229
  0.9238   0.9267   0.9278   0.9295   0.9299   0.9307   0.9332   0.9340
  0.9367   0.9379   0.9381   0.9397   0.9405   0.9421   0.9441   0.9448
  0.9460   0.9473   0.9493   0.9503   0.9512   0.9524   0.9530   0.9546
  0.9552   0.9576   0.9594   0.9601   0.9621   0.9633   0.9642   0.9658
  0.9683   0.9693   0.9701   0.9725   0.9731   0.9733   0.9746   0.9752
  0.9756   0.9790   0.9793   0.9801   0.9816   0.9825   0.9829   0.9844
  0.9855   0.9867   0.9882   0.9888   0.9894   0.9906   0.9911   0.9926
  0.9932   0.9949   0.9961   0.9972   0.9982   0.9997   1.0003   1.0012
  1.0021   1.0043   1.0053   1.0062   1.0080   1.0086   1.0114   1.0123
  1.0133   1.0144   1.0160   1.0175   1.0177   1.0186   1.0207   1.0221
  1.0229   1.0237   1.0253   1.0264   1.0295   1.0310   1.0320   1.0327
  1.0342   1.0344   1.0351   1.0358   1.0391   1.0411   1.0425   1.0429
  1.0449   1.0460   1.0464   1.0482   1.0498   1.0526   1.0541   1.0572
  1.0584   1.0591   1.0607   1.0623   1.0640   1.0660   1.0676   1.0699
  1.0713   1.0716   1.0737   1.0750   1.0753   1.0769   1.0786   1.0801
  1.0811   1.0820   1.0842   1.0853   1.0854   1.0871   1.0886   1.0917
  1.0930   1.0939   1.0945   1.0961   1.0979   1.0980   1.0995   1.1004
  1.1037   1.1063   1.1075   1.1099   1.1121   1.1128   1.1136   1.1148
  1.1170   1.1181   1.1205   1.1225   1.1232   1.1259   1.1264   1.1280
  1.1294   1.1312   1.1323   1.1344   1.1345   1.1362   1.1379   1.1406
  1.1419   1.1446   1.1461   1.1476   1.1480   1.1494   1.1510   1.1515
  1.1522   1.1537   1.1546   1.1559   1.1580   1.1620   1.1631   1.1637
  1.1654   1.1660   1.1674   1.1684   1.1722   1.1750   1.1756   1.1775
  1.1778   1.1791   1.1796   1.1833   1.1844   1.1860   1.1873   1.1883
  1.1891   1.1911   1.1926   1.1942   1.1956   1.1973   1.2008   1.2018
  1.2030   1.2039   1.2043   1.2088   1.2114   1.2152   1.2163   1.2192
  1.2225   1.2257   1.2274   1.2304   1.2323   1.2332   1.2362   1.2372
  1.2386   1.2410   1.2426   1.2484   1.2515   1.2537   1.2589   1.2604
  1.2608   1.2639   1.2669   1.2696   1.2721   1.2769   1.2777   1.2795
  1.2863   1.2881   1.2911   1.2924   1.2978   1.3012   1.3051   1.3070
  1.3080   1.3101   1.3133   1.3156   1.3170   1.3185   1.3218   1.3248
  1.3284   1.3292   1.3318   1.3324   1.3338   1.3358   1.3391   1.3415
  1.3428   1.3462   1.3466   1.3479   1.3494   1.3513   1.3538   1.3562
  1.3565   1.3593   1.3604   1.3617   1.3644   1.3673   1.3681   1.3705
  1.3711   1.3729   1.3732   1.3761   1.3775   1.3788   1.3815   1.3819
  1.3842   1.3866   1.3875   1.3893   1.3910   1.3921   1.3942   1.3943
  1.3970   1.3982   1.4010   1.4011   1.4031   1.4043   1.4066   1.4068
  1.4082   1.4101   1.4115   1.4125   1.4150   1.4161   1.4196   1.4207
  1.4212   1.4230   1.4259   1.4270   1.4297   1.4298   1.4323   1.4324
  1.4359   1.4381   1.4407   1.4416   1.4426   1.4449   1.4466   1.4489
  1.4511   1.4528   1.4537   1.4568   1.4589   1.4613   1.4649   1.4660
  1.4680   1.4696   1.4713   1.4724   1.4741   1.4776   1.4783   1.4803
  1.4810   1.4836   1.4862   1.4874   1.4921   1.4928   1.4941   1.5002
  1.5031   1.5043   1.5052   1.5085   1.5113   1.5138   1.5162   1.5176
  1.5209   1.5219   1.5243   1.5276   1.5314   1.5355   1.5407   1.5450
  1.5456   1.5475   1.5525   1.5542   1.5565   1.5585   1.5616   1.5677
  1.5717   1.5780   1.5794   1.5840   1.5874   1.5921   1.5979   1.6008
  1.6031   1.6089   1.6095   1.6144   1.6188   1.6225   1.6261   1.6280
  1.6289   1.6324   1.6425   1.6490   1.6524   1.6536   1.6552   1.6572
  1.6576   1.6585   1.6607   1.6623   1.6637   1.6653   1.6678   1.6705
  1.6713   1.6729   1.6733   1.6749   1.6763   1.6777   1.6798   1.6801
  1.6822   1.6825   1.6839   1.6867   1.6872   1.6897   1.6911   1.6925
  1.6933   1.6944   1.6980   1.7011   1.7018   1.7042   1.7049   1.7053
  1.7080   1.7100   1.7127   1.7140   1.7156   1.7173   1.7190   1.7207
  1.7218   1.7253   1.7265   1.7270   1.7277   1.7281   1.7294   1.7328
  1.7343   1.7364   1.7373   1.7389   1.7404   1.7419   1.7446   1.7449
  1.7462   1.7467   1.7481   1.7517   1.7526   1.7544   1.7574   1.7587
  1.7597   1.7609   1.7618   1.7633   1.7658   1.7670   1.7697   1.7704
  1.7716   1.7755   1.7798   1.7813   1.7836   1.7854   1.7866   1.7877
  1.7923   1.7945   1.7971   1.7980   1.8002   1.8047   1.8074   1.8094
  1.8108   1.8120   1.8145   1.8160   1.8205   1.8245   1.8248   1.8290
  1.8337   1.8367   1.8393   1.8430   1.8439   1.8467   1.8544   1.8562
  1.8606   1.8650   1.8666   1.8679   1.8697   1.8709   1.8717   1.8737
  1.8769   1.8776   1.8791   1.8802   1.8809   1.8839   1.8874   1.8882
  1.8905   1.8916   1.8934   1.8939   1.8959   1.8982   1.8989   1.9007
  1.9020   1.9024   1.9040   1.9065   1.9082   1.9099   1.9110   1.9128
  1.9136   1.9147   1.9178   1.9183   1.9203   1.9212   1.9239   1.9259
  1.9285   1.9295   1.9318   1.9331   1.9376   1.9389   1.9392   1.9416
  1.9458   1.9485   1.9512   1.9533   1.9547   1.9562   1.9569   1.9608
  1.9645   1.9687   1.9724   1.9773   1.9816   1.9828   1.9917   1.9957
  1.9987   2.0050   2.0177   2.0186   2.0314   2.0336   2.0354   2.0380
  2.0438   2.0447   2.0468   2.0517   2.0534   2.0535   2.0564   2.0593
  2.0607   2.0630   2.0662   2.0670   2.0696   2.0720   2.0738   2.0759
  2.0772   2.0780   2.0789   2.0803   2.0814   2.0834   2.0861   2.0870
  2.0881   2.0887   2.0898   2.0916   2.0917   2.0938   2.0959   2.0996
  2.1002   2.1072   2.1094   2.1136   2.1147   2.1180   2.1232   2.1245
  2.1275   2.1291   2.1295   2.1351   2.1358   2.1388   2.1416   2.1441
  2.1453   2.1501   2.1557   2.1591   2.1660   2.1689   2.1725   2.1761
  2.1807   2.1843   2.1860   2.1871   2.1895   2.1929   2.1940   2.1961
  2.1970   2.1986   2.1994   2.2005   2.2041   2.2089   2.2113   2.2131
  2.2137   2.2148   2.2174   2.2186   2.2197   2.2220   2.2248   2.2255
  2.2265   2.2283   2.2292   2.2308   2.2316   2.2323   2.2327   2.2341
  2.2350   2.2362   2.2383   2.2397   2.2404   2.2427   2.2434   2.2450
  2.2457   2.2480   2.2489   2.2498   2.2506   2.2519   2.2523   2.2538
  2.2548   2.2573   2.2584   2.2588   2.2599   2.2604   2.2622   2.2634
  2.2643   2.2649   2.2655   2.2669   2.2677   2.2689   2.2702   2.2717
  2.2718   2.2736   2.2740   2.2758   2.2766   2.2767   2.2772   2.2783
  2.2793   2.2809   2.2818   2.2827   2.2841   2.2845   2.2871   2.2872
  2.2896   2.2907   2.2920   2.2925   2.2946   2.2968   2.2980   2.2985
  2.2995   2.3003   2.3017   2.3029   2.3031   2.3045   2.3063   2.3088
  2.3100   2.3118   2.3135   2.3140   2.3153   2.3179   2.3196   2.3209
  2.3243   2.3261   2.3271   2.3287   2.3299   2.3350   2.3394   2.3407
  2.3442   2.3449   2.3464   2.3505   2.3518   2.3543   2.3563   2.3604
  2.3638   2.3642   2.3680   2.3697   2.3740   2.3755   2.3791   2.3846
  2.3871   2.3886   2.3901   2.3951   2.3968   2.4005   2.4019   2.4044
  2.4065   2.4100   2.4185   2.4356   2.4766   2.4838   2.4863   2.5600
  2.5627   2.5877   2.6838   2.7144   2.7426   2.7706   2.8049   2.8176
  2.8213   2.8248   2.8272   2.8299   2.8308   2.8337   2.8343   2.8368
  2.8389   2.8458   2.8503   2.8514   2.8545   2.8599   2.8644   2.8650
  2.8708   2.8718   2.8750   2.8786   2.8827   2.8835   2.8880   2.8935
  2.9093   2.9617   3.0635   3.2210   3.9418   3.9452   3.9515   3.9540
  3.9578   3.9649   3.9682   3.9723   3.9753   3.9795   3.9810   3.9821
  3.9957   3.9985   4.0007   4.0026   4.0031   4.0155   4.0169   4.0236
  4.0246   4.0321   4.0423   4.1617   4.1868   4.2064   4.2106   4.2179
  4.2188   4.2276   4.2344   4.2396   4.2400   4.2426   4.2475   4.2496
  4.2575   4.2584   4.2656   4.2674   4.2697   4.2745   4.2782   4.2801
  4.2829   4.2855   4.2862   4.2879   4.2902   4.2946   4.2964   4.2992
  4.3015   4.3047   4.3063   4.3074   4.3123   4.3161   4.3208   4.3230
  4.3263   4.3278   4.3298   4.3351   4.3375   4.3441   4.3473   4.3546
  4.3554   4.3617   4.3712   4.3727   4.3796   4.3856   4.3880   4.3965
  4.4071   4.4114   4.4155   4.4195   4.4280   4.4374   4.4402   4.4483
  4.4571   4.4617   4.4714   4.4884   4.4974   4.5083   4.5246   4.5337
  4.5400   4.5529   4.5724   4.5844   4.6144   4.7178   4.7597   4.7652
  4.8230
 --------------------------------------------------------------
 
          Ground-State Mulliken Net Atomic Charges

     Atom                 Charge (a.u.)
  ----------------------------------------
      1 C                    -0.285371
      2 C                    -0.411863
      3 C                    -0.241731
      4 C                    -0.666142
      5 C                    -0.314101
      6 C                    -1.265240
      7 H                     0.210461
      8 H                     0.232730
      9 H                     0.245173
     10 H                     0.202729
     11 H                     0.223221
     12 H                     0.262528
     13 H                     0.223044
     14 H                     0.227906
     15 H                     0.186743
     16 H                     0.216216
     17 H                     0.248705
     18 N                     0.202910
     19 H                     0.516559
     20 C                    -0.072241
     21 H                     0.143223
     22 O                    -0.264332
     23 C                    -0.896275
     24 H                     0.272289
     25 H                     0.272447
     26 H                     0.271916
     27 S                     1.071006
     28 C                    -0.991144
     29 H                     0.292451
     30 H                     0.257978
     31 H                     0.230138
     32 O                    -0.737167
     33 C                    -0.849410
     34 H                     0.228433
     35 H                     0.254714
     36 H                     0.256215
     37 S                     0.839752
     38 C                    -0.762972
     39 H                     0.235850
     40 H                     0.260391
     41 H                     0.253394
     42 O                    -0.693858
     43 C                    -0.932484
     44 H                     0.277098
     45 H                     0.238742
     46 H                     0.241555
     47 S                     1.106549
     48 C                    -0.854048
     49 H                     0.297346
     50 H                     0.248882
     51 H                     0.245031
     52 O                    -0.809990
     53 C                    -1.155952
     54 H                     0.289365
     55 H                     0.266537
     56 H                     0.255330
     57 S                     1.069056
     58 C                    -0.895953
     59 H                     0.259077
     60 H                     0.248175
     61 H                     0.250303
     62 O                    -0.706550
     63 C                    -0.763088
     64 H                     0.239503
     65 H                     0.277455
     66 H                     0.272432
     67 S                     0.473713
     68 C                    -0.650460
     69 H                     0.294743
     70 H                     0.279872
     71 H                     0.236649
     72 O                    -0.675148
     73 C                    -0.885848
     74 H                     0.247528
     75 H                     0.252070
     76 H                     0.248331
     77 S                     0.843614
     78 C                    -0.817600
     79 H                     0.239894
     80 H                     0.255230
     81 H                     0.272463
     82 O                    -0.680392
     83 C                    -0.909172
     84 H                     0.297500
     85 H                     0.254683
     86 H                     0.260736
     87 S                     1.108156
     88 C                    -1.163707
     89 H                     0.252038
     90 H                     0.293734
     91 H                     0.263444
     92 O                    -0.674183
     93 C                    -1.024893
     94 H                     0.259576
     95 H                     0.282321
     96 H                     0.309911
     97 S                     0.973424
     98 C                    -0.939001
     99 H                     0.300294
    100 H                     0.244154
    101 H                     0.252543
    102 O                    -0.653128
    103 C                    -1.180210
    104 H                     0.302023
    105 H                     0.287432
    106 H                     0.244684
    107 S                     1.065278
    108 C                    -0.958972
    109 H                     0.318047
    110 H                     0.209800
    111 H                     0.250644
    112 O                    -0.629962
    113 C                    -0.892474
    114 H                     0.258277
    115 H                     0.255154
    116 H                     0.251330
    117 S                     0.957698
    118 C                    -0.902645
    119 H                     0.242971
    120 H                     0.259835
    121 H                     0.245868
    122 O                    -0.689132
    123 C                    -0.927090
    124 H                     0.269667
    125 H                     0.263628
    126 H                     0.248215
    127 S                     0.802095
    128 C                    -0.794334
    129 H                     0.267074
    130 H                     0.272047
    131 H                     0.221112
    132 O                    -0.604161
    133 C                    -0.819716
    134 H                     0.250724
    135 H                     0.294404
    136 H                     0.245569
    137 S                     1.017773
    138 C                    -0.956296
    139 H                     0.241827
    140 H                     0.265456
    141 H                     0.262249
    142 O                    -0.700800
    143 C                    -0.785151
    144 H                     0.292848
    145 H                     0.235785
    146 H                     0.247198
    147 S                     0.810990
    148 C                    -0.963206
    149 H                     0.280581
    150 H                     0.265581
    151 H                     0.235201
    152 O                    -0.706826
    153 C                    -0.919859
    154 H                     0.300163
    155 H                     0.235367
    156 H                     0.259910
    157 S                     0.959513
    158 C                    -0.907864
    159 H                     0.278899
    160 H                     0.251047
    161 H                     0.268445
    162 O                    -0.712817
    163 C                    -0.946644
    164 H                     0.237851
    165 H                     0.267967
    166 H                     0.230695
    167 S                     0.927274
    168 C                    -0.837528
    169 H                     0.263189
    170 H                     0.227130
    171 H                     0.229905
    172 O                    -0.724999
    173 C                    -0.825215
    174 H                     0.234609
    175 H                     0.238237
    176 H                     0.302239
    177 S                     0.839562
    178 C                    -0.757957
    179 H                     0.278911
    180 H                     0.248702
    181 H                     0.280420
    182 O                    -0.691963
    183 C                    -0.874463
    184 H                     0.244109
    185 H                     0.257245
    186 H                     0.271351
    187 S                     0.959692
    188 C                    -0.894235
    189 H                     0.272388
    190 H                     0.229082
    191 H                     0.245084
    192 O                    -0.643769
    193 C                    -0.951172
    194 H                     0.243728
    195 H                     0.289298
    196 H                     0.259032
    197 S                     1.299891
    198 C                    -1.448743
    199 H                     0.306314
    200 H                     0.314679
    201 H                     0.229783
    202 O                    -0.677072
    203 C                    -0.877679
    204 H                     0.254801
    205 H                     0.302412
    206 H                     0.269883
    207 S                     0.599928
    208 C                    -0.756264
    209 H                     0.252402
    210 H                     0.254521
    211 H                     0.265169
    212 O                    -0.561816
    213 C                    -1.044286
    214 H                     0.281341
    215 H                     0.258839
    216 H                     0.300334
    217 S                     0.964747
    218 C                    -0.810128
    219 H                     0.289135
    220 H                     0.225906
    221 H                     0.248573
    222 O                    -0.652084
    223 C                    -0.919142
    224 H                     0.267308
    225 H                     0.270714
    226 H                     0.253369
    227 S                     1.079637
    228 C                    -0.971345
    229 H                     0.304137
    230 H                     0.252171
    231 H                     0.252285
    232 O                    -0.697600
    233 C                    -0.837477
    234 H                     0.295897
    235 H                     0.230439
    236 H                     0.262734
    237 S                     0.972449
    238 C                    -0.883489
    239 H                     0.235767
    240 H                     0.288744
    241 H                     0.224899
    242 O                    -0.635783
    243 C                    -0.785022
    244 H                     0.250954
    245 H                     0.257027
    246 H                     0.265472
    247 S                     0.857128
    248 C                    -1.007876
    249 H                     0.281173
    250 H                     0.311907
    251 H                     0.203224
    252 O                    -0.615674
  ----------------------------------------
  Sum of atomic charges =     0.000000

 -----------------------------------------------------------------
                    Cartesian Multipole Moments
 -----------------------------------------------------------------
    Charge (ESU x 10^10)
                -0.0000
    Dipole Moment (Debye)
         X      -2.6610      Y       3.5954      Z      22.6684
       Tot      23.1055
    Quadrupole Moments (Debye-Ang)
        XX    -944.4575     XY      30.0241     YY    -610.7936
        XZ     306.6345     YZ     612.9756     ZZ     320.2734
    Octopole Moments (Debye-Ang^2)
       XXX  -51802.4795    XXY  -17810.3258    XYY  -13056.3182
       YYY  -41081.2798    XXZ  -20105.4121    XYZ   10222.7230
       YYZ   -5518.1861    XZZ     793.0571    YZZ   11788.4590
       ZZZ  -25296.8234
    Hexadecapole Moments (Debye-Ang^3)
      XXXX ************   XXXY ************   XXYY -667997.7384
      XYYY -836802.8240   YYYY ************   XXXZ ************
      XXYZ -322945.8353   XYYZ -138177.2210   YYYZ -877646.5432
      XXZZ -774580.6281   XYZZ  166892.5988   YYZZ -272043.5237
      XZZZ -687128.2246   YZZZ -334310.9128   ZZZZ ************
 -----------------------------------------------------------------
Archival summary:
1\1\node023\SP\ProcedureUnspecified\6-31+G*\2324153\ymao90\FriDec315:03:342021FriDec315:03:342021\0\\#,ProcedureUnspecified,6-31+G*,\\0,1\S\O,1,1.49682\C,1,1.80626,2,107.947\H,3,1.09291,1,104.08,2,58.5604,0\H,3,1.09294,1,105.476,2,-176.517,0\H,3,1.09358,1,116.066,2,-54.8679,0\C,1,1.80712,2,104.463,3,-92.0342,0\H,7,1.09252,1,104.368,2,47.6515,0\H,7,1.09258,1,108.367,2,170.28,0\H,7,1.09386,1,107.091,2,-74.0549,0\H,5,2.23551,3,153.774,1,-60.2156,0\C,11,1.09301,5,104.213,3,176.893,0\H,12,1.09316,11,115.118,5,17.8658,0\H,12,1.09349,11,111.193,5,-107.695,0\S,12,1.80747,11,105.003,5,134.578,0\O,15,1.4977,12,99.6407,11,-88.2158,0\C,15,1.8067,12,97.1371,11,171.49,0\H,17,1.0928,15,111.459,12,137.917,0\H,17,1.09285,15,105.058,12,18.3411,0\H,17,1.09363,15,106.699,12,-99.2234,0\H,19,2.30841,17,108.65,15,85.055,0\C,21,1.09278,19,125.691,17,166.322,0\H,22,1.09296,21,111.178,19,-31.0874,0\H,22,1.09314,21,108.487,19,-150.753,0\S,22,1.80721,21,110.401,19,88.1303,0\O,25,1.49649,22,105.133,21,155.711,0\C,25,1.80621,22,99.6991,21,51.8943,0\H,27,1.09265,25,100.137,22,-163.528,0\H,27,1.0927,25,110.565,22,-39.7084,0\H,27,1.09316,25,107.819,22,84.5705,0\H,28,2.20728,27,112.329,25,-80.0535,0\C,31,1.09302,28,125.902,27,-97.3409,0\H,32,1.0927,31,111.183,28,116.212,0\H,32,1.09274,31,112.013,28,-122.122,0\S,32,1.80608,31,111.068,28,-0.492737,0\O,35,1.49696,32,95.6465,31,-73.5278,0\C,35,1.80734,32,92.3448,31,177.553,0\H,37,1.09263,35,112.003,32,162.416,0\H,37,1.09307,35,103.881,32,-83.1893,0\H,37,1.09342,35,111.938,32,38.3085,0\H,36,1.95714,35,135.225,32,159.915,0\N,41,1.01337,36,155.76,35,-36.1768,0\C,42,1.37868,41,110.56,36,19.2353,0\H,43,1.10513,42,114.287,41,-9.35433,0\O,43,1.21867,42,123.183,41,169.459,0\C,42,1.4623,41,124.665,36,179.408,0\H,46,1.09703,42,116.975,41,-165.267,0\C,46,1.53736,42,103.88,41,-46.3772,0\H,48,1.0966,46,105.18,42,-64.1998,0\H,48,1.09674,46,107.972,42,42.6914,0\C,46,1.53739,42,107.297,41,70.8391,0\H,51,1.09681,46,110.059,42,-46.9387,0\H,51,1.09689,46,109.861,42,70.559,0\C,51,1.53769,46,111.357,42,-165.041,0\H,54,1.0965,51,105.229,46,-62.2315,0\H,54,1.09689,51,114.552,46,-176.507,0\C,54,1.53753,51,113.167,46,56.5342,0\H,57,1.09667,54,103.712,51,170.991,0\H,57,1.09681,54,109.545,51,56.8449,0\C,57,1.53764,54,108.376,51,-56.8005,0\H,60,1.09639,57,111.575,54,-68.4226,0\H,60,1.09665,57,99.5128,54,179.216,0\H,47,1.93978,46,123.248,42,78.0539,0\C,63,1.09357,47,117.388,46,177.202,0\H,64,1.09287,63,114.521,47,2.74047,0\H,64,1.09347,63,106.028,47,114.797,0\S,64,1.80639,63,109.345,47,-118.336,0\O,67,1.49724,64,100.699,63,95.957,0\C,67,1.80737,64,98.504,63,-156.664,0\H,69,1.09241,67,109.125,64,-54.664,0\H,69,1.09302,67,105.435,64,179.706,0\H,69,1.09317,67,101.458,64,62.3798,0\H,55,2.05711,54,133.17,51,-125.736,0\C,73,1.09264,55,112.203,54,-175.262,0\H,74,1.09318,73,109.715,55,174.319,0\H,74,1.09367,73,105.389,55,59.0355,0\S,74,1.80673,73,114.541,55,-59.3492,0\O,77,1.49709,74,106.935,73,-77.8484,0\C,77,1.80697,74,94.0382,73,177.008,0\H,79,1.0924,77,110.264,74,-55.1933,0\H,79,1.09306,77,109.671,74,-177.967,0\H,79,1.09317,77,103.086,74,67.8936,0\H,59,2.14631,57,111.864,54,164.791,0\C,83,1.09308,59,115.806,57,164.36,0\H,84,1.09297,83,111.126,59,-13.9602,0\H,84,1.09333,83,94.9983,59,100.064,0\S,84,1.80636,83,115.038,59,-147.134,0\O,87,1.49774,84,112.042,83,-163.699,0\C,87,1.807,84,95.84,83,81.1875,0\H,89,1.09251,87,105.629,84,-44.0395,0\H,89,1.09313,87,111.556,84,76.4376,0\H,89,1.09331,87,113.081,84,-165.035,0\H,85,2.00568,84,142.601,83,-117.706,0\C,93,1.09241,85,147.184,84,-151.064,0\H,94,1.09303,93,108.782,85,-111.855,0\H,94,1.09362,93,113.528,85,124.756,0\S,94,1.80753,93,103.363,85,6.17063,0\O,97,1.49726,94,104.661,93,50.6209,0\C,97,1.80695,94,99.9528,93,-59.7293,0\H,99,1.09296,97,117.083,94,176.485,0\H,99,1.0931,97,107.515,94,50.2986,0\H,99,1.09313,97,103.486,94,-62.4495,0\H,68,2.21034,67,127.045,64,-112.156,0\C,103,1.09326,68,166.033,67,-96.5039,0\H,104,1.09289,103,105.17,68,149.081,0\H,104,1.09317,103,110.184,68,29.6254,0\S,104,1.80628,103,111.148,68,-99.5851,0\O,107,1.49643,104,99.1019,103,174.134,0\C,107,1.80748,104,95.2632,103,66.3725,0\H,109,1.09216,107,107.227,104,48.6688,0\H,109,1.09238,107,121.265,104,-77.7525,0\H,109,1.09356,107,102.166,104,160.118,0\H,106,2.08829,104,111.907,103,-16.1673,0\C,113,1.09246,106,149.565,104,162.429,0\H,114,1.09313,113,116.089,106,161.132,0\H,114,1.0935,113,119.065,106,-70.0149,0\S,114,1.80742,113,104.872,106,43.4191,0\O,117,1.49684,114,104.775,113,63.7631,0\C,117,1.8072,114,93.3727,113,168.862,0\H,119,1.09224,117,108.207,114,70.1075,0\H,119,1.09312,117,99.8466,114,-42.2529,0\H,119,1.09334,117,118.187,114,-159.791,0\H,78,2.30895,77,99.2607,74,120.511,0\C,123,1.09291,78,154.68,77,-104.276,0\H,124,1.09301,123,108.872,78,129.897,0\H,124,1.09332,123,103.486,78,-111.72,0\S,124,1.80677,123,105.51,78,5.43947,0\O,127,1.49694,124,99.951,123,-164.359,0\C,127,1.80708,124,100.55,123,-59.5234,0\H,129,1.09227,127,117.323,124,-179.978,0\H,129,1.09284,127,107.469,124,-58.0272,0\H,129,1.09359,127,97.8563,124,54.4192,0\H,100,2.31007,99,117.427,97,-67.4369,0\C,133,1.09371,100,140.289,99,-170.37,0\H,134,1.09227,133,111.716,100,-26.3137,0\H,134,1.0925,133,113.418,100,-142.083,0\S,134,1.80679,133,103.287,100,95.644,0\O,137,1.49707,134,97.1608,133,43.0873,0\C,137,1.80719,134,99.5456,133,-60.2122,0\H,139,1.09264,137,106.678,134,162.384,0\H,139,1.0928,137,112.669,134,45.4924,0\H,139,1.09319,137,114.641,134,-77.9352,0\H,140,2.30808,139,105.56,137,117.021,0\C,143,1.0935,140,122.662,139,89.7268,0\H,144,1.09194,143,115.235,140,-124.387,0\H,144,1.09312,143,105.855,140,-5.60255,0\S,144,1.80728,143,104.086,140,105.022,0\O,147,1.49711,144,108.799,143,-37.5803,0\C,147,1.8072,144,93.1667,143,65.6868,0\H,149,1.09309,147,105.261,144,42.3229,0\H,149,1.09322,147,102.924,144,-75.2848,0\H,149,1.09332,147,112.837,144,167.929,0\H,38,2.31938,37,126.709,35,11.2062,0\C,153,1.09279,38,121.934,37,173.678,0\H,154,1.09176,153,106.208,38,137.412,0\H,154,1.09263,153,120.83,38,-90.7369,0\S,154,1.80711,153,106.183,38,32.6995,0\O,157,1.49704,154,104.23,153,75.3517,0\C,157,1.80669,154,92.6594,153,-178.04,0\H,159,1.09295,157,108.184,154,97.9986,0\H,159,1.09304,157,109.89,154,-147.729,0\H,159,1.0936,157,110.192,154,-27.6002,0\H,161,2.09944,159,110.914,157,69.8586,0\C,163,1.09304,161,124.067,159,136.426,0\H,164,1.09251,163,108.229,161,-167.801,0\H,164,1.09287,163,111.687,161,-44.5802,0\S,164,1.80724,163,114.816,161,73.7624,0\O,167,1.49661,164,105.559,163,-75.2883,0\C,167,1.80731,164,96.9322,163,178.424,0\H,169,1.09245,167,106.387,164,72.3453,0\H,169,1.09317,167,113.873,164,-50.0023,0\H,169,1.09354,167,109.141,164,-165.178,0\H,65,2.33063,64,107.936,63,86.7945,0\C,173,1.09298,65,142.065,64,94.2291,0\H,174,1.09341,173,112.651,65,64.6793,0\H,174,1.09342,173,113.674,65,-174.055,0\S,174,1.80687,173,107.918,65,-51.6032,0\O,177,1.49682,174,103.893,173,62.2761,0\C,177,1.80686,174,100.44,173,171.661,0\H,179,1.09271,177,113.234,174,-163.004,0\H,179,1.09315,177,108.421,174,-43.6911,0\H,179,1.09325,177,105.953,174,75.3891,0\O,8,2.35544,7,157.312,1,-145.012,0\S,183,1.49694,8,94.7958,7,131.356,0\C,184,1.80725,183,99.6323,8,-96.0956,0\H,185,1.09253,184,105.425,183,77.6394,0\H,185,1.09359,184,109.121,183,-160.275,0\H,185,1.09376,184,107.581,183,-44.4256,0\C,184,1.80752,183,99.6586,8,169.999,0\H,189,1.09237,184,111.535,183,-77.9207,0\H,189,1.09238,184,110.223,183,42.1022,0\H,189,1.09334,184,104.763,183,158.206,0\H,106,2.40952,104,97.6625,103,154.505,0\C,193,1.09385,106,152.28,104,-136.534,0\H,194,1.09262,193,105.352,106,-23.3529,0\H,194,1.09288,193,115.978,106,-138.537,0\S,194,1.80631,193,108.627,106,97.7766,0\O,197,1.49713,194,104.189,193,-38.8454,0\C,197,1.80715,194,92.6522,193,67.5667,0\H,199,1.09273,197,104.106,194,63.1003,0\H,199,1.09321,197,114.056,194,171.544,0\H,199,1.09356,197,107.776,194,-51.0652,0\H,202,2.38489,199,113.316,197,-173.014,0\C,203,1.09274,202,161.585,199,59.0657,0\H,204,1.09249,203,102.021,202,-31.2172,0\H,204,1.09309,203,110.754,202,76.3008,0\S,204,1.80752,203,111.221,202,-155.078,0\O,207,1.49707,204,102.127,203,45.2679,0\C,207,1.80711,204,94.3754,203,-56.4632,0\H,209,1.09238,207,111.971,204,55.8314,0\H,209,1.09302,207,112.208,204,-62.452,0\H,209,1.09332,207,110.822,204,172.471,0\H,150,2.52193,149,130.83,147,-106.954,0\C,213,1.0929,150,134.233,149,-19.0947,0\H,214,1.09277,213,108.577,150,-46.4151,0\H,214,1.09326,213,113.107,150,-159.839,0\S,214,1.8074,213,117.155,150,68.8313,0\O,217,1.49624,214,94.8467,213,-70.9678,0\C,217,1.80708,214,96.9371,213,179.244,0\H,219,1.09266,217,108.192,214,165.649,0\H,219,1.09337,217,112.816,214,43.7533,0\H,219,1.09358,217,109.48,214,-68.6636,0\H,16,2.57936,15,125.802,12,136.253,0\C,223,1.09291,16,111.83,15,173.004,0\H,224,1.09264,223,118.555,16,73.7218,0\H,224,1.0929,223,104.512,16,-48.4454,0\S,224,1.80732,223,107.583,16,-156.55,0\O,227,1.49709,224,106.537,223,55.9991,0\C,227,1.80709,224,104.086,223,162.406,0\H,229,1.09253,227,108.542,224,-44.7282,0\H,229,1.0928,227,111.057,224,72.2126,0\H,229,1.09299,227,109.067,224,-167.524,0\O,231,2.56779,229,171.23,227,-66.9212,0\S,233,1.49736,231,118.077,229,-33.6614,0\C,234,1.80685,233,105.527,231,-35.1717,0\H,235,1.09294,234,111.525,233,-170.172,0\H,235,1.09295,234,107.525,233,71.3404,0\H,235,1.09306,234,114.408,233,-53.0541,0\C,234,1.8073,233,100.377,231,-134.91,0\H,239,1.09218,234,110.173,233,52.3832,0\H,239,1.09303,234,102.662,233,172.222,0\H,239,1.09353,234,115.925,233,-68.0425,0\H,231,2.6631,229,113.96,227,48.8874,0\C,243,1.09385,231,112.468,229,81.4922,0\H,244,1.092,243,113.733,231,-2.21248,0\H,244,1.09365,243,108.111,231,-137.138,0\S,244,1.80715,243,112.413,231,108.938,0\O,247,1.49764,244,103.903,243,-172.056,0\C,247,1.80609,244,101.642,243,75.5295,0\H,249,1.09272,247,117.121,244,55.3946,0\H,249,1.09305,247,104.993,244,-175.504,0\H,249,1.09407,247,107.306,244,-66.9041,0\\\@

[...]
    3   0.0204953  -0.0123046  -0.0078535   0.0125717  -0.0193966  -0.0196563
           67          68          69          70          71          72
    1   0.0226859  -0.0082362  -0.0030005  -0.0037175  -0.0304622   0.0561310
    2  -0.0169757   0.0051637   0.0209121   0.0143940  -0.0124286   0.0864750
    3   0.0430483   0.0004163   0.0176812  -0.0283381   0.0176639  -0.0654026
           73          74          75          76          77          78
    1   0.0060984   0.0178868  -0.0045537   0.0086984  -0.0480593   0.0011821
    2   0.0015940  -0.0269929  -0.0036592   0.0267033   0.0421398   0.0016573
    3  -0.0014256  -0.0015070  -0.0314740   0.0171404  -0.0161613   0.0057398
           79          80          81          82          83          84
    1   0.0234067   0.0103360  -0.0287961  -0.0125585   0.0091826   0.0001669
    2  -0.0210355   0.0303888   0.0001518  -0.1066182  -0.0015460  -0.0191253
    3   0.0096786   0.0087822   0.0121315  -0.0220917  -0.0056780  -0.0266035
           85          86          87          88          89          90
    1   0.0223257   0.0107750  -0.0385902  -0.0034390  -0.0011160  -0.0262199
    2   0.0248744  -0.0183649  -0.0424751   0.0051059  -0.0229575   0.0160403
    3  -0.0037212   0.0219250   0.0010657  -0.0111649  -0.0214464  -0.0037114
           91          92          93          94          95          96
    1   0.0207784   0.0206023   0.0103935  -0.0023853  -0.0238853   0.0329276
    2   0.0246388   0.0763730  -0.0035659   0.0144219  -0.0152540  -0.0097216
    3  -0.0010206   0.0747114   0.0026999   0.0313282  -0.0055705  -0.0148773
           97          98          99         100         101         102
    1  -0.0084637   0.0107386   0.0435992  -0.0061343  -0.0008264  -0.0814998
    2  -0.0094559   0.0010196   0.0021089   0.0228772   0.0045751   0.0332896
    3  -0.0536264   0.0043002  -0.0134669  -0.0203792   0.0322778   0.0652050
          103         104         105         106         107         108
    1  -0.0103278  -0.0187383  -0.0118828  -0.0060213   0.0356639  -0.0032569
    2  -0.0050147   0.0100907  -0.0286053   0.0234515  -0.0057572   0.0051822
    3  -0.0049188  -0.0254575   0.0112544   0.0204816   0.0462633  -0.0077965
          109         110         111         112         113         114
    1  -0.0209200  -0.0110985   0.0284121   0.0101742  -0.0019762  -0.0209102
    2   0.0041253   0.0293187   0.0104901  -0.0574026   0.0046335   0.0159269
    3  -0.0267331   0.0136010  -0.0021818  -0.0929863  -0.0043738   0.0170722
          115         116         117         118         119         120
    1   0.0195643   0.0015238   0.0410867  -0.0065304  -0.0005146  -0.0193519
    2   0.0238165  -0.0044669  -0.0265320  -0.0023471  -0.0280074   0.0214764
    3  -0.0021447  -0.0350798  -0.0147611  -0.0029117   0.0129600   0.0140961
          121         122         123         124         125         126
    1  -0.0091564  -0.0231363  -0.0041730   0.0145289   0.0126973  -0.0341175
    2  -0.0185536   0.0441725  -0.0019261  -0.0288748   0.0192452   0.0113628
    3  -0.0316164   0.0979470   0.0088732   0.0114886   0.0199004  -0.0004192
          127         128         129         130         131         132
    1  -0.0151260  -0.0045208   0.0110592   0.0068288  -0.0387933   0.1017703
    2   0.0452144  -0.0075381   0.0001964  -0.0232728  -0.0080971  -0.0378476
    3  -0.0280350  -0.0012287  -0.0294850   0.0207321  -0.0037676   0.0056692
          133         134         135         136         137         138
    1   0.0056822   0.0268676  -0.0079774  -0.0201449  -0.0391424   0.0063801
    2   0.0104666   0.0268959   0.0112803   0.0059670  -0.0438489   0.0018847
    3   0.0039141  -0.0029316  -0.0185875   0.0268223   0.0052646   0.0088435
          139         140         141         142         143         144
    1   0.0200083  -0.0124083   0.0183367   0.0707569  -0.0096018   0.0055675
    2   0.0273017  -0.0050235  -0.0264959   0.0026321   0.0057577   0.0305187
    3   0.0052811   0.0338950  -0.0053357  -0.0869270   0.0081715  -0.0002093
          145         146         147         148         149         150
    1  -0.0177716  -0.0265176   0.0361835  -0.0080315  -0.0144023   0.0182877
    2   0.0016085   0.0089821  -0.0113408  -0.0069607  -0.0155724  -0.0183090
    3  -0.0274321   0.0274369  -0.0448836   0.0002781  -0.0302382   0.0169204
          151         152         153         154         155         156
    1  -0.0200079   0.0439959   0.0080185  -0.0039192   0.0156722   0.0061155
    2   0.0047950   0.0175310  -0.0073356  -0.0318546   0.0236365  -0.0008433
    3   0.0295280   0.1021866   0.0020299  -0.0168417  -0.0143020   0.0340677
          157         158         159         160         161         162
    1  -0.0136039  -0.0041505  -0.0338892   0.0200434   0.0185342  -0.0121991
    2   0.0468746  -0.0111990   0.0084773  -0.0217221   0.0004051  -0.0235706
    3   0.0233743   0.0062172  -0.0128014  -0.0151918   0.0308945  -0.1069720
          163         164         165         166         167         168
    1  -0.0003531   0.0195602  -0.0196930  -0.0298091  -0.0388268   0.0057844
    2   0.0018397   0.0141559   0.0176407  -0.0230110  -0.0119856  -0.0034121
    3   0.0039006   0.0241936   0.0178055   0.0124739  -0.0380693   0.0045665
          169         170         171         172         173         174
    1   0.0181375   0.0258722  -0.0101481   0.0609511   0.0094738   0.0057823
    2   0.0027485   0.0013370  -0.0340737   0.0927176   0.0025522  -0.0313339
    3  -0.0250727   0.0252067   0.0000100  -0.0077006   0.0011519  -0.0094240
          175         176         177         178         179         180
    1   0.0091231   0.0161536  -0.0353518   0.0007952   0.0163635   0.0104660
    2   0.0266313   0.0216148  -0.0162876   0.0089718   0.0139427   0.0222555
    3  -0.0194518   0.0181584  -0.0427300   0.0011189   0.0238753  -0.0277471
          181         182         183         184         185         186
    1  -0.0265332   0.0012637  -0.0025029  -0.0332944   0.0252793  -0.0132707
    2   0.0055822  -0.0461430   0.0061017   0.0051245   0.0179347  -0.0162079
    3   0.0229413   0.0992325  -0.0071426   0.0138260  -0.0187253  -0.0235567
          187         188         189         190         191         192
    1  -0.0302061   0.0026133   0.0251618  -0.0221038   0.0134265   0.0940005
    2  -0.0363420   0.0101547   0.0097361   0.0211298  -0.0140817  -0.0287987
    3   0.0308925  -0.0008875  -0.0214284   0.0206296   0.0213756  -0.0505157
          193         194         195         196         197         198
    1   0.0093601   0.0046343   0.0145466   0.0196783  -0.0275689  -0.0062424
    2  -0.0015974  -0.0052496  -0.0215389   0.0251993   0.0277654  -0.0072373
    3  -0.0059616   0.0306065  -0.0219652  -0.0111180   0.0427817   0.0066993
          199         200         201         202         203         204
    1   0.0083491  -0.0331784   0.0130601  -0.0177034   0.0123844   0.0247010
    2  -0.0153167  -0.0099195  -0.0065165   0.0152188   0.0007372   0.0011832
    3   0.0315585  -0.0091286  -0.0273268  -0.1073497   0.0034311  -0.0216143
          205         206         207         208         209         210
    1  -0.0067838   0.0191102  -0.0364650   0.0114759  -0.0182570   0.0189575
    2   0.0251284  -0.0133155  -0.0019764  -0.0035334  -0.0167306  -0.0062355
    3   0.0081958   0.0335457   0.0440702  -0.0013501  -0.0148336  -0.0233132
          211         212         213         214         215         216
    1   0.0236670  -0.0307286   0.0049910   0.0278772  -0.0058385  -0.0114244
    2  -0.0060887   0.0335109  -0.0060691  -0.0038389   0.0187195  -0.0262171
    3   0.0272712  -0.1005460   0.0096321  -0.0157279   0.0235385   0.0131963
          217         218         219         220         221         222
    1   0.0037570  -0.0056491  -0.0047988  -0.0012666  -0.0180026   0.0110202
    2   0.0489044  -0.0061347  -0.0312983   0.0147039  -0.0049080  -0.0916444
    3  -0.0184629   0.0059739   0.0006677   0.0330844  -0.0293491  -0.0611423
          223         224         225         226         227         228
    1   0.0016268   0.0075152   0.0253651  -0.0163680  -0.0492280   0.0052344
    2   0.0056244  -0.0207824   0.0208876   0.0165181  -0.0260804  -0.0035650
    3   0.0010761   0.0251174  -0.0007151   0.0255911   0.0025508  -0.0072372
          229         230         231         232         233         234
    1   0.0011155   0.0266987  -0.0026480   0.0099773  -0.0013589   0.0199993
    2   0.0052942   0.0032966  -0.0331246   0.0989523  -0.0093791  -0.0269884
    3  -0.0313452   0.0102219   0.0065477  -0.0515776  -0.0026932  -0.0091774
          235         236         237         238         239         240
    1   0.0169246  -0.0337116   0.0508782  -0.0093630  -0.0159335  -0.0355086
    2  -0.0080834  -0.0059493   0.0267229   0.0003778   0.0279808  -0.0090635
    3   0.0235436  -0.0038299   0.0153423   0.0005576  -0.0051095   0.0010997
          241         242         243         244         245         246
    1   0.0015431  -0.0403380   0.0017954  -0.0211749   0.0075411   0.0272943
    2  -0.0032603  -0.0043828  -0.0046186  -0.0021329  -0.0210822   0.0040689
    3   0.0323892  -0.1003073   0.0081073   0.0231000  -0.0207358   0.0172674
          247         248         249         250         251         252
    1   0.0458349   0.0010924   0.0378373  -0.0291669  -0.0162968  -0.1045806
    2   0.0053606   0.0103526  -0.0137837   0.0261242  -0.0003516  -0.0053055
    3  -0.0461716   0.0076987   0.0054685  -0.0058482   0.0224732  -0.0311690
  --- DONE ESP SUMMARY ---
Archival summary:
1\1\node023\SP\ProcedureUnspecified\6-31+G*\232346h22\ymao90\FriDec315:04:182021FriDec315:04:182021\0\\#,ProcedureUnspecified,6-31+G*,\\0,1\S\O,1,1.49682\C,1,1.80626,2,107.947\H,3,1.09291,1,104.08,2,58.5604,0\H,3,1.09294,1,105.476,2,-176.517,0\H,3,1.09358,1,116.066,2,-54.8679,0\C,1,1.80712,2,104.463,3,-92.0342,0\H,7,1.09252,1,104.368,2,47.6515,0\H,7,1.09258,1,108.367,2,170.28,0\H,7,1.09386,1,107.091,2,-74.0549,0\H,5,2.23551,3,153.774,1,-60.2156,0\C,11,1.09301,5,104.213,3,176.893,0\H,12,1.09316,11,115.118,5,17.8658,0\H,12,1.09349,11,111.193,5,-107.695,0\S,12,1.80747,11,105.003,5,134.578,0\O,15,1.4977,12,99.6407,11,-88.2158,0\C,15,1.8067,12,97.1371,11,171.49,0\H,17,1.0928,15,111.459,12,137.917,0\H,17,1.09285,15,105.058,12,18.3411,0\H,17,1.09363,15,106.699,12,-99.2234,0\H,19,2.30841,17,108.65,15,85.055,0\C,21,1.09278,19,125.691,17,166.322,0\H,22,1.09296,21,111.178,19,-31.0874,0\H,22,1.09314,21,108.487,19,-150.753,0\S,22,1.80721,21,110.401,19,88.1303,0\O,25,1.49649,22,105.133,21,155.711,0\C,25,1.80621,22,99.6991,21,51.8943,0\H,27,1.09265,25,100.137,22,-163.528,0\H,27,1.0927,25,110.565,22,-39.7084,0\H,27,1.09316,25,107.819,22,84.5705,0\H,28,2.20728,27,112.329,25,-80.0535,0\C,31,1.09302,28,125.902,27,-97.3409,0\H,32,1.0927,31,111.183,28,116.212,0\H,32,1.09274,31,112.013,28,-122.122,0\S,32,1.80608,31,111.068,28,-0.492737,0\O,35,1.49696,32,95.6465,31,-73.5278,0\C,35,1.80734,32,92.3448,31,177.553,0\H,37,1.09263,35,112.003,32,162.416,0\H,37,1.09307,35,103.881,32,-83.1893,0\H,37,1.09342,35,111.938,32,38.3085,0\Gh,36,1.95714,35,135.225,32,159.915,0\Gh,41,1.01337,36,155.76,35,-36.1768,0\Gh,42,1.37868,41,110.56,36,19.2353,0\Gh,43,1.10513,42,114.287,41,-9.35433,0\Gh,43,1.21867,42,123.183,41,169.459,0\Gh,42,1.4623,41,124.665,36,179.408,0\Gh,46,1.09703,42,116.975,41,-165.267,0\Gh,46,1.53736,42,103.88,41,-46.3772,0\Gh,48,1.0966,46,105.18,42,-64.1998,0\Gh,48,1.09674,46,107.972,42,42.6914,0\Gh,46,1.53739,42,107.297,41,70.8391,0\Gh,51,1.09681,46,110.059,42,-46.9387,0\Gh,51,1.09689,46,109.861,42,70.559,0\Gh,51,1.53769,46,111.357,42,-165.041,0\Gh,54,1.0965,51,105.229,46,-62.2315,0\Gh,54,1.09689,51,114.552,46,-176.507,0\Gh,54,1.53753,51,113.167,46,56.5342,0\Gh,57,1.09667,54,103.712,51,170.991,0\Gh,57,1.09681,54,109.545,51,56.8449,0\Gh,57,1.53764,54,108.376,51,-56.8005,0\Gh,60,1.09639,57,111.575,54,-68.4226,0\Gh,60,1.09665,57,99.5128,54,179.216,0\H,47,1.93978,46,123.248,42,78.0539,0\C,63,1.09357,47,117.388,46,177.202,0\H,64,1.09287,63,114.521,47,2.74047,0\H,64,1.09347,63,106.028,47,114.797,0\S,64,1.80639,63,109.345,47,-118.336,0\O,67,1.49724,64,100.699,63,95.957,0\C,67,1.80737,64,98.504,63,-156.664,0\H,69,1.09241,67,109.125,64,-54.664,0\H,69,1.09302,67,105.435,64,179.706,0\H,69,1.09317,67,101.458,64,62.3798,0\H,55,2.05711,54,133.17,51,-125.736,0\C,73,1.09264,55,112.203,54,-175.262,0\H,74,1.09318,73,109.715,55,174.319,0\H,74,1.09367,73,105.389,55,59.0355,0\S,74,1.80673,73,114.541,55,-59.3492,0\O,77,1.49709,74,106.935,73,-77.8484,0\C,77,1.80697,74,94.0382,73,177.008,0\H,79,1.0924,77,110.264,74,-55.1933,0\H,79,1.09306,77,109.671,74,-177.967,0\H,79,1.09317,77,103.086,74,67.8936,0\H,59,2.14631,57,111.864,54,164.791,0\C,83,1.09308,59,115.806,57,164.36,0\H,84,1.09297,83,111.126,59,-13.9602,0\H,84,1.09333,83,94.9983,59,100.064,0\S,84,1.80636,83,115.038,59,-147.134,0\O,87,1.49774,84,112.042,83,-163.699,0\C,87,1.807,84,95.84,83,81.1875,0\H,89,1.09251,87,105.629,84,-44.0395,0\H,89,1.09313,87,111.556,84,76.4376,0\H,89,1.09331,87,113.081,84,-165.035,0\H,85,2.00568,84,142.601,83,-117.706,0\C,93,1.09241,85,147.184,84,-151.064,0\H,94,1.09303,93,108.782,85,-111.855,0\H,94,1.09362,93,113.528,85,124.756,0\S,94,1.80753,93,103.363,85,6.17063,0\O,97,1.49726,94,104.661,93,50.6209,0\C,97,1.80695,94,99.9528,93,-59.7293,0\H,99,1.09296,97,117.083,94,176.485,0\H,99,1.0931,97,107.515,94,50.2986,0\H,99,1.09313,97,103.486,94,-62.4495,0\H,68,2.21034,67,127.045,64,-112.156,0\C,103,1.09326,68,166.033,67,-96.5039,0\H,104,1.09289,103,105.17,68,149.081,0\H,104,1.09317,103,110.184,68,29.6254,0\S,104,1.80628,103,111.148,68,-99.5851,0\O,107,1.49643,104,99.1019,103,174.134,0\C,107,1.80748,104,95.2632,103,66.3725,0\H,109,1.09216,107,107.227,104,48.6688,0\H,109,1.09238,107,121.265,104,-77.7525,0\H,109,1.09356,107,102.166,104,160.118,0\H,106,2.08829,104,111.907,103,-16.1673,0\C,113,1.09246,106,149.565,104,162.429,0\H,114,1.09313,113,116.089,106,161.132,0\H,114,1.0935,113,119.065,106,-70.0149,0\S,114,1.80742,113,104.872,106,43.4191,0\O,117,1.49684,114,104.775,113,63.7631,0\C,117,1.8072,114,93.3727,113,168.862,0\H,119,1.09224,117,108.207,114,70.1075,0\H,119,1.09312,117,99.8466,114,-42.2529,0\H,119,1.09334,117,118.187,114,-159.791,0\H,78,2.30895,77,99.2607,74,120.511,0\C,123,1.09291,78,154.68,77,-104.276,0\H,124,1.09301,123,108.872,78,129.897,0\H,124,1.09332,123,103.486,78,-111.72,0\S,124,1.80677,123,105.51,78,5.43947,0\O,127,1.49694,124,99.951,123,-164.359,0\C,127,1.80708,124,100.55,123,-59.5234,0\H,129,1.09227,127,117.323,124,-179.978,0\H,129,1.09284,127,107.469,124,-58.0272,0\H,129,1.09359,127,97.8563,124,54.4192,0\H,100,2.31007,99,117.427,97,-67.4369,0\C,133,1.09371,100,140.289,99,-170.37,0\H,134,1.09227,133,111.716,100,-26.3137,0\H,134,1.0925,133,113.418,100,-142.083,0\S,134,1.80679,133,103.287,100,95.644,0\O,137,1.49707,134,97.1608,133,43.0873,0\C,137,1.80719,134,99.5456,133,-60.2122,0\H,139,1.09264,137,106.678,134,162.384,0\H,139,1.0928,137,112.669,134,45.4924,0\H,139,1.09319,137,114.641,134,-77.9352,0\H,140,2.30808,139,105.56,137,117.021,0\C,143,1.0935,140,122.662,139,89.7268,0\H,144,1.09194,143,115.235,140,-124.387,0\H,144,1.09312,143,105.855,140,-5.60255,0\S,144,1.80728,143,104.086,140,105.022,0\O,147,1.49711,144,108.799,143,-37.5803,0\C,147,1.8072,144,93.1667,143,65.6868,0\H,149,1.09309,147,105.261,144,42.3229,0\H,149,1.09322,147,102.924,144,-75.2848,0\H,149,1.09332,147,112.837,144,167.929,0\H,38,2.31938,37,126.709,35,11.2062,0\C,153,1.09279,38,121.934,37,173.678,0\H,154,1.09176,153,106.208,38,137.412,0\H,154,1.09263,153,120.83,38,-90.7369,0\S,154,1.80711,153,106.183,38,32.6995,0\O,157,1.49704,154,104.23,153,75.3517,0\C,157,1.80669,154,92.6594,153,-178.04,0\H,159,1.09295,157,108.184,154,97.9986,0\H,159,1.09304,157,109.89,154,-147.729,0\H,159,1.0936,157,110.192,154,-27.6002,0\H,161,2.09944,159,110.914,157,69.8586,0\C,163,1.09304,161,124.067,159,136.426,0\H,164,1.09251,163,108.229,161,-167.801,0\H,164,1.09287,163,111.687,161,-44.5802,0\S,164,1.80724,163,114.816,161,73.7624,0\O,167,1.49661,164,105.559,163,-75.2883,0\C,167,1.80731,164,96.9322,163,178.424,0\H,169,1.09245,167,106.387,164,72.3453,0\H,169,1.09317,167,113.873,164,-50.0023,0\H,169,1.09354,167,109.141,164,-165.178,0\H,65,2.33063,64,107.936,63,86.7945,0\C,173,1.09298,65,142.065,64,94.2291,0\H,174,1.09341,173,112.651,65,64.6793,0\H,174,1.09342,173,113.674,65,-174.055,0\S,174,1.80687,173,107.918,65,-51.6032,0\O,177,1.49682,174,103.893,173,62.2761,0\C,177,1.80686,174,100.44,173,171.661,0\H,179,1.09271,177,113.234,174,-163.004,0\H,179,1.09315,177,108.421,174,-43.6911,0\H,179,1.09325,177,105.953,174,75.3891,0\O,8,2.35544,7,157.312,1,-145.012,0\S,183,1.49694,8,94.7958,7,131.356,0\C,184,1.80725,183,99.6323,8,-96.0956,0\H,185,1.09253,184,105.425,183,77.6394,0\H,185,1.09359,184,109.121,183,-160.275,0\H,185,1.09376,184,107.581,183,-44.4256,0\C,184,1.80752,183,99.6586,8,169.999,0\H,189,1.09237,184,111.535,183,-77.9207,0\H,189,1.09238,184,110.223,183,42.1022,0\H,189,1.09334,184,104.763,183,158.206,0\H,106,2.40952,104,97.6625,103,154.505,0\C,193,1.09385,106,152.28,104,-136.534,0\H,194,1.09262,193,105.352,106,-23.3529,0\H,194,1.09288,193,115.978,106,-138.537,0\S,194,1.80631,193,108.627,106,97.7766,0\O,197,1.49713,194,104.189,193,-38.8454,0\C,197,1.80715,194,92.6522,193,67.5667,0\H,199,1.09273,197,104.106,194,63.1003,0\H,199,1.09321,197,114.056,194,171.544,0\H,199,1.09356,197,107.776,194,-51.0652,0\H,202,2.38489,199,113.316,197,-173.014,0\C,203,1.09274,202,161.585,199,59.0657,0\H,204,1.09249,203,102.021,202,-31.2172,0\H,204,1.09309,203,110.754,202,76.3008,0\S,204,1.80752,203,111.221,202,-155.078,0\O,207,1.49707,204,102.127,203,45.2679,0\C,207,1.80711,204,94.3754,203,-56.4632,0\H,209,1.09238,207,111.971,204,55.8314,0\H,209,1.09302,207,112.208,204,-62.452,0\H,209,1.09332,207,110.822,204,172.471,0\H,150,2.52193,149,130.83,147,-106.954,0\C,213,1.0929,150,134.233,149,-19.0947,0\H,214,1.09277,213,108.577,150,-46.4151,0\H,214,1.09326,213,113.107,150,-159.839,0\S,214,1.8074,213,117.155,150,68.8313,0\O,217,1.49624,214,94.8467,213,-70.9678,0\C,217,1.80708,214,96.9371,213,179.244,0\H,219,1.09266,217,108.192,214,165.649,0\H,219,1.09337,217,112.816,214,43.7533,0\H,219,1.09358,217,109.48,214,-68.6636,0\H,16,2.57936,15,125.802,12,136.253,0\C,223,1.09291,16,111.83,15,173.004,0\H,224,1.09264,223,118.555,16,73.7218,0\H,224,1.0929,223,104.512,16,-48.4454,0\S,224,1.80732,223,107.583,16,-156.55,0\O,227,1.49709,224,106.537,223,55.9991,0\C,227,1.80709,224,104.086,223,162.406,0\H,229,1.09253,227,108.542,224,-44.7282,0\H,229,1.0928,227,111.057,224,72.2126,0\H,229,1.09299,227,109.067,224,-167.524,0\O,231,2.56779,229,171.23,227,-66.9212,0\S,233,1.49736,231,118.077,229,-33.6614,0\C,234,1.80685,233,105.527,231,-35.1717,0\H,235,1.09294,234,111.525,233,-170.172,0\H,235,1.09295,234,107.525,233,71.3404,0\H,235,1.09306,234,114.408,233,-53.0541,0\C,234,1.8073,233,100.377,231,-134.91,0\H,239,1.09218,234,110.173,233,52.3832,0\H,239,1.09303,234,102.662,233,172.222,0\H,239,1.09353,234,115.925,233,-68.0425,0\H,231,2.6631,229,113.96,227,48.8874,0\C,243,1.09385,231,112.468,229,81.4922,0\H,244,1.092,243,113.733,231,-2.21248,0\H,244,1.09365,243,108.111,231,-137.138,0\S,244,1.80715,243,112.413,231,108.938,0\O,247,1.49764,244,103.903,243,-172.056,0\C,247,1.80609,244,101.642,243,75.5295,0\H,249,1.09272,247,117.121,244,55.3946,0\H,249,1.09305,247,104.993,244,-175.504,0\H,249,1.09407,247,107.306,244,-66.9041,0\\\@

 Total job time:  41.85s(wall), 134.23s(cpu) 
 Fri Dec  3 15:04:18 2021

        *************************************************************
        *                                                           *
        *  Thank you very much for using Q-Chem.  Have a nice day.  *
        *                                                           *
        *************************************************************


