                  Welcome to Q-Chem
     A Quantum Leap Into The Future Of Chemistry


 Q-Chem 5.2 (devel), Q-Chem, Inc., Pleasanton, CA (2019)

 Yihan Shao,  Zhengting Gan,  E. Epifanovsky,  A. T. B. Gilbert,  M. Wormit,  
 J. Kussmann,  A. W. Lange,  A. Behn,  Jia Deng,  Xintian Feng,  D. Ghosh,  
 M. Goldey,  P. R. Horn,  L. D. Jacobson,  I. Kaliman,  T. Kus,  A. Landau,  
 Jie Liu,  E. I. Proynov,  R. M. Richard,  R. P. Steele,  E. J. Sundstrom,  
 H. L. Woodcock III,  P. M. Zimmerman,  D. Zuev,  B. Alam,  B. Albrecht,  
 E. Alguire,  S. A. Baeppler,  D. Barton,  Z. Benda,  Y. A. Bernard,  
 E. J. Berquist,  K. B. Bravaya,  H. Burton,  K. Carter-Fenk,  D. Casanova,  
 Chun-Min Chang,  Yunqing Chen,  A. Chien,  K. D. Closser,  M. P. Coons,  
 S. Coriani,  S. Dasgupta,  A. L. Dempwolff,  M. Diedenhofen,  Hainam Do,  
 R. G. Edgar,  Po-Tung Fang,  S. Faraji,  S. Fatehi,  Qingguo Feng,  
 J. Fosso-Tande,  J. Gayvert,  Qinghui Ge,  A. Ghysels,  G. Gidofalvi,  
 J. Gomes,  J. Gonthier,  A. Gunina,  D. Hait,  M. W. D. Hanson-Heine,  
 P. H. P. Harbach,  A. W. Hauser,  M. F. Herbst,  J. E. Herr,  
 E. G. Hohenstein,  Z. C. Holden,  Kerwin Hui,  B. C. Huynh,  T.-C. Jagau,  
 Hyunjun Ji,  B. Kaduk,  K. Khistyaev,  Jaehoon Kim,  P. Klunzinger,  K. Koh,  
 D. Kosenkov,  L. Koulias,  T. Kowalczyk,  C. M. Krauter,  A. Kunitsa,  
 Ka Un Lao,  A. Laurent,  K. V. Lawler,  Joonho Lee,  D. Lefrancois,  
 S. Lehtola,  D. S. Levine,  Yi-Pei Li,  You-Sheng Lin,  Fenglai Liu,  
 Kuan-Yu Liu,  E. Livshits,  M. Loipersberger,  A. Luenser,  P. Manohar,  
 E. Mansoor,  S. F. Manzer,  Shan-Ping Mao,  Yuezhi Mao,  N. Mardirossian,  
 A. V. Marenich,  T. Markovich,  L. A. Martinez-Martinez,  S. A. Maurer,  
 N. J. Mayhall,  S. C. McKenzie,  J.-M. Mewes,  P. Morgante,  A. F. Morrison,  
 J. W. Mullinax,  K. Nanda,  T. S. Nguyen-Beck,  R. Olivares-Amaya,  
 J. A. Parkhill,  S. K. Paul,  F. Pavosevic,  Zheng Pei,  T. M. Perrine,  
 F. Plasser,  P. Pokhilko,  S. Prager,  A. Prociuk,  E. Ramos,  B. Rana,  
 D. R. Rehn,  F. Rob,  M. Scheurer,  M. Schneider,  N. Sergueev,  
 S. M. Sharada,  S. Sharma,  D. W. Small,  T. Stauch,  C. J. Stein,  
 T. Stein,  Yu-Chuan Su,  S. P. Veccham,  Zhen Tao,  A. J. W. Thom,  
 A. Tkatchenko,  T. Tsuchimochi,  N. M. Tubman,  L. Vogt,  M. L. Vidal,  
 O. Vydrov,  M. A. Watson,  J. Wenzel,  M. de Wergifosse,  T. A. Wesolowski,  
 A. White,  J. Witte,  A. Yamada,  Jun Yang,  K. Yao,  S. Yeganeh,  
 S. R. Yost,  Zhi-Qiang You,  A. Zech,  Igor Ying Zhang,  Xing Zhang,  
 Yan Zhao,  Ying Zhu,  B. R. Brooks,  G. K. L. Chan,  C. J. Cramer,  
 M. S. Gordon,  W. J. Hehre,  A. Klamt,  M. W. Schmidt,  C. D. Sherrill,  
 D. G. Truhlar,  A. Aspuru-Guzik,  R. Baer,  A. T. Bell,  N. A. Besley,  
 Jeng-Da Chai,  A. E. DePrince, III,  R. A. DiStasio Jr.,  A. Dreuw,  
 B. D. Dunietz,  T. R. Furlani,  Chao-Ping Hsu,  Yousung Jung,  Jing Kong,  
 D. S. Lambrecht,  WanZhen Liang,  C. Ochsenfeld,  V. A. Rassolov,  
 L. V. Slipchenko,  J. E. Subotnik,  T. Van Voorhis,  J. M. Herbert,  
 A. I. Krylov,  P. M. W. Gill,  M. Head-Gordon

 Contributors to earlier versions of Q-Chem not listed above: 
 R. D. Adamson,  B. Austin,  J. Baker,  G. J. O. Beran,  K. Brandhorst,  
 S. T. Brown,  E. F. C. Byrd,  A. K. Chakraborty,  C.-L. Cheng,  
 Siu Hung Chien,  D. M. Chipman,  D. L. Crittenden,  H. Dachsel,  
 R. J. Doerksen,  A. D. Dutoi,  L. Fusti-Molnar,  W. A. Goddard III,  
 A. Golubeva-Zadorozhnaya,  S. R. Gwaltney,  G. Hawkins,  A. Heyden,  
 S. Hirata,  G. Kedziora,  F. J. Keil,  C. Kelley,  Jihan Kim,  R. A. King,  
 R. Z. Khaliullin,  P. P. Korambath,  W. Kurlancheek,  A. M. Lee,  M. S. Lee,  
 S. V. Levchenko,  Ching Yeh Lin,  D. Liotard,  R. C. Lochan,  I. Lotan,  
 P. E. Maslen,  N. Nair,  D. P. O'Neill,  D. Neuhauser,  E. Neuscamman,  
 C. M. Oana,  R. Olson,  B. Peters,  R. Peverati,  P. A. Pieniazek,  
 Y. M. Rhee,  J. Ritchie,  M. A. Rohrdanz,  E. Rosta,  N. J. Russ,  
 H. F. Schaefer III,  N. E. Schultz,  N. Shenvi,  A. C. Simmonett,  A. Sodt,  
 D. Stuck,  K. S. Thanthiriwatte,  V. Vanovschi,  Tao Wang,  A. Warshel,  
 C. F. Williams,  Q. Wu,  X. Xu,  W. Zhang

 Please cite Q-Chem as follows:
 Y. Shao et al., Mol. Phys. 113, 184-215 (2015)
 DOI: 10.1080/00268976.2014.952696

 Q-Chem 5.2.2 for Intel X86 EM64T Linux

 Parts of Q-Chem use Armadillo 9.800.1 (Horizon Scraper).
 http://arma.sourceforge.net/

 Q-Chem begins on Fri Dec  3 17:10:03 2021  

Host: node024
0

     Scratch files written to /home/ymao90/scratch/r7.00_frame_0048_spade_B3LYP_dp20211203120849//

Checking the input file for inconsistencies... 	...done.

--------------------------------------------------------------
User input:
--------------------------------------------------------------
$molecule
0 1
--
0 1
C    27.23900   19.62100   24.73300  
C    27.88700   20.59200   25.73300  
C    29.15300   20.00600   26.38000  
C    30.17100   19.52200   25.33500  
C    29.50900   18.76600   24.17200  
C    28.28600   19.51100   23.61200  
H    29.51300   20.67800   27.16900  
H    28.20700   21.51200   25.23000  
H    26.99400   18.63600   25.14700  
H    26.40300   20.18200   24.29500  
H    30.63100   20.43000   24.92500  
H    31.01800   18.95700   25.74300  
H    30.13000   18.62000   23.27900  
H    29.21200   17.80100   24.60100  
H    28.48300   20.53500   23.27100  
H    27.89700   18.92200   22.77300  
H    28.88000   19.08400   26.90800  
N    27.00400   20.95900   26.83900  
H    26.70200   20.17100   27.39900  
C    26.75800   22.26100   27.22200  
H    26.05300   22.37400   28.06500  
O    27.30100   23.23700   26.73500  
--
0 1
C    25.23900   16.66400   22.40500  
H    24.66500   15.74500   22.25800  
H    26.24400   16.60000   21.98100  
H    25.35100   16.98600   23.44300  
S    24.28500   17.91500   21.51500  
C    23.27200   18.28500   22.96500  
H    22.99600   17.42000   23.57400  
H    23.88900   18.94600   23.57800  
H    22.39800   18.80600   22.56400  
O    23.38500   17.08900   20.65000  
C    31.09000   21.11600   30.53400  
H    32.03000   20.61200   30.29600  
H    30.30300   20.83000   29.83100  
H    31.11300   22.20900   30.53800  
S    30.55000   20.55100   32.16300  
C    31.85100   21.43800   33.05000  
H    32.58100   20.81100   33.56800  
H    32.43600   22.03900   32.34900  
H    31.36000   22.09300   33.77500  
O    30.95400   19.11400   32.05200  
C    34.66200   21.33900   27.68600  
H    35.47500   20.64500   27.46000  
H    34.81000   21.79000   28.67100  
H    33.77600   20.71900   27.84700  
S    34.54000   22.53300   26.33500  
C    34.24700   21.38000   24.97500  
H    33.42100   21.78800   24.38800  
H    35.20200   21.30300   24.44900  
H    33.90400   20.44800   25.43200  
O    35.94700   22.96900   26.07300  
C    28.33100   14.59900   24.12200  
H    27.86700   15.09700   23.26600  
H    27.56600   14.02300   24.64900  
H    28.83500   15.35900   24.72500  
S    29.47300   13.48800   23.26900  
C    30.17900   12.80300   24.78400  
H    29.44300   12.20500   25.32700  
H    31.10300   12.25000   24.59600  
H    30.57500   13.69300   25.28000  
O    30.52000   14.37500   22.67100  
C    24.75200   22.47600   22.63600  
H    24.66700   22.39500   21.54900  
H    25.57200   23.18600   22.76900  
H    25.05600   21.51400   23.05500  
S    23.15200   23.06300   23.23700  
C    23.64600   23.04300   24.97500  
H    22.80600   23.21800   25.65100  
H    24.06900   22.04100   25.08400  
H    24.48200   23.74000   25.07400  
O    22.46700   21.73300   23.18000  
C    24.71200   11.65100   25.64600  
H    24.29600   11.70700   26.65500  
H    24.17600   11.01100   24.94100  
H    25.76800   11.39900   25.77800  
S    24.67100   13.27300   24.85000  
C    22.89000   13.34100   24.55200  
H    22.66300   12.53600   23.84900  
H    22.40500   13.25900   25.52800  
H    22.61400   14.30600   24.11900  
O    25.41700   13.04000   23.57300  
C    28.96500   13.73500   28.33600  
H    28.21600   12.95000   28.20700  
H    29.36700   13.91900   27.33700  
H    29.82400   13.48400   28.96300  
S    28.22600   15.27400   28.93000  
C    29.67200   16.35000   28.80100  
H    29.42700   17.22500   29.40900  
H    30.49300   15.85500   29.32700  
H    30.01300   16.58300   27.78900  
O    28.17700   15.05300   30.40900  
C    28.90400   25.61000   22.12100  
H    29.61800   25.82800   22.92000  
H    29.41500   25.63000   21.15500  
H    28.17500   26.42300   22.08900  
S    28.06600   24.01500   22.26600  
C    29.52800   22.97500   22.48000  
H    29.46700   21.99200   22.00600  
H    30.46900   23.45000   22.19100  
H    29.68000   22.91500   23.56100  
O    27.69000   23.66700   20.86000  
C    30.40200   23.36500   26.77900  
H    29.64700   23.03800   26.05900  
H    31.22700   22.65000   26.82500  
H    29.99500   23.69600   27.73800  
S    31.27600   24.67400   25.89200  
C    29.96500   25.91800   25.85600  
H    30.30400   26.83400   25.36400  
H    29.08200   25.54900   25.32800  
H    29.76700   26.15300   26.90500  
O    31.59500   24.15600   24.52500  
C    24.83000   18.29200   31.04100  
H    24.55000   19.32600   31.25500  
H    24.02700   17.77400   30.51000  
H    24.97300   17.81700   32.01500  
S    26.32400   18.02500   30.06000  
C    27.49100   18.75700   31.23100  
H    26.99900   19.57200   31.76700  
H    27.82600   18.00000   31.94500  
H    28.29400   19.21900   30.65200  
O    26.31700   19.02900   28.95000  
C    36.66300   17.44200   21.34900  
H    37.37700   17.92700   20.67900  
H    37.00400   16.54100   21.86700  
H    35.76200   17.30700   20.74500  
S    36.00300   18.62300   22.54700  
C    34.48700   17.72100   22.94000  
H    34.66700   16.73000   23.36300  
H    33.86800   18.24800   23.67100  
H    33.90300   17.56100   22.03000  
O    35.55800   19.77600   21.70200  
C    29.77100   20.31300   19.84800  
H    29.73000   19.97500   20.88600  
H    29.18300   21.18900   19.56400  
H    29.55100   19.54300   19.10400  
S    31.50500   20.69000   19.50400  
C    32.25100   19.26500   20.32600  
H    31.75800   19.11000   21.28900  
H    32.10600   18.43000   19.63500  
H    33.29800   19.54100   20.47800  
O    31.95500   21.81500   20.38300  
C    34.69300   16.34100   28.12400  
H    35.15000   17.04000   28.83000  
H    34.29600   15.49100   28.68400  
H    35.36300   15.90300   27.38000  
S    33.25900   17.21200   27.45100  
C    33.03600   16.12400   26.02500  
H    32.21700   16.38800   25.35100  
H    33.99900   16.13000   25.51000  
H    32.92900   15.10300   26.40000  
O    33.79400   18.50300   26.91600  
C    24.03600   25.75300   27.21400  
H    23.19900   25.87700   26.52200  
H    24.02500   24.70600   27.52500  
H    23.81700   26.46600   28.01300  
S    25.46300   26.11900   26.16700  
C    26.56200   26.66500   27.49400  
H    27.30700   27.38400   27.14500  
H    26.05600   27.11200   28.35400  
H    27.15400   25.80400   27.81700  
O    25.05200   27.36600   25.44800  
C    26.50800   12.24700   20.39800  
H    25.91600   11.63900   19.70800  
H    27.49400   11.78200   20.47700  
H    26.03500   12.16800   21.38000  
S    26.60600   14.00000   19.97400  
C    24.82100   14.28000   19.92600  
H    24.77700   15.27300   19.47000  
H    24.38200   13.49300   19.30800  
H    24.46300   14.24300   20.95800  
O    27.00900   14.11100   18.53600  
C    22.79500   20.27100   27.09100  
H    21.83700   20.79700   27.09500  
H    23.36300   20.64700   26.23600  
H    22.56100   19.20300   27.07200  
S    23.63100   20.88600   28.57000  
C    22.30100   20.75300   29.78600  
H    22.47900   21.44500   30.61400  
H    21.30800   20.91400   29.35700  
H    22.30900   19.71500   30.12600  
O    23.59400   22.37200   28.39600  
C    18.87800   24.11400   31.43400  
H    18.90600   25.09800   30.96000  
H    18.52600   23.32500   30.76400  
H    18.25000   24.11100   32.32900  
S    20.59500   23.83900   31.92400  
C    21.06000   23.95500   30.18200  
H    20.63500   23.03200   29.77900  
H    20.63100   24.82200   29.67500  
H    22.14900   23.90500   30.09600  
O    20.70700   22.39200   32.29100  
C    33.97800   23.41400   21.82700  
H    33.20000   23.08200   22.52000  
H    33.44300   23.80500   20.95700  
H    34.52500   22.50900   21.55200  
S    35.10900   24.63200   22.53600  
C    33.86700   25.91700   22.80800  
H    33.08400   25.88400   22.04600  
H    33.36300   25.49000   23.67900  
H    34.20400   26.95400   22.87500  
O    35.78400   24.93900   21.23600  
C    26.38500   23.74400   30.31100  
H    26.34000   24.61600   30.96900  
H    26.21700   24.11300   29.29600  
H    25.60400   23.06100   30.65500  
S    27.91400   22.82500   30.60000  
C    27.59500   22.85600   32.37800  
H    26.78600   22.13100   32.49900  
H    28.52900   22.62800   32.89900  
H    27.26600   23.82000   32.77400  
O    28.92700   23.91900   30.46700  
C    24.75500   15.45000   28.42900  
H    25.26500   14.63700   27.90600  
H    25.37900   15.78800   29.26100  
H    23.89400   15.00700   28.93500  
S    24.29800   16.79400   27.31000  
C    22.59100   16.27100   27.02900  
H    21.90400   16.66500   27.78200  
H    22.32800   16.57500   26.01200  
H    22.62300   15.18000   27.06900  
O    25.07200   16.50300   26.06200  
C    25.77500   17.31000   17.73100  
H    26.68100   16.77600   18.02800  
H    24.83300   16.88900   18.09300  
H    25.80500   17.52600   16.66000  
S    25.78800   18.93200   18.52800  
C    24.17500   19.51500   17.95800  
H    23.39300   18.95600   18.47700  
H    24.02500   20.59700   17.94200  
H    24.12100   19.21700   16.90700  
O    26.83200   19.79500   17.89200  
C    31.85600   28.31900   27.45100  
H    31.90400   28.41600   26.36400  
H    32.49500   29.04200   27.96500  
H    32.14000   27.29100   27.69400  
S    30.22900   28.92800   27.94800  
C    30.36100   30.61000   27.30000  
H    31.31000   31.08300   27.56700  
H    30.37200   30.65700   26.20800  
H    29.51100   31.18000   27.68300  
O    30.33900   29.25800   29.40400  
$end

$rem
JOBTYPE  SP
METHOD  B3LYP
BASIS  6-31+G(D)
SYMMETRY  FALSE
SYM_IGNORE  TRUE
MEM_TOTAL  16000
MEM_STATIC  8000
MAX_SUB_FILE_NUM  16000
BASIS_LIN_DEP_THRESH  6
THRESH  14
SCF_CONVERGENCE  8
GEN_SCFMAN  TRUE
SCF_GUESS  SAD
FD_MAT_VEC_PROD  FALSE
XC_GRID  000075000302
NL_GRID  1
MAX_SCF_CYCLES  200
ENV_METHOD  B3LYP
GEN_SCFMAN_EMBED  TRUE
SPADE_PARTITION  TRUE
$end

$development
embedding_early_stop  1
$end

--------------------------------------------------------------
 ----------------------------------------------------------------
             Standard Nuclear Orientation (Angstroms)
    I     Atom           X                Y                Z
 ----------------------------------------------------------------
    1      C      27.2390000000    19.6210000000    24.7330000000
    2      C      27.8870000000    20.5920000000    25.7330000000
    3      C      29.1530000000    20.0060000000    26.3800000000
    4      C      30.1710000000    19.5220000000    25.3350000000
    5      C      29.5090000000    18.7660000000    24.1720000000
    6      C      28.2860000000    19.5110000000    23.6120000000
    7      H      29.5130000000    20.6780000000    27.1690000000
    8      H      28.2070000000    21.5120000000    25.2300000000
    9      H      26.9940000000    18.6360000000    25.1470000000
   10      H      26.4030000000    20.1820000000    24.2950000000
   11      H      30.6310000000    20.4300000000    24.9250000000
   12      H      31.0180000000    18.9570000000    25.7430000000
   13      H      30.1300000000    18.6200000000    23.2790000000
   14      H      29.2120000000    17.8010000000    24.6010000000
   15      H      28.4830000000    20.5350000000    23.2710000000
   16      H      27.8970000000    18.9220000000    22.7730000000
   17      H      28.8800000000    19.0840000000    26.9080000000
   18      N      27.0040000000    20.9590000000    26.8390000000
   19      H      26.7020000000    20.1710000000    27.3990000000
   20      C      26.7580000000    22.2610000000    27.2220000000
   21      H      26.0530000000    22.3740000000    28.0650000000
   22      O      27.3010000000    23.2370000000    26.7350000000
   23      C      25.2390000000    16.6640000000    22.4050000000
   24      H      24.6650000000    15.7450000000    22.2580000000
   25      H      26.2440000000    16.6000000000    21.9810000000
   26      H      25.3510000000    16.9860000000    23.4430000000
   27      S      24.2850000000    17.9150000000    21.5150000000
   28      C      23.2720000000    18.2850000000    22.9650000000
   29      H      22.9960000000    17.4200000000    23.5740000000
   30      H      23.8890000000    18.9460000000    23.5780000000
   31      H      22.3980000000    18.8060000000    22.5640000000
   32      O      23.3850000000    17.0890000000    20.6500000000
   33      C      31.0900000000    21.1160000000    30.5340000000
   34      H      32.0300000000    20.6120000000    30.2960000000
   35      H      30.3030000000    20.8300000000    29.8310000000
   36      H      31.1130000000    22.2090000000    30.5380000000
   37      S      30.5500000000    20.5510000000    32.1630000000
   38      C      31.8510000000    21.4380000000    33.0500000000
   39      H      32.5810000000    20.8110000000    33.5680000000
   40      H      32.4360000000    22.0390000000    32.3490000000
   41      H      31.3600000000    22.0930000000    33.7750000000
   42      O      30.9540000000    19.1140000000    32.0520000000
   43      C      34.6620000000    21.3390000000    27.6860000000
   44      H      35.4750000000    20.6450000000    27.4600000000
   45      H      34.8100000000    21.7900000000    28.6710000000
   46      H      33.7760000000    20.7190000000    27.8470000000
   47      S      34.5400000000    22.5330000000    26.3350000000
   48      C      34.2470000000    21.3800000000    24.9750000000
   49      H      33.4210000000    21.7880000000    24.3880000000
   50      H      35.2020000000    21.3030000000    24.4490000000
   51      H      33.9040000000    20.4480000000    25.4320000000
   52      O      35.9470000000    22.9690000000    26.0730000000
   53      C      28.3310000000    14.5990000000    24.1220000000
   54      H      27.8670000000    15.0970000000    23.2660000000
   55      H      27.5660000000    14.0230000000    24.6490000000
   56      H      28.8350000000    15.3590000000    24.7250000000
   57      S      29.4730000000    13.4880000000    23.2690000000
   58      C      30.1790000000    12.8030000000    24.7840000000
   59      H      29.4430000000    12.2050000000    25.3270000000
   60      H      31.1030000000    12.2500000000    24.5960000000
   61      H      30.5750000000    13.6930000000    25.2800000000
   62      O      30.5200000000    14.3750000000    22.6710000000
   63      C      24.7520000000    22.4760000000    22.6360000000
   64      H      24.6670000000    22.3950000000    21.5490000000
   65      H      25.5720000000    23.1860000000    22.7690000000
   66      H      25.0560000000    21.5140000000    23.0550000000
   67      S      23.1520000000    23.0630000000    23.2370000000
   68      C      23.6460000000    23.0430000000    24.9750000000
   69      H      22.8060000000    23.2180000000    25.6510000000
   70      H      24.0690000000    22.0410000000    25.0840000000
   71      H      24.4820000000    23.7400000000    25.0740000000
   72      O      22.4670000000    21.7330000000    23.1800000000
   73      C      24.7120000000    11.6510000000    25.6460000000
   74      H      24.2960000000    11.7070000000    26.6550000000
   75      H      24.1760000000    11.0110000000    24.9410000000
   76      H      25.7680000000    11.3990000000    25.7780000000
   77      S      24.6710000000    13.2730000000    24.8500000000
   78      C      22.8900000000    13.3410000000    24.5520000000
   79      H      22.6630000000    12.5360000000    23.8490000000
   80      H      22.4050000000    13.2590000000    25.5280000000
   81      H      22.6140000000    14.3060000000    24.1190000000
   82      O      25.4170000000    13.0400000000    23.5730000000
   83      C      28.9650000000    13.7350000000    28.3360000000
   84      H      28.2160000000    12.9500000000    28.2070000000
   85      H      29.3670000000    13.9190000000    27.3370000000
   86      H      29.8240000000    13.4840000000    28.9630000000
   87      S      28.2260000000    15.2740000000    28.9300000000
   88      C      29.6720000000    16.3500000000    28.8010000000
   89      H      29.4270000000    17.2250000000    29.4090000000
   90      H      30.4930000000    15.8550000000    29.3270000000
   91      H      30.0130000000    16.5830000000    27.7890000000
   92      O      28.1770000000    15.0530000000    30.4090000000
   93      C      28.9040000000    25.6100000000    22.1210000000
   94      H      29.6180000000    25.8280000000    22.9200000000
   95      H      29.4150000000    25.6300000000    21.1550000000
   96      H      28.1750000000    26.4230000000    22.0890000000
   97      S      28.0660000000    24.0150000000    22.2660000000
   98      C      29.5280000000    22.9750000000    22.4800000000
   99      H      29.4670000000    21.9920000000    22.0060000000
  100      H      30.4690000000    23.4500000000    22.1910000000
  101      H      29.6800000000    22.9150000000    23.5610000000
  102      O      27.6900000000    23.6670000000    20.8600000000
  103      C      30.4020000000    23.3650000000    26.7790000000
  104      H      29.6470000000    23.0380000000    26.0590000000
  105      H      31.2270000000    22.6500000000    26.8250000000
  106      H      29.9950000000    23.6960000000    27.7380000000
  107      S      31.2760000000    24.6740000000    25.8920000000
  108      C      29.9650000000    25.9180000000    25.8560000000
  109      H      30.3040000000    26.8340000000    25.3640000000
  110      H      29.0820000000    25.5490000000    25.3280000000
  111      H      29.7670000000    26.1530000000    26.9050000000
  112      O      31.5950000000    24.1560000000    24.5250000000
  113      C      24.8300000000    18.2920000000    31.0410000000
  114      H      24.5500000000    19.3260000000    31.2550000000
  115      H      24.0270000000    17.7740000000    30.5100000000
  116      H      24.9730000000    17.8170000000    32.0150000000
  117      S      26.3240000000    18.0250000000    30.0600000000
  118      C      27.4910000000    18.7570000000    31.2310000000
  119      H      26.9990000000    19.5720000000    31.7670000000
  120      H      27.8260000000    18.0000000000    31.9450000000
  121      H      28.2940000000    19.2190000000    30.6520000000
  122      O      26.3170000000    19.0290000000    28.9500000000
  123      C      36.6630000000    17.4420000000    21.3490000000
  124      H      37.3770000000    17.9270000000    20.6790000000
  125      H      37.0040000000    16.5410000000    21.8670000000
  126      H      35.7620000000    17.3070000000    20.7450000000
  127      S      36.0030000000    18.6230000000    22.5470000000
  128      C      34.4870000000    17.7210000000    22.9400000000
  129      H      34.6670000000    16.7300000000    23.3630000000
  130      H      33.8680000000    18.2480000000    23.6710000000
  131      H      33.9030000000    17.5610000000    22.0300000000
  132      O      35.5580000000    19.7760000000    21.7020000000
  133      C      29.7710000000    20.3130000000    19.8480000000
  134      H      29.7300000000    19.9750000000    20.8860000000
  135      H      29.1830000000    21.1890000000    19.5640000000
  136      H      29.5510000000    19.5430000000    19.1040000000
  137      S      31.5050000000    20.6900000000    19.5040000000
  138      C      32.2510000000    19.2650000000    20.3260000000
  139      H      31.7580000000    19.1100000000    21.2890000000
  140      H      32.1060000000    18.4300000000    19.6350000000
  141      H      33.2980000000    19.5410000000    20.4780000000
  142      O      31.9550000000    21.8150000000    20.3830000000
  143      C      34.6930000000    16.3410000000    28.1240000000
  144      H      35.1500000000    17.0400000000    28.8300000000
  145      H      34.2960000000    15.4910000000    28.6840000000
  146      H      35.3630000000    15.9030000000    27.3800000000
  147      S      33.2590000000    17.2120000000    27.4510000000
  148      C      33.0360000000    16.1240000000    26.0250000000
  149      H      32.2170000000    16.3880000000    25.3510000000
  150      H      33.9990000000    16.1300000000    25.5100000000
  151      H      32.9290000000    15.1030000000    26.4000000000
  152      O      33.7940000000    18.5030000000    26.9160000000
  153      C      24.0360000000    25.7530000000    27.2140000000
  154      H      23.1990000000    25.8770000000    26.5220000000
  155      H      24.0250000000    24.7060000000    27.5250000000
  156      H      23.8170000000    26.4660000000    28.0130000000
  157      S      25.4630000000    26.1190000000    26.1670000000
  158      C      26.5620000000    26.6650000000    27.4940000000
  159      H      27.3070000000    27.3840000000    27.1450000000
  160      H      26.0560000000    27.1120000000    28.3540000000
  161      H      27.1540000000    25.8040000000    27.8170000000
  162      O      25.0520000000    27.3660000000    25.4480000000
  163      C      26.5080000000    12.2470000000    20.3980000000
  164      H      25.9160000000    11.6390000000    19.7080000000
  165      H      27.4940000000    11.7820000000    20.4770000000
  166      H      26.0350000000    12.1680000000    21.3800000000
  167      S      26.6060000000    14.0000000000    19.9740000000
  168      C      24.8210000000    14.2800000000    19.9260000000
  169      H      24.7770000000    15.2730000000    19.4700000000
  170      H      24.3820000000    13.4930000000    19.3080000000
  171      H      24.4630000000    14.2430000000    20.9580000000
  172      O      27.0090000000    14.1110000000    18.5360000000
  173      C      22.7950000000    20.2710000000    27.0910000000
  174      H      21.8370000000    20.7970000000    27.0950000000
  175      H      23.3630000000    20.6470000000    26.2360000000
  176      H      22.5610000000    19.2030000000    27.0720000000
  177      S      23.6310000000    20.8860000000    28.5700000000
  178      C      22.3010000000    20.7530000000    29.7860000000
  179      H      22.4790000000    21.4450000000    30.6140000000
  180      H      21.3080000000    20.9140000000    29.3570000000
  181      H      22.3090000000    19.7150000000    30.1260000000
  182      O      23.5940000000    22.3720000000    28.3960000000
  183      C      18.8780000000    24.1140000000    31.4340000000
  184      H      18.9060000000    25.0980000000    30.9600000000
  185      H      18.5260000000    23.3250000000    30.7640000000
  186      H      18.2500000000    24.1110000000    32.3290000000
  187      S      20.5950000000    23.8390000000    31.9240000000
  188      C      21.0600000000    23.9550000000    30.1820000000
  189      H      20.6350000000    23.0320000000    29.7790000000
  190      H      20.6310000000    24.8220000000    29.6750000000
  191      H      22.1490000000    23.9050000000    30.0960000000
  192      O      20.7070000000    22.3920000000    32.2910000000
  193      C      33.9780000000    23.4140000000    21.8270000000
  194      H      33.2000000000    23.0820000000    22.5200000000
  195      H      33.4430000000    23.8050000000    20.9570000000
  196      H      34.5250000000    22.5090000000    21.5520000000
  197      S      35.1090000000    24.6320000000    22.5360000000
  198      C      33.8670000000    25.9170000000    22.8080000000
  199      H      33.0840000000    25.8840000000    22.0460000000
  200      H      33.3630000000    25.4900000000    23.6790000000
  201      H      34.2040000000    26.9540000000    22.8750000000
  202      O      35.7840000000    24.9390000000    21.2360000000
  203      C      26.3850000000    23.7440000000    30.3110000000
  204      H      26.3400000000    24.6160000000    30.9690000000
  205      H      26.2170000000    24.1130000000    29.2960000000
  206      H      25.6040000000    23.0610000000    30.6550000000
  207      S      27.9140000000    22.8250000000    30.6000000000
  208      C      27.5950000000    22.8560000000    32.3780000000
  209      H      26.7860000000    22.1310000000    32.4990000000
  210      H      28.5290000000    22.6280000000    32.8990000000
  211      H      27.2660000000    23.8200000000    32.7740000000
  212      O      28.9270000000    23.9190000000    30.4670000000
  213      C      24.7550000000    15.4500000000    28.4290000000
  214      H      25.2650000000    14.6370000000    27.9060000000
  215      H      25.3790000000    15.7880000000    29.2610000000
  216      H      23.8940000000    15.0070000000    28.9350000000
  217      S      24.2980000000    16.7940000000    27.3100000000
  218      C      22.5910000000    16.2710000000    27.0290000000
  219      H      21.9040000000    16.6650000000    27.7820000000
  220      H      22.3280000000    16.5750000000    26.0120000000
  221      H      22.6230000000    15.1800000000    27.0690000000
  222      O      25.0720000000    16.5030000000    26.0620000000
  223      C      25.7750000000    17.3100000000    17.7310000000
  224      H      26.6810000000    16.7760000000    18.0280000000
  225      H      24.8330000000    16.8890000000    18.0930000000
  226      H      25.8050000000    17.5260000000    16.6600000000
  227      S      25.7880000000    18.9320000000    18.5280000000
  228      C      24.1750000000    19.5150000000    17.9580000000
  229      H      23.3930000000    18.9560000000    18.4770000000
  230      H      24.0250000000    20.5970000000    17.9420000000
  231      H      24.1210000000    19.2170000000    16.9070000000
  232      O      26.8320000000    19.7950000000    17.8920000000
  233      C      31.8560000000    28.3190000000    27.4510000000
  234      H      31.9040000000    28.4160000000    26.3640000000
  235      H      32.4950000000    29.0420000000    27.9650000000
  236      H      32.1400000000    27.2910000000    27.6940000000
  237      S      30.2290000000    28.9280000000    27.9480000000
  238      C      30.3610000000    30.6100000000    27.3000000000
  239      H      31.3100000000    31.0830000000    27.5670000000
  240      H      30.3720000000    30.6570000000    26.2080000000
  241      H      29.5110000000    31.1800000000    27.6830000000
  242      O      30.3390000000    29.2580000000    29.4040000000
 ----------------------------------------------------------------
 Nuclear Repulsion Energy =       34181.90161386 hartrees
 There are      497 alpha and      497 beta electrons
 Requested basis set is 6-31+G(d)
 There are 797 shells and 2221 basis functions

 Total QAlloc Memory Limit  16000 MB
 Mega-Array Size      7821 MB
 MEM_STATIC part      8000 MB
 A cutoff of  1.0D-14 yielded 128993 shell pairs
 There are   1113083 function pairs
 Smallest overlap matrix eigenvalue = 7.48E-07
 Linear dependence detected in AO basis
 Tighter screening thresholds may be required for diffuse basis sets
 Use S2THRESH > 14 and THRESH = 14 in case of SCF convergence issues
 Number of orthogonalized atomic orbitals = 2220
 Maximum deviation from orthogonality = 8.006E-11

 Scale SEOQF with 1.000000e-03/1.000000e-03/1.000000e-03

 Standard Electronic Orientation quadrupole field applied
 Nucleus-field energy     =    -0.0000001181 hartrees
 Guess from superposition of atomic densities
 Warning:  Energy on first SCF cycle will be non-variational
 SAD guess density has 994.000002 electrons

 -----------------------------------------------------------------------
  General SCF calculation program by
  Eric Jon Sundstrom, Paul Horn, Yuezhi Mao, Dmitri Zuev, Alec White,
  David Stuck, Shaama M.S., Shane Yost, Joonho Lee, David Small,
  Daniel Levine, Susi Lehtola, Hugh Burton, Evgeny Epifanovsky,
  Bang C. Huynh
 -----------------------------------------------------------------------
=================================================
        Doing projection-based embedding         
      F. Manby et al. JCTC, 8, 2564 (2012)       
=================================================

****************************************************
   Low-level SCF calculation for the whole system   
****************************************************
----------------------------------------------
 Summary of the low-level theory: 
 Exchange:     0.2000 Hartree-Fock + 0.0800 Slater + 0.7200 B88
 Correlation:  0.1900 VWN1RPA + 0.8100 LYP
 Using Euler-Maclaurin-Lebedev (75,302) quadrature formula
----------------------------------------------
 using 16 threads for integral computing
 -------------------------------------------------------
 OpenMP Integral computing Module                
 Release: version 2.0, May 2017, Q-Chem Inc. Pleasanton 
 -------------------------------------------------------
 A restricted SCF calculation will be
 performed using DIIS
 SCF converges when DIIS error is below 1.0e-08
 ---------------------------------------
  Cycle       Energy         DIIS error
 ---------------------------------------
    1  -12590.6283070300      1.48e-02  
    2  -12570.7096798849      2.75e-03  
    3  -12545.1929529855      6.07e-03  
    4  -12508.0849407994      5.76e-03  
    5  -12573.6641701959      1.38e-03  
    6  -12574.6825705991      3.39e-04  
    7  -12574.7206085963      2.48e-04  
    8  -12574.7528338733      1.00e-04  
    9  -12574.7586017377      4.80e-05  
   10  -12574.7596644529      2.87e-05  
   11  -12574.7600584355      8.66e-06  
   12  -12574.7600960147      2.54e-06  
   13  -12574.7600990984      1.06e-06  
   14  -12574.7600995680      4.20e-07  
   15  -12574.7600996564      1.09e-07  
   16  -12574.7600996624      4.10e-08  
   17  -12574.7600996631      1.54e-08  
   18  -12574.7600996632      5.30e-09  Convergence criterion met
 ---------------------------------------
 SCF time:   CPU 130073.60s  wall 8210.00s 
 SCF   energy in the final basis set =   -12574.7600996632
 Total energy in the final basis set =   -12574.7600996632

****************************************************
             Start embedding calculation            
****************************************************
----------------------------------------------
 Summary of the high-level theory: 
 Exchange:     0.2000 Hartree-Fock + 0.0800 Slater + 0.7200 B88
 Correlation:  0.1900 VWN1RPA + 0.8100 LYP
 Using Euler-Maclaurin-Lebedev (75,302) quadrature formula
----------------------------------------------
Doing R-in-R Embedding Calculation
Number of fragments: 2
Embedded fragment(s): 1 
NOcc for each fragment
           35
          462
NBasis for each fragment
          197
         2024
Variational space of the embedded problem: 
NOcc (active)  = 35
NOcc (fixed)   = 462
NVir (total)   = 1723
Read converged orbitals from disk
=========================================================
       Doing SPADE partition for the orbital space       
     D. CLaudino and N. Mayhall JCTC 15, 1053 (2019)     
=========================================================
SPADE singular values:
 1.0000 1.0000 1.0000 1.0000 1.0000 1.0000 1.0000 1.0000 1.0000 0.9999
 0.9999 0.9998 0.9997 0.9997 0.9996 0.9996 0.9995 0.9993 0.9989 0.9980
 0.9977 0.9973 0.9972 0.9967 0.9965 0.9963 0.9953 0.9951 0.9943 0.9936
 0.9930 0.9926 0.9907 0.9873 0.9785 0.2082 0.1751 0.1609 0.1548 0.1388
 0.1258 0.1167 0.1058 0.1009 0.0964 0.0836 0.0798 0.0778 0.0665 0.0619
 0.0610 0.0517 0.0475 0.0444 0.0417 0.0388 0.0375 0.0318 0.0307 0.0298
 0.0279 0.0261 0.0251 0.0237 0.0217 0.0199 0.0193 0.0178 0.0168 0.0149
 0.0137 0.0131 0.0123 0.0110 0.0108 0.0104 0.0101 0.0096 0.0093 0.0089
 0.0085 0.0082 0.0075 0.0073 0.0068 0.0065 0.0060 0.0059 0.0058 0.0055
 0.0052 0.0048 0.0046 0.0044 0.0044 0.0042 0.0040 0.0038 0.0037 0.0035
 0.0034 0.0029 0.0029 0.0026 0.0026 0.0025 0.0024 0.0024 0.0022 0.0021
 0.0020 0.0019 0.0018 0.0017 0.0016 0.0016 0.0016 0.0015 0.0014 0.0014
 0.0014 0.0013 0.0012 0.0012 0.0012 0.0011 0.0011 0.0011 0.0010 0.0009
 0.0009 0.0009 0.0008 0.0008 0.0008 0.0008 0.0007 0.0007 0.0007 0.0006
 0.0006 0.0006 0.0006 0.0005 0.0005 0.0005 0.0005 0.0004 0.0004 0.0004
 0.0004 0.0004 0.0003 0.0003 0.0003 0.0003 0.0003 0.0003 0.0003 0.0002
 0.0002 0.0002 0.0002 0.0002 0.0002 0.0002 0.0002 0.0002 0.0002 0.0002
 0.0002 0.0002 0.0001 0.0001 0.0001 0.0001 0.0001 0.0001 0.0001 0.0001
 0.0001 0.0001 0.0001 0.0001 0.0001 0.0001 0.0001 0.0001 0.0001 0.0001
 0.0001 0.0001 0.0001 0.0000 0.0000 0.0000 0.0000
Early stop requested!
462 environment occs will be part of frozen-core in future post-HF calculations
 
 --------------------------------------------------------------
 
                    Orbital Energies (a.u.)
 --------------------------------------------------------------
 
 Alpha MOs
 -- Occupied --
 -0.5320  -0.5341  -0.4925  -0.5429  -0.4710  -0.4513  -0.4692  -0.4609
 -0.4798  -0.4628  -0.4599  -0.3930  -0.4404  -0.4803  -0.4527  -0.4389
 -0.6153  -0.5234  -0.4462  -0.4438  -0.4574  -0.5279  -0.6735  -0.5641
 -0.5614  -0.4445  -0.5136  -0.7278  -0.6323  -0.5596  -0.4908  -0.5965
 -0.5252  -0.5385  -0.6305  -0.6601  -0.5591  -0.5283  -0.5226  -0.5007
 -0.5177  -0.5390  -0.5338  -0.5933  -0.6111  -0.5960  -0.5456  -0.5220
 -0.5241  -0.5430  -0.7685  -0.6751  -0.6292  -0.6322  -0.6805  -0.6357
 -0.6338  -0.6247  -0.7973  -0.8131  -0.8023  -0.7264  -0.9136  -0.7494
 -0.8999  -0.9123  -0.9242  -0.8731  -1.3173  -1.1149  -1.0738  -0.6475
 -0.8158  -1.0913  -0.6930  -0.7920  -1.5191  -0.9002  -0.7934  -0.9627
 -0.9500  -0.8733  -1.2629  -0.9930  -1.1545  -1.4598  -1.0226  -1.0167
 -1.1374  -1.2227  -1.1011  -1.1338  -0.7939  -1.1779  -1.0349  -1.1375
 -1.3348  -1.0189  -1.4021  -2.9841  -1.0285  -4.0355  -1.6374  -1.9845
 -1.3639  -1.9538  -1.3538  -1.1898  -1.6311  -1.3380  -1.2109  -1.0736
 -1.8913  -1.2154  -1.7253  -1.4358  -1.0013  -1.8443  -1.1011  -1.3563
 -1.8293  -1.1945  -1.3318  -1.3266  -1.9202  -1.2899  -1.2189  -1.1332
 -1.1252  -1.3440  -1.5962  -0.9918  -1.3226  -1.2243  -1.4208  -2.0242
 -1.5990  -2.1155  -1.4412  -1.3649  -2.1700  -1.7729  -1.5928  -1.6483
 -1.3059  -1.6330  -1.4277  -1.5736  -1.4842  -1.7393  -1.5776  -2.1737
 -2.0406  -2.1243  -1.7909  -2.0243  -2.0390  -1.4797  -1.9097  -2.1961
 -2.0393  -2.2465  -8.1178  -1.2173  -4.4594  -2.0984  -5.4496  -1.5253
 -8.2006  -2.5998  -4.8413  -8.1037  -1.4812 -57.6929  -7.6302  -2.5056
-63.5175 -18.2494  -7.6306  -1.0936  -5.4093  -5.7083  -5.7307  -5.9412
 -4.3646 -10.8069 -22.5265  -2.8552  -2.1196  -2.2856  -7.2256 -11.9197
 -2.3117  -2.5393 -13.0676  -8.5058  -1.9724  -6.9569  -6.4710 -17.6329
-65.6572  -9.5662  -6.6555 -64.3829 -12.9851  -6.7986  -5.6391  -1.1554
 -1.5187  -8.3523  -3.3946  -4.8412  -8.2782  -7.0494  -9.9434  -3.0670
 -1.3744 -15.0655  -7.7346  -4.4715  -1.5500  -5.8859  -7.4508  -1.1164
-50.1992  -7.7182  -6.2866  -6.4420  -6.0424  -3.8878  -1.6084 -56.2045
-14.3641  -1.5950 -10.1695 -14.2011  -2.9633  -8.7588 -10.3634 -49.4056
 -1.3999 -10.2008  -1.8495  -6.7689 -50.5463 -11.6629  -1.4073 -41.7138
 -4.2528  -3.7219  -4.8924  -5.4677  -6.7605  -4.3440  -6.2262 -14.4242
 -3.0138  -7.6712  -7.4002  -4.3369  -7.2604  -5.2546  -2.8530 -15.8405
-16.9067 -15.9277 -19.5959  -2.3710  -6.8203  -5.3386  -8.0243  -6.6472
 -6.1576  -6.5945  -6.1174  -9.4582  -5.3698  -5.1480 -11.0904 -14.8110
-16.0083 -17.0928  -3.6063 -10.0124  -5.2763  -8.2243  -2.2979  -7.1107
-24.0217  -9.9726  -8.6613  -9.2099 -52.2931  -2.6805  -5.6363  -7.0286
 -7.8998  -8.2251  -9.6226 -10.1227 -10.7632  -8.0927 -12.5507 -12.4504
 -9.1372  -7.6958 -12.4688  -8.5977  -3.2060  -1.9359  -5.8032 -11.4082
 -4.5638 -17.5661  -8.6151 -15.0851  -2.9298  -6.2691  -8.5238  -5.8215
 -4.1691  -7.0471  -5.6414  -6.3794  -2.5887 -12.9911  -9.0542  -7.3195
 -5.9144  -4.6223  -6.8440  -5.5802  -3.1979  -7.3602  -5.6793 -12.8342
 -9.2362 -11.8961 -21.2544  -6.1013  -9.9910  -8.9376 -27.9090  -5.7836
 -4.9091  -5.7587 -13.4477  -3.0260  -3.1659  -5.0935 -32.9971 -14.2204
-13.8587 -10.0473  -6.9312 -12.0014  -9.7007  -2.1338 -10.3893 -10.2927
-14.5573  -5.8814 -16.2675 -16.5635  -4.1828 -15.3815 -21.8586 -16.3247
 -7.6015 -30.4076  -4.8954  -2.5973  -2.0338  -2.9694 -12.3940 -23.1059
 -9.3717 -11.8420 -17.9431 -24.4299  -5.8729 -17.0624  -7.5844  -9.0687
 -3.2042  -4.5761  -2.2644  -4.9550  -7.1874  -5.1967  -3.1356 -35.0616
-18.5121  -4.5786  -9.3238  -4.3231 -48.4221 -15.8233 -18.7654 -20.2964
 -5.1487 -59.3983  -4.3533  -9.7217  -3.7233  -2.7527  -2.9610  -5.3265
-25.1792 -45.9063 -19.1697 -38.5682  -8.4011 -12.0465 -22.1953 -10.7673
 -4.9004 -63.2045 -10.9013 -12.4850  -7.0678  -1.8965  -3.9165  -7.4396
 -6.8979  -9.5459 -14.1739 -11.9344 -15.9560 -38.1487 -12.6235 -11.0989
 -6.5755 -15.6095  -7.7902  -3.2336  -9.7574 -21.9959  -8.4476 -58.7462
 -7.4126 -13.0396  -6.6153 -10.7189 -14.0267  -3.7529 -11.6790 -18.4648
 -8.5145 -10.3689 -18.0816  -7.0316 -14.5695  -5.8845 -11.2270  -7.2547
-13.2177  -6.4951 -10.5531  -7.4439 -10.1815  -4.5626 -10.2348 -10.4675
-10.3122 -13.4457 -10.8209 -10.4720 -15.3243 -12.8626 -10.3549  -0.8072
 -0.7531  -0.7548  -0.6628  -0.5887  -0.8063  -0.6828  -0.4960  -0.8696
 -0.4616  -0.4791  -0.4723  -0.4305  -0.4469  -0.4245  -0.4300  -0.4366
 -0.4553  -0.4448  -0.4489  -0.4627  -0.4326  -0.4784  -0.5269  -0.4577
 -0.5940
 -- Virtual --
 -0.0586  -0.0491  -0.0448  -0.0406  -0.0361  -0.0344  -0.0331  -0.0301
 -0.0282  -0.0265  -0.0256  -0.0240  -0.0220  -0.0203  -0.0194  -0.0179
 -0.0168  -0.0164  -0.0150  -0.0139  -0.0124  -0.0099  -0.0094  -0.0076
 -0.0070  -0.0054  -0.0046  -0.0044  -0.0036  -0.0025  -0.0020  -0.0006
  0.0015   0.0022   0.0030   0.0036   0.0040   0.0052   0.0066   0.0084
  0.0087   0.0096   0.0099   0.0107   0.0115   0.0126   0.0139   0.0144
  0.0149   0.0155   0.0165   0.0176   0.0189   0.0202   0.0204   0.0205
  0.0216   0.0220   0.0226   0.0248   0.0252   0.0258   0.0272   0.0281
  0.0290   0.0291   0.0297   0.0305   0.0314   0.0316   0.0320   0.0327
  0.0339   0.0346   0.0352   0.0359   0.0363   0.0373   0.0386   0.0392
  0.0397   0.0401   0.0406   0.0413   0.0416   0.0427   0.0440   0.0450
  0.0463   0.0472   0.0477   0.0483   0.0490   0.0501   0.0505   0.0512
  0.0522   0.0525   0.0537   0.0549   0.0555   0.0565   0.0571   0.0580
  0.0586   0.0594   0.0600   0.0607   0.0613   0.0619   0.0629   0.0633
  0.0638   0.0645   0.0657   0.0665   0.0668   0.0676   0.0683   0.0687
  0.0689   0.0694   0.0707   0.0714   0.0716   0.0721   0.0732   0.0737
  0.0753   0.0760   0.0764   0.0777   0.0779   0.0793   0.0798   0.0803
  0.0807   0.0820   0.0825   0.0829   0.0837   0.0840   0.0850   0.0862
  0.0865   0.0870   0.0882   0.0899   0.0900   0.0912   0.0913   0.0920
  0.0923   0.0940   0.0946   0.0950   0.0957   0.0961   0.0972   0.0975
  0.0986   0.0992   0.1003   0.1009   0.1018   0.1022   0.1032   0.1036
  0.1044   0.1053   0.1054   0.1063   0.1070   0.1082   0.1090   0.1099
  0.1111   0.1116   0.1123   0.1132   0.1136   0.1140   0.1149   0.1153
  0.1161   0.1174   0.1182   0.1186   0.1192   0.1203   0.1211   0.1216
  0.1223   0.1234   0.1241   0.1248   0.1250   0.1256   0.1259   0.1272
  0.1275   0.1287   0.1293   0.1301   0.1316   0.1320   0.1330   0.1337
  0.1339   0.1345   0.1348   0.1359   0.1367   0.1374   0.1378   0.1388
  0.1400   0.1404   0.1408   0.1414   0.1418   0.1426   0.1429   0.1434
  0.1449   0.1459   0.1465   0.1474   0.1481   0.1485   0.1495   0.1499
  0.1511   0.1517   0.1524   0.1528   0.1534   0.1539   0.1544   0.1550
  0.1559   0.1566   0.1573   0.1578   0.1588   0.1594   0.1596   0.1602
  0.1616   0.1617   0.1633   0.1636   0.1644   0.1647   0.1659   0.1663
  0.1671   0.1675   0.1684   0.1696   0.1697   0.1708   0.1710   0.1718
  0.1730   0.1735   0.1741   0.1746   0.1754   0.1765   0.1773   0.1784
  0.1787   0.1795   0.1802   0.1806   0.1816   0.1823   0.1828   0.1832
  0.1836   0.1848   0.1857   0.1866   0.1871   0.1879   0.1891   0.1894
  0.1899   0.1906   0.1918   0.1926   0.1933   0.1937   0.1946   0.1952
  0.1959   0.1968   0.1974   0.1983   0.1989   0.1997   0.1999   0.2005
  0.2019   0.2034   0.2036   0.2044   0.2051   0.2053   0.2070   0.2078
  0.2079   0.2085   0.2090   0.2102   0.2112   0.2115   0.2133   0.2138
  0.2144   0.2151   0.2155   0.2163   0.2172   0.2178   0.2190   0.2195
  0.2201   0.2210   0.2213   0.2221   0.2230   0.2240   0.2244   0.2247
  0.2252   0.2265   0.2271   0.2277   0.2288   0.2298   0.2305   0.2307
  0.2318   0.2319   0.2330   0.2347   0.2352   0.2363   0.2370   0.2375
  0.2381   0.2385   0.2396   0.2399   0.2413   0.2422   0.2427   0.2428
  0.2446   0.2460   0.2466   0.2467   0.2475   0.2487   0.2492   0.2496
  0.2513   0.2515   0.2521   0.2527   0.2539   0.2552   0.2562   0.2566
  0.2576   0.2578   0.2588   0.2595   0.2600   0.2609   0.2619   0.2633
  0.2637   0.2641   0.2651   0.2661   0.2668   0.2684   0.2694   0.2712
  0.2717   0.2723   0.2732   0.2743   0.2753   0.2760   0.2762   0.2779
  0.2782   0.2801   0.2811   0.2814   0.2822   0.2826   0.2837   0.2849
  0.2858   0.2863   0.2872   0.2889   0.2896   0.2909   0.2911   0.2916
  0.2931   0.2944   0.2959   0.2964   0.2980   0.2985   0.2998   0.3005
  0.3020   0.3037   0.3041   0.3053   0.3064   0.3071   0.3081   0.3084
  0.3099   0.3101   0.3113   0.3127   0.3137   0.3141   0.3156   0.3162
  0.3175   0.3183   0.3198   0.3207   0.3217   0.3221   0.3233   0.3243
  0.3259   0.3271   0.3273   0.3277   0.3292   0.3302   0.3311   0.3315
  0.3327   0.3334   0.3340   0.3348   0.3363   0.3366   0.3373   0.3381
  0.3400   0.3406   0.3414   0.3427   0.3434   0.3441   0.3456   0.3466
  0.3476   0.3488   0.3494   0.3507   0.3524   0.3527   0.3537   0.3543
  0.3557   0.3566   0.3579   0.3588   0.3598   0.3607   0.3626   0.3638
  0.3647   0.3650   0.3661   0.3667   0.3686   0.3701   0.3709   0.3719
  0.3735   0.3743   0.3747   0.3757   0.3768   0.3778   0.3799   0.3804
  0.3810   0.3830   0.3831   0.3848   0.3859   0.3871   0.3874   0.3877
  0.3895   0.3900   0.3916   0.3928   0.3936   0.3948   0.3962   0.3969
  0.3974   0.3980   0.3999   0.4005   0.4025   0.4032   0.4050   0.4060
  0.4064   0.4072   0.4095   0.4112   0.4119   0.4134   0.4139   0.4156
  0.4164   0.4171   0.4172   0.4185   0.4195   0.4207   0.4219   0.4231
  0.4248   0.4254   0.4270   0.4291   0.4294   0.4308   0.4324   0.4333
  0.4345   0.4359   0.4366   0.4390   0.4403   0.4422   0.4437   0.4455
  0.4469   0.4476   0.4479   0.4503   0.4523   0.4529   0.4552   0.4558
  0.4570   0.4600   0.4615   0.4624   0.4635   0.4653   0.4668   0.4701
  0.4720   0.4737   0.4757   0.4776   0.4785   0.4806   0.4824   0.4833
  0.4858   0.4868   0.4878   0.4904   0.4924   0.4938   0.4944   0.4962
  0.4984   0.5018   0.5024   0.5053   0.5083   0.5089   0.5110   0.5169
  0.5183   0.5192   0.5235   0.5251   0.5255   0.5282   0.5307   0.5319
  0.5341   0.5348   0.5355   0.5360   0.5386   0.5416   0.5436   0.5442
  0.5488   0.5505   0.5521   0.5539   0.5546   0.5558   0.5578   0.5593
  0.5613   0.5633   0.5636   0.5672   0.5678   0.5703   0.5707   0.5720
  0.5725   0.5747   0.5762   0.5767   0.5779   0.5785   0.5815   0.5827
  0.5837   0.5851   0.5865   0.5883   0.5911   0.5920   0.5937   0.5960
  0.5984   0.5991   0.6008   0.6029   0.6031   0.6052   0.6075   0.6084
  0.6105   0.6114   0.6126   0.6137   0.6148   0.6159   0.6181   0.6196
  0.6219   0.6223   0.6256   0.6259   0.6269   0.6301   0.6309   0.6324
  0.6331   0.6348   0.6369   0.6385   0.6389   0.6396   0.6423   0.6434
  0.6440   0.6449   0.6475   0.6485   0.6490   0.6509   0.6525   0.6529
  0.6541   0.6556   0.6566   0.6578   0.6599   0.6601   0.6625   0.6636
  0.6652   0.6667   0.6669   0.6686   0.6696   0.6707   0.6726   0.6735
  0.6745   0.6756   0.6771   0.6774   0.6797   0.6807   0.6813   0.6825
  0.6846   0.6871   0.6882   0.6902   0.6908   0.6924   0.6936   0.6946
  0.6976   0.6985   0.7006   0.7016   0.7023   0.7046   0.7051   0.7061
  0.7091   0.7100   0.7114   0.7117   0.7127   0.7150   0.7169   0.7172
  0.7196   0.7202   0.7209   0.7221   0.7240   0.7260   0.7282   0.7313
  0.7326   0.7337   0.7361   0.7370   0.7392   0.7419   0.7428   0.7436
  0.7459   0.7474   0.7485   0.7506   0.7522   0.7542   0.7552   0.7566
  0.7579   0.7585   0.7592   0.7601   0.7630   0.7641   0.7672   0.7697
  0.7709   0.7737   0.7751   0.7774   0.7784   0.7801   0.7823   0.7841
  0.7856   0.7878   0.7901   0.7918   0.7946   0.7974   0.7980   0.7994
  0.8022   0.8045   0.8053   0.8072   0.8085   0.8099   0.8131   0.8139
  0.8158   0.8162   0.8171   0.8203   0.8211   0.8228   0.8245   0.8279
  0.8290   0.8310   0.8336   0.8354   0.8376   0.8381   0.8397   0.8427
  0.8433   0.8450   0.8461   0.8493   0.8506   0.8532   0.8547   0.8569
  0.8590   0.8593   0.8602   0.8624   0.8639   0.8653   0.8665   0.8673
  0.8687   0.8694   0.8707   0.8720   0.8723   0.8736   0.8756   0.8765
  0.8786   0.8807   0.8811   0.8814   0.8837   0.8849   0.8862   0.8876
  0.8887   0.8895   0.8916   0.8920   0.8937   0.8952   0.8957   0.8972
  0.9009   0.9024   0.9041   0.9047   0.9069   0.9083   0.9088   0.9102
  0.9115   0.9145   0.9150   0.9153   0.9172   0.9185   0.9212   0.9218
  0.9227   0.9245   0.9257   0.9263   0.9277   0.9289   0.9296   0.9314
  0.9329   0.9348   0.9355   0.9380   0.9398   0.9410   0.9430   0.9435
  0.9451   0.9467   0.9485   0.9496   0.9502   0.9516   0.9527   0.9544
  0.9545   0.9565   0.9574   0.9583   0.9613   0.9617   0.9628   0.9637
  0.9647   0.9655   0.9666   0.9672   0.9697   0.9706   0.9719   0.9733
  0.9747   0.9765   0.9778   0.9786   0.9801   0.9809   0.9823   0.9830
  0.9845   0.9861   0.9877   0.9878   0.9886   0.9897   0.9927   0.9936
  0.9945   0.9950   0.9984   1.0004   1.0020   1.0031   1.0047   1.0051
  1.0065   1.0074   1.0096   1.0111   1.0122   1.0137   1.0152   1.0165
  1.0170   1.0178   1.0199   1.0205   1.0217   1.0226   1.0238   1.0261
  1.0269   1.0292   1.0314   1.0321   1.0342   1.0344   1.0354   1.0370
  1.0397   1.0407   1.0421   1.0424   1.0436   1.0456   1.0476   1.0494
  1.0499   1.0511   1.0538   1.0545   1.0568   1.0589   1.0591   1.0602
  1.0628   1.0637   1.0652   1.0677   1.0695   1.0703   1.0729   1.0743
  1.0760   1.0780   1.0803   1.0809   1.0822   1.0848   1.0873   1.0875
  1.0884   1.0894   1.0928   1.0944   1.0957   1.0973   1.1004   1.1024
  1.1034   1.1055   1.1072   1.1085   1.1095   1.1111   1.1135   1.1142
  1.1148   1.1162   1.1171   1.1217   1.1226   1.1232   1.1247   1.1270
  1.1273   1.1291   1.1303   1.1318   1.1347   1.1366   1.1378   1.1394
  1.1399   1.1425   1.1429   1.1446   1.1455   1.1466   1.1487   1.1496
  1.1515   1.1525   1.1533   1.1554   1.1576   1.1591   1.1614   1.1625
  1.1644   1.1653   1.1677   1.1693   1.1701   1.1719   1.1735   1.1752
  1.1763   1.1782   1.1795   1.1815   1.1839   1.1853   1.1899   1.1919
  1.1931   1.1952   1.1973   1.1988   1.2007   1.2024   1.2030   1.2056
  1.2092   1.2114   1.2142   1.2163   1.2191   1.2200   1.2217   1.2251
  1.2265   1.2301   1.2314   1.2338   1.2357   1.2371   1.2397   1.2418
  1.2452   1.2482   1.2507   1.2523   1.2553   1.2607   1.2636   1.2655
  1.2678   1.2681   1.2716   1.2728   1.2781   1.2800   1.2833   1.2874
  1.2894   1.2906   1.2928   1.2965   1.2990   1.3044   1.3058   1.3071
  1.3133   1.3136   1.3169   1.3219   1.3257   1.3264   1.3281   1.3306
  1.3334   1.3342   1.3348   1.3393   1.3402   1.3430   1.3440   1.3468
  1.3494   1.3504   1.3527   1.3566   1.3579   1.3591   1.3607   1.3621
  1.3643   1.3661   1.3678   1.3699   1.3704   1.3712   1.3725   1.3746
  1.3763   1.3771   1.3790   1.3801   1.3818   1.3840   1.3858   1.3889
  1.3893   1.3908   1.3927   1.3945   1.3955   1.3960   1.3966   1.3994
  1.4010   1.4028   1.4042   1.4060   1.4072   1.4099   1.4107   1.4131
  1.4139   1.4161   1.4179   1.4190   1.4203   1.4237   1.4253   1.4276
  1.4296   1.4316   1.4327   1.4342   1.4347   1.4384   1.4397   1.4430
  1.4436   1.4475   1.4491   1.4495   1.4511   1.4516   1.4553   1.4581
  1.4586   1.4622   1.4634   1.4645   1.4671   1.4694   1.4711   1.4729
  1.4741   1.4748   1.4788   1.4812   1.4850   1.4862   1.4883   1.4926
  1.4968   1.4974   1.5018   1.5045   1.5062   1.5097   1.5125   1.5145
  1.5182   1.5232   1.5260   1.5280   1.5295   1.5331   1.5381   1.5420
  1.5443   1.5494   1.5505   1.5557   1.5611   1.5630   1.5658   1.5724
  1.5759   1.5845   1.5944   1.5971   1.5978   1.6102   1.6149   1.6231
  1.6251   1.6258   1.6291   1.6331   1.6344   1.6384   1.6417   1.6427
  1.6450   1.6492   1.6527   1.6569   1.6575   1.6587   1.6606   1.6616
  1.6626   1.6630   1.6653   1.6671   1.6683   1.6709   1.6718   1.6726
  1.6751   1.6783   1.6814   1.6827   1.6874   1.6888   1.6895   1.6913
  1.6931   1.6939   1.6947   1.6968   1.6980   1.7008   1.7021   1.7038
  1.7056   1.7064   1.7078   1.7105   1.7112   1.7134   1.7141   1.7145
  1.7160   1.7171   1.7177   1.7193   1.7198   1.7223   1.7239   1.7252
  1.7276   1.7285   1.7300   1.7318   1.7326   1.7336   1.7352   1.7382
  1.7403   1.7408   1.7437   1.7453   1.7469   1.7480   1.7489   1.7524
  1.7532   1.7556   1.7579   1.7598   1.7629   1.7637   1.7668   1.7684
  1.7711   1.7729   1.7737   1.7740   1.7796   1.7813   1.7853   1.7881
  1.7893   1.7934   1.7972   1.7973   1.8014   1.8033   1.8074   1.8093
  1.8119   1.8120   1.8194   1.8229   1.8265   1.8278   1.8330   1.8365
  1.8405   1.8416   1.8428   1.8454   1.8474   1.8504   1.8517   1.8538
  1.8567   1.8592   1.8608   1.8628   1.8641   1.8646   1.8667   1.8699
  1.8713   1.8726   1.8736   1.8765   1.8772   1.8775   1.8805   1.8819
  1.8834   1.8844   1.8859   1.8888   1.8900   1.8918   1.8947   1.8951
  1.8967   1.8980   1.8990   1.9005   1.9019   1.9030   1.9037   1.9088
  1.9101   1.9104   1.9127   1.9142   1.9153   1.9167   1.9172   1.9183
  1.9207   1.9225   1.9255   1.9268   1.9295   1.9310   1.9358   1.9375
  1.9433   1.9459   1.9489   1.9584   1.9635   1.9682   1.9739   1.9815
  1.9863   1.9900   1.9946   2.0016   2.0310   2.0324   2.0329   2.0353
  2.0391   2.0418   2.0476   2.0477   2.0519   2.0539   2.0565   2.0631
  2.0651   2.0659   2.0684   2.0697   2.0705   2.0718   2.0729   2.0743
  2.0750   2.0783   2.0796   2.0807   2.0809   2.0821   2.0831   2.0874
  2.0878   2.0891   2.0892   2.0912   2.0931   2.0935   2.0959   2.0981
  2.1005   2.1024   2.1039   2.1063   2.1085   2.1155   2.1162   2.1187
  2.1202   2.1237   2.1327   2.1354   2.1363   2.1444   2.1451   2.1462
  2.1474   2.1504   2.1540   2.1557   2.1640   2.1656   2.1676   2.1695
  2.1715   2.1729   2.1811   2.1823   2.1866   2.1880   2.1913   2.1922
  2.2006   2.2012   2.2031   2.2050   2.2084   2.2093   2.2111   2.2121
  2.2132   2.2152   2.2169   2.2182   2.2202   2.2214   2.2226   2.2245
  2.2268   2.2275   2.2292   2.2308   2.2326   2.2333   2.2353   2.2364
  2.2371   2.2381   2.2391   2.2404   2.2413   2.2437   2.2447   2.2470
  2.2482   2.2488   2.2494   2.2498   2.2511   2.2518   2.2522   2.2553
  2.2557   2.2574   2.2584   2.2597   2.2602   2.2617   2.2634   2.2638
  2.2647   2.2654   2.2670   2.2681   2.2688   2.2690   2.2707   2.2729
  2.2736   2.2761   2.2771   2.2787   2.2808   2.2825   2.2842   2.2853
  2.2864   2.2874   2.2892   2.2915   2.2924   2.2931   2.2936   2.2952
  2.2965   2.2980   2.2994   2.3003   2.3024   2.3039   2.3055   2.3062
  2.3087   2.3100   2.3113   2.3123   2.3134   2.3145   2.3163   2.3170
  2.3175   2.3197   2.3211   2.3224   2.3254   2.3265   2.3269   2.3294
  2.3314   2.3334   2.3339   2.3370   2.3395   2.3422   2.3458   2.3464
  2.3472   2.3481   2.3499   2.3505   2.3544   2.3563   2.3600   2.3623
  2.3654   2.3721   2.3739   2.3779   2.3804   2.3827   2.3956   2.3965
  2.4010   2.4063   2.4099   2.4250   2.4514   2.4635   2.5006   2.5503
  2.5814   2.6687   2.7013   2.7197   2.7513   2.7740   2.8074   2.8119
  2.8150   2.8202   2.8276   2.8308   2.8326   2.8345   2.8375   2.8423
  2.8466   2.8474   2.8497   2.8529   2.8546   2.8573   2.8596   2.8654
  2.8729   2.8757   2.8800   2.8853   2.8895   2.8957   2.9082   2.9370
  3.0802   3.2331   3.9333   3.9388   3.9462   3.9473   3.9503   3.9548
  3.9611   3.9632   3.9652   3.9702   3.9764   3.9825   3.9833   3.9869
  3.9928   3.9947   3.9971   4.0022   4.0081   4.0180   4.0222   4.0281
  4.1733   4.2010   4.2023   4.2076   4.2134   4.2168   4.2238   4.2241
  4.2272   4.2304   4.2332   4.2425   4.2468   4.2492   4.2524   4.2547
  4.2563   4.2600   4.2623   4.2658   4.2669   4.2705   4.2747   4.2759
  4.2798   4.2837   4.2858   4.2874   4.2917   4.2922   4.2929   4.2956
  4.3016   4.3026   4.3063   4.3076   4.3096   4.3137   4.3163   4.3185
  4.3212   4.3228   4.3269   4.3294   4.3358   4.3362   4.3427   4.3462
  4.3478   4.3515   4.3568   4.3586   4.3644   4.3672   4.3751   4.3814
  4.3858   4.3949   4.3962   4.4062   4.4170   4.4256   4.4433   4.4597
  4.4649   4.4757   4.5060   4.5357   4.5614   4.5787   4.6097   4.6852
  4.7060   4.7563   4.8784
 --------------------------------------------------------------
 
          Ground-State Mulliken Net Atomic Charges

     Atom                 Charge (a.u.)
  ----------------------------------------
      1 C                    -0.310789
      2 C                    -0.603687
      3 C                    -0.368815
      4 C                    -0.650116
      5 C                    -0.167745
      6 C                    -0.378341
      7 H                     0.221048
      8 H                     0.233856
      9 H                     0.244053
     10 H                     0.182000
     11 H                     0.234247
     12 H                     0.207314
     13 H                     0.199884
     14 H                     0.183419
     15 H                     0.220254
     16 H                     0.211385
     17 H                     0.215887
     18 N                     0.119321
     19 H                     0.534279
     20 C                    -0.648066
     21 H                     0.179339
     22 O                    -0.227143
     23 C                    -1.094855
     24 H                     0.253390
     25 H                     0.257857
     26 H                     0.291352
     27 S                     1.315382
     28 C                    -1.147990
     29 H                     0.228661
     30 H                     0.252659
     31 H                     0.282752
     32 O                    -0.754780
     33 C                    -1.051781
     34 H                     0.274835
     35 H                     0.255434
     36 H                     0.287647
     37 S                     1.208106
     38 C                    -1.098208
     39 H                     0.278998
     40 H                     0.263560
     41 H                     0.239732
     42 O                    -0.719591
     43 C                    -0.999097
     44 H                     0.270374
     45 H                     0.230040
     46 H                     0.258548
     47 S                     1.068473
     48 C                    -1.015216
     49 H                     0.267583
     50 H                     0.294920
     51 H                     0.271484
     52 O                    -0.708990
     53 C                    -0.891054
     54 H                     0.274565
     55 H                     0.243915
     56 H                     0.242741
     57 S                     0.934927
     58 C                    -0.891695
     59 H                     0.229725
     60 H                     0.262664
     61 H                     0.229708
     62 O                    -0.641732
     63 C                    -0.968402
     64 H                     0.281030
     65 H                     0.251873
     66 H                     0.233843
     67 S                     1.078177
     68 C                    -0.864235
     69 H                     0.263896
     70 H                     0.220130
     71 H                     0.253350
     72 O                    -0.729806
     73 C                    -0.754561
     74 H                     0.235641
     75 H                     0.246565
     76 H                     0.251239
     77 S                     0.775774
     78 C                    -0.818563
     79 H                     0.257349
     80 H                     0.234593
     81 H                     0.274179
     82 O                    -0.643132
     83 C                    -1.016174
     84 H                     0.241873
     85 H                     0.235544
     86 H                     0.267315
     87 S                     1.207050
     88 C                    -0.899765
     89 H                     0.279609
     90 H                     0.261371
     91 H                     0.236567
     92 O                    -0.696270
     93 C                    -1.109173
     94 H                     0.253444
     95 H                     0.282114
     96 H                     0.251738
     97 S                     1.265142
     98 C                    -0.967782
     99 H                     0.257627
    100 H                     0.313854
    101 H                     0.248433
    102 O                    -0.700011
    103 C                    -0.525698
    104 H                     0.276158
    105 H                     0.250016
    106 H                     0.286063
    107 S                     0.352523
    108 C                    -1.087335
    109 H                     0.258247
    110 H                     0.283129
    111 H                     0.256688
    112 O                    -0.485005
    113 C                    -0.688239
    114 H                     0.281496
    115 H                     0.248753
    116 H                     0.265429
    117 S                     0.005859
    118 C                    -0.665400
    119 H                     0.252690
    120 H                     0.296452
    121 H                     0.274039
    122 O                    -0.498478
    123 C                    -0.808783
    124 H                     0.272088
    125 H                     0.221561
    126 H                     0.242452
    127 S                     0.868096
    128 C                    -0.743018
    129 H                     0.215787
    130 H                     0.269758
    131 H                     0.256542
    132 O                    -0.709895
    133 C                    -0.763619
    134 H                     0.213707
    135 H                     0.310759
    136 H                     0.259924
    137 S                     0.734082
    138 C                    -0.770294
    139 H                     0.221984
    140 H                     0.229834
    141 H                     0.307540
    142 O                    -0.685544
    143 C                    -0.880439
    144 H                     0.264872
    145 H                     0.242160
    146 H                     0.248359
    147 S                     0.915026
    148 C                    -0.892467
    149 H                     0.281014
    150 H                     0.259443
    151 H                     0.237003
    152 O                    -0.666073
    153 C                    -1.109517
    154 H                     0.263141
    155 H                     0.302726
    156 H                     0.240814
    157 S                     1.318604
    158 C                    -1.041451
    159 H                     0.265397
    160 H                     0.245136
    161 H                     0.274892
    162 O                    -0.724903
    163 C                    -0.939907
    164 H                     0.243705
    165 H                     0.248295
    166 H                     0.285100
    167 S                     0.893414
    168 C                    -0.724241
    169 H                     0.261367
    170 H                     0.241560
    171 H                     0.228691
    172 O                    -0.683516
    173 C                    -0.571577
    174 H                     0.261848
    175 H                     0.271284
    176 H                     0.225445
    177 S                     0.632968
    178 C                    -0.913819
    179 H                     0.296207
    180 H                     0.248790
    181 H                     0.227666
    182 O                    -0.605932
    183 C                    -0.800546
    184 H                     0.223494
    185 H                     0.250266
    186 H                     0.247160
    187 S                     0.921418
    188 C                    -0.843549
    189 H                     0.239158
    190 H                     0.229459
    191 H                     0.276067
    192 O                    -0.720941
    193 C                    -0.964887
    194 H                     0.243184
    195 H                     0.284220
    196 H                     0.294185
    197 S                     1.001207
    198 C                    -0.845629
    199 H                     0.244157
    200 H                     0.255077
    201 H                     0.230779
    202 O                    -0.749541
    203 C                    -0.984061
    204 H                     0.263146
    205 H                     0.288862
    206 H                     0.238827
    207 S                     1.201902
    208 C                    -0.958254
    209 H                     0.222476
    210 H                     0.253383
    211 H                     0.263297
    212 O                    -0.670152
    213 C                    -0.862490
    214 H                     0.276160
    215 H                     0.274770
    216 H                     0.247239
    217 S                     0.503371
    218 C                    -0.748084
    219 H                     0.253562
    220 H                     0.280385
    221 H                     0.243070
    222 O                    -0.519888
    223 C                    -0.765009
    224 H                     0.289718
    225 H                     0.237929
    226 H                     0.251574
    227 S                     0.836869
    228 C                    -0.881507
    229 H                     0.266980
    230 H                     0.264200
    231 H                     0.238969
    232 O                    -0.686394
    233 C                    -0.763779
    234 H                     0.232890
    235 H                     0.252412
    236 H                     0.274272
    237 S                     0.844183
    238 C                    -0.834831
    239 H                     0.250713
    240 H                     0.228696
    241 H                     0.258537
    242 O                    -0.708180
  ----------------------------------------
  Sum of atomic charges =     0.000000

 -----------------------------------------------------------------
                    Cartesian Multipole Moments
 -----------------------------------------------------------------
    Charge (ESU x 10^10)
                 0.0000
    Dipole Moment (Debye)
         X     -19.3802      Y     -24.0059      Z      27.0136
       Tot      41.0075
    Quadrupole Moments (Debye-Ang)
        XX   -1907.2511     XY   -1132.9624     YY   -1693.0683
        XZ     274.9938     YZ     -56.8410     ZZ     471.3239
    Octopole Moments (Debye-Ang^2)
       XXX -116503.1451    XXY  -62315.4624    XYY  -58602.5232
       YYY  -74197.6323    XXZ  -25981.5016    XYZ  -12953.7080
       YYZ  -31556.9436    XZZ     798.3820    YZZ   -5570.8218
       ZZZ  -15828.3930
    Hexadecapole Moments (Debye-Ang^3)
      XXXX ************   XXXY ************   XXYY ************
      XYYY ************   YYYY ************   XXXZ ************
      XXYZ ************   XYYZ ************   YYYZ ************
      XXZZ -847247.9505   XYZZ -448660.8091   YYZZ -908021.6226
      XZZZ -766093.7786   YZZZ -704607.2494   ZZZZ ************
 -----------------------------------------------------------------
Archival summary:
1\1\node024\SP\ProcedureUnspecified\6-31+G*\2223151\ymao90\FriDec319:32:422021FriDec319:32:422021\0\\#,ProcedureUnspecified,6-31+G*,\\0,1\S\O,1,1.49672\C,1,1.80712,2,107.434\H,3,1.09241,1,117.264,2,-42.2148,0\H,3,1.09305,1,108.141,2,-161.48,0\H,3,1.0932,1,105.877,2,81.9958,0\C,1,1.80802,2,102.226,3,-101.485,0\H,7,1.09247,1,107.601,2,-37.675,0\H,7,1.09251,1,109.214,2,76.9519,0\H,7,1.09319,1,109.905,2,-162.881,0\H,2,1.96418,1,167.088,3,176.386,0\N,11,1.01279,2,161.339,1,-95.7067,0\C,12,1.37928,11,121.853,2,-40.9138,0\H,13,1.10474,12,114.978,11,-11.1324,0\O,13,1.21844,12,124.449,11,165.651,0\C,12,1.46206,11,113.769,2,129.92,0\H,16,1.09627,12,108.223,11,-176.484,0\C,16,1.53712,12,113.334,11,60.2383,0\H,18,1.0962,16,114.591,12,-64.4612,0\H,18,1.09793,16,104.937,12,64.0345,0\C,16,1.53778,12,105.937,11,-63.3791,0\H,21,1.09699,16,108.536,12,64.6232,0\H,21,1.09713,16,109.834,12,-49.0556,0\C,21,1.53708,16,112.284,12,177.989,0\H,24,1.09686,21,114.881,16,-170.951,0\H,24,1.09734,21,105.729,16,75.021,0\C,24,1.53699,21,112.585,16,-42.3758,0\H,27,1.09703,24,104.677,21,-72.7078,0\H,27,1.09745,24,115.939,21,164.964,0\C,27,1.53765,24,112.324,21,47.4469,0\H,30,1.09643,27,107.493,24,178.286,0\H,30,1.09712,27,114.999,24,56.5803,0\H,14,2.13691,13,118.284,12,153.501,0\C,33,1.09298,14,105.784,13,-121.846,0\H,34,1.09306,33,113.165,14,-56.4421,0\H,34,1.09333,33,106.457,14,-172.766,0\S,34,1.80719,33,116.759,14,63.808,0\O,37,1.49689,34,100.76,33,69.3545,0\C,37,1.80666,34,89.9579,33,170.759,0\H,39,1.09286,37,115.144,34,-44.5593,0\H,39,1.09304,37,103.194,34,73.8362,0\H,39,1.09352,37,108.33,34,-162.455,0\H,32,2.16595,30,152.994,27,61.0462,0\C,43,1.09302,32,112.151,30,-154.217,0\H,44,1.09299,43,108.919,32,144.766,0\H,44,1.09328,43,112.78,32,35.2665,0\S,44,1.80689,43,114.906,32,-85.2185,0\O,47,1.49643,44,100.412,43,-37.6045,0\C,47,1.80757,44,98.1794,43,-143.831,0\H,49,1.09244,47,110.467,44,-173.849,0\H,49,1.09301,47,107.685,44,71.047,0\H,49,1.09349,47,114.836,44,-51.4448,0\H,17,2.256,16,125.829,12,71.4234,0\C,53,1.09332,17,152.262,16,12.9969,0\H,54,1.09269,53,110.695,17,53.6608,0\H,54,1.09311,53,114.28,17,-79.9006,0\S,54,1.80669,53,103.147,17,156.982,0\O,57,1.49625,54,107.509,53,-47.5841,0\C,57,1.80764,54,99.0644,53,69.0427,0\H,59,1.09299,57,111.297,54,-60.3278,0\H,59,1.09308,57,105.083,54,62.2466,0\H,59,1.09364,57,111.134,54,178.731,0\H,20,2.26412,18,166.43,16,86.1838,0\C,63,1.09244,20,153.339,18,-59.2138,0\H,64,1.09279,63,108.46,20,13.5199,0\H,64,1.09332,63,109.738,20,125.517,0\S,64,1.80714,63,113.882,20,-115.075,0\O,67,1.49712,64,95.9623,63,-41.376,0\C,67,1.80695,64,94.2571,63,57.883,0\H,69,1.09234,67,112.534,64,-171.196,0\H,69,1.09293,67,106.809,64,61.0952,0\H,69,1.09308,67,102.231,64,-50.2696,0\H,72,1.94133,69,125.217,67,-116.569,0\C,73,1.09317,72,154.166,69,-23.3632,0\H,74,1.09291,73,107.024,72,46.2463,0\H,74,1.0935,73,115.692,72,164.62,0\S,74,1.80681,73,106.424,72,-64.2767,0\O,77,1.49661,74,103.377,73,58.6845,0\C,77,1.807,74,100.675,73,159.292,0\H,79,1.09229,77,105.904,74,82.9477,0\H,79,1.09362,77,113.172,74,-32.2545,0\H,79,1.09368,77,110.066,74,-156.555,0\H,81,2.26206,79,109.561,77,-99.5594,0\C,83,1.09314,81,138.046,79,8.92843,0\H,84,1.09214,83,110.269,81,145.352,0\H,84,1.09353,83,108.637,81,20.9925,0\S,84,1.80672,83,101.606,81,-94.0906,0\O,87,1.49701,84,106.211,83,36.8334,0\C,87,1.8066,84,88.4713,83,-69.9568,0\H,89,1.09257,87,103.321,84,-60.6646,0\H,89,1.09331,87,111.245,84,60.9789,0\H,89,1.09335,87,108.872,84,-179.696,0\H,43,2.32204,32,75.454,30,18.5409,0\C,93,1.09241,43,101.175,32,150.786,0\H,94,1.0926,93,118.35,43,-33.0063,0\H,94,1.09309,93,114.912,43,-159.936,0\S,94,1.80755,93,106.342,43,87.854,0\O,97,1.49692,94,109.474,93,-63.1974,0\C,97,1.80633,94,98.3398,93,42.3399,0\H,99,1.09291,97,109.06,94,-43.5872,0\H,99,1.09338,97,105.046,94,-161.695,0\H,99,1.09349,97,105.075,94,77.675,0\H,58,2.37089,57,106.87,54,-159.762,0\C,103,1.09315,58,147.985,57,-151.288,0\H,104,1.09244,103,117.655,58,137.952,0\H,104,1.09308,103,102.321,58,21.0588,0\S,104,1.8077,103,99.1485,58,-93.4246,0\O,107,1.49662,104,107.143,103,171.603,0\C,107,1.80703,104,96.2086,103,74.855,0\H,109,1.09264,107,110.102,104,179.012,0\H,109,1.09351,107,113.659,104,-63.1152,0\H,109,1.09362,107,112.168,104,56.2589,0\H,111,2.28313,109,128.442,107,-69.6849,0\C,113,1.09239,111,136.429,109,8.08346,0\H,114,1.09299,113,115.365,111,-21.461,0\H,114,1.09322,113,107.807,111,-150.878,0\S,114,1.80689,113,106.782,111,95.2741,0\O,117,1.49612,114,101.926,113,-118.605,0\C,117,1.80713,114,98.7446,113,133.858,0\H,119,1.09256,117,108.378,114,58.6282,0\H,119,1.09331,117,115.472,114,-59.8763,0\H,119,1.0934,117,114.21,114,-177.935,0\O,121,2.40369,119,117.368,117,98.7792,0\S,123,1.49637,121,130.861,119,142.226,0\C,124,1.80747,123,106.342,121,158.559,0\H,125,1.09208,124,105.067,123,52.681,0\H,125,1.09294,124,107.68,123,163.849,0\H,125,1.09304,124,115.693,123,-70.9012,0\C,124,1.80774,123,105.378,121,-100.465,0\H,129,1.09257,124,106.106,123,169.489,0\H,129,1.09283,124,115.213,123,-74.7275,0\H,129,1.09357,124,105.3,123,54.5028,0\H,126,2.32719,125,133.598,124,-120.792,0\C,133,1.09243,126,122.944,125,56.8064,0\H,134,1.09305,133,106.118,126,-121.897,0\H,134,1.09328,133,105.764,126,-6.2528,0\S,134,1.80729,133,113.499,126,117.321,0\O,137,1.49715,134,104.938,133,166.998,0\C,137,1.80709,134,97.1431,133,60.6563,0\H,139,1.09267,137,110.798,134,157.803,0\H,139,1.09309,137,98.3944,134,48.4517,0\H,139,1.0938,137,109.77,134,-71.6059,0\H,33,2.43411,14,104.174,13,27.9393,0\C,143,1.09367,33,121.198,14,111.366,0\H,144,1.09261,143,104.082,33,161.694,0\H,144,1.09336,143,109.881,33,47.0383,0\S,144,1.80744,143,107.947,33,-78.8446,0\O,147,1.49696,144,105.541,143,-160.448,0\C,147,1.80734,144,96.6579,143,93.7101,0\H,149,1.09227,147,111.531,144,-92.7353,0\H,149,1.09304,147,116.716,144,41.5448,0\H,149,1.09307,147,102.408,144,153.91,0\H,62,2.46226,59,123.839,57,-72.1107,0\C,153,1.09237,62,108.574,59,-25.094,0\H,154,1.09327,153,112.546,62,-176.168,0\H,154,1.09384,153,107.044,62,61.0812,0\S,154,1.80694,153,106.459,62,-67.5536,0\O,157,1.49698,154,106.001,153,-160.121,0\C,157,1.80733,154,98.5854,153,-59.2447,0\H,159,1.09274,157,107.636,154,-169.783,0\H,159,1.09307,157,113.512,154,68.7307,0\H,159,1.09344,157,112.236,154,-46.9314,0\H,28,2.47404,27,158.297,24,-140.944,0\C,163,1.09326,28,136.783,27,-51.8315,0\H,164,1.09304,163,115.027,28,-123.522,0\H,164,1.09363,163,108.105,28,-1.87631,0\S,164,1.80723,163,113.352,28,108.356,0\O,167,1.49686,164,105.443,163,-45.5614,0\C,167,1.80635,164,94.8322,163,63.1947,0\H,169,1.09277,167,111.164,164,67.5981,0\H,169,1.09313,167,112.208,164,-165.833,0\H,169,1.09313,167,102.321,164,-58.8383,0\H,172,2.39616,169,106.48,167,117.092,0\C,173,1.09246,172,162.678,169,63.7411,0\H,174,1.09264,173,105.384,172,-74.4861,0\H,174,1.09271,173,105.91,172,49.2028,0\S,174,1.80762,173,107.911,172,166.011,0\O,177,1.49622,174,102.267,173,-160.323,0\C,177,1.80702,174,98.9958,173,-57.2721,0\H,179,1.09303,177,116.275,174,68.8523,0\H,179,1.0933,177,104.924,174,-163.585,0\H,179,1.0935,177,107.272,174,-51.9967,0\H,1,2.55648,2,110.699,3,96.3848,0\C,183,1.09355,1,135.987,2,-19.2118,0\H,184,1.09252,183,102.865,1,-120.25,0\H,184,1.09298,183,109.13,1,126.695,0\S,184,1.80758,183,112.672,1,1.60625,0\O,187,1.49708,184,103.935,183,110.012,0\C,187,1.8073,184,96.8851,183,-139.876,0\H,189,1.0922,187,104.815,184,-33.1634,0\H,189,1.0928,187,112.476,184,87.1645,0\H,189,1.09356,187,106.936,184,-148.329,0\H,190,2.47234,189,138.654,187,-109.49,0\C,193,1.09294,190,117.334,189,41.5223,0\H,194,1.09259,193,115.284,190,-172.153,0\H,194,1.09311,193,107.934,190,-48.6688,0\S,194,1.80704,193,106.695,190,69.9039,0\O,197,1.49718,194,110.872,193,166.094,0\C,197,1.80726,194,97.3983,193,59.1155,0\H,199,1.09267,197,103.319,194,51.7445,0\H,199,1.09283,197,110.612,194,-73.0775,0\H,199,1.09365,197,106.372,194,172.79,0\H,198,2.43958,197,161.546,194,-41.0389,0\C,203,1.09284,198,153.07,197,150.788,0\H,204,1.09301,203,107.142,198,97.0121,0\H,204,1.09372,203,107.004,198,-148.169,0\S,204,1.80621,203,107.733,198,-24.129,0\O,207,1.49752,204,108.177,203,-169.458,0\C,207,1.80746,204,95.912,203,-63.4316,0\H,209,1.09271,207,107.47,204,-49.2797,0\H,209,1.09296,207,107.047,204,71.4538,0\H,209,1.09358,207,101.039,204,-168.671,0\H,211,1.9967,209,123.791,207,78.1096,0\C,213,1.09346,211,140.611,209,-17.3846,0\H,214,1.09255,213,115.419,211,-154.871,0\H,214,1.09266,213,112.423,211,-31.818,0\S,214,1.80754,213,103.794,211,86.5007,0\O,217,1.49683,214,102.707,213,-16.244,0\C,217,1.80709,214,92.4349,213,88.5565,0\H,219,1.09242,217,104.924,214,80.0653,0\H,219,1.09329,217,115.245,214,-38.5501,0\H,219,1.09367,217,104.555,214,-162.316,0\H,212,2.12385,209,163.779,207,74.1679,0\C,223,1.09346,212,122.027,209,-76.2699,0\H,224,1.0928,223,115.856,212,6.88046,0\H,224,1.09298,223,115.096,212,136.997,0\S,224,1.80728,223,101.873,212,-110.315,0\O,227,1.4964,224,109.584,223,-166.057,0\C,227,1.80736,224,98.2794,223,-53.9522,0\H,229,1.09241,227,108.903,224,71.211,0\H,229,1.09247,227,116.528,224,-157.353,0\H,229,1.09376,227,105.024,224,-42.3842,0\H,8,2.70286,7,163.614,1,150.588,0\C,233,1.09333,8,119.712,7,43.8901,0\H,234,1.09282,233,111.007,8,108.177,0\H,234,1.09325,233,106.202,8,-124.477,0\S,234,1.80678,233,106.426,8,-9.11569,0\O,237,1.49683,234,98.7825,233,81.0357,0\C,237,1.80725,234,94.2367,233,-169.737,0\H,239,1.09286,237,115.589,234,-114.655,0\H,239,1.09308,237,109.899,234,4.17403,0\H,239,1.09349,237,107.227,234,123.287,0\\\@

 Total job time:  8558.86s(wall), 135145.10s(cpu) 
 Fri Dec  3 19:32:42 2021

        *************************************************************
        *                                                           *
        *  Thank you very much for using Q-Chem.  Have a nice day.  *
        *                                                           *
        *************************************************************


 
User input: 2 of 2 
 
                  Welcome to Q-Chem
     A Quantum Leap Into The Future Of Chemistry


 Q-Chem 5.2 (devel), Q-Chem, Inc., Pleasanton, CA (2019)

 Yihan Shao,  Zhengting Gan,  E. Epifanovsky,  A. T. B. Gilbert,  M. Wormit,  
 J. Kussmann,  A. W. Lange,  A. Behn,  Jia Deng,  Xintian Feng,  D. Ghosh,  
 M. Goldey,  P. R. Horn,  L. D. Jacobson,  I. Kaliman,  T. Kus,  A. Landau,  
 Jie Liu,  E. I. Proynov,  R. M. Richard,  R. P. Steele,  E. J. Sundstrom,  
 H. L. Woodcock III,  P. M. Zimmerman,  D. Zuev,  B. Alam,  B. Albrecht,  
 E. Alguire,  S. A. Baeppler,  D. Barton,  Z. Benda,  Y. A. Bernard,  
 E. J. Berquist,  K. B. Bravaya,  H. Burton,  K. Carter-Fenk,  D. Casanova,  
 Chun-Min Chang,  Yunqing Chen,  A. Chien,  K. D. Closser,  M. P. Coons,  
 S. Coriani,  S. Dasgupta,  A. L. Dempwolff,  M. Diedenhofen,  Hainam Do,  
 R. G. Edgar,  Po-Tung Fang,  S. Faraji,  S. Fatehi,  Qingguo Feng,  
 J. Fosso-Tande,  J. Gayvert,  Qinghui Ge,  A. Ghysels,  G. Gidofalvi,  
 J. Gomes,  J. Gonthier,  A. Gunina,  D. Hait,  M. W. D. Hanson-Heine,  
 P. H. P. Harbach,  A. W. Hauser,  M. F. Herbst,  J. E. Herr,  
 E. G. Hohenstein,  Z. C. Holden,  Kerwin Hui,  B. C. Huynh,  T.-C. Jagau,  
 Hyunjun Ji,  B. Kaduk,  K. Khistyaev,  Jaehoon Kim,  P. Klunzinger,  K. Koh,  
 D. Kosenkov,  L. Koulias,  T. Kowalczyk,  C. M. Krauter,  A. Kunitsa,  
 Ka Un Lao,  A. Laurent,  K. V. Lawler,  Joonho Lee,  D. Lefrancois,  
 S. Lehtola,  D. S. Levine,  Yi-Pei Li,  You-Sheng Lin,  Fenglai Liu,  
 Kuan-Yu Liu,  E. Livshits,  M. Loipersberger,  A. Luenser,  P. Manohar,  
 E. Mansoor,  S. F. Manzer,  Shan-Ping Mao,  Yuezhi Mao,  N. Mardirossian,  
 A. V. Marenich,  T. Markovich,  L. A. Martinez-Martinez,  S. A. Maurer,  
 N. J. Mayhall,  S. C. McKenzie,  J.-M. Mewes,  P. Morgante,  A. F. Morrison,  
 J. W. Mullinax,  K. Nanda,  T. S. Nguyen-Beck,  R. Olivares-Amaya,  
 J. A. Parkhill,  S. K. Paul,  F. Pavosevic,  Zheng Pei,  T. M. Perrine,  
 F. Plasser,  P. Pokhilko,  S. Prager,  A. Prociuk,  E. Ramos,  B. Rana,  
 D. R. Rehn,  F. Rob,  M. Scheurer,  M. Schneider,  N. Sergueev,  
 S. M. Sharada,  S. Sharma,  D. W. Small,  T. Stauch,  C. J. Stein,  
 T. Stein,  Yu-Chuan Su,  S. P. Veccham,  Zhen Tao,  A. J. W. Thom,  
[...]
    3   0.0037036  -0.0060739   0.0229985  -0.0080466   0.0047250  -0.0059848
           49          50          51          52          53          54
    1  -0.0177090   0.0243913  -0.0045999   0.1035891  -0.0070069  -0.0224316
    2   0.0108265  -0.0016229  -0.0349092   0.0336832   0.0062080   0.0193901
    3  -0.0260420  -0.0181019   0.0063088  -0.0213802   0.0009153  -0.0163819
           55          56          57          58          59          60
    1  -0.0265349   0.0153645  -0.0317530   0.0053809  -0.0184597   0.0207761
    2  -0.0099539   0.0219789  -0.0392023   0.0010025  -0.0156365  -0.0239632
    3   0.0129943   0.0177502  -0.0313004   0.0031101   0.0199234  -0.0139394
           61          62          63          64          65          66
    1   0.0060880   0.0757527   0.0107704  -0.0005624   0.0235809  -0.0005403
    2   0.0250076   0.0638631  -0.0015942  -0.0089107   0.0202858  -0.0313347
    3   0.0251192  -0.0490008  -0.0065712  -0.0317768   0.0030403   0.0131318
           67          68          69          70          71          72
    1  -0.0149302   0.0033087  -0.0215835   0.0066306   0.0178374  -0.0511223
    2   0.0417718  -0.0027264   0.0036540  -0.0286064   0.0198763  -0.0985533
    3  -0.0181907   0.0051073   0.0207865   0.0077618   0.0127736  -0.0057497
           73          74          75          76          77          78
    1   0.0000979  -0.0194009  -0.0095789   0.0285337   0.0180432  -0.0061468
    2  -0.0054639  -0.0041842  -0.0319953  -0.0134800   0.0467662  -0.0003771
    3   0.0007432   0.0283713  -0.0124841  -0.0043046   0.0427637  -0.0046210
           79          80          81          82          83          84
    1  -0.0155816  -0.0218611  -0.0054925   0.0577690   0.0057498  -0.0200539
    2  -0.0225892  -0.0080719   0.0264848  -0.0143216  -0.0034739  -0.0237944
    3  -0.0200620   0.0246468  -0.0155029  -0.0918580  -0.0025668   0.0072356
           85          86          87          88          89          90
    1   0.0124539   0.0166581  -0.0447208   0.0072955  -0.0031668   0.0225191
    2   0.0043947  -0.0126145   0.0187231   0.0048568   0.0286277  -0.0120777
    3  -0.0325060   0.0259925  -0.0317300   0.0017476   0.0113563   0.0190991
           91          92          93          94          95          96
    1   0.0034716  -0.0040727   0.0066395   0.0244727   0.0158923  -0.0253393
    2   0.0141726  -0.0160804   0.0072608   0.0017766  -0.0055221   0.0220848
    3  -0.0299748   0.1090091  -0.0064387   0.0196997  -0.0299879  -0.0021012
           97          98          99         100         101         102
    1  -0.0325151   0.0135959  -0.0090451   0.0247072   0.0116689  -0.0274671
    2  -0.0074633  -0.0064273  -0.0234107   0.0099186  -0.0165518  -0.0282404
    3   0.0390364   0.0019425  -0.0147664  -0.0207824   0.0294650  -0.1047463
          103         104         105         106         107         108
    1   0.0017467  -0.0145974   0.0176257  -0.0041056   0.0498804  -0.0030813
    2  -0.0100995  -0.0232208  -0.0343622   0.0031491   0.0236010   0.0060638
    3   0.0003152  -0.0133724   0.0118950   0.0332604   0.0398510  -0.0032014
          109         110         111         112         113         114
    1   0.0137140  -0.0239541  -0.0100103   0.0298165  -0.0054695  -0.0021171
    2   0.0247948  -0.0055046   0.0111716  -0.0380983   0.0026613   0.0327748
    3  -0.0170654  -0.0143862   0.0291865  -0.1005981   0.0029430  -0.0044422
          115         116         117         118         119         120
    1  -0.0259325   0.0018188   0.0117550   0.0061874  -0.0137514   0.0190218
    2  -0.0108255  -0.0181032  -0.0552588   0.0037677   0.0235485  -0.0199528
    3  -0.0116705   0.0279818  -0.0100105   0.0043695   0.0142372   0.0171145
          121         122         123         124         125         126
    1   0.0235151   0.0023487  -0.0014832   0.0256564   0.0131649  -0.0196882
    2   0.0048600   0.0811682  -0.0025683   0.0146892  -0.0289146  -0.0181125
    3  -0.0177222  -0.0953139  -0.0071478  -0.0119786   0.0067167  -0.0277031
          127         128         129         130         131         132
    1   0.0355097  -0.0089698   0.0097011  -0.0131029  -0.0189662  -0.0301745
    2   0.0086572  -0.0035584  -0.0311473   0.0224879   0.0000183   0.0879590
    3   0.0476823  -0.0008865   0.0112826   0.0186449  -0.0271054  -0.0605370
          133         134         135         136         137         138
    1  -0.0062662  -0.0147968  -0.0236130  -0.0215474   0.0091940   0.0044238
    2  -0.0001746  -0.0091623   0.0233628  -0.0266374  -0.0015962  -0.0025499
    3  -0.0005734   0.0297653   0.0003424  -0.0158625  -0.0560443   0.0028532
          139         140         141         142         143         144
    1  -0.0120841   0.0019956   0.0313925   0.0358674   0.0058622   0.0205501
    2  -0.0066029  -0.0328332   0.0056237   0.0829716  -0.0038042   0.0171286
    3   0.0300009  -0.0132950   0.0058106   0.0613248   0.0035996   0.0162586
          145         146         147         148         149         150
    1  -0.0087437   0.0255546  -0.0456272   0.0022820  -0.0219945   0.0234744
    2  -0.0257286  -0.0010801  -0.0022740  -0.0041224   0.0106023   0.0043707
    3   0.0239960  -0.0231647   0.0367649  -0.0075965  -0.0179378  -0.0233903
          151         152         153         154         155         156
    1  -0.0091063   0.0380339  -0.0109869  -0.0277830  -0.0039573   0.0007687
    2  -0.0331036   0.0960238  -0.0032367   0.0029846  -0.0337496   0.0221490
    3   0.0071561  -0.0369606   0.0039658  -0.0210232   0.0181111   0.0255224
          157         158         159         160         161         162
    1   0.0149985   0.0044204   0.0152687  -0.0189934   0.0139360  -0.0314536
    2  -0.0417790   0.0081060   0.0282771   0.0168003  -0.0170205   0.0929815
    3  -0.0279592   0.0091985  -0.0166798   0.0238162   0.0187143  -0.0561258
          163         164         165         166         167         168
    1  -0.0019598  -0.0159500   0.0310422  -0.0127439   0.0228351  -0.0058815
    2  -0.0087887  -0.0113282  -0.0080834  -0.0012185   0.0297721   0.0028906
    3   0.0035876  -0.0275348   0.0000896   0.0335526   0.0420746  -0.0010434
          169         170         171         172         173         174
    1  -0.0205511  -0.0166490  -0.0190576   0.0316810  -0.0045008  -0.0271539
    2   0.0249654  -0.0166931   0.0017184   0.0095322   0.0004875   0.0171017
    3  -0.0074982  -0.0213591   0.0246811  -0.1052651  -0.0067604  -0.0078809
          175         176         177         178         179         180
    1   0.0136551   0.0030605   0.0530218  -0.0049905   0.0031529  -0.0251233
    2  -0.0003893  -0.0308178  -0.0322046  -0.0017603   0.0154540   0.0101083
    3  -0.0232456  -0.0023595   0.0168866   0.0053721   0.0228528  -0.0124931
          181         182         183         184         185         186
    1  -0.0042452   0.0016127  -0.0070511  -0.0153754  -0.0089619  -0.0207162
    2  -0.0299428   0.1059551  -0.0004170   0.0293675  -0.0228628   0.0023057
    3   0.0213743  -0.0103565   0.0003300  -0.0135552  -0.0198641   0.0239541
          187         188         189         190         191         192
    1   0.0183674   0.0046629  -0.0071554  -0.0068681   0.0299303   0.0085552
    2   0.0436909  -0.0044479  -0.0243826   0.0253738  -0.0019229  -0.1056448
    3   0.0298903  -0.0080047  -0.0201756  -0.0165302  -0.0124444   0.0313690
          193         194         195         196         197         198
    1  -0.0090936  -0.0255471  -0.0056297   0.0186335   0.0254897  -0.0074899
    2  -0.0089416  -0.0102295   0.0105340  -0.0225659  -0.0168926  -0.0001776
    3  -0.0052270   0.0192661  -0.0281099  -0.0121802   0.0426025  -0.0003347
          199         200         201         202         203         204
    1  -0.0160898  -0.0209503   0.0196430   0.0504699  -0.0113840   0.0060305
    2  -0.0026729   0.0013797   0.0250308   0.0201800   0.0014744   0.0244860
    3  -0.0307799   0.0330522   0.0073779  -0.0967271  -0.0004661   0.0186033
          205         206         207         208         209         210
    1  -0.0068793  -0.0376479  -0.0005166  -0.0008265  -0.0206417   0.0211767
    2  -0.0065455  -0.0171031  -0.0470570  -0.0000016  -0.0261869  -0.0158215
    3  -0.0255173  -0.0040689  -0.0186191   0.0076301   0.0218103   0.0160709
          211         212         213         214         215         216
    1  -0.0079852   0.0739742   0.0053318   0.0173735   0.0250389  -0.0287575
    2   0.0306819   0.0801710  -0.0066817  -0.0137731   0.0101846  -0.0127656
    3   0.0031084  -0.0065471   0.0069248  -0.0228879   0.0146602   0.0130976
          217         218         219         220         221         222
    1   0.0051332  -0.0037643  -0.0208750  -0.0102496  -0.0084658   0.0612034
    2   0.0577424  -0.0040023   0.0118733   0.0112706  -0.0308362  -0.0176306
    3   0.0289063  -0.0035620   0.0202395  -0.0263605  -0.0017526  -0.0893041
          223         224         225         226         227         228
    1   0.0017905   0.0214258  -0.0247866  -0.0003625   0.0005983  -0.0077942
    2  -0.0041260  -0.0234030  -0.0255696  -0.0031840  -0.0085389   0.0001672
    3  -0.0048068   0.0068417   0.0021094  -0.0340261   0.0624726  -0.0056179
          229         230         231         232         233         234
    1  -0.0256838   0.0032812  -0.0053399   0.0778587   0.0104683   0.0136658
    2  -0.0119648   0.0309264  -0.0059651   0.0652023   0.0020508   0.0064013
    3   0.0200161   0.0107664  -0.0341914  -0.0436672  -0.0002230  -0.0335591
          235         236         237         238         239         240
    1   0.0311706   0.0026174  -0.0429708   0.0027883   0.0254542  -0.0073830
    2   0.0139273  -0.0273360  -0.0273213   0.0093452   0.0131771   0.0013468
    3   0.0124265   0.0150165  -0.0196459  -0.0040405   0.0214583  -0.0360775
          241         242
    1  -0.0216155   0.0065244
    2   0.0163841   0.0255070
    3   0.0139387   0.1091066
  --- DONE ESP SUMMARY ---
Archival summary:
1\1\node024\SP\ProcedureUnspecified\6-31+G*\222244h22\ymao90\FriDec319:33:192021FriDec319:33:192021\0\\#,ProcedureUnspecified,6-31+G*,\\0,1\S\O,1,1.49672\C,1,1.80712,2,107.434\H,3,1.09241,1,117.264,2,-42.2148,0\H,3,1.09305,1,108.141,2,-161.48,0\H,3,1.0932,1,105.877,2,81.9958,0\C,1,1.80802,2,102.226,3,-101.485,0\H,7,1.09247,1,107.601,2,-37.675,0\H,7,1.09251,1,109.214,2,76.9519,0\H,7,1.09319,1,109.905,2,-162.881,0\Gh,2,1.96418,1,167.088,3,176.386,0\Gh,11,1.01279,2,161.339,1,-95.7067,0\Gh,12,1.37928,11,121.853,2,-40.9138,0\Gh,13,1.10474,12,114.978,11,-11.1324,0\Gh,13,1.21844,12,124.449,11,165.651,0\Gh,12,1.46206,11,113.769,2,129.92,0\Gh,16,1.09627,12,108.223,11,-176.484,0\Gh,16,1.53712,12,113.334,11,60.2383,0\Gh,18,1.0962,16,114.591,12,-64.4612,0\Gh,18,1.09793,16,104.937,12,64.0345,0\Gh,16,1.53778,12,105.937,11,-63.3791,0\Gh,21,1.09699,16,108.536,12,64.6232,0\Gh,21,1.09713,16,109.834,12,-49.0556,0\Gh,21,1.53708,16,112.284,12,177.989,0\Gh,24,1.09686,21,114.881,16,-170.951,0\Gh,24,1.09734,21,105.729,16,75.021,0\Gh,24,1.53699,21,112.585,16,-42.3758,0\Gh,27,1.09703,24,104.677,21,-72.7078,0\Gh,27,1.09745,24,115.939,21,164.964,0\Gh,27,1.53765,24,112.324,21,47.4469,0\Gh,30,1.09643,27,107.493,24,178.286,0\Gh,30,1.09712,27,114.999,24,56.5803,0\H,14,2.13691,13,118.284,12,153.501,0\C,33,1.09298,14,105.784,13,-121.846,0\H,34,1.09306,33,113.165,14,-56.4421,0\H,34,1.09333,33,106.457,14,-172.766,0\S,34,1.80719,33,116.759,14,63.808,0\O,37,1.49689,34,100.76,33,69.3545,0\C,37,1.80666,34,89.9579,33,170.759,0\H,39,1.09286,37,115.144,34,-44.5593,0\H,39,1.09304,37,103.194,34,73.8362,0\H,39,1.09352,37,108.33,34,-162.455,0\H,32,2.16595,30,152.994,27,61.0462,0\C,43,1.09302,32,112.151,30,-154.217,0\H,44,1.09299,43,108.919,32,144.766,0\H,44,1.09328,43,112.78,32,35.2665,0\S,44,1.80689,43,114.906,32,-85.2185,0\O,47,1.49643,44,100.412,43,-37.6045,0\C,47,1.80757,44,98.1794,43,-143.831,0\H,49,1.09244,47,110.467,44,-173.849,0\H,49,1.09301,47,107.685,44,71.047,0\H,49,1.09349,47,114.836,44,-51.4448,0\H,17,2.256,16,125.829,12,71.4234,0\C,53,1.09332,17,152.262,16,12.9969,0\H,54,1.09269,53,110.695,17,53.6608,0\H,54,1.09311,53,114.28,17,-79.9006,0\S,54,1.80669,53,103.147,17,156.982,0\O,57,1.49625,54,107.509,53,-47.5841,0\C,57,1.80764,54,99.0644,53,69.0427,0\H,59,1.09299,57,111.297,54,-60.3278,0\H,59,1.09308,57,105.083,54,62.2466,0\H,59,1.09364,57,111.134,54,178.731,0\H,20,2.26412,18,166.43,16,86.1838,0\C,63,1.09244,20,153.339,18,-59.2138,0\H,64,1.09279,63,108.46,20,13.5199,0\H,64,1.09332,63,109.738,20,125.517,0\S,64,1.80714,63,113.882,20,-115.075,0\O,67,1.49712,64,95.9623,63,-41.376,0\C,67,1.80695,64,94.2571,63,57.883,0\H,69,1.09234,67,112.534,64,-171.196,0\H,69,1.09293,67,106.809,64,61.0952,0\H,69,1.09308,67,102.231,64,-50.2696,0\H,72,1.94133,69,125.217,67,-116.569,0\C,73,1.09317,72,154.166,69,-23.3632,0\H,74,1.09291,73,107.024,72,46.2463,0\H,74,1.0935,73,115.692,72,164.62,0\S,74,1.80681,73,106.424,72,-64.2767,0\O,77,1.49661,74,103.377,73,58.6845,0\C,77,1.807,74,100.675,73,159.292,0\H,79,1.09229,77,105.904,74,82.9477,0\H,79,1.09362,77,113.172,74,-32.2545,0\H,79,1.09368,77,110.066,74,-156.555,0\H,81,2.26206,79,109.561,77,-99.5594,0\C,83,1.09314,81,138.046,79,8.92843,0\H,84,1.09214,83,110.269,81,145.352,0\H,84,1.09353,83,108.637,81,20.9925,0\S,84,1.80672,83,101.606,81,-94.0906,0\O,87,1.49701,84,106.211,83,36.8334,0\C,87,1.8066,84,88.4713,83,-69.9568,0\H,89,1.09257,87,103.321,84,-60.6646,0\H,89,1.09331,87,111.245,84,60.9789,0\H,89,1.09335,87,108.872,84,-179.696,0\H,43,2.32204,32,75.454,30,18.5409,0\C,93,1.09241,43,101.175,32,150.786,0\H,94,1.0926,93,118.35,43,-33.0063,0\H,94,1.09309,93,114.912,43,-159.936,0\S,94,1.80755,93,106.342,43,87.854,0\O,97,1.49692,94,109.474,93,-63.1974,0\C,97,1.80633,94,98.3398,93,42.3399,0\H,99,1.09291,97,109.06,94,-43.5872,0\H,99,1.09338,97,105.046,94,-161.695,0\H,99,1.09349,97,105.075,94,77.675,0\H,58,2.37089,57,106.87,54,-159.762,0\C,103,1.09315,58,147.985,57,-151.288,0\H,104,1.09244,103,117.655,58,137.952,0\H,104,1.09308,103,102.321,58,21.0588,0\S,104,1.8077,103,99.1485,58,-93.4246,0\O,107,1.49662,104,107.143,103,171.603,0\C,107,1.80703,104,96.2086,103,74.855,0\H,109,1.09264,107,110.102,104,179.012,0\H,109,1.09351,107,113.659,104,-63.1152,0\H,109,1.09362,107,112.168,104,56.2589,0\H,111,2.28313,109,128.442,107,-69.6849,0\C,113,1.09239,111,136.429,109,8.08346,0\H,114,1.09299,113,115.365,111,-21.461,0\H,114,1.09322,113,107.807,111,-150.878,0\S,114,1.80689,113,106.782,111,95.2741,0\O,117,1.49612,114,101.926,113,-118.605,0\C,117,1.80713,114,98.7446,113,133.858,0\H,119,1.09256,117,108.378,114,58.6282,0\H,119,1.09331,117,115.472,114,-59.8763,0\H,119,1.0934,117,114.21,114,-177.935,0\O,121,2.40369,119,117.368,117,98.7792,0\S,123,1.49637,121,130.861,119,142.226,0\C,124,1.80747,123,106.342,121,158.559,0\H,125,1.09208,124,105.067,123,52.681,0\H,125,1.09294,124,107.68,123,163.849,0\H,125,1.09304,124,115.693,123,-70.9012,0\C,124,1.80774,123,105.378,121,-100.465,0\H,129,1.09257,124,106.106,123,169.489,0\H,129,1.09283,124,115.213,123,-74.7275,0\H,129,1.09357,124,105.3,123,54.5028,0\H,126,2.32719,125,133.598,124,-120.792,0\C,133,1.09243,126,122.944,125,56.8064,0\H,134,1.09305,133,106.118,126,-121.897,0\H,134,1.09328,133,105.764,126,-6.2528,0\S,134,1.80729,133,113.499,126,117.321,0\O,137,1.49715,134,104.938,133,166.998,0\C,137,1.80709,134,97.1431,133,60.6563,0\H,139,1.09267,137,110.798,134,157.803,0\H,139,1.09309,137,98.3944,134,48.4517,0\H,139,1.0938,137,109.77,134,-71.6059,0\H,33,2.43411,14,104.174,13,27.9393,0\C,143,1.09367,33,121.198,14,111.366,0\H,144,1.09261,143,104.082,33,161.694,0\H,144,1.09336,143,109.881,33,47.0383,0\S,144,1.80744,143,107.947,33,-78.8446,0\O,147,1.49696,144,105.541,143,-160.448,0\C,147,1.80734,144,96.6579,143,93.7101,0\H,149,1.09227,147,111.531,144,-92.7353,0\H,149,1.09304,147,116.716,144,41.5448,0\H,149,1.09307,147,102.408,144,153.91,0\H,62,2.46226,59,123.839,57,-72.1107,0\C,153,1.09237,62,108.574,59,-25.094,0\H,154,1.09327,153,112.546,62,-176.168,0\H,154,1.09384,153,107.044,62,61.0812,0\S,154,1.80694,153,106.459,62,-67.5536,0\O,157,1.49698,154,106.001,153,-160.121,0\C,157,1.80733,154,98.5854,153,-59.2447,0\H,159,1.09274,157,107.636,154,-169.783,0\H,159,1.09307,157,113.512,154,68.7307,0\H,159,1.09344,157,112.236,154,-46.9314,0\H,28,2.47404,27,158.297,24,-140.944,0\C,163,1.09326,28,136.783,27,-51.8315,0\H,164,1.09304,163,115.027,28,-123.522,0\H,164,1.09363,163,108.105,28,-1.87631,0\S,164,1.80723,163,113.352,28,108.356,0\O,167,1.49686,164,105.443,163,-45.5614,0\C,167,1.80635,164,94.8322,163,63.1947,0\H,169,1.09277,167,111.164,164,67.5981,0\H,169,1.09313,167,112.208,164,-165.833,0\H,169,1.09313,167,102.321,164,-58.8383,0\H,172,2.39616,169,106.48,167,117.092,0\C,173,1.09246,172,162.678,169,63.7411,0\H,174,1.09264,173,105.384,172,-74.4861,0\H,174,1.09271,173,105.91,172,49.2028,0\S,174,1.80762,173,107.911,172,166.011,0\O,177,1.49622,174,102.267,173,-160.323,0\C,177,1.80702,174,98.9958,173,-57.2721,0\H,179,1.09303,177,116.275,174,68.8523,0\H,179,1.0933,177,104.924,174,-163.585,0\H,179,1.0935,177,107.272,174,-51.9967,0\H,1,2.55648,2,110.699,3,96.3848,0\C,183,1.09355,1,135.987,2,-19.2118,0\H,184,1.09252,183,102.865,1,-120.25,0\H,184,1.09298,183,109.13,1,126.695,0\S,184,1.80758,183,112.672,1,1.60625,0\O,187,1.49708,184,103.935,183,110.012,0\C,187,1.8073,184,96.8851,183,-139.876,0\H,189,1.0922,187,104.815,184,-33.1634,0\H,189,1.0928,187,112.476,184,87.1645,0\H,189,1.09356,187,106.936,184,-148.329,0\H,190,2.47234,189,138.654,187,-109.49,0\C,193,1.09294,190,117.334,189,41.5223,0\H,194,1.09259,193,115.284,190,-172.153,0\H,194,1.09311,193,107.934,190,-48.6688,0\S,194,1.80704,193,106.695,190,69.9039,0\O,197,1.49718,194,110.872,193,166.094,0\C,197,1.80726,194,97.3983,193,59.1155,0\H,199,1.09267,197,103.319,194,51.7445,0\H,199,1.09283,197,110.612,194,-73.0775,0\H,199,1.09365,197,106.372,194,172.79,0\H,198,2.43958,197,161.546,194,-41.0389,0\C,203,1.09284,198,153.07,197,150.788,0\H,204,1.09301,203,107.142,198,97.0121,0\H,204,1.09372,203,107.004,198,-148.169,0\S,204,1.80621,203,107.733,198,-24.129,0\O,207,1.49752,204,108.177,203,-169.458,0\C,207,1.80746,204,95.912,203,-63.4316,0\H,209,1.09271,207,107.47,204,-49.2797,0\H,209,1.09296,207,107.047,204,71.4538,0\H,209,1.09358,207,101.039,204,-168.671,0\H,211,1.9967,209,123.791,207,78.1096,0\C,213,1.09346,211,140.611,209,-17.3846,0\H,214,1.09255,213,115.419,211,-154.871,0\H,214,1.09266,213,112.423,211,-31.818,0\S,214,1.80754,213,103.794,211,86.5007,0\O,217,1.49683,214,102.707,213,-16.244,0\C,217,1.80709,214,92.4349,213,88.5565,0\H,219,1.09242,217,104.924,214,80.0653,0\H,219,1.09329,217,115.245,214,-38.5501,0\H,219,1.09367,217,104.555,214,-162.316,0\H,212,2.12385,209,163.779,207,74.1679,0\C,223,1.09346,212,122.027,209,-76.2699,0\H,224,1.0928,223,115.856,212,6.88046,0\H,224,1.09298,223,115.096,212,136.997,0\S,224,1.80728,223,101.873,212,-110.315,0\O,227,1.4964,224,109.584,223,-166.057,0\C,227,1.80736,224,98.2794,223,-53.9522,0\H,229,1.09241,227,108.903,224,71.211,0\H,229,1.09247,227,116.528,224,-157.353,0\H,229,1.09376,227,105.024,224,-42.3842,0\H,8,2.70286,7,163.614,1,150.588,0\C,233,1.09333,8,119.712,7,43.8901,0\H,234,1.09282,233,111.007,8,108.177,0\H,234,1.09325,233,106.202,8,-124.477,0\S,234,1.80678,233,106.426,8,-9.11569,0\O,237,1.49683,234,98.7825,233,81.0357,0\C,237,1.80725,234,94.2367,233,-169.737,0\H,239,1.09286,237,115.589,234,-114.655,0\H,239,1.09308,237,109.899,234,4.17403,0\H,239,1.09349,237,107.227,234,123.287,0\\\@

 Total job time:  35.14s(wall), 119.14s(cpu) 
 Fri Dec  3 19:33:19 2021

        *************************************************************
        *                                                           *
        *  Thank you very much for using Q-Chem.  Have a nice day.  *
        *                                                           *
        *************************************************************


