                  Welcome to Q-Chem
     A Quantum Leap Into The Future Of Chemistry


 Q-Chem 5.2 (devel), Q-Chem, Inc., Pleasanton, CA (2019)

 Yihan Shao,  Zhengting Gan,  E. Epifanovsky,  A. T. B. Gilbert,  M. Wormit,  
 J. Kussmann,  A. W. Lange,  A. Behn,  Jia Deng,  Xintian Feng,  D. Ghosh,  
 M. Goldey,  P. R. Horn,  L. D. Jacobson,  I. Kaliman,  T. Kus,  A. Landau,  
 Jie Liu,  E. I. Proynov,  R. M. Richard,  R. P. Steele,  E. J. Sundstrom,  
 H. L. Woodcock III,  P. M. Zimmerman,  D. Zuev,  B. Alam,  B. Albrecht,  
 E. Alguire,  S. A. Baeppler,  D. Barton,  Z. Benda,  Y. A. Bernard,  
 E. J. Berquist,  K. B. Bravaya,  H. Burton,  K. Carter-Fenk,  D. Casanova,  
 Chun-Min Chang,  Yunqing Chen,  A. Chien,  K. D. Closser,  M. P. Coons,  
 S. Coriani,  S. Dasgupta,  A. L. Dempwolff,  M. Diedenhofen,  Hainam Do,  
 R. G. Edgar,  Po-Tung Fang,  S. Faraji,  S. Fatehi,  Qingguo Feng,  
 J. Fosso-Tande,  J. Gayvert,  Qinghui Ge,  A. Ghysels,  G. Gidofalvi,  
 J. Gomes,  J. Gonthier,  A. Gunina,  D. Hait,  M. W. D. Hanson-Heine,  
 P. H. P. Harbach,  A. W. Hauser,  M. F. Herbst,  J. E. Herr,  
 E. G. Hohenstein,  Z. C. Holden,  Kerwin Hui,  B. C. Huynh,  T.-C. Jagau,  
 Hyunjun Ji,  B. Kaduk,  K. Khistyaev,  Jaehoon Kim,  P. Klunzinger,  K. Koh,  
 D. Kosenkov,  L. Koulias,  T. Kowalczyk,  C. M. Krauter,  A. Kunitsa,  
 Ka Un Lao,  A. Laurent,  K. V. Lawler,  Joonho Lee,  D. Lefrancois,  
 S. Lehtola,  D. S. Levine,  Yi-Pei Li,  You-Sheng Lin,  Fenglai Liu,  
 Kuan-Yu Liu,  E. Livshits,  M. Loipersberger,  A. Luenser,  P. Manohar,  
 E. Mansoor,  S. F. Manzer,  Shan-Ping Mao,  Yuezhi Mao,  N. Mardirossian,  
 A. V. Marenich,  T. Markovich,  L. A. Martinez-Martinez,  S. A. Maurer,  
 N. J. Mayhall,  S. C. McKenzie,  J.-M. Mewes,  P. Morgante,  A. F. Morrison,  
 J. W. Mullinax,  K. Nanda,  T. S. Nguyen-Beck,  R. Olivares-Amaya,  
 J. A. Parkhill,  S. K. Paul,  F. Pavosevic,  Zheng Pei,  T. M. Perrine,  
 F. Plasser,  P. Pokhilko,  S. Prager,  A. Prociuk,  E. Ramos,  B. Rana,  
 D. R. Rehn,  F. Rob,  M. Scheurer,  M. Schneider,  N. Sergueev,  
 S. M. Sharada,  S. Sharma,  D. W. Small,  T. Stauch,  C. J. Stein,  
 T. Stein,  Yu-Chuan Su,  S. P. Veccham,  Zhen Tao,  A. J. W. Thom,  
 A. Tkatchenko,  T. Tsuchimochi,  N. M. Tubman,  L. Vogt,  M. L. Vidal,  
 O. Vydrov,  M. A. Watson,  J. Wenzel,  M. de Wergifosse,  T. A. Wesolowski,  
 A. White,  J. Witte,  A. Yamada,  Jun Yang,  K. Yao,  S. Yeganeh,  
 S. R. Yost,  Zhi-Qiang You,  A. Zech,  Igor Ying Zhang,  Xing Zhang,  
 Yan Zhao,  Ying Zhu,  B. R. Brooks,  G. K. L. Chan,  C. J. Cramer,  
 M. S. Gordon,  W. J. Hehre,  A. Klamt,  M. W. Schmidt,  C. D. Sherrill,  
 D. G. Truhlar,  A. Aspuru-Guzik,  R. Baer,  A. T. Bell,  N. A. Besley,  
 Jeng-Da Chai,  A. E. DePrince, III,  R. A. DiStasio Jr.,  A. Dreuw,  
 B. D. Dunietz,  T. R. Furlani,  Chao-Ping Hsu,  Yousung Jung,  Jing Kong,  
 D. S. Lambrecht,  WanZhen Liang,  C. Ochsenfeld,  V. A. Rassolov,  
 L. V. Slipchenko,  J. E. Subotnik,  T. Van Voorhis,  J. M. Herbert,  
 A. I. Krylov,  P. M. W. Gill,  M. Head-Gordon

 Contributors to earlier versions of Q-Chem not listed above: 
 R. D. Adamson,  B. Austin,  J. Baker,  G. J. O. Beran,  K. Brandhorst,  
 S. T. Brown,  E. F. C. Byrd,  A. K. Chakraborty,  C.-L. Cheng,  
 Siu Hung Chien,  D. M. Chipman,  D. L. Crittenden,  H. Dachsel,  
 R. J. Doerksen,  A. D. Dutoi,  L. Fusti-Molnar,  W. A. Goddard III,  
 A. Golubeva-Zadorozhnaya,  S. R. Gwaltney,  G. Hawkins,  A. Heyden,  
 S. Hirata,  G. Kedziora,  F. J. Keil,  C. Kelley,  Jihan Kim,  R. A. King,  
 R. Z. Khaliullin,  P. P. Korambath,  W. Kurlancheek,  A. M. Lee,  M. S. Lee,  
 S. V. Levchenko,  Ching Yeh Lin,  D. Liotard,  R. C. Lochan,  I. Lotan,  
 P. E. Maslen,  N. Nair,  D. P. O'Neill,  D. Neuhauser,  E. Neuscamman,  
 C. M. Oana,  R. Olson,  B. Peters,  R. Peverati,  P. A. Pieniazek,  
 Y. M. Rhee,  J. Ritchie,  M. A. Rohrdanz,  E. Rosta,  N. J. Russ,  
 H. F. Schaefer III,  N. E. Schultz,  N. Shenvi,  A. C. Simmonett,  A. Sodt,  
 D. Stuck,  K. S. Thanthiriwatte,  V. Vanovschi,  Tao Wang,  A. Warshel,  
 C. F. Williams,  Q. Wu,  X. Xu,  W. Zhang

 Please cite Q-Chem as follows:
 Y. Shao et al., Mol. Phys. 113, 184-215 (2015)
 DOI: 10.1080/00268976.2014.952696

 Q-Chem 5.2.2 for Intel X86 EM64T Linux

 Parts of Q-Chem use Armadillo 9.800.1 (Horizon Scraper).
 http://arma.sourceforge.net/

 Q-Chem begins on Fri Dec  3 15:32:33 2021  

Host: node026
0

     Scratch files written to /home/ymao90/scratch/r7.00_frame_0035_spade_B3LYP_dp20211203120848//

Checking the input file for inconsistencies... 	...done.

--------------------------------------------------------------
User input:
--------------------------------------------------------------
$molecule
0 1
--
0 1
C    21.47800   17.19000   28.62500  
C    22.39300   16.22200   29.39300  
C    23.75400   16.85800   29.72300  
C    23.55400   18.24000   30.36700  
C    22.81700   19.16400   29.38300  
C    21.39400   18.63500   29.14500  
H    24.33200   16.28400   30.45700  
H    21.84000   16.06800   30.32800  
H    21.91100   17.27900   27.62100  
H    20.46400   16.77300   28.59500  
H    22.94000   18.16500   31.27300  
H    24.52200   18.70700   30.58700  
H    22.73000   20.16600   29.81900  
H    23.34300   19.32300   28.43400  
H    20.75100   18.94400   29.97800  
H    20.95300   19.15100   28.28300  
H    24.42600   16.86100   28.85600  
N    22.49200   14.92200   28.73200  
H    22.54700   14.74600   27.73600  
C    22.62900   13.79200   29.51000  
H    22.79100   12.92700   28.84100  
O    22.54300   13.73600   30.72400  
--
0 1
C    23.05300   21.09300   24.51000  
H    23.51300   20.68300   23.60700  
H    23.80500   21.70400   25.01600  
H    22.49000   20.33000   25.05400  
S    21.84000   22.25800   23.85000  
C    21.28900   22.76700   25.49400  
H    20.95800   21.93200   26.11700  
H    22.12900   23.36500   25.85600  
H    20.45200   23.46500   25.40600  
O    20.85600   21.25500   23.33400  
C    18.16700   18.76500   34.74300  
H    18.57900   18.73300   35.75500  
H    19.12600   18.58700   34.24900  
H    17.75400   19.76800   34.60500  
S    16.92000   17.46600   34.60100  
C    16.88400   17.38500   32.79600  
H    16.97700   18.39800   32.39500  
H    17.70000   16.83200   32.32500  
H    15.96400   16.89900   32.46000  
O    15.73600   18.33300   34.89600  
C    20.05300   19.56100   20.29000  
H    20.93900   20.19900   20.22500  
H    20.08100   19.09100   19.30400  
H    19.10900   20.10700   20.36300  
S    20.42700   18.43000   21.64900  
C    21.83300   17.68700   20.79200  
H    22.64600   18.41500   20.73100  
H    22.11100   16.82600   21.40500  
H    21.47300   17.34000   19.82000  
O    19.44300   17.30700   21.54300  
C    27.68000   21.41200   30.66800  
H    28.60200   21.93900   30.92700  
H    27.65400   20.35500   30.94400  
H    27.55800   21.48500   29.58400  
S    26.32200   22.30800   31.45300  
C    26.85900   21.65600   33.05000  
H    27.02300   20.58800   32.88500  
H    27.65300   22.26100   33.49500  
H    25.99100   21.66000   33.71500  
O    25.14500   21.45500   31.09400  
C    27.28400   17.67800   32.12500  
H    26.81800   18.66100   32.23300  
H    27.42900   17.38000   31.08300  
H    26.73600   17.00600   32.79000  
S    28.96600   17.77000   32.77900  
C    28.55500   18.48200   34.38800  
H    27.91400   19.34100   34.17300  
H    28.03700   17.77400   35.04000  
H    29.44800   18.86100   34.89200  
O    29.35800   19.05800   32.12400  
C    17.55900   12.27400   34.56800  
H    16.63000   12.82200   34.74100  
H    18.05200   12.11200   35.53100  
H    18.27800   12.93600   34.07900  
S    17.41900   10.75500   33.59900  
C    16.34300   9.80800    34.70000  
H    16.81200   9.82400    35.68700  
H    15.27100   10.02000   34.72200  
H    16.46600   8.75500    34.43500  
O    18.78100   10.14900   33.74400  
C    23.94900   19.82100   33.97700  
H    24.03100   19.97600   35.05600  
H    24.16200   18.77000   33.76400  
H    24.53100   20.42800   33.27900  
S    22.21900   20.16200   33.58400  
C    22.26600   21.85400   34.21600  
H    22.85900   21.86800   35.13400  
H    22.83400   22.32400   33.40900  
H    21.31700   22.36300   34.40200  
O    21.58300   19.39200   34.69900  
C    25.31600   9.47300    31.15200  
H    24.52400   10.21800   31.04000  
H    26.23400   10.02500   30.93400  
H    25.23400   8.62400    30.46900  
S    25.33700   8.90100    32.86600  
C    26.45200   7.48200    32.95700  
H    27.36800   7.86000    33.41700  
H    25.98900   6.80200    33.67500  
H    26.53300   7.00600    31.97700  
O    23.99800   8.35400    33.25200  
C    20.02600   16.80300   25.37900  
H    20.84500   17.52600   25.40400  
H    19.37200   17.04000   24.53600  
H    19.46100   16.88800   26.31100  
S    20.43100   15.04300   25.33200  
C    20.87000   15.20400   23.58600  
H    21.57700   16.01200   23.38000  
H    21.35300   14.25900   23.32300  
H    19.94800   15.32200   23.01200  
O    19.06900   14.43200   25.44200  
C    20.73400   8.06200    26.44200  
H    20.45800   8.98200    26.96300  
H    21.41300   8.28300    25.61400  
H    19.95400   7.49900    25.92300  
S    21.70900   7.07900    27.60400  
C    22.53100   5.90900    26.49900  
H    21.77700   5.43200    25.86700  
H    23.26000   6.46000    25.90000  
H    22.99900   5.15500    27.13800  
O    20.71100   6.14900    28.22100  
C    29.78200   18.84100   27.98800  
H    29.85600   19.18700   29.02200  
H    30.82600   18.61400   27.75600  
H    29.59100   19.71900   27.36600  
S    28.69200   17.40700   27.84400  
C    27.27200   18.31300   28.49700  
H    27.03400   19.17300   27.86600  
H    26.39100   17.66900   28.56200  
H    27.55400   18.66000   29.49500  
O    29.08800   16.51900   28.98200  
C    17.22300   13.08500   30.93600  
H    16.42300   12.36200   31.11100  
H    17.92500   13.19200   31.76700  
H    16.72500   14.02700   30.69200  
S    18.05200   12.57500   29.41400  
C    18.83900   14.18300   29.17000  
H    19.46800   14.19700   28.27700  
H    18.12200   15.00800   29.17300  
H    19.53800   14.29900   30.00200  
O    16.93900   12.37200   28.43300  
C    21.42200   16.21500   33.28700  
H    22.51000   16.10600   33.27500  
H    20.98500   15.68800   32.43500  
H    21.07400   17.25000   33.24300  
S    20.85200   15.47500   34.83400  
C    21.02800   13.74800   34.33200  
H    22.01400   13.32900   34.54800  
H    20.38600   13.25700   35.06700  
H    20.84400   13.52900   33.27700  
O    19.39200   15.72200   35.05800  
C    29.72700   14.31000   31.75600  
H    30.70900   14.13300   32.20200  
H    29.83400   14.84200   30.80700  
H    29.02900   14.83300   32.41400  
S    29.19100   12.62700   31.37900  
C    29.64400   11.74500   32.89000  
H    29.89400   10.68300   32.83000  
H    30.54800   12.23400   33.26000  
H    28.82100   11.91600   33.58800  
O    30.20900   12.31900   30.32500  
C    13.07400   21.72400   31.24100  
H    12.62500   20.73600   31.37100  
H    12.82600   22.39300   32.06900  
H    12.93500   22.23100   30.28300  
S    14.87900   21.63700   31.20400  
C    15.03600   21.20100   32.95100  
H    14.63000   20.18600   32.96600  
H    16.07900   21.21300   33.27700  
H    14.37100   21.74600   33.62700  
O    15.28400   23.06900   31.04800  
C    17.79800   21.20500   25.30300  
H    17.84400   22.07400   24.64100  
H    16.78400   21.11300   25.70000  
H    18.47200   21.01100   26.14100  
S    18.05500   19.74400   24.27000  
C    17.20800   20.39600   22.81300  
H    17.16800   19.71600   21.95800  
H    16.29700   20.92300   23.10700  
H    17.92900   21.19000   22.60400  
O    17.00300   18.75700   24.67100  
C    21.71200   23.30800   30.54300  
H    20.95500   22.55600   30.78100  
H    22.71000   22.93300   30.78700  
H    21.55200   24.15900   31.21000  
S    21.78000   23.88700   28.83300  
C    23.28200   24.85000   29.11600  
H    23.16100   25.66200   29.83800  
H    24.08000   24.19400   29.47600  
H    23.63200   25.28900   28.17800  
O    20.67700   24.89300   28.72300  
C    24.83700   12.76600   32.62600  
H    24.24200   12.43600   31.77100  
H    25.67500   12.07700   32.75700  
H    24.26100   12.76900   33.55500  
S    25.52800   14.40700   32.31600  
C    25.94800   14.09700   30.58600  
H    25.02300   14.27800   30.03300  
H    26.80300   14.75700   30.41500  
H    26.30800   13.07800   30.42400  
O    26.76800   14.34800   33.15300  
C    27.77700   17.90200   23.33200  
H    28.04300   16.95800   23.81500  
H    26.75400   17.83700   22.95300  
H    28.49600   17.85500   22.51000  
S    28.28200   19.17800   24.50700  
C    27.85800   20.47600   23.32400  
H    26.79500   20.71000   23.42400  
H    28.51600   21.29800   23.61800  
H    28.18400   20.27900   22.30000  
O    29.77600   19.18300   24.41400  
C    25.32700   16.02700   25.95200  
H    26.00100   16.06300   25.09200  
H    25.96700   15.84100   26.81900  
H    24.65200   15.17100   25.87200  
S    24.43700   17.59700   26.02500  
C    23.90400   17.53000   24.30000  
H    23.98000   18.45300   23.72000  
H    24.53700   16.86800   23.70300  
H    22.82400   17.41700   24.17200  
O    25.56000   18.58500   25.95800  
C    17.47300   10.41000   25.63100  
H    16.70500   9.94400    25.00700  
H    17.56400   9.74900    26.49700  
H    17.21700   11.38600   26.05100  
S    18.98200   10.48600   24.64000  
C    18.21200   11.44200   23.31400  
H    18.09900   12.47300   23.65800  
H    18.78700   11.37000   22.38800  
H    17.27800   10.91100   23.11500  
O    18.98900   9.10900    24.05200  
C    20.73000   8.35000    30.88500  
H    21.18600   7.84700    31.74200  
H    19.74700   8.74700    31.14900  
H    20.54600   7.63100    30.08300  
S    21.69300   9.77400    30.32500  
C    21.54300   10.60200   31.92400  
H    22.19600   10.16100   32.68200  
H    21.87400   11.63800   31.81500  
H    20.52400   10.62500   32.31700  
O    20.73600   10.56700   29.49000  
C    15.77500   18.95900   28.27300  
H    15.41000   19.24400   27.28300  
H    14.97400   18.51500   28.87100  
H    16.34200   19.80100   28.67800  
S    16.95600   17.65900   27.84600  
C    15.92800   16.18400   27.66500  
H    15.48700   16.23900   26.66600  
H    16.60500   15.32800   27.71600  
H    15.16000   16.21900   28.44200  
O    17.70800   17.30600   29.09100  
C    26.38900   14.24900   22.84400  
H    25.83400   15.00900   23.39900  
H    26.55300   13.44300   23.56500  
H    27.27900   14.70100   22.39900  
S    25.20500   13.59200   21.64700  
C    25.08400   15.18100   20.79400  
H    24.38400   15.24200   19.95700  
H    24.87000   15.96600   21.52400  
H    25.98200   15.33000   20.18800  
O    24.04000   13.58700   22.58800  
C    25.18700   10.63800   37.56300  
H    26.22700   10.54000   37.88600  
H    24.75000   11.43000   38.17700  
H    24.67900   9.67300    37.62000  
S    24.99000   11.22000   35.86300  
C    26.32700   12.38100   36.22200  
H    26.37000   13.12700   35.42400  
H    26.19300   12.87400   37.18800  
H    27.25400   11.80200   36.23000  
O    23.78600   12.09900   36.00200  
C    25.19500   21.94900   27.48800  
H    25.31400   21.59500   28.51500  
H    24.16400   22.26300   27.30200  
H    25.31000   21.08400   26.82900  
S    26.39000   23.22900   27.04200  
C    27.91400   22.27200   26.87700  
H    28.67900   22.98900   27.18700  
H    28.09400   21.48800   27.61700  
H    28.03800   22.04900   25.81400  
O    26.60600   23.93400   28.34400  
C    27.78000   11.58300   26.05800  
H    28.61200   12.01000   25.49300  
H    28.16000   10.85400   26.77800  
H    27.05800   11.01000   25.47000  
S    26.75600   12.69000   27.05400  
C    28.26500   13.42700   27.72000  
H    28.80000   13.92300   26.90600  
H    28.06900   14.26900   28.38800  
H    28.83600   12.54600   28.02600  
O    26.04700   11.78000   28.00900  
C    22.35900   10.97400   26.67800  
H    23.15300   11.22300   27.38700  
H    21.39300   11.10000   27.17400  
H    22.48800   9.92700    26.39300  
S    22.73400   12.12600   25.33800  
C    24.43000   11.56900   25.06000  
H    24.79700   10.78900   25.73300  
H    24.57100   11.05800   24.10400  
H    25.09500   12.43500   25.02300  
O    22.84700   13.38100   26.14600  
$end

$rem
JOBTYPE  SP
METHOD  B3LYP
BASIS  6-31+G(D)
SYMMETRY  FALSE
SYM_IGNORE  TRUE
MEM_TOTAL  16000
MEM_STATIC  8000
MAX_SUB_FILE_NUM  16000
BASIS_LIN_DEP_THRESH  6
THRESH  14
SCF_CONVERGENCE  8
GEN_SCFMAN  TRUE
SCF_GUESS  SAD
FD_MAT_VEC_PROD  FALSE
XC_GRID  000075000302
NL_GRID  1
MAX_SCF_CYCLES  200
ENV_METHOD  B3LYP
GEN_SCFMAN_EMBED  TRUE
SPADE_PARTITION  TRUE
$end

$development
embedding_early_stop  1
$end

--------------------------------------------------------------
 ----------------------------------------------------------------
             Standard Nuclear Orientation (Angstroms)
    I     Atom           X                Y                Z
 ----------------------------------------------------------------
    1      C      21.4780000000    17.1900000000    28.6250000000
    2      C      22.3930000000    16.2220000000    29.3930000000
    3      C      23.7540000000    16.8580000000    29.7230000000
    4      C      23.5540000000    18.2400000000    30.3670000000
    5      C      22.8170000000    19.1640000000    29.3830000000
    6      C      21.3940000000    18.6350000000    29.1450000000
    7      H      24.3320000000    16.2840000000    30.4570000000
    8      H      21.8400000000    16.0680000000    30.3280000000
    9      H      21.9110000000    17.2790000000    27.6210000000
   10      H      20.4640000000    16.7730000000    28.5950000000
   11      H      22.9400000000    18.1650000000    31.2730000000
   12      H      24.5220000000    18.7070000000    30.5870000000
   13      H      22.7300000000    20.1660000000    29.8190000000
   14      H      23.3430000000    19.3230000000    28.4340000000
   15      H      20.7510000000    18.9440000000    29.9780000000
   16      H      20.9530000000    19.1510000000    28.2830000000
   17      H      24.4260000000    16.8610000000    28.8560000000
   18      N      22.4920000000    14.9220000000    28.7320000000
   19      H      22.5470000000    14.7460000000    27.7360000000
   20      C      22.6290000000    13.7920000000    29.5100000000
   21      H      22.7910000000    12.9270000000    28.8410000000
   22      O      22.5430000000    13.7360000000    30.7240000000
   23      C      23.0530000000    21.0930000000    24.5100000000
   24      H      23.5130000000    20.6830000000    23.6070000000
   25      H      23.8050000000    21.7040000000    25.0160000000
   26      H      22.4900000000    20.3300000000    25.0540000000
   27      S      21.8400000000    22.2580000000    23.8500000000
   28      C      21.2890000000    22.7670000000    25.4940000000
   29      H      20.9580000000    21.9320000000    26.1170000000
   30      H      22.1290000000    23.3650000000    25.8560000000
   31      H      20.4520000000    23.4650000000    25.4060000000
   32      O      20.8560000000    21.2550000000    23.3340000000
   33      C      18.1670000000    18.7650000000    34.7430000000
   34      H      18.5790000000    18.7330000000    35.7550000000
   35      H      19.1260000000    18.5870000000    34.2490000000
   36      H      17.7540000000    19.7680000000    34.6050000000
   37      S      16.9200000000    17.4660000000    34.6010000000
   38      C      16.8840000000    17.3850000000    32.7960000000
   39      H      16.9770000000    18.3980000000    32.3950000000
   40      H      17.7000000000    16.8320000000    32.3250000000
   41      H      15.9640000000    16.8990000000    32.4600000000
   42      O      15.7360000000    18.3330000000    34.8960000000
   43      C      20.0530000000    19.5610000000    20.2900000000
   44      H      20.9390000000    20.1990000000    20.2250000000
   45      H      20.0810000000    19.0910000000    19.3040000000
   46      H      19.1090000000    20.1070000000    20.3630000000
   47      S      20.4270000000    18.4300000000    21.6490000000
   48      C      21.8330000000    17.6870000000    20.7920000000
   49      H      22.6460000000    18.4150000000    20.7310000000
   50      H      22.1110000000    16.8260000000    21.4050000000
   51      H      21.4730000000    17.3400000000    19.8200000000
   52      O      19.4430000000    17.3070000000    21.5430000000
   53      C      27.6800000000    21.4120000000    30.6680000000
   54      H      28.6020000000    21.9390000000    30.9270000000
   55      H      27.6540000000    20.3550000000    30.9440000000
   56      H      27.5580000000    21.4850000000    29.5840000000
   57      S      26.3220000000    22.3080000000    31.4530000000
   58      C      26.8590000000    21.6560000000    33.0500000000
   59      H      27.0230000000    20.5880000000    32.8850000000
   60      H      27.6530000000    22.2610000000    33.4950000000
   61      H      25.9910000000    21.6600000000    33.7150000000
   62      O      25.1450000000    21.4550000000    31.0940000000
   63      C      27.2840000000    17.6780000000    32.1250000000
   64      H      26.8180000000    18.6610000000    32.2330000000
   65      H      27.4290000000    17.3800000000    31.0830000000
   66      H      26.7360000000    17.0060000000    32.7900000000
   67      S      28.9660000000    17.7700000000    32.7790000000
   68      C      28.5550000000    18.4820000000    34.3880000000
   69      H      27.9140000000    19.3410000000    34.1730000000
   70      H      28.0370000000    17.7740000000    35.0400000000
   71      H      29.4480000000    18.8610000000    34.8920000000
   72      O      29.3580000000    19.0580000000    32.1240000000
   73      C      17.5590000000    12.2740000000    34.5680000000
   74      H      16.6300000000    12.8220000000    34.7410000000
   75      H      18.0520000000    12.1120000000    35.5310000000
   76      H      18.2780000000    12.9360000000    34.0790000000
   77      S      17.4190000000    10.7550000000    33.5990000000
   78      C      16.3430000000     9.8080000000    34.7000000000
   79      H      16.8120000000     9.8240000000    35.6870000000
   80      H      15.2710000000    10.0200000000    34.7220000000
   81      H      16.4660000000     8.7550000000    34.4350000000
   82      O      18.7810000000    10.1490000000    33.7440000000
   83      C      23.9490000000    19.8210000000    33.9770000000
   84      H      24.0310000000    19.9760000000    35.0560000000
   85      H      24.1620000000    18.7700000000    33.7640000000
   86      H      24.5310000000    20.4280000000    33.2790000000
   87      S      22.2190000000    20.1620000000    33.5840000000
   88      C      22.2660000000    21.8540000000    34.2160000000
   89      H      22.8590000000    21.8680000000    35.1340000000
   90      H      22.8340000000    22.3240000000    33.4090000000
   91      H      21.3170000000    22.3630000000    34.4020000000
   92      O      21.5830000000    19.3920000000    34.6990000000
   93      C      25.3160000000     9.4730000000    31.1520000000
   94      H      24.5240000000    10.2180000000    31.0400000000
   95      H      26.2340000000    10.0250000000    30.9340000000
   96      H      25.2340000000     8.6240000000    30.4690000000
   97      S      25.3370000000     8.9010000000    32.8660000000
   98      C      26.4520000000     7.4820000000    32.9570000000
   99      H      27.3680000000     7.8600000000    33.4170000000
  100      H      25.9890000000     6.8020000000    33.6750000000
  101      H      26.5330000000     7.0060000000    31.9770000000
  102      O      23.9980000000     8.3540000000    33.2520000000
  103      C      20.0260000000    16.8030000000    25.3790000000
  104      H      20.8450000000    17.5260000000    25.4040000000
  105      H      19.3720000000    17.0400000000    24.5360000000
  106      H      19.4610000000    16.8880000000    26.3110000000
  107      S      20.4310000000    15.0430000000    25.3320000000
  108      C      20.8700000000    15.2040000000    23.5860000000
  109      H      21.5770000000    16.0120000000    23.3800000000
  110      H      21.3530000000    14.2590000000    23.3230000000
  111      H      19.9480000000    15.3220000000    23.0120000000
  112      O      19.0690000000    14.4320000000    25.4420000000
  113      C      20.7340000000     8.0620000000    26.4420000000
  114      H      20.4580000000     8.9820000000    26.9630000000
  115      H      21.4130000000     8.2830000000    25.6140000000
  116      H      19.9540000000     7.4990000000    25.9230000000
  117      S      21.7090000000     7.0790000000    27.6040000000
  118      C      22.5310000000     5.9090000000    26.4990000000
  119      H      21.7770000000     5.4320000000    25.8670000000
  120      H      23.2600000000     6.4600000000    25.9000000000
  121      H      22.9990000000     5.1550000000    27.1380000000
  122      O      20.7110000000     6.1490000000    28.2210000000
  123      C      29.7820000000    18.8410000000    27.9880000000
  124      H      29.8560000000    19.1870000000    29.0220000000
  125      H      30.8260000000    18.6140000000    27.7560000000
  126      H      29.5910000000    19.7190000000    27.3660000000
  127      S      28.6920000000    17.4070000000    27.8440000000
  128      C      27.2720000000    18.3130000000    28.4970000000
  129      H      27.0340000000    19.1730000000    27.8660000000
  130      H      26.3910000000    17.6690000000    28.5620000000
  131      H      27.5540000000    18.6600000000    29.4950000000
  132      O      29.0880000000    16.5190000000    28.9820000000
  133      C      17.2230000000    13.0850000000    30.9360000000
  134      H      16.4230000000    12.3620000000    31.1110000000
  135      H      17.9250000000    13.1920000000    31.7670000000
  136      H      16.7250000000    14.0270000000    30.6920000000
  137      S      18.0520000000    12.5750000000    29.4140000000
  138      C      18.8390000000    14.1830000000    29.1700000000
  139      H      19.4680000000    14.1970000000    28.2770000000
  140      H      18.1220000000    15.0080000000    29.1730000000
  141      H      19.5380000000    14.2990000000    30.0020000000
  142      O      16.9390000000    12.3720000000    28.4330000000
  143      C      21.4220000000    16.2150000000    33.2870000000
  144      H      22.5100000000    16.1060000000    33.2750000000
  145      H      20.9850000000    15.6880000000    32.4350000000
  146      H      21.0740000000    17.2500000000    33.2430000000
  147      S      20.8520000000    15.4750000000    34.8340000000
  148      C      21.0280000000    13.7480000000    34.3320000000
  149      H      22.0140000000    13.3290000000    34.5480000000
  150      H      20.3860000000    13.2570000000    35.0670000000
  151      H      20.8440000000    13.5290000000    33.2770000000
  152      O      19.3920000000    15.7220000000    35.0580000000
  153      C      29.7270000000    14.3100000000    31.7560000000
  154      H      30.7090000000    14.1330000000    32.2020000000
  155      H      29.8340000000    14.8420000000    30.8070000000
  156      H      29.0290000000    14.8330000000    32.4140000000
  157      S      29.1910000000    12.6270000000    31.3790000000
  158      C      29.6440000000    11.7450000000    32.8900000000
  159      H      29.8940000000    10.6830000000    32.8300000000
  160      H      30.5480000000    12.2340000000    33.2600000000
  161      H      28.8210000000    11.9160000000    33.5880000000
  162      O      30.2090000000    12.3190000000    30.3250000000
  163      C      13.0740000000    21.7240000000    31.2410000000
  164      H      12.6250000000    20.7360000000    31.3710000000
  165      H      12.8260000000    22.3930000000    32.0690000000
  166      H      12.9350000000    22.2310000000    30.2830000000
  167      S      14.8790000000    21.6370000000    31.2040000000
  168      C      15.0360000000    21.2010000000    32.9510000000
  169      H      14.6300000000    20.1860000000    32.9660000000
  170      H      16.0790000000    21.2130000000    33.2770000000
  171      H      14.3710000000    21.7460000000    33.6270000000
  172      O      15.2840000000    23.0690000000    31.0480000000
  173      C      17.7980000000    21.2050000000    25.3030000000
  174      H      17.8440000000    22.0740000000    24.6410000000
  175      H      16.7840000000    21.1130000000    25.7000000000
  176      H      18.4720000000    21.0110000000    26.1410000000
  177      S      18.0550000000    19.7440000000    24.2700000000
  178      C      17.2080000000    20.3960000000    22.8130000000
  179      H      17.1680000000    19.7160000000    21.9580000000
  180      H      16.2970000000    20.9230000000    23.1070000000
  181      H      17.9290000000    21.1900000000    22.6040000000
  182      O      17.0030000000    18.7570000000    24.6710000000
  183      C      21.7120000000    23.3080000000    30.5430000000
  184      H      20.9550000000    22.5560000000    30.7810000000
  185      H      22.7100000000    22.9330000000    30.7870000000
  186      H      21.5520000000    24.1590000000    31.2100000000
  187      S      21.7800000000    23.8870000000    28.8330000000
  188      C      23.2820000000    24.8500000000    29.1160000000
  189      H      23.1610000000    25.6620000000    29.8380000000
  190      H      24.0800000000    24.1940000000    29.4760000000
  191      H      23.6320000000    25.2890000000    28.1780000000
  192      O      20.6770000000    24.8930000000    28.7230000000
  193      C      24.8370000000    12.7660000000    32.6260000000
  194      H      24.2420000000    12.4360000000    31.7710000000
  195      H      25.6750000000    12.0770000000    32.7570000000
  196      H      24.2610000000    12.7690000000    33.5550000000
  197      S      25.5280000000    14.4070000000    32.3160000000
  198      C      25.9480000000    14.0970000000    30.5860000000
  199      H      25.0230000000    14.2780000000    30.0330000000
  200      H      26.8030000000    14.7570000000    30.4150000000
  201      H      26.3080000000    13.0780000000    30.4240000000
  202      O      26.7680000000    14.3480000000    33.1530000000
  203      C      27.7770000000    17.9020000000    23.3320000000
  204      H      28.0430000000    16.9580000000    23.8150000000
  205      H      26.7540000000    17.8370000000    22.9530000000
  206      H      28.4960000000    17.8550000000    22.5100000000
  207      S      28.2820000000    19.1780000000    24.5070000000
  208      C      27.8580000000    20.4760000000    23.3240000000
  209      H      26.7950000000    20.7100000000    23.4240000000
  210      H      28.5160000000    21.2980000000    23.6180000000
  211      H      28.1840000000    20.2790000000    22.3000000000
  212      O      29.7760000000    19.1830000000    24.4140000000
  213      C      25.3270000000    16.0270000000    25.9520000000
  214      H      26.0010000000    16.0630000000    25.0920000000
  215      H      25.9670000000    15.8410000000    26.8190000000
  216      H      24.6520000000    15.1710000000    25.8720000000
  217      S      24.4370000000    17.5970000000    26.0250000000
  218      C      23.9040000000    17.5300000000    24.3000000000
  219      H      23.9800000000    18.4530000000    23.7200000000
  220      H      24.5370000000    16.8680000000    23.7030000000
  221      H      22.8240000000    17.4170000000    24.1720000000
  222      O      25.5600000000    18.5850000000    25.9580000000
  223      C      17.4730000000    10.4100000000    25.6310000000
  224      H      16.7050000000     9.9440000000    25.0070000000
  225      H      17.5640000000     9.7490000000    26.4970000000
  226      H      17.2170000000    11.3860000000    26.0510000000
  227      S      18.9820000000    10.4860000000    24.6400000000
  228      C      18.2120000000    11.4420000000    23.3140000000
  229      H      18.0990000000    12.4730000000    23.6580000000
  230      H      18.7870000000    11.3700000000    22.3880000000
  231      H      17.2780000000    10.9110000000    23.1150000000
  232      O      18.9890000000     9.1090000000    24.0520000000
  233      C      20.7300000000     8.3500000000    30.8850000000
  234      H      21.1860000000     7.8470000000    31.7420000000
  235      H      19.7470000000     8.7470000000    31.1490000000
  236      H      20.5460000000     7.6310000000    30.0830000000
  237      S      21.6930000000     9.7740000000    30.3250000000
  238      C      21.5430000000    10.6020000000    31.9240000000
  239      H      22.1960000000    10.1610000000    32.6820000000
  240      H      21.8740000000    11.6380000000    31.8150000000
  241      H      20.5240000000    10.6250000000    32.3170000000
  242      O      20.7360000000    10.5670000000    29.4900000000
  243      C      15.7750000000    18.9590000000    28.2730000000
  244      H      15.4100000000    19.2440000000    27.2830000000
  245      H      14.9740000000    18.5150000000    28.8710000000
  246      H      16.3420000000    19.8010000000    28.6780000000
  247      S      16.9560000000    17.6590000000    27.8460000000
  248      C      15.9280000000    16.1840000000    27.6650000000
  249      H      15.4870000000    16.2390000000    26.6660000000
  250      H      16.6050000000    15.3280000000    27.7160000000
  251      H      15.1600000000    16.2190000000    28.4420000000
  252      O      17.7080000000    17.3060000000    29.0910000000
  253      C      26.3890000000    14.2490000000    22.8440000000
  254      H      25.8340000000    15.0090000000    23.3990000000
  255      H      26.5530000000    13.4430000000    23.5650000000
  256      H      27.2790000000    14.7010000000    22.3990000000
  257      S      25.2050000000    13.5920000000    21.6470000000
  258      C      25.0840000000    15.1810000000    20.7940000000
  259      H      24.3840000000    15.2420000000    19.9570000000
  260      H      24.8700000000    15.9660000000    21.5240000000
  261      H      25.9820000000    15.3300000000    20.1880000000
  262      O      24.0400000000    13.5870000000    22.5880000000
  263      C      25.1870000000    10.6380000000    37.5630000000
  264      H      26.2270000000    10.5400000000    37.8860000000
  265      H      24.7500000000    11.4300000000    38.1770000000
  266      H      24.6790000000     9.6730000000    37.6200000000
  267      S      24.9900000000    11.2200000000    35.8630000000
  268      C      26.3270000000    12.3810000000    36.2220000000
  269      H      26.3700000000    13.1270000000    35.4240000000
  270      H      26.1930000000    12.8740000000    37.1880000000
  271      H      27.2540000000    11.8020000000    36.2300000000
  272      O      23.7860000000    12.0990000000    36.0020000000
  273      C      25.1950000000    21.9490000000    27.4880000000
  274      H      25.3140000000    21.5950000000    28.5150000000
  275      H      24.1640000000    22.2630000000    27.3020000000
  276      H      25.3100000000    21.0840000000    26.8290000000
  277      S      26.3900000000    23.2290000000    27.0420000000
  278      C      27.9140000000    22.2720000000    26.8770000000
  279      H      28.6790000000    22.9890000000    27.1870000000
  280      H      28.0940000000    21.4880000000    27.6170000000
  281      H      28.0380000000    22.0490000000    25.8140000000
  282      O      26.6060000000    23.9340000000    28.3440000000
  283      C      27.7800000000    11.5830000000    26.0580000000
  284      H      28.6120000000    12.0100000000    25.4930000000
  285      H      28.1600000000    10.8540000000    26.7780000000
  286      H      27.0580000000    11.0100000000    25.4700000000
  287      S      26.7560000000    12.6900000000    27.0540000000
  288      C      28.2650000000    13.4270000000    27.7200000000
  289      H      28.8000000000    13.9230000000    26.9060000000
  290      H      28.0690000000    14.2690000000    28.3880000000
  291      H      28.8360000000    12.5460000000    28.0260000000
  292      O      26.0470000000    11.7800000000    28.0090000000
  293      C      22.3590000000    10.9740000000    26.6780000000
  294      H      23.1530000000    11.2230000000    27.3870000000
  295      H      21.3930000000    11.1000000000    27.1740000000
  296      H      22.4880000000     9.9270000000    26.3930000000
  297      S      22.7340000000    12.1260000000    25.3380000000
  298      C      24.4300000000    11.5690000000    25.0600000000
  299      H      24.7970000000    10.7890000000    25.7330000000
  300      H      24.5710000000    11.0580000000    24.1040000000
  301      H      25.0950000000    12.4350000000    25.0230000000
  302      O      22.8470000000    13.3810000000    26.1460000000
 ----------------------------------------------------------------
 Nuclear Repulsion Energy =       51066.83713246 hartrees
 There are      623 alpha and      623 beta electrons
 Requested basis set is 6-31+G(d)
 There are 995 shells and 2773 basis functions

 Total QAlloc Memory Limit  16000 MB
 Mega-Array Size      7821 MB
 MEM_STATIC part      8000 MB
 A cutoff of  1.0D-14 yielded 184230 shell pairs
 There are   1610065 function pairs
 Smallest overlap matrix eigenvalue = 3.81E-07
 Linear dependence detected in AO basis
 Tighter screening thresholds may be required for diffuse basis sets
 Use S2THRESH > 14 and THRESH = 14 in case of SCF convergence issues
 Number of orthogonalized atomic orbitals = 2771
 Maximum deviation from orthogonality = 2.418E-10

 Scale SEOQF with 1.000000e-03/1.000000e-03/1.000000e-03

 Standard Electronic Orientation quadrupole field applied
 Nucleus-field energy     =    -0.0000006586 hartrees
 Guess from superposition of atomic densities
 Warning:  Energy on first SCF cycle will be non-variational
 SAD guess density has 1246.000002 electrons

 -----------------------------------------------------------------------
  General SCF calculation program by
  Eric Jon Sundstrom, Paul Horn, Yuezhi Mao, Dmitri Zuev, Alec White,
  David Stuck, Shaama M.S., Shane Yost, Joonho Lee, David Small,
  Daniel Levine, Susi Lehtola, Hugh Burton, Evgeny Epifanovsky,
  Bang C. Huynh
 -----------------------------------------------------------------------
=================================================
        Doing projection-based embedding         
      F. Manby et al. JCTC, 8, 2564 (2012)       
=================================================

****************************************************
   Low-level SCF calculation for the whole system   
****************************************************
----------------------------------------------
 Summary of the low-level theory: 
 Exchange:     0.2000 Hartree-Fock + 0.0800 Slater + 0.7200 B88
 Correlation:  0.1900 VWN1RPA + 0.8100 LYP
 Using Euler-Maclaurin-Lebedev (75,302) quadrature formula
----------------------------------------------
 using 16 threads for integral computing
 -------------------------------------------------------
 OpenMP Integral computing Module                
 Release: version 2.0, May 2017, Q-Chem Inc. Pleasanton 
 -------------------------------------------------------
 A restricted SCF calculation will be
 performed using DIIS
 SCF converges when DIIS error is below 1.0e-08
 ---------------------------------------
  Cycle       Energy         DIIS error
 ---------------------------------------
    1  -15913.7931289085      1.33e-02  
    2  -15888.8098313448      2.47e-03  
    3  -15866.8921370106      5.13e-03  
    4  -15878.9377313767      2.65e-03  
    5  -15893.1222312747      9.13e-04  
    6  -15893.8117092110      2.67e-04  
    7  -15893.8423128063      1.72e-04  
    8  -15893.8666231092      4.41e-05  
    9  -15893.8678991242      2.52e-05  
   10  -15893.8683628251      9.28e-06  
   11  -15893.8684350396      3.00e-06  
   12  -15893.8684412281      1.44e-06  
   13  -15893.8684427001      4.79e-07  
   14  -15893.8684428789      1.52e-07  
   15  -15893.8684428978      5.17e-08  
   16  -15893.8684428996      2.30e-08  
   17  -15893.8684429000      6.12e-09  Convergence criterion met
 ---------------------------------------
 SCF time:   CPU 233102.39s  wall 14741.00s 
 SCF   energy in the final basis set =   -15893.8684429000
 Total energy in the final basis set =   -15893.8684429000

****************************************************
             Start embedding calculation            
****************************************************
----------------------------------------------
 Summary of the high-level theory: 
 Exchange:     0.2000 Hartree-Fock + 0.0800 Slater + 0.7200 B88
 Correlation:  0.1900 VWN1RPA + 0.8100 LYP
 Using Euler-Maclaurin-Lebedev (75,302) quadrature formula
----------------------------------------------
Doing R-in-R Embedding Calculation
Number of fragments: 2
Embedded fragment(s): 1 
NOcc for each fragment
           35
          588
NBasis for each fragment
          197
         2576
Variational space of the embedded problem: 
NOcc (active)  = 35
NOcc (fixed)   = 588
NVir (total)   = 2148
Read converged orbitals from disk
=========================================================
       Doing SPADE partition for the orbital space       
     D. CLaudino and N. Mayhall JCTC 15, 1053 (2019)     
=========================================================
SPADE singular values:
 1.0000 1.0000 1.0000 1.0000 1.0000 1.0000 1.0000 1.0000 1.0000 0.9999
 0.9998 0.9997 0.9997 0.9995 0.9995 0.9994 0.9991 0.9991 0.9988 0.9985
 0.9980 0.9968 0.9967 0.9960 0.9954 0.9950 0.9945 0.9938 0.9931 0.9914
 0.9911 0.9898 0.9876 0.9840 0.9769 0.2178 0.2111 0.1717 0.1630 0.1511
 0.1401 0.1335 0.1293 0.1171 0.1014 0.0936 0.0912 0.0813 0.0711 0.0621
 0.0584 0.0530 0.0494 0.0480 0.0446 0.0402 0.0383 0.0358 0.0331 0.0323
 0.0302 0.0278 0.0260 0.0256 0.0227 0.0214 0.0206 0.0201 0.0185 0.0171
 0.0163 0.0156 0.0144 0.0132 0.0129 0.0125 0.0118 0.0110 0.0103 0.0101
 0.0098 0.0089 0.0084 0.0081 0.0081 0.0073 0.0071 0.0067 0.0062 0.0061
 0.0057 0.0055 0.0053 0.0052 0.0050 0.0049 0.0047 0.0043 0.0041 0.0040
 0.0037 0.0036 0.0033 0.0031 0.0030 0.0029 0.0026 0.0026 0.0025 0.0024
 0.0023 0.0022 0.0021 0.0021 0.0019 0.0019 0.0018 0.0017 0.0017 0.0016
 0.0016 0.0014 0.0014 0.0013 0.0013 0.0013 0.0012 0.0012 0.0011 0.0011
 0.0010 0.0010 0.0010 0.0009 0.0009 0.0009 0.0008 0.0008 0.0008 0.0007
 0.0007 0.0007 0.0006 0.0006 0.0006 0.0006 0.0005 0.0005 0.0005 0.0004
 0.0004 0.0004 0.0004 0.0004 0.0004 0.0004 0.0003 0.0003 0.0003 0.0003
 0.0003 0.0003 0.0003 0.0003 0.0003 0.0002 0.0002 0.0002 0.0002 0.0002
 0.0002 0.0002 0.0002 0.0002 0.0002 0.0002 0.0002 0.0002 0.0001 0.0001
 0.0001 0.0001 0.0001 0.0001 0.0001 0.0001 0.0001 0.0001 0.0001 0.0001
 0.0001 0.0001 0.0001 0.0001 0.0001 0.0001 0.0000
Early stop requested!
588 environment occs will be part of frozen-core in future post-HF calculations
 
 --------------------------------------------------------------
 
                    Orbital Energies (a.u.)
 --------------------------------------------------------------
 
 Alpha MOs
 -- Occupied --
 -0.4974  -0.5361  -0.4898  -0.4757  -0.4548  -0.5237  -0.4651  -0.4693
 -0.4671  -0.4455  -0.4519  -0.4697  -0.4698  -0.4413  -0.5073  -0.4518
 -0.5257  -0.4662  -0.5502  -0.4404  -0.6370  -0.4827  -0.4809  -0.5828
 -0.5651  -0.5106  -0.5450  -0.5571  -0.5610  -0.6500  -0.5330  -0.5450
 -0.6427  -0.6141  -0.6241  -0.4864  -0.5295  -0.5541  -0.5982  -0.5909
 -0.5997  -0.5539  -0.5433  -0.5447  -0.5463  -0.5358  -0.6134  -0.5333
 -0.5610  -0.5322  -0.5922  -0.5250  -0.6049  -0.6884  -0.6048  -0.6433
 -0.7032  -0.6550  -0.6192  -0.6975  -0.7727  -0.6499  -0.8920  -0.8873
 -0.8228  -0.9005  -0.7327  -0.6626  -0.9464  -0.9134  -0.8283  -0.7422
 -1.1872  -0.9519  -0.9544  -1.4301  -0.9808  -2.0152  -1.2535  -0.8845
 -1.1133  -1.0508  -1.1299  -1.1360  -1.2225  -1.1260  -1.1197  -1.1220
 -0.9737  -1.2233  -0.9762  -1.4876  -0.7868  -1.2495  -1.3084  -1.1768
 -1.2013  -1.6278  -1.1338  -1.1978  -1.1234  -1.4729  -1.5778  -1.4527
 -1.6224  -1.4434  -1.4166  -1.1575  -1.7083  -1.6176  -1.6879  -1.4493
 -1.8842  -1.5212  -1.9630  -1.5567  -2.2073  -1.8021  -1.9233  -1.6213
 -1.2067  -1.3396  -1.5918  -1.2693  -1.1230  -1.5016  -1.3340  -1.4718
 -1.2269  -1.4379  -1.2961  -1.6547  -1.4741  -1.0909  -1.4131  -1.3977
 -1.6896  -1.6127  -1.3091  -1.5829  -1.9823  -1.6758  -1.3723  -1.9213
 -1.5385  -1.8788  -1.7667  -1.6212  -1.6318  -2.0289  -1.8025  -1.7776
 -1.7146  -1.6217  -1.8502  -1.8400  -1.9659  -2.3802  -2.1254  -1.8375
 -2.2763  -1.9949  -5.9932  -6.0002  -6.0277  -5.9951  -5.9948  -5.9922
 -5.9863  -5.9711  -5.9719  -5.9886  -5.9891  -5.9841  -5.9185  -5.9874
 -5.9962  -5.9775  -6.0036  -5.9718  -5.9489  -5.8455  -5.9877  -6.0510
 -5.9721  -5.9757  -5.8979  -5.9241  -5.8905  -5.8059  -5.9598  -5.9744
 -5.9694  -5.9400  -5.9585  -5.9531  -5.9633  -5.9113 -18.3636  -1.4255
 -2.0891  -1.9780 -11.3063 -34.8800  -4.4614  -3.4846  -4.6529  -3.7910
 -2.1516  -9.5380 -10.7178  -9.4772  -3.8604  -1.6298  -1.4450  -2.0792
 -1.4357  -2.4756 -12.0994  -1.2068 -20.5267  -5.6137  -1.3173  -1.7537
 -5.9290  -5.9106  -1.5745 -75.4958  -4.3183 -22.2032 -74.3043  -5.8020
 -2.1602  -2.6865  -7.1525  -4.7568  -1.1969  -6.5049  -7.4646  -5.9679
 -6.8917  -4.4262  -9.8670  -2.4547  -2.2481  -7.2202  -1.9898  -0.9686
-20.0822  -1.2061  -9.8148 -10.4026  -0.9643 -11.5370  -3.0591  -1.2481
-10.8046  -4.6849  -2.3586  -4.8743  -4.2333 -77.1922  -2.4608 -75.8777
 -8.7998  -1.5536  -5.0363  -1.9584  -7.8252  -2.9457  -9.7892  -4.6676
 -3.4464  -7.0018  -4.9401  -7.1378  -1.3765  -1.6621  -5.3584  -1.4417
 -0.8484 -11.9935 -24.6482 -18.3465  -0.8802  -1.3972  -6.3017 -12.1991
 -5.3104  -1.3093 -21.1404 -52.3875  -6.6432  -6.2430  -7.2065  -0.9755
 -3.5225 -35.9342 -32.0751 -11.8057 -10.9472  -7.7354  -0.9761  -9.4558
 -1.6863  -1.3459  -1.7159  -0.9235 -17.3084  -0.9009  -0.9485 -56.4683
-17.7417  -9.1703  -0.8293  -2.4054  -8.4535 -11.7484 -60.8729 -12.7874
-59.5008 -17.5536  -8.0628  -4.0571  -3.7591  -8.5275  -5.5742  -7.2808
 -4.7444  -6.5154  -4.9924  -3.8224  -2.6082  -4.1170 -12.7284  -7.3186
 -3.8676  -6.1705  -5.7636 -11.0023  -3.2999 -16.7199 -26.3890  -2.9046
-18.7990  -5.3311 -19.5025 -14.6901  -5.3967  -4.8466  -2.1634  -8.7672
-29.2715  -5.8230  -7.0805 -14.3321  -6.1200  -5.8204  -7.0030  -7.6863
 -7.2156  -5.3214  -7.4924  -8.9435  -2.5394 -11.3605  -7.2620 -10.7303
 -6.2135  -7.5158  -8.2420  -2.4573  -4.3985  -3.9184  -3.0396  -0.7407
 -4.6689  -7.9169  -3.1603 -13.8772  -4.5267  -1.1391  -2.7677  -9.7783
 -3.8062  -9.4923  -3.2244  -1.6301  -7.3381  -7.9813  -6.1234 -10.9631
-23.7914 -11.2554 -31.7387  -7.3118  -4.2808 -37.1590 -21.6056 -13.7619
 -3.1769  -8.3735 -11.2878  -2.1697 -10.0373  -3.1170  -6.0132  -6.5023
 -2.8201  -6.3733  -5.5891 -10.6144 -12.4591 -10.0151  -8.7195  -8.1419
 -6.7651  -7.5041  -4.3726  -5.0180  -5.8510 -10.1102  -5.1621  -6.8400
 -3.1296  -3.6565  -7.5079  -6.0064  -2.7870 -13.8660 -13.0085  -3.4830
 -9.9468  -5.7125  -8.1432  -5.5611  -3.0795 -13.7083  -4.6439  -8.8588
 -1.3353  -3.3183  -6.6311  -5.7697  -8.3133  -3.5762  -3.0712  -7.1628
 -5.3310 -25.2849 -10.8140  -6.2880 -12.4782 -15.7410  -1.3877  -9.9798
 -9.3323 -22.6842  -3.8750 -21.0823  -5.0067  -6.9016  -8.2427  -7.1640
-16.9250  -6.2009  -7.5067 -15.1628  -8.7245  -7.1793  -5.9472  -9.3160
 -6.7965  -2.5650  -4.5309  -5.0067  -8.8064  -3.7326 -11.3314  -4.2082
 -3.5660 -21.2402  -3.0931  -9.5959  -1.5487 -50.6350 -11.7094 -33.1948
-31.3941  -5.3489  -3.7923  -5.7745  -4.2262  -7.7613  -4.6672  -1.3749
 -7.0378  -8.4475  -7.0823  -3.1240  -5.1100  -5.8248 -22.8127  -4.7753
 -6.1215 -10.5783 -22.5727 -44.4771 -24.8090 -23.3018  -0.7672  -2.9056
 -3.8727 -65.0705 -10.3809  -4.6240  -5.4949  -2.6291  -2.9687 -16.9836
-35.1679  -9.4918  -5.6122 -39.5308 -37.2732  -6.3336  -6.7044  -3.7653
-16.6148 -77.2988  -4.0643 -82.2475  -5.1208  -4.2347  -7.5062 -11.7364
 -8.3927  -7.1623 -20.6597 -13.1424 -19.4487  -3.6313  -7.9909 -10.8770
 -4.9240  -8.8626  -8.8829 -10.9826 -15.0297 -33.0906 -25.6384  -4.4569
 -6.7815  -4.6871  -9.3163 -28.0911 -11.2163 -52.7133 -31.4898  -9.8325
 -8.5051  -1.3954 -16.0428  -4.6623  -9.8145 -18.2952  -4.2840 -18.4822
 -3.7324 -13.8922 -14.2546 -14.4227  -8.7292  -4.3167  -3.8230  -6.7748
 -2.8426  -7.4844  -4.0882 -21.3907  -2.8505  -3.4431 -15.6448  -8.8702
 -6.0469 -37.2750  -6.9259 -19.8522 -11.1871 -12.5200 -10.5942 -10.3130
-13.3097 -14.1029 -10.4354 -10.2412 -11.3419  -0.8447  -0.7237  -0.6356
 -0.7944  -0.6457  -0.7695  -0.5889  -0.6070  -0.8432  -0.4854  -0.4532
 -0.4064  -0.3872  -0.4597  -0.5093  -0.4294  -0.4288  -0.4613  -0.4070
 -0.4382  -0.4671  -0.4596  -0.4727  -0.4888  -0.5071  -0.5706
 -- Virtual --
 -0.0568  -0.0469  -0.0420  -0.0405  -0.0326  -0.0302  -0.0299  -0.0268
 -0.0257  -0.0248  -0.0229  -0.0220  -0.0207  -0.0194  -0.0180  -0.0164
 -0.0152  -0.0138  -0.0124  -0.0120  -0.0095  -0.0087  -0.0081  -0.0064
 -0.0061  -0.0044  -0.0043  -0.0029  -0.0017  -0.0011  -0.0002   0.0001
  0.0016   0.0020   0.0028   0.0037   0.0043   0.0046   0.0065   0.0077
  0.0077   0.0088   0.0095   0.0098   0.0105   0.0108   0.0110   0.0129
  0.0136   0.0141   0.0148   0.0152   0.0157   0.0163   0.0166   0.0179
  0.0181   0.0188   0.0200   0.0208   0.0211   0.0222   0.0235   0.0239
  0.0248   0.0261   0.0270   0.0272   0.0279   0.0282   0.0289   0.0295
  0.0302   0.0308   0.0318   0.0320   0.0334   0.0337   0.0344   0.0351
  0.0356   0.0359   0.0363   0.0374   0.0380   0.0387   0.0388   0.0399
  0.0406   0.0414   0.0423   0.0430   0.0430   0.0435   0.0442   0.0448
  0.0451   0.0456   0.0460   0.0468   0.0472   0.0476   0.0478   0.0487
  0.0494   0.0504   0.0506   0.0512   0.0520   0.0524   0.0526   0.0535
  0.0543   0.0547   0.0551   0.0558   0.0571   0.0575   0.0577   0.0583
  0.0595   0.0602   0.0608   0.0611   0.0621   0.0631   0.0631   0.0639
  0.0642   0.0645   0.0649   0.0658   0.0666   0.0673   0.0676   0.0679
  0.0684   0.0693   0.0700   0.0705   0.0713   0.0714   0.0721   0.0725
  0.0726   0.0738   0.0747   0.0750   0.0751   0.0759   0.0765   0.0772
  0.0773   0.0779   0.0796   0.0797   0.0801   0.0805   0.0817   0.0820
  0.0824   0.0833   0.0836   0.0845   0.0853   0.0854   0.0864   0.0870
  0.0872   0.0875   0.0884   0.0891   0.0896   0.0898   0.0902   0.0907
  0.0923   0.0925   0.0933   0.0940   0.0943   0.0949   0.0955   0.0961
  0.0962   0.0975   0.0976   0.0985   0.0992   0.1001   0.1005   0.1015
  0.1026   0.1029   0.1034   0.1041   0.1048   0.1052   0.1059   0.1062
  0.1071   0.1074   0.1080   0.1087   0.1091   0.1096   0.1103   0.1107
  0.1118   0.1122   0.1123   0.1136   0.1140   0.1145   0.1150   0.1157
  0.1163   0.1169   0.1178   0.1190   0.1193   0.1201   0.1203   0.1207
  0.1225   0.1228   0.1235   0.1238   0.1243   0.1253   0.1255   0.1263
  0.1269   0.1277   0.1285   0.1292   0.1297   0.1300   0.1303   0.1315
  0.1325   0.1333   0.1335   0.1337   0.1344   0.1346   0.1358   0.1363
  0.1366   0.1372   0.1377   0.1380   0.1391   0.1396   0.1400   0.1406
  0.1413   0.1416   0.1426   0.1431   0.1441   0.1446   0.1453   0.1456
  0.1461   0.1468   0.1469   0.1485   0.1490   0.1498   0.1502   0.1510
  0.1514   0.1520   0.1527   0.1527   0.1533   0.1534   0.1548   0.1549
  0.1560   0.1563   0.1568   0.1571   0.1578   0.1582   0.1592   0.1594
  0.1600   0.1608   0.1621   0.1627   0.1630   0.1635   0.1638   0.1645
  0.1650   0.1653   0.1656   0.1658   0.1671   0.1676   0.1678   0.1688
  0.1698   0.1700   0.1706   0.1711   0.1714   0.1725   0.1730   0.1738
  0.1743   0.1746   0.1751   0.1754   0.1767   0.1771   0.1772   0.1782
  0.1790   0.1793   0.1801   0.1805   0.1810   0.1812   0.1815   0.1826
  0.1830   0.1837   0.1839   0.1849   0.1858   0.1860   0.1861   0.1867
  0.1869   0.1879   0.1887   0.1893   0.1897   0.1910   0.1916   0.1920
  0.1922   0.1924   0.1927   0.1937   0.1943   0.1944   0.1953   0.1963
  0.1969   0.1975   0.1983   0.1989   0.1994   0.2000   0.2003   0.2014
  0.2019   0.2027   0.2031   0.2034   0.2039   0.2051   0.2058   0.2062
  0.2069   0.2072   0.2076   0.2086   0.2087   0.2094   0.2098   0.2105
  0.2107   0.2117   0.2120   0.2129   0.2134   0.2140   0.2152   0.2153
  0.2166   0.2167   0.2177   0.2181   0.2185   0.2188   0.2192   0.2199
  0.2205   0.2212   0.2215   0.2219   0.2226   0.2231   0.2236   0.2237
  0.2247   0.2257   0.2265   0.2271   0.2278   0.2282   0.2289   0.2294
  0.2303   0.2309   0.2313   0.2317   0.2322   0.2328   0.2340   0.2345
  0.2360   0.2363   0.2370   0.2377   0.2383   0.2386   0.2395   0.2399
  0.2402   0.2409   0.2421   0.2429   0.2434   0.2436   0.2446   0.2448
  0.2456   0.2465   0.2469   0.2477   0.2484   0.2491   0.2492   0.2499
  0.2509   0.2515   0.2521   0.2523   0.2533   0.2537   0.2549   0.2558
  0.2564   0.2570   0.2576   0.2592   0.2598   0.2603   0.2607   0.2611
  0.2621   0.2624   0.2635   0.2641   0.2644   0.2650   0.2663   0.2664
  0.2675   0.2677   0.2683   0.2692   0.2698   0.2706   0.2717   0.2721
  0.2730   0.2734   0.2745   0.2754   0.2761   0.2765   0.2775   0.2778
  0.2790   0.2796   0.2801   0.2809   0.2817   0.2833   0.2840   0.2843
  0.2858   0.2859   0.2872   0.2876   0.2883   0.2888   0.2898   0.2902
  0.2915   0.2918   0.2921   0.2936   0.2938   0.2943   0.2949   0.2958
  0.2964   0.2981   0.2992   0.2995   0.3002   0.3008   0.3014   0.3023
  0.3034   0.3035   0.3039   0.3049   0.3063   0.3069   0.3081   0.3083
  0.3091   0.3103   0.3112   0.3117   0.3121   0.3131   0.3142   0.3146
  0.3153   0.3159   0.3174   0.3178   0.3182   0.3194   0.3197   0.3204
  0.3212   0.3220   0.3226   0.3233   0.3246   0.3256   0.3265   0.3269
  0.3281   0.3287   0.3292   0.3299   0.3318   0.3321   0.3325   0.3335
  0.3344   0.3348   0.3353   0.3366   0.3374   0.3376   0.3379   0.3397
  0.3402   0.3413   0.3421   0.3429   0.3440   0.3446   0.3456   0.3462
  0.3473   0.3491   0.3493   0.3500   0.3509   0.3515   0.3518   0.3533
  0.3534   0.3547   0.3551   0.3559   0.3566   0.3580   0.3586   0.3591
  0.3600   0.3610   0.3617   0.3631   0.3632   0.3645   0.3652   0.3658
  0.3669   0.3673   0.3678   0.3681   0.3694   0.3704   0.3718   0.3720
  0.3727   0.3734   0.3745   0.3749   0.3764   0.3766   0.3780   0.3786
  0.3789   0.3805   0.3812   0.3817   0.3825   0.3830   0.3838   0.3849
  0.3852   0.3855   0.3874   0.3875   0.3888   0.3897   0.3909   0.3911
  0.3913   0.3927   0.3928   0.3941   0.3948   0.3951   0.3968   0.3980
  0.3985   0.3992   0.3994   0.4012   0.4015   0.4021   0.4035   0.4050
  0.4057   0.4062   0.4074   0.4082   0.4089   0.4097   0.4116   0.4119
  0.4124   0.4126   0.4137   0.4139   0.4154   0.4159   0.4167   0.4186
  0.4193   0.4198   0.4210   0.4226   0.4238   0.4247   0.4256   0.4273
  0.4273   0.4287   0.4288   0.4303   0.4312   0.4325   0.4327   0.4347
  0.4356   0.4370   0.4371   0.4390   0.4401   0.4406   0.4416   0.4420
  0.4451   0.4459   0.4475   0.4477   0.4489   0.4491   0.4515   0.4531
  0.4533   0.4559   0.4571   0.4578   0.4595   0.4611   0.4613   0.4621
  0.4633   0.4649   0.4661   0.4673   0.4685   0.4694   0.4710   0.4717
  0.4735   0.4737   0.4769   0.4781   0.4786   0.4793   0.4814   0.4824
  0.4830   0.4850   0.4862   0.4875   0.4889   0.4891   0.4909   0.4920
  0.4927   0.4939   0.4953   0.4975   0.4995   0.5003   0.5021   0.5033
  0.5051   0.5061   0.5083   0.5087   0.5135   0.5147   0.5164   0.5176
  0.5188   0.5191   0.5200   0.5211   0.5223   0.5228   0.5236   0.5254
  0.5283   0.5292   0.5322   0.5343   0.5355   0.5380   0.5399   0.5416
  0.5427   0.5435   0.5447   0.5453   0.5466   0.5482   0.5497   0.5522
  0.5534   0.5556   0.5568   0.5574   0.5594   0.5612   0.5632   0.5635
  0.5656   0.5665   0.5677   0.5688   0.5700   0.5723   0.5748   0.5763
  0.5790   0.5809   0.5815   0.5822   0.5831   0.5842   0.5859   0.5873
  0.5884   0.5896   0.5905   0.5914   0.5928   0.5941   0.5965   0.5969
  0.5983   0.5988   0.6012   0.6020   0.6028   0.6033   0.6050   0.6057
  0.6074   0.6088   0.6099   0.6110   0.6133   0.6144   0.6156   0.6170
  0.6177   0.6187   0.6202   0.6220   0.6234   0.6255   0.6259   0.6271
  0.6286   0.6292   0.6302   0.6313   0.6327   0.6330   0.6354   0.6357
  0.6373   0.6387   0.6391   0.6404   0.6409   0.6415   0.6426   0.6428
  0.6442   0.6453   0.6468   0.6484   0.6490   0.6505   0.6515   0.6525
  0.6537   0.6553   0.6555   0.6576   0.6585   0.6591   0.6601   0.6607
  0.6631   0.6636   0.6642   0.6660   0.6666   0.6672   0.6682   0.6691
  0.6703   0.6714   0.6720   0.6730   0.6744   0.6753   0.6765   0.6779
  0.6789   0.6798   0.6800   0.6805   0.6820   0.6833   0.6842   0.6869
  0.6876   0.6885   0.6896   0.6902   0.6930   0.6936   0.6942   0.6951
  0.6958   0.6966   0.6990   0.7000   0.7009   0.7027   0.7034   0.7045
  0.7048   0.7055   0.7064   0.7083   0.7089   0.7097   0.7100   0.7108
  0.7118   0.7131   0.7142   0.7166   0.7178   0.7183   0.7198   0.7217
  0.7232   0.7254   0.7260   0.7268   0.7276   0.7283   0.7301   0.7314
  0.7333   0.7338   0.7350   0.7360   0.7383   0.7387   0.7396   0.7418
  0.7423   0.7439   0.7445   0.7451   0.7464   0.7482   0.7499   0.7507
  0.7522   0.7540   0.7553   0.7564   0.7578   0.7595   0.7601   0.7605
  0.7626   0.7638   0.7651   0.7669   0.7671   0.7693   0.7720   0.7726
  0.7736   0.7749   0.7788   0.7794   0.7804   0.7827   0.7846   0.7852
  0.7858   0.7874   0.7880   0.7904   0.7915   0.7934   0.7937   0.7946
  0.7970   0.7979   0.7992   0.8006   0.8014   0.8042   0.8055   0.8067
  0.8077   0.8085   0.8103   0.8112   0.8131   0.8136   0.8143   0.8164
  0.8173   0.8191   0.8196   0.8220   0.8230   0.8251   0.8262   0.8264
  0.8295   0.8307   0.8331   0.8336   0.8341   0.8355   0.8371   0.8381
  0.8387   0.8407   0.8421   0.8432   0.8440   0.8443   0.8461   0.8466
  0.8492   0.8504   0.8513   0.8529   0.8538   0.8542   0.8550   0.8569
  0.8581   0.8592   0.8609   0.8632   0.8637   0.8664   0.8673   0.8688
  0.8699   0.8712   0.8726   0.8735   0.8745   0.8749   0.8777   0.8780
  0.8795   0.8807   0.8824   0.8835   0.8852   0.8868   0.8876   0.8882
  0.8903   0.8916   0.8922   0.8930   0.8937   0.8947   0.8956   0.8968
  0.8973   0.8984   0.9017   0.9021   0.9029   0.9039   0.9048   0.9056
  0.9070   0.9071   0.9085   0.9093   0.9096   0.9115   0.9126   0.9135
  0.9158   0.9165   0.9175   0.9188   0.9194   0.9205   0.9219   0.9228
  0.9240   0.9254   0.9273   0.9292   0.9298   0.9318   0.9322   0.9346
  0.9357   0.9368   0.9379   0.9390   0.9410   0.9420   0.9440   0.9443
  0.9449   0.9455   0.9463   0.9482   0.9488   0.9494   0.9509   0.9519
  0.9530   0.9542   0.9552   0.9568   0.9577   0.9596   0.9605   0.9610
  0.9631   0.9638   0.9650   0.9664   0.9670   0.9679   0.9686   0.9704
  0.9723   0.9727   0.9736   0.9751   0.9757   0.9758   0.9766   0.9783
  0.9788   0.9803   0.9807   0.9820   0.9835   0.9838   0.9845   0.9866
  0.9870   0.9882   0.9894   0.9900   0.9917   0.9931   0.9943   0.9951
  0.9960   0.9971   0.9978   0.9983   0.9990   1.0000   1.0016   1.0029
  1.0038   1.0039   1.0064   1.0068   1.0076   1.0086   1.0089   1.0107
  1.0118   1.0123   1.0133   1.0146   1.0156   1.0171   1.0175   1.0195
  1.0199   1.0205   1.0222   1.0238   1.0242   1.0247   1.0261   1.0263
  1.0282   1.0297   1.0299   1.0318   1.0330   1.0342   1.0353   1.0359
  1.0371   1.0372   1.0397   1.0401   1.0410   1.0423   1.0437   1.0442
  1.0453   1.0460   1.0485   1.0492   1.0500   1.0522   1.0534   1.0544
  1.0544   1.0557   1.0564   1.0574   1.0582   1.0589   1.0605   1.0614
  1.0641   1.0646   1.0660   1.0672   1.0676   1.0692   1.0709   1.0729
  1.0738   1.0755   1.0774   1.0775   1.0784   1.0796   1.0813   1.0825
  1.0839   1.0847   1.0859   1.0867   1.0879   1.0897   1.0910   1.0920
  1.0930   1.0946   1.0970   1.0976   1.0994   1.0999   1.1013   1.1028
  1.1033   1.1043   1.1069   1.1074   1.1089   1.1093   1.1109   1.1123
  1.1133   1.1142   1.1156   1.1158   1.1178   1.1192   1.1203   1.1214
  1.1233   1.1250   1.1255   1.1265   1.1293   1.1300   1.1308   1.1320
  1.1326   1.1357   1.1364   1.1385   1.1401   1.1410   1.1419   1.1425
  1.1446   1.1463   1.1465   1.1477   1.1488   1.1511   1.1524   1.1534
  1.1543   1.1556   1.1564   1.1570   1.1598   1.1602   1.1619   1.1638
  1.1642   1.1653   1.1670   1.1672   1.1695   1.1701   1.1727   1.1729
  1.1757   1.1767   1.1775   1.1789   1.1809   1.1811   1.1839   1.1841
  1.1850   1.1884   1.1894   1.1903   1.1922   1.1937   1.1951   1.1977
  1.1983   1.1990   1.2014   1.2017   1.2035   1.2035   1.2059   1.2075
  1.2086   1.2108   1.2130   1.2157   1.2165   1.2170   1.2209   1.2215
  1.2232   1.2250   1.2277   1.2285   1.2314   1.2325   1.2334   1.2349
  1.2370   1.2378   1.2385   1.2412   1.2438   1.2464   1.2481   1.2520
  1.2535   1.2554   1.2584   1.2599   1.2610   1.2638   1.2644   1.2658
  1.2682   1.2713   1.2722   1.2743   1.2765   1.2788   1.2808   1.2826
  1.2850   1.2878   1.2889   1.2903   1.2914   1.2967   1.2977   1.2994
  1.3030   1.3046   1.3055   1.3066   1.3091   1.3100   1.3135   1.3143
  1.3173   1.3193   1.3211   1.3238   1.3268   1.3283   1.3315   1.3325
  1.3337   1.3351   1.3383   1.3401   1.3419   1.3426   1.3456   1.3485
  1.3500   1.3532   1.3563   1.3572   1.3577   1.3608   1.3613   1.3630
  1.3675   1.3676   1.3690   1.3713   1.3718   1.3741   1.3745   1.3758
  1.3764   1.3770   1.3787   1.3800   1.3809   1.3834   1.3842   1.3853
  1.3862   1.3885   1.3912   1.3914   1.3920   1.3939   1.3944   1.3950
  1.3976   1.3992   1.4006   1.4009   1.4029   1.4044   1.4047   1.4058
  1.4078   1.4088   1.4115   1.4132   1.4145   1.4168   1.4177   1.4180
  1.4192   1.4213   1.4225   1.4243   1.4247   1.4260   1.4295   1.4309
  1.4320   1.4333   1.4343   1.4358   1.4376   1.4386   1.4394   1.4409
  1.4420   1.4442   1.4461   1.4479   1.4493   1.4504   1.4513   1.4531
  1.4535   1.4557   1.4570   1.4595   1.4602   1.4618   1.4641   1.4651
  1.4662   1.4678   1.4727   1.4737   1.4753   1.4771   1.4773   1.4790
  1.4826   1.4831   1.4866   1.4887   1.4905   1.4910   1.4948   1.4960
  1.4979   1.4991   1.5029   1.5043   1.5056   1.5076   1.5090   1.5113
  1.5120   1.5147   1.5163   1.5191   1.5210   1.5230   1.5251   1.5268
  1.5289   1.5321   1.5341   1.5364   1.5401   1.5410   1.5421   1.5428
  1.5451   1.5464   1.5497   1.5545   1.5573   1.5607   1.5631   1.5659
  1.5723   1.5734   1.5753   1.5794   1.5802   1.5829   1.5862   1.5889
  1.5925   1.5973   1.5996   1.6028   1.6039   1.6061   1.6124   1.6165
  1.6173   1.6249   1.6263   1.6335   1.6354   1.6371   1.6434   1.6471
  1.6509   1.6528   1.6537   1.6555   1.6576   1.6598   1.6618   1.6644
  1.6649   1.6665   1.6674   1.6689   1.6724   1.6737   1.6744   1.6775
  1.6784   1.6804   1.6807   1.6818   1.6831   1.6841   1.6853   1.6859
  1.6882   1.6895   1.6903   1.6917   1.6939   1.6954   1.6959   1.6971
  1.6979   1.6987   1.7002   1.7012   1.7032   1.7033   1.7043   1.7065
  1.7070   1.7077   1.7088   1.7099   1.7109   1.7115   1.7125   1.7144
  1.7168   1.7178   1.7187   1.7196   1.7226   1.7239   1.7248   1.7258
  1.7271   1.7275   1.7299   1.7300   1.7329   1.7358   1.7365   1.7387
  1.7402   1.7405   1.7411   1.7418   1.7438   1.7458   1.7474   1.7475
  1.7485   1.7503   1.7518   1.7545   1.7561   1.7577   1.7584   1.7588
  1.7604   1.7617   1.7631   1.7643   1.7656   1.7661   1.7682   1.7701
  1.7712   1.7721   1.7736   1.7755   1.7766   1.7792   1.7808   1.7828
  1.7839   1.7863   1.7886   1.7903   1.7923   1.7960   1.7973   1.7989
  1.8003   1.8021   1.8025   1.8048   1.8060   1.8074   1.8085   1.8088
  1.8121   1.8152   1.8161   1.8206   1.8210   1.8236   1.8254   1.8305
  1.8341   1.8352   1.8367   1.8376   1.8409   1.8417   1.8456   1.8477
  1.8486   1.8504   1.8525   1.8545   1.8559   1.8596   1.8606   1.8630
  1.8657   1.8662   1.8670   1.8717   1.8730   1.8738   1.8748   1.8759
  1.8778   1.8792   1.8805   1.8814   1.8842   1.8845   1.8877   1.8881
  1.8894   1.8917   1.8938   1.8952   1.8959   1.8991   1.9003   1.9015
  1.9024   1.9032   1.9041   1.9049   1.9058   1.9069   1.9080   1.9090
  1.9096   1.9122   1.9130   1.9145   1.9166   1.9177   1.9184   1.9205
  1.9223   1.9229   1.9241   1.9279   1.9283   1.9292   1.9306   1.9321
  1.9341   1.9351   1.9384   1.9387   1.9406   1.9421   1.9442   1.9454
  1.9462   1.9509   1.9528   1.9542   1.9558   1.9590   1.9601   1.9609
  1.9652   1.9716   1.9767   1.9787   1.9812   1.9857   1.9882   1.9919
  2.0009   2.0036   2.0082   2.0202   2.0290   2.0303   2.0334   2.0372
  2.0388   2.0420   2.0436   2.0449   2.0454   2.0471   2.0486   2.0539
  2.0570   2.0604   2.0608   2.0627   2.0641   2.0652   2.0656   2.0674
  2.0697   2.0712   2.0733   2.0744   2.0767   2.0774   2.0783   2.0823
  2.0843   2.0867   2.0873   2.0899   2.0906   2.0922   2.0938   2.0952
  2.0957   2.0963   2.0988   2.1011   2.1021   2.1036   2.1047   2.1064
  2.1070   2.1074   2.1095   2.1111   2.1121   2.1125   2.1140   2.1147
  2.1167   2.1173   2.1213   2.1262   2.1290   2.1297   2.1321   2.1332
  2.1358   2.1390   2.1480   2.1542   2.1568   2.1600   2.1637   2.1671
  2.1693   2.1708   2.1726   2.1734   2.1755   2.1782   2.1792   2.1805
  2.1837   2.1852   2.1867   2.1896   2.1907   2.1927   2.1942   2.1950
  2.2016   2.2029   2.2039   2.2061   2.2066   2.2084   2.2111   2.2126
  2.2134   2.2150   2.2155   2.2190   2.2209   2.2240   2.2242   2.2255
  2.2272   2.2285   2.2297   2.2314   2.2323   2.2347   2.2355   2.2370
  2.2385   2.2389   2.2401   2.2409   2.2415   2.2419   2.2441   2.2450
  2.2454   2.2458   2.2474   2.2489   2.2493   2.2508   2.2514   2.2524
  2.2533   2.2541   2.2555   2.2560   2.2566   2.2579   2.2580   2.2594
  2.2608   2.2620   2.2632   2.2643   2.2655   2.2672   2.2690   2.2694
  2.2700   2.2714   2.2722   2.2731   2.2755   2.2760   2.2769   2.2776
  2.2787   2.2794   2.2806   2.2812   2.2820   2.2828   2.2834   2.2843
  2.2854   2.2860   2.2865   2.2880   2.2884   2.2889   2.2900   2.2914
  2.2925   2.2953   2.2973   2.2976   2.2986   2.2995   2.3002   2.3007
  2.3019   2.3027   2.3035   2.3040   2.3044   2.3060   2.3070   2.3082
  2.3103   2.3110   2.3121   2.3130   2.3135   2.3148   2.3156   2.3163
  2.3188   2.3198   2.3203   2.3205   2.3216   2.3232   2.3254   2.3266
  2.3276   2.3291   2.3300   2.3321   2.3328   2.3345   2.3361   2.3379
  2.3391   2.3406   2.3413   2.3423   2.3436   2.3463   2.3491   2.3507
  2.3541   2.3544   2.3553   2.3560   2.3591   2.3606   2.3635   2.3649
  2.3664   2.3676   2.3704   2.3713   2.3743   2.3791   2.3805   2.3822
  2.3849   2.3902   2.3919   2.3978   2.4018   2.4043   2.4090   2.4147
  2.4166   2.4177   2.4221   2.4332   2.4364   2.4432   2.4657   2.4876
  2.4953   2.5143   2.5288   2.6067   2.6728   2.7040   2.7520   2.7723
  2.8116   2.8176   2.8218   2.8238   2.8281   2.8328   2.8359   2.8392
  2.8425   2.8444   2.8466   2.8499   2.8505   2.8516   2.8529   2.8541
  2.8570   2.8601   2.8623   2.8637   2.8657   2.8692   2.8728   2.8745
  2.8782   2.8840   2.8914   2.8929   2.8937   2.9007   2.9134   2.9213
  2.9612   3.0957   3.2643   3.9474   3.9497   3.9552   3.9614   3.9622
  3.9657   3.9697   3.9740   3.9763   3.9764   3.9785   3.9797   3.9828
  3.9855   3.9868   3.9907   3.9956   4.0023   4.0064   4.0088   4.0105
  4.0112   4.0171   4.0181   4.0285   4.0413   4.0567   4.0604   4.1950
  4.2133   4.2262   4.2340   4.2359   4.2395   4.2470   4.2488   4.2497
  4.2502   4.2527   4.2536   4.2550   4.2573   4.2610   4.2626   4.2651
  4.2687   4.2713   4.2730   4.2752   4.2771   4.2782   4.2833   4.2844
  4.2856   4.2868   4.2893   4.2934   4.2939   4.2990   4.3000   4.3025
  4.3038   4.3049   4.3083   4.3095   4.3114   4.3157   4.3181   4.3189
  4.3227   4.3247   4.3275   4.3315   4.3368   4.3389   4.3413   4.3429
  4.3465   4.3484   4.3507   4.3539   4.3564   4.3610   4.3648   4.3654
  4.3670   4.3716   4.3727   4.3742   4.3840   4.3858   4.3960   4.3993
  4.4035   4.4068   4.4084   4.4172   4.4261   4.4333   4.4392   4.4514
  4.4529   4.4622   4.4695   4.4735   4.4957   4.5068   4.5136   4.5294
  4.5447   4.5556   4.5705   4.6018   4.6098   4.6379   4.6636   4.6902
  4.7362   4.7937   4.8075   4.9680
 --------------------------------------------------------------
 
          Ground-State Mulliken Net Atomic Charges

     Atom                 Charge (a.u.)
  ----------------------------------------
      1 C                    -0.028099
      2 C                    -0.974518
      3 C                    -0.512561
      4 C                     0.038162
      5 C                    -0.372319
      6 C                    -1.292789
      7 H                     0.212241
      8 H                     0.236134
      9 H                     0.208568
     10 H                     0.278467
     11 H                     0.207027
     12 H                     0.213196
     13 H                     0.223436
     14 H                     0.199452
     15 H                     0.233168
     16 H                     0.196642
     17 H                     0.177578
     18 N                     0.519902
     19 H                     0.519573
     20 C                    -0.123929
     21 H                     0.187697
     22 O                    -0.238404
     23 C                    -0.877020
     24 H                     0.235185
     25 H                     0.226403
     26 H                     0.274422
     27 S                     0.885838
     28 C                    -0.820746
     29 H                     0.264722
     30 H                     0.232024
     31 H                     0.285894
     32 O                    -0.710511
     33 C                    -0.791510
     34 H                     0.265844
     35 H                     0.263004
     36 H                     0.239619
     37 S                     0.818180
     38 C                    -0.777761
     39 H                     0.246701
     40 H                     0.259223
     41 H                     0.238313
     42 O                    -0.749586
     43 C                    -0.986125
     44 H                     0.241867
     45 H                     0.248803
     46 H                     0.260373
     47 S                     1.127902
     48 C                    -0.926407
     49 H                     0.218297
     50 H                     0.256968
     51 H                     0.263086
     52 O                    -0.654703
     53 C                    -0.826113
     54 H                     0.252747
     55 H                     0.273224
     56 H                     0.231160
     57 S                     0.989670
     58 C                    -0.773371
     59 H                     0.225417
     60 H                     0.249915
     61 H                     0.244379
     62 O                    -0.757651
     63 C                    -1.097792
     64 H                     0.252197
     65 H                     0.277361
     66 H                     0.269105
     67 S                     1.120293
     68 C                    -0.879091
     69 H                     0.229829
     70 H                     0.241397
     71 H                     0.258845
     72 O                    -0.720174
     73 C                    -0.858533
     74 H                     0.245792
     75 H                     0.265918
     76 H                     0.274796
     77 S                     0.925990
     78 C                    -0.898428
     79 H                     0.249189
     80 H                     0.236725
     81 H                     0.261895
     82 O                    -0.694144
     83 C                    -0.865997
     84 H                     0.252924
     85 H                     0.267024
     86 H                     0.243624
     87 S                     1.014326
     88 C                    -0.960636
     89 H                     0.245416
     90 H                     0.230804
     91 H                     0.268130
     92 O                    -0.708940
     93 C                    -0.842490
     94 H                     0.283656
     95 H                     0.268509
     96 H                     0.251582
     97 S                     0.821960
     98 C                    -0.955823
     99 H                     0.237678
    100 H                     0.283773
    101 H                     0.240975
    102 O                    -0.616607
    103 C                    -1.274001
    104 H                     0.218882
    105 H                     0.298025
    106 H                     0.275775
    107 S                     1.207030
    108 C                    -1.028958
    109 H                     0.175200
    110 H                     0.273180
    111 H                     0.326516
    112 O                    -0.554306
    113 C                    -0.889977
    114 H                     0.278410
    115 H                     0.237552
    116 H                     0.306388
    117 S                     0.833616
    118 C                    -0.901817
    119 H                     0.263885
    120 H                     0.211343
    121 H                     0.253710
    122 O                    -0.690718
    123 C                    -1.047792
    124 H                     0.299899
    125 H                     0.274691
    126 H                     0.252387
    127 S                     1.151703
    128 C                    -1.144322
    129 H                     0.299603
    130 H                     0.257190
    131 H                     0.269334
    132 O                    -0.665493
    133 C                    -0.946487
    134 H                     0.258636
    135 H                     0.217551
    136 H                     0.256429
    137 S                     0.966014
    138 C                    -0.841326
    139 H                     0.278668
    140 H                     0.279979
    141 H                     0.239140
    142 O                    -0.610773
    143 C                    -0.774241
    144 H                     0.250244
    145 H                     0.255140
    146 H                     0.270906
    147 S                     0.659317
    148 C                    -0.830687
    149 H                     0.300689
    150 H                     0.248289
    151 H                     0.254452
    152 O                    -0.647035
    153 C                    -0.876207
    154 H                     0.227908
    155 H                     0.317635
    156 H                     0.266861
    157 S                     1.145522
    158 C                    -1.042446
    159 H                     0.258320
    160 H                     0.236743
    161 H                     0.251388
    162 O                    -0.660382
    163 C                    -0.812117
    164 H                     0.232155
    165 H                     0.247656
    166 H                     0.242284
    167 S                     0.891348
    168 C                    -0.824583
    169 H                     0.259673
    170 H                     0.247534
    171 H                     0.240663
    172 O                    -0.718794
    173 C                    -0.846794
    174 H                     0.241446
    175 H                     0.277911
    176 H                     0.245048
    177 S                     0.863806
    178 C                    -0.852074
    179 H                     0.267988
    180 H                     0.257911
    181 H                     0.229032
    182 O                    -0.688720
    183 C                    -0.889082
    184 H                     0.256678
    185 H                     0.259352
    186 H                     0.267290
    187 S                     0.842617
    188 C                    -0.873843
    189 H                     0.265449
    190 H                     0.274212
    191 H                     0.248895
    192 O                    -0.680702
    193 C                    -1.389829
    194 H                     0.282719
    195 H                     0.274718
    196 H                     0.289580
    197 S                     1.077715
    198 C                    -0.984013
    199 H                     0.280334
    200 H                     0.273321
    201 H                     0.327448
    202 O                    -0.571935
    203 C                    -1.060899
    204 H                     0.250426
    205 H                     0.242652
    206 H                     0.273779
    207 S                     1.304337
    208 C                    -1.025149
    209 H                     0.235707
    210 H                     0.250185
    211 H                     0.257087
    212 O                    -0.696127
    213 C                    -0.454995
    214 H                     0.236452
    215 H                     0.286752
    216 H                     0.348653
    217 S                    -0.168350
    218 C                    -0.977177
    219 H                     0.279566
    220 H                     0.231965
    221 H                     0.260175
    222 O                    -0.305989
    223 C                    -0.913843
    224 H                     0.236044
    225 H                     0.267508
    226 H                     0.300772
    227 S                     1.199096
    228 C                    -1.031089
    229 H                     0.278135
    230 H                     0.246753
    231 H                     0.237171
    232 O                    -0.729010
    233 C                    -0.973523
    234 H                     0.258214
    235 H                     0.278928
    236 H                     0.286602
    237 S                     0.945903
    238 C                    -0.972314
    239 H                     0.291051
    240 H                     0.277745
    241 H                     0.321771
    242 O                    -0.603616
    243 C                    -0.793460
    244 H                     0.260800
    245 H                     0.235576
    246 H                     0.264924
    247 S                     0.683004
    248 C                    -0.786230
    249 H                     0.257683
    250 H                     0.297705
    251 H                     0.236609
    252 O                    -0.595596
    253 C                    -0.866643
    254 H                     0.241872
    255 H                     0.261605
    256 H                     0.240509
    257 S                     0.967231
    258 C                    -0.801602
    259 H                     0.262018
    260 H                     0.234137
    261 H                     0.240612
    262 O                    -0.723908
    263 C                    -1.028850
    264 H                     0.231988
    265 H                     0.275908
    266 H                     0.240970
    267 S                     1.284886
    268 C                    -0.950126
    269 H                     0.295144
    270 H                     0.248218
    271 H                     0.223730
    272 O                    -0.719202
    273 C                    -0.992407
    274 H                     0.322040
    275 H                     0.255059
    276 H                     0.288653
    277 S                     0.851553
    278 C                    -0.891989
    279 H                     0.287257
    280 H                     0.244336
    281 H                     0.226937
    282 O                    -0.707601
    283 C                    -0.900854
    284 H                     0.247899
    285 H                     0.285680
    286 H                     0.243888
    287 S                     0.851693
    288 C                    -0.978062
    289 H                     0.250511
    290 H                     0.284894
    291 H                     0.294136
    292 O                    -0.502123
    293 C                    -0.983132
    294 H                     0.288377
    295 H                     0.340349
    296 H                     0.222626
    297 S                     1.273939
    298 C                    -1.373845
[...]
    2  -0.0060113   0.0202412   0.0100743   0.0086408   0.0128049   0.0116906
    3  -0.0218857   0.0232294   0.0027379   0.0110794  -0.0292130   0.0219743
          157         158         159         160         161         162
    1  -0.0584675   0.0046499   0.0019426   0.0283554  -0.0214350   0.0746244
    2  -0.0025617   0.0002691  -0.0306561   0.0121239   0.0039539  -0.0212177
    3  -0.0143319   0.0077926  -0.0155711   0.0169453   0.0251374  -0.0792705
          163         164         165         166         167         168
    1  -0.0040345  -0.0190114  -0.0124491  -0.0241335   0.0191242  -0.0003080
    2   0.0037727  -0.0267392   0.0223036   0.0128468  -0.0414257  -0.0038846
    3   0.0007524  -0.0023197   0.0193566  -0.0263506  -0.0299031   0.0078441
          169         170         171         172         173         174
    1   0.0008812   0.0261925  -0.0119939   0.0324343  -0.0054596   0.0125595
    2  -0.0384315  -0.0011022   0.0256792   0.1053976   0.0001996   0.0335524
    3   0.0156879   0.0113574   0.0185809  -0.0132804   0.0033137  -0.0034426
          175         176         177         178         179         180
    1  -0.0307875   0.0226022   0.0512306   0.0004835  -0.0075964  -0.0334552
    2  -0.0039007   0.0149503  -0.0151765   0.0053753  -0.0255929   0.0011708
    3   0.0094426   0.0258401  -0.0096062  -0.0037048  -0.0147853   0.0066052
          181         182         183         184         185         186
    1   0.0181463  -0.0754620   0.0017859  -0.0232261   0.0274784  -0.0111398
    2   0.0307592  -0.0747555  -0.0018927  -0.0221064  -0.0214582   0.0286623
    3  -0.0292727   0.0262086   0.0100662  -0.0018381   0.0099499   0.0139767
          187         188         189         190         191         192
    1   0.0077736   0.0092178  -0.0120165   0.0283393   0.0094742  -0.0830166
    2  -0.0397484   0.0041493   0.0231667  -0.0155694   0.0146296   0.0735805
    3  -0.0348937   0.0028141   0.0197979   0.0076798  -0.0258444  -0.0086631
          193         194         195         196         197         198
    1   0.0020664  -0.0119154   0.0323254  -0.0175002  -0.0363922   0.0068728
    2  -0.0125247  -0.0142135  -0.0175742  -0.0017010   0.0421726  -0.0037793
    3   0.0053356  -0.0158931   0.0046546   0.0298938   0.0025976  -0.0105143
          199         200         201         202         203         204
    1  -0.0141021   0.0212862   0.0104182   0.0902624   0.0025257  -0.0005754
    2   0.0077797   0.0240320  -0.0302268  -0.0030232  -0.0080778  -0.0306728
    3  -0.0316785  -0.0191617  -0.0088014   0.0633659  -0.0051465   0.0191915
          205         206         207         208         209         210
    1  -0.0304740   0.0218248  -0.0307336   0.0008317  -0.0305738   0.0129424
    2   0.0064391   0.0135551   0.0034957   0.0056325   0.0127624   0.0302336
    3  -0.0052909  -0.0260646   0.0480093  -0.0032378  -0.0023178   0.0089454
          211         212         213         214         215         216
    1   0.0060679   0.1099284  -0.0001513   0.0178471   0.0104432  -0.0292429
    2  -0.0148644   0.0011393  -0.0143025   0.0027262   0.0001678  -0.0297356
    3  -0.0290786  -0.0045380  -0.0013281  -0.0203376   0.0269063  -0.0013300
          217         218         219         220         221         222
    1  -0.0446806  -0.0052206   0.0148923   0.0052871  -0.0299633   0.0801334
    2  -0.0014821  -0.0020361   0.0389058  -0.0304389  -0.0249391   0.0708926
    3   0.0387083  -0.0099896   0.0028426  -0.0109086   0.0033701  -0.0035755
          223         224         225         226         227         228
    1  -0.0089741  -0.0230529   0.0114245  -0.0130882   0.0406413  -0.0047693
    2   0.0023776  -0.0089961  -0.0178254   0.0301745   0.0250903   0.0047970
    3   0.0066299  -0.0189140   0.0245731   0.0135783   0.0246201  -0.0039609
          229         230         231         232         233         234
    1  -0.0075444   0.0229783  -0.0300211   0.0008612  -0.0099297   0.0135048
    2   0.0338417  -0.0004565  -0.0086051  -0.1006020  -0.0102116  -0.0147464
    3   0.0062549  -0.0229759  -0.0073471  -0.0429735   0.0004701   0.0252600
          235         236         237         238         239         240
    1  -0.0283760  -0.0018634   0.0505410  -0.0052170   0.0157979   0.0015987
    2   0.0113950  -0.0252566  -0.0148324  -0.0005028  -0.0251671   0.0161447
    3   0.0113572  -0.0243105  -0.0128383   0.0117887   0.0245612  -0.0067250
          241         242         243         244         245         246
    1  -0.0352738  -0.0708330  -0.0039779  -0.0186251  -0.0217186   0.0112048
    2  -0.0105496   0.0585240   0.0019098   0.0137796  -0.0012453   0.0210709
    3   0.0084614  -0.0628809  -0.0008409  -0.0279350   0.0246077   0.0207467
          247         248         249         250         251         252
    1   0.0320169  -0.0033533  -0.0153867   0.0142098  -0.0205102   0.0592181
    2   0.0126812  -0.0065514  -0.0061671  -0.0262660  -0.0099658  -0.0260251
    3  -0.0534773  -0.0032513  -0.0301525   0.0006880   0.0232043   0.0885817
          253         254         255         256         257         258
    1   0.0019788  -0.0199312   0.0137788   0.0314037   0.0159078  -0.0015717
    2   0.0041225   0.0168768  -0.0204848   0.0068773  -0.0399729   0.0067913
    3   0.0066979   0.0132756   0.0185159  -0.0089681  -0.0275965  -0.0040325
          259         260         261         262         263         264
    1  -0.0377648  -0.0062219   0.0378079  -0.0866397  -0.0018062   0.0309735
    2  -0.0078336   0.0222629   0.0120271  -0.0020865  -0.0025185  -0.0089651
    3  -0.0132533   0.0175214  -0.0061946   0.0701303   0.0085918   0.0076273
          265         266         267         268         269         270
    1  -0.0230963  -0.0184429   0.0133555   0.0055889   0.0059317  -0.0084902
    2   0.0167766  -0.0265734  -0.0343736   0.0076844   0.0239322   0.0162350
    3   0.0168360   0.0144312  -0.0353403  -0.0016871  -0.0214016   0.0257457
          271         272         273         274         275         276
    1   0.0340419  -0.0887578  -0.0047670   0.0014985  -0.0283451   0.0055066
    2  -0.0110389   0.0627139  -0.0114926  -0.0030895   0.0150937  -0.0332753
    3   0.0005632   0.0124706   0.0043172   0.0331450   0.0036553  -0.0174587
          277         278         279         280         281         282
    1  -0.0135612   0.0073748   0.0222051  -0.0058772   0.0108464   0.0160338
    2   0.0249389  -0.0013084   0.0268802  -0.0304862  -0.0160568   0.0544744
    3  -0.0461156   0.0000859   0.0017279   0.0126683  -0.0263516   0.0950109
          283         284         285         286         287         288
    1   0.0010382   0.0198950   0.0139282  -0.0124193  -0.0288250   0.0082667
    2  -0.0087310   0.0140673  -0.0218486  -0.0171754   0.0439721   0.0017089
    3  -0.0010254  -0.0185755   0.0207490  -0.0260441  -0.0370430   0.0066678
          289         290         291         292         293         294
    1   0.0182343   0.0023288   0.0282964  -0.0571625  -0.0007559   0.0175300
    2   0.0112442   0.0144807  -0.0087068  -0.0642801  -0.0011235   0.0108506
    3  -0.0272680   0.0318230   0.0319334   0.0650669   0.0130109   0.0287957
          295         296         297         298         299         300
    1  -0.0253267   0.0030739  -0.0379118   0.0082671   0.0037120  -0.0093609
    2   0.0142292  -0.0254602  -0.0054652  -0.0017935  -0.0099684  -0.0063463
    3   0.0129361  -0.0084456  -0.0451898   0.0002260   0.0360525  -0.0363044
          301         302
    1   0.0074801   0.0014238
    2   0.0276966   0.0991267
    3   0.0057220   0.0686797
  --- DONE ESP SUMMARY ---
Archival summary:
1\1\node026\SP\ProcedureUnspecified\6-31+G*\282856h22\ymao90\FriDec319:50:232021FriDec319:50:232021\0\\#,ProcedureUnspecified,6-31+G*,\\0,1\S\O,1,1.49725\C,1,1.80619,2,101.665\H,3,1.09305,1,112.296,2,-173.312,0\H,3,1.09324,1,107.876,2,-51.4069,0\H,3,1.09357,1,113.84,2,65.3954,0\C,1,1.80671,2,101.713,3,-96.9233,0\H,7,1.09275,1,117.06,2,-33.6774,0\H,7,1.09332,1,111.901,2,81.4634,0\H,7,1.09341,1,114.016,2,-143.737,0\H,5,2.00126,3,126.633,1,-110.52,0\C,11,1.09254,5,138.913,3,-117.088,0\H,12,1.0929,11,109.44,5,-71.9354,0\H,12,1.09379,11,104.709,5,54.0224,0\S,12,1.80729,11,104.864,5,164.828,0\O,15,1.49758,12,95.4331,11,-40.0689,0\C,15,1.80753,12,92.111,11,64.5375,0\H,17,1.09284,15,116.961,12,-177.562,0\H,17,1.09312,15,109.224,12,-51.5131,0\H,17,1.09355,15,109.046,12,75.7514,0\H,10,2.0387,7,136.126,1,-116.606,0\C,21,1.09323,10,146.276,7,104.069,0\H,22,1.09247,21,111.528,10,131.274,0\H,22,1.09338,21,107.926,10,-107.961,0\S,22,1.80753,21,113.886,10,8.47364,0\O,25,1.49682,22,109.168,21,153.224,0\C,25,1.80661,22,89.5876,21,51.6559,0\H,27,1.09276,25,118.499,22,-75.81,0\H,27,1.09295,25,108.985,22,49.2931,0\H,27,1.09319,25,102.345,22,165.022,0\H,21,2.2019,10,86.8667,7,-78.8907,0\C,31,1.09287,21,137.11,10,-79.0228,0\H,32,1.09301,31,111.52,21,109.17,0\H,32,1.09307,31,109.418,21,-123.77,0\S,32,1.80647,31,104.828,21,-9.05612,0\O,35,1.49687,32,99.7574,31,-63.3393,0\C,35,1.80719,32,93.5389,31,-170.528,0\H,37,1.09265,35,113.834,32,44.6135,0\H,37,1.09297,35,116.178,32,170.016,0\H,37,1.09374,35,104.011,32,-63.3938,0\H,8,2.28117,7,146.905,1,-50.4417,0\C,41,1.09321,8,114.321,7,4.64716,0\H,42,1.0931,41,107.609,8,107.284,0\H,42,1.09319,41,111.468,8,-27.4948,0\S,42,1.80671,41,102.861,8,-141.392,0\O,45,1.49684,42,97.7708,41,72.5579,0\C,45,1.80705,42,93.0956,41,-179.23,0\H,47,1.09282,45,102.775,42,72.2944,0\H,47,1.09312,45,113.308,42,-55.5455,0\H,47,1.0934,45,109.877,42,-175.883,0\H,14,2.29512,12,130.326,11,46.8605,0\C,51,1.0925,14,139.142,12,92.9566,0\H,52,1.09313,51,105.213,14,2.46477,0\H,52,1.09363,51,112.453,14,109.531,0\S,52,1.80664,51,109.405,14,-119.882,0\O,55,1.49688,52,105.705,51,-30.5192,0\C,55,1.80647,52,96.4541,51,-131.387,0\H,57,1.09274,55,113.144,52,-57.5288,0\H,57,1.09318,55,116.519,52,174.291,0\H,57,1.09321,55,100.664,52,56.9466,0\H,58,2.1131,57,141.401,55,-92.1089,0\C,61,1.09337,58,101.187,57,-68.0489,0\H,62,1.09271,61,110.35,58,33.1838,0\H,62,1.09304,61,100.818,58,159.475,0\S,62,1.80753,61,105.176,58,-81.5523,0\O,65,1.4972,62,104.074,61,-147.317,0\C,65,1.8071,62,101.793,61,-44.9883,0\H,67,1.09263,65,108.193,62,69.1763,0\H,67,1.09338,65,108.797,62,-51.8705,0\H,67,1.09355,65,106.486,62,-169.682,0\Gh,56,2.11691,55,159.284,52,-124.776,0\Gh,71,1.01292,56,149.124,55,44.0669,0\Gh,72,1.37875,71,114.02,56,-3.04341,0\Gh,73,1.10545,72,108.323,71,1.02806,0\Gh,73,1.21833,72,126.365,71,-176.682,0\Gh,72,1.46175,71,127.074,56,171.821,0\Gh,76,1.09716,72,107.138,71,150.457,0\Gh,76,1.53755,72,111.983,71,38.9822,0\Gh,78,1.09681,76,108.934,72,62.1804,0\Gh,78,1.09701,76,105.863,72,-58.1454,0\Gh,78,1.53801,76,117.073,72,-174.42,0\Gh,81,1.09673,78,123.609,76,-81.8584,0\Gh,81,1.09717,78,101.431,76,163.661,0\Gh,81,1.53669,78,108.979,76,48.3384,0\Gh,84,1.09621,81,107.624,78,-176.061,0\Gh,84,1.09661,81,111.104,78,70.1436,0\Gh,84,1.53792,81,109.635,78,-57.113,0\Gh,87,1.09702,84,107.534,81,-54.9978,0\Gh,87,1.09705,84,107.181,81,-174.335,0\Gh,87,1.53775,84,109.532,81,65.6384,0\Gh,90,1.0965,87,104.992,84,176.78,0\Gh,90,1.09694,87,114.093,84,65.9767,0\H,92,2.14488,90,132.114,87,49.9484,0\C,93,1.09322,92,165.548,90,-54.6593,0\H,94,1.09289,93,108.807,92,-54.8171,0\H,94,1.09359,93,109.905,92,65.0422,0\S,94,1.80656,93,111.07,92,-177.195,0\O,97,1.4968,94,103.336,93,-73.0699,0\C,97,1.80698,94,92.7139,93,-178.681,0\H,99,1.09282,97,119.131,94,-65.8036,0\H,99,1.09286,97,111.561,94,59.9676,0\H,99,1.09329,97,113.225,94,173.905,0\H,96,2.04347,94,119.647,93,39.2385,0\C,103,1.09343,96,125.307,94,-153.743,0\H,104,1.09275,103,118.609,96,148.682,0\H,104,1.09321,103,113.312,96,23.1492,0\S,104,1.80702,103,103.612,96,-94.0783,0\O,107,1.49721,104,97.4217,103,75.1153,0\C,107,1.80686,104,97.5056,103,172.538,0\H,109,1.09302,107,112.566,104,70.3185,0\H,109,1.09315,107,105.539,104,-50.1573,0\H,109,1.09321,107,111.183,104,-166.173,0\H,111,2.00196,109,151.28,107,-5.06245,0\C,113,1.09304,111,125.329,109,-144.446,0\H,114,1.09293,113,119.56,111,42.1929,0\H,114,1.09346,113,102.385,111,-78.4369,0\S,114,1.80662,113,105.295,111,169.302,0\O,117,1.49727,114,103.887,113,54.9164,0\C,117,1.80643,114,88.9502,113,-46.9621,0\H,119,1.09275,117,110.618,114,53.3322,0\H,119,1.09311,117,106.977,114,-72.9227,0\H,119,1.09328,117,108.292,114,171.748,0\H,116,1.95947,114,116.991,113,-43.2944,0\C,123,1.09288,116,127.149,114,138.879,0\H,124,1.09316,123,120.778,116,10.3363,0\H,124,1.09332,123,107.803,116,-114.77,0\S,124,1.80655,123,105.438,116,128.903,0\O,127,1.49687,124,98.496,123,-174.162,0\C,127,1.80679,124,94.3449,123,-69.8724,0\H,129,1.09283,127,118.237,124,-164.529,0\H,129,1.09296,127,108.657,124,-39.9619,0\H,129,1.09306,127,99.0871,124,74.2166,0\H,122,2.03872,119,158.031,117,156.248,0\C,133,1.093,122,127.66,119,-125.255,0\H,134,1.09319,133,119.56,122,-165.368,0\H,134,1.09335,133,99.3926,122,76.0455,0\S,134,1.80711,133,117.189,122,-33.3522,0\O,137,1.49629,134,101.96,133,64.8649,0\C,137,1.80703,134,101.836,133,-40.7018,0\H,139,1.0928,137,112.917,134,73.4062,0\H,139,1.09349,137,110.001,134,-46.5251,0\H,139,1.09369,137,112.214,134,-160.47,0\H,91,2.16363,90,121.501,87,-176.084,0\C,143,1.09279,91,108.949,90,150.513,0\H,144,1.0928,143,110.994,91,177.947,0\H,144,1.09356,143,118.862,91,-58.2421,0\S,144,1.80704,143,105.03,91,56.4297,0\O,147,1.49721,144,109.63,143,-173.245,0\C,147,1.80734,144,95.5843,143,83.3282,0\H,149,1.09268,147,110.377,144,-40.6123,0\H,149,1.09276,147,107.449,144,77.7896,0\H,149,1.09308,147,110.167,144,-165.155,0\H,54,2.28695,52,101.074,51,-33.5766,0\C,153,1.09332,54,129.917,52,94.2301,0\H,154,1.0926,153,115.441,54,-146.035,0\H,154,1.09281,153,103.553,54,94.0893,0\S,154,1.80722,153,104.078,54,-14.4326,0\O,157,1.4976,154,104.329,153,68.2438,0\C,157,1.8066,154,88.8413,153,-177.157,0\H,159,1.09252,157,112.952,154,176.175,0\H,159,1.09309,157,108.627,154,64.8044,0\H,159,1.09354,157,102.16,154,-49.798,0\H,77,2.3054,76,171.466,72,90.162,0\C,163,1.09298,77,118.991,76,49.5535,0\H,164,1.09282,163,107.334,77,74.7789,0\H,164,1.09351,163,109.95,77,-50.0488,0\S,164,1.80713,163,110.106,77,-166.972,0\O,167,1.49759,164,111.593,163,-68.4888,0\C,167,1.80707,164,97.0546,163,43.0859,0\H,169,1.09246,167,100.684,164,-161.088,0\H,169,1.09289,167,113.538,164,89.532,0\H,169,1.09309,167,116.308,164,-33.07,0\H,170,2.35007,169,107.799,167,96.3385,0\C,173,1.09285,170,118.997,169,167.096,0\H,174,1.09237,173,109.056,170,124.602,0\H,174,1.09392,173,100.784,170,10.4951,0\S,174,1.80719,173,108.675,170,-107.887,0\O,177,1.49777,174,102.576,173,65.762,0\C,177,1.80743,174,99.2006,173,174.231,0\H,179,1.09278,177,106.867,174,-159.501,0\H,179,1.09288,177,106.678,174,-52.4975,0\H,179,1.09298,177,119.639,174,78.1002,0\H,178,2.30238,177,123.009,174,-88.6906,0\C,183,1.0924,178,157.638,177,175.684,0\H,184,1.09304,183,107.361,178,-125.536,0\H,184,1.09337,183,108.433,178,-11.7695,0\S,184,1.8069,183,113.919,178,114.031,0\O,187,1.49731,184,101.405,183,57.0858,0\C,187,1.80797,184,92.4418,183,-48.1798,0\H,189,1.09252,187,105.539,184,61.0137,0\H,189,1.09271,187,112.371,184,175.333,0\H,189,1.09334,187,112.519,184,-59.7799,0\H,150,2.35232,149,117.558,147,135.809,0\C,193,1.09308,150,134.24,149,-21.3267,0\H,194,1.09271,193,114.276,150,-165.064,0\H,194,1.09314,193,104.115,150,-45.8878,0\S,194,1.80705,193,108.744,150,71.1595,0\O,197,1.49704,194,110.477,193,56.8561,0\C,197,1.80695,194,107.669,193,170.513,0\H,199,1.09192,197,105.101,194,-143.222,0\H,199,1.09249,197,110.043,194,-24.2567,0\H,199,1.09249,197,105.478,194,103.772,0\H,173,2.35276,170,122.198,169,13.0989,0\C,203,1.09308,173,146.385,170,173.343,0\H,204,1.09241,203,114.413,173,-23.0805,0\H,204,1.09312,203,112.205,173,97.4819,0\S,204,1.80661,203,111.926,173,-144.353,0\O,207,1.49744,204,104.425,203,175.489,0\C,207,1.80681,204,93.578,203,-71.9098,0\H,209,1.09238,207,111.877,204,179.047,0\H,209,1.09283,207,105.68,204,65.7467,0\H,209,1.09303,207,112.683,204,-54.062,0\H,212,2.12757,209,125.406,207,-65.8512,0\C,213,1.09255,212,126.273,209,-175.333,0\H,214,1.09306,213,115.295,212,-71.2913,0\H,214,1.09339,213,109.389,212,162.288,0\S,214,1.80698,213,106.4,212,47.9001,0\O,217,1.49671,214,100.174,213,-51.73,0\C,217,1.80751,214,103.83,213,-162.802,0\H,219,1.09292,217,107.618,214,163.815,0\H,219,1.09295,217,101.056,214,-83.1474,0\H,219,1.09377,217,108.403,214,33.4579,0\H,135,2.36958,134,171.372,133,-22.1483,0\C,223,1.0932,135,111.477,134,83.6812,0\H,224,1.09255,223,102.008,135,178.231,0\H,224,1.09303,223,113.565,135,54.5106,0\S,224,1.80667,223,102.877,135,-62.8908,0\O,227,1.4969,224,101.02,223,-48.8909,0\C,227,1.80661,224,90.9147,223,-153.286,0\H,229,1.09288,227,121.952,224,-60.9098,0\H,229,1.09309,227,109.609,224,70.6231,0\H,229,1.09324,227,104.745,224,174.629,0\H,148,2.42765,147,126.392,144,27.4309,0\C,233,1.09256,148,133.056,147,-70.7666,0\H,234,1.09296,233,113.939,148,-127.139,0\H,234,1.09319,233,110.634,148,108.066,0\S,234,1.80608,233,112.469,148,-12.2099,0\O,237,1.49737,234,97.8652,233,171.124,0\C,237,1.80728,234,101.88,233,-77.9716,0\H,239,1.09235,237,105.793,234,-33.0273,0\H,239,1.0926,237,105.601,234,83.2361,0\H,239,1.09268,237,119.063,234,-151.157,0\H,39,2.54252,37,128.641,35,-12.0613,0\C,243,1.09317,39,111.534,37,98.0843,0\H,244,1.09268,243,109.06,39,13.3801,0\H,244,1.09274,243,118.68,39,132.841,0\S,244,1.80703,243,115.045,39,-93.2707,0\O,247,1.49722,244,97.1497,243,-71.9194,0\C,247,1.80767,244,95.8834,243,-179.165,0\H,249,1.09277,247,101.95,244,-167.536,0\H,249,1.09283,247,105.752,244,81.6241,0\H,249,1.0934,247,106.881,244,-34.4447,0\H,165,2.56794,164,135.963,163,93.3632,0\C,253,1.09334,165,157.994,164,-15.3249,0\H,254,1.09312,253,94.7575,165,87.6414,0\H,254,1.09345,253,115.063,165,-161.516,0\S,254,1.80626,253,116.933,165,-25.5232,0\O,257,1.49685,254,96.5481,253,-158.748,0\C,257,1.80718,254,97.1523,253,-55.778,0\H,259,1.09248,257,116.003,254,78.8585,0\H,259,1.09339,257,110.097,254,-161.171,0\H,259,1.09344,257,108.849,254,-38.3535,0\H,256,2.58016,254,145.475,253,98.8559,0\C,263,1.09283,256,140.083,254,47.8981,0\H,264,1.09329,263,111.132,256,-19.9984,0\H,264,1.09372,263,112.982,256,95.4591,0\S,264,1.80742,263,111.629,256,-132.93,0\O,267,1.49632,264,107.946,263,-66.5945,0\C,267,1.80747,264,94.5064,263,-171.914,0\H,269,1.09276,267,97.5512,264,166.268,0\H,269,1.093,267,111.664,264,-69.3762,0\H,269,1.093,267,105.757,264,52.3397,0\O,152,2.58115,149,154.42,147,-112.896,0\S,273,1.49719,152,85.204,149,-4.6278,0\C,274,1.80676,273,101.501,152,84.2438,0\H,275,1.09278,274,112.012,273,55.0626,0\H,275,1.09299,274,106.778,273,175.129,0\H,275,1.09324,274,108.817,273,-66.7909,0\C,274,1.80763,273,100.915,152,172.882,0\H,279,1.09203,274,106.434,273,95.2574,0\H,279,1.09327,274,104.559,273,-27.0391,0\H,279,1.0934,274,114.226,273,-142.71,0\H,208,2.59295,207,125.007,204,-173.126,0\C,283,1.09294,208,135.866,207,68.0693,0\H,284,1.09323,283,104.775,208,3.7282,0\H,284,1.09378,283,115.8,208,118.427,0\S,284,1.80691,283,111.642,208,-118.886,0\O,287,1.4973,284,100.405,283,-172.624,0\C,287,1.80696,284,93.9479,283,-70.098,0\H,289,1.09238,287,111.278,284,-160.583,0\H,289,1.09267,287,103.933,284,-47.7536,0\H,289,1.09273,287,108.194,284,75.2795,0\H,132,2.69465,129,142.341,127,65.0021,0\C,293,1.09369,132,109.668,129,41.8615,0\H,294,1.09302,293,105.331,132,56.5887,0\H,294,1.09325,293,110.33,132,-59.1832,0\S,294,1.80664,293,106.661,132,172.89,0\O,297,1.49691,294,104.904,293,-155.956,0\C,297,1.80651,294,93.0874,293,-49.103,0\H,299,1.09319,297,110.234,294,175.676,0\H,299,1.09328,297,114.039,294,-63.0612,0\H,299,1.09396,297,109.779,294,58.2517,0\\\@

 Total job time:  61.00s(wall), 196.56s(cpu) 
 Fri Dec  3 19:50:23 2021

        *************************************************************
        *                                                           *
        *  Thank you very much for using Q-Chem.  Have a nice day.  *
        *                                                           *
        *************************************************************


