                  Welcome to Q-Chem
     A Quantum Leap Into The Future Of Chemistry


 Q-Chem 5.2 (devel), Q-Chem, Inc., Pleasanton, CA (2019)

 Yihan Shao,  Zhengting Gan,  E. Epifanovsky,  A. T. B. Gilbert,  M. Wormit,  
 J. Kussmann,  A. W. Lange,  A. Behn,  Jia Deng,  Xintian Feng,  D. Ghosh,  
 M. Goldey,  P. R. Horn,  L. D. Jacobson,  I. Kaliman,  T. Kus,  A. Landau,  
 Jie Liu,  E. I. Proynov,  R. M. Richard,  R. P. Steele,  E. J. Sundstrom,  
 H. L. Woodcock III,  P. M. Zimmerman,  D. Zuev,  B. Alam,  B. Albrecht,  
 E. Alguire,  S. A. Baeppler,  D. Barton,  Z. Benda,  Y. A. Bernard,  
 E. J. Berquist,  K. B. Bravaya,  H. Burton,  K. Carter-Fenk,  D. Casanova,  
 Chun-Min Chang,  Yunqing Chen,  A. Chien,  K. D. Closser,  M. P. Coons,  
 S. Coriani,  S. Dasgupta,  A. L. Dempwolff,  M. Diedenhofen,  Hainam Do,  
 R. G. Edgar,  Po-Tung Fang,  S. Faraji,  S. Fatehi,  Qingguo Feng,  
 J. Fosso-Tande,  J. Gayvert,  Qinghui Ge,  A. Ghysels,  G. Gidofalvi,  
 J. Gomes,  J. Gonthier,  A. Gunina,  D. Hait,  M. W. D. Hanson-Heine,  
 P. H. P. Harbach,  A. W. Hauser,  M. F. Herbst,  J. E. Herr,  
 E. G. Hohenstein,  Z. C. Holden,  Kerwin Hui,  B. C. Huynh,  T.-C. Jagau,  
 Hyunjun Ji,  B. Kaduk,  K. Khistyaev,  Jaehoon Kim,  P. Klunzinger,  K. Koh,  
 D. Kosenkov,  L. Koulias,  T. Kowalczyk,  C. M. Krauter,  A. Kunitsa,  
 Ka Un Lao,  A. Laurent,  K. V. Lawler,  Joonho Lee,  D. Lefrancois,  
 S. Lehtola,  D. S. Levine,  Yi-Pei Li,  You-Sheng Lin,  Fenglai Liu,  
 Kuan-Yu Liu,  E. Livshits,  M. Loipersberger,  A. Luenser,  P. Manohar,  
 E. Mansoor,  S. F. Manzer,  Shan-Ping Mao,  Yuezhi Mao,  N. Mardirossian,  
 A. V. Marenich,  T. Markovich,  L. A. Martinez-Martinez,  S. A. Maurer,  
 N. J. Mayhall,  S. C. McKenzie,  J.-M. Mewes,  P. Morgante,  A. F. Morrison,  
 J. W. Mullinax,  K. Nanda,  T. S. Nguyen-Beck,  R. Olivares-Amaya,  
 J. A. Parkhill,  S. K. Paul,  F. Pavosevic,  Zheng Pei,  T. M. Perrine,  
 F. Plasser,  P. Pokhilko,  S. Prager,  A. Prociuk,  E. Ramos,  B. Rana,  
 D. R. Rehn,  F. Rob,  M. Scheurer,  M. Schneider,  N. Sergueev,  
 S. M. Sharada,  S. Sharma,  D. W. Small,  T. Stauch,  C. J. Stein,  
 T. Stein,  Yu-Chuan Su,  S. P. Veccham,  Zhen Tao,  A. J. W. Thom,  
 A. Tkatchenko,  T. Tsuchimochi,  N. M. Tubman,  L. Vogt,  M. L. Vidal,  
 O. Vydrov,  M. A. Watson,  J. Wenzel,  M. de Wergifosse,  T. A. Wesolowski,  
 A. White,  J. Witte,  A. Yamada,  Jun Yang,  K. Yao,  S. Yeganeh,  
 S. R. Yost,  Zhi-Qiang You,  A. Zech,  Igor Ying Zhang,  Xing Zhang,  
 Yan Zhao,  Ying Zhu,  B. R. Brooks,  G. K. L. Chan,  C. J. Cramer,  
 M. S. Gordon,  W. J. Hehre,  A. Klamt,  M. W. Schmidt,  C. D. Sherrill,  
 D. G. Truhlar,  A. Aspuru-Guzik,  R. Baer,  A. T. Bell,  N. A. Besley,  
 Jeng-Da Chai,  A. E. DePrince, III,  R. A. DiStasio Jr.,  A. Dreuw,  
 B. D. Dunietz,  T. R. Furlani,  Chao-Ping Hsu,  Yousung Jung,  Jing Kong,  
 D. S. Lambrecht,  WanZhen Liang,  C. Ochsenfeld,  V. A. Rassolov,  
 L. V. Slipchenko,  J. E. Subotnik,  T. Van Voorhis,  J. M. Herbert,  
 A. I. Krylov,  P. M. W. Gill,  M. Head-Gordon

 Contributors to earlier versions of Q-Chem not listed above: 
 R. D. Adamson,  B. Austin,  J. Baker,  G. J. O. Beran,  K. Brandhorst,  
 S. T. Brown,  E. F. C. Byrd,  A. K. Chakraborty,  C.-L. Cheng,  
 Siu Hung Chien,  D. M. Chipman,  D. L. Crittenden,  H. Dachsel,  
 R. J. Doerksen,  A. D. Dutoi,  L. Fusti-Molnar,  W. A. Goddard III,  
 A. Golubeva-Zadorozhnaya,  S. R. Gwaltney,  G. Hawkins,  A. Heyden,  
 S. Hirata,  G. Kedziora,  F. J. Keil,  C. Kelley,  Jihan Kim,  R. A. King,  
 R. Z. Khaliullin,  P. P. Korambath,  W. Kurlancheek,  A. M. Lee,  M. S. Lee,  
 S. V. Levchenko,  Ching Yeh Lin,  D. Liotard,  R. C. Lochan,  I. Lotan,  
 P. E. Maslen,  N. Nair,  D. P. O'Neill,  D. Neuhauser,  E. Neuscamman,  
 C. M. Oana,  R. Olson,  B. Peters,  R. Peverati,  P. A. Pieniazek,  
 Y. M. Rhee,  J. Ritchie,  M. A. Rohrdanz,  E. Rosta,  N. J. Russ,  
 H. F. Schaefer III,  N. E. Schultz,  N. Shenvi,  A. C. Simmonett,  A. Sodt,  
 D. Stuck,  K. S. Thanthiriwatte,  V. Vanovschi,  Tao Wang,  A. Warshel,  
 C. F. Williams,  Q. Wu,  X. Xu,  W. Zhang

 Please cite Q-Chem as follows:
 Y. Shao et al., Mol. Phys. 113, 184-215 (2015)
 DOI: 10.1080/00268976.2014.952696

 Q-Chem 5.2.2 for Intel X86 EM64T Linux

 Parts of Q-Chem use Armadillo 9.800.1 (Horizon Scraper).
 http://arma.sourceforge.net/

 Q-Chem begins on Fri Dec  3 23:06:09 2021  

Host: node026
0

     Scratch files written to /home/ymao90/scratch/r7.00_frame_0078_spade_B3LYP_dp20211203120854//

Checking the input file for inconsistencies... 	...done.

--------------------------------------------------------------
User input:
--------------------------------------------------------------
$molecule
0 1
--
0 1
C    32.05000   26.44500   28.31400  
C    30.73400   25.92300   28.91400  
C    30.76700   24.38700   28.84700  
C    31.92200   23.86100   29.71500  
C    33.29600   24.41800   29.30700  
C    33.24700   25.94500   29.13900  
H    29.81900   24.01200   29.25200  
H    30.61100   26.18100   29.97300  
H    32.06000   26.14700   27.25900  
H    32.07900   27.54200   28.31200  
H    31.72600   24.16900   30.74900  
H    31.84800   22.76900   29.64900  
H    33.91800   24.12000   30.16000  
H    33.63900   23.84500   28.43700  
H    33.23800   26.49400   30.08800  
H    34.14200   26.32700   28.63100  
H    30.90800   23.98800   27.83600  
N    29.55800   26.35100   28.15800  
H    29.26900   25.85000   27.32700  
C    28.63000   27.27100   28.60000  
H    27.79700   27.47700   27.90400  
O    28.80000   27.87100   29.64600  
--
0 1
C    25.57800   30.86300   23.83800  
H    25.53200   30.36500   22.86600  
H    26.11300   30.12600   24.44200  
H    24.58800   30.91500   24.29900  
S    26.45900   32.44000   23.79300  
C    26.01700   32.87500   25.49000  
H    26.43100   32.10700   26.14900  
H    26.39100   33.87300   25.73300  
H    24.93500   33.02300   25.53500  
O    25.44200   33.15600   22.96000  
C    33.71500   29.76300   29.28900  
H    33.20400   29.73800   28.32300  
H    34.29300   28.83700   29.34200  
H    32.91200   29.77700   30.03000  
S    34.68300   31.28900   29.27200  
C    35.07200   31.40800   31.03200  
H    35.99000   30.82000   31.11400  
H    35.23700   32.43800   31.36000  
H    34.27800   30.95100   31.62800  
O    33.74100   32.42300   29.00900  
C    27.44500   26.37800   33.25400  
H    28.02400   27.22000   32.86600  
H    26.68100   26.72300   33.95700  
H    28.18000   25.69300   33.68300  
S    26.66400   25.77500   31.74000  
C    25.41500   27.02800   31.37500  
H    25.19200   27.57600   32.29400  
H    25.80300   27.78000   30.68200  
H    24.54200   26.56100   30.91200  
O    25.83800   24.62600   32.22800  
C    36.08200   22.11400   31.93700  
H    36.69900   21.27000   31.62000  
H    35.02700   21.88600   31.76600  
H    36.48300   22.86800   31.25500  
S    36.25000   22.35300   33.72100  
C    34.55200   22.84900   34.08600  
H    33.90600   21.99400   33.87200  
H    34.37900   23.28600   35.07300  
H    34.23300   23.54000   33.30100  
O    36.95200   23.67100   33.81700  
C    32.12300   17.80900   30.21300  
H    31.10900   17.41300   30.31700  
H    32.32400   18.31500   29.26500  
H    32.86700   17.02700   30.38400  
S    32.29500   19.03100   31.53200  
C    30.88200   20.06900   31.09200  
H    30.99300   20.45400   30.07500  
H    29.95300   19.51000   31.22700  
H    30.98000   20.97900   31.68900  
O    33.45300   19.95100   31.30100  
C    27.37600   20.25800   28.78700  
H    28.27300   20.79800   29.10100  
H    27.44700   20.21800   27.69700  
H    26.46100   20.77400   29.09000  
S    27.31300   18.66200   29.63000  
C    27.16400   19.36300   31.28900  
H    27.84500   20.21200   31.39000  
H    26.14700   19.61300   31.60400  
H    27.48900   18.61100   32.01200  
O    28.70700   18.12400   29.52700  
C    31.96800   32.76400   31.85000  
H    31.79000   31.77000   32.26800  
H    32.70700   32.74800   31.04400  
H    32.33600   33.45100   32.61700  
S    30.45700   33.42900   31.11600  
C    30.81600   35.16900   31.44400  
H    31.69900   35.44900   30.86400  
H    30.06900   35.83400   31.00200  
H    30.89600   35.41700   32.50600  
O    29.32400   33.16400   32.05800  
C    28.36400   22.92600   33.70400  
H    29.04400   23.41600   34.40400  
H    28.68600   23.00200   32.66200  
H    27.30900   23.16600   33.85900  
S    28.40500   21.16800   34.11900  
C    27.75400   21.27500   35.80200  
H    26.77600   21.75400   35.89600  
H    27.76100   20.25200   36.18500  
H    28.45300   21.91600   36.34600  
O    29.84700   20.80700   34.29200  
C    24.25500   25.19500   27.97600  
H    24.88300   26.08400   27.87900  
H    24.05300   24.76000   26.99400  
H    23.33500   25.22500   28.56500  
S    25.12200   24.00500   29.02300  
C    26.57500   23.50000   28.07600  
H    26.26100   22.93300   27.19600  
H    27.12600   24.40700   27.81300  
H    27.13100   22.95500   28.84300  
O    24.11700   22.89700   29.08200  
C    37.11600   27.57600   26.64500  
H    36.23200   27.06300   26.25800  
H    38.00600   26.97000   26.45400  
H    37.01600   27.65400   27.73100  
S    37.42800   29.24800   26.03600  
C    39.18500   29.39200   26.43400  
H    39.88900   29.04300   25.67500  
H    39.45300   30.39600   26.77200  
H    39.37400   28.78200   27.32100  
O    36.71900   30.06200   27.07300  
C    29.56900   23.22700   25.15400  
H    30.06800   22.34100   25.55500  
H    29.53800   24.07200   25.84800  
H    28.64500   22.92300   24.65500  
S    30.54500   23.93500   23.80800  
C    31.09500   22.39700   23.03500  
H    30.27700   21.93300   22.47900  
H    31.93000   22.51600   22.33900  
H    31.40200   21.69800   23.81700  
O    31.79300   24.28000   24.55800  
C    41.89500   25.12000   29.10800  
H    41.92700   26.00500   29.74900  
H    42.00100   24.24500   29.75400  
H    42.76000   25.15700   28.44100  
S    40.43100   25.04600   28.05000  
C    40.76500   26.66000   27.31000  
H    40.70100   27.35600   28.15000  
H    41.78000   26.67100   26.90600  
H    40.09300   26.80900   26.46100  
O    39.33300   25.27700   29.04100  
C    32.87100   21.78200   26.36000  
H    32.14800   22.58900   26.21600  
H    33.76900   22.13000   26.87700  
H    33.14200   21.47900   25.34500  
S    32.09500   20.50500   27.37500  
C    33.51800   19.43900   27.05000  
H    33.13500   18.46600   27.36600  
H    33.59800   19.35100   25.96300  
H    34.43300   19.75200   27.55900  
O    30.94200   19.99400   26.56700  
C    31.42000   23.57800   36.07100  
H    31.01000   24.56000   36.31800  
H    32.40900   23.61000   35.60700  
H    30.76300   22.91800   35.49800  
S    31.66600   22.78200   37.67400  
C    32.11900   21.09600   37.21100  
H    32.14900   20.52700   38.14400  
H    31.36100   20.81800   36.47400  
H    33.07000   21.11200   36.67400  
O    30.26000   22.48600   38.09600  
C    33.02400   26.61900   34.36100  
H    33.69000   27.32600   33.85900  
H    32.67400   27.17300   35.23600  
H    33.48700   25.68100   34.67800  
S    31.55000   26.28800   33.37000  
C    31.28000   27.96100   32.74200  
H    31.91000   28.11200   31.86100  
H    30.22700   28.05600   32.46400  
H    31.54200   28.65300   33.54600  
O    30.56000   26.21500   34.49000  
C    34.06800   26.91300   25.02300  
H    34.10100   27.62000   25.85700  
H    34.02400   25.89300   25.41300  
H    34.99600   27.13000   24.48700  
S    32.61600   27.48900   24.11500  
C    32.96000   26.64200   22.55600  
H    34.01200   26.77900   22.29600  
H    32.87200   25.56000   22.69000  
H    32.21100   26.99600   21.84300  
O    32.82600   28.94100   23.81700  
C    25.92800   25.82200   24.98600  
H    25.03900   25.92000   24.35900  
H    26.19100   24.76400   25.06100  
H    25.68500   26.04900   26.02700  
S    27.34800   26.93500   24.87900  
C    27.81500   26.40300   23.21700  
H    27.08400   26.94300   22.61000  
H    28.83900   26.75900   23.07100  
H    27.81600   25.32500   23.03600  
O    28.33000   26.13300   25.67600  
C    34.95900   23.60300   23.86700  
H    34.64900   22.87300   23.11400  
H    35.18800   23.14900   24.83400  
H    34.17300   24.36200   23.88600  
S    36.36100   24.59000   23.29600  
C    37.36100   23.16900   22.80000  
H    38.41300   23.38700   23.00200  
H    37.04300   22.23800   23.27700  
H    37.19700   23.00900   21.73100  
O    37.08100   25.07400   24.51600  
C    25.92500   33.82700   31.26100  
H    26.92800   34.19700   31.48800  
H    25.85700   34.12600   30.21200  
H    25.23500   34.41100   31.87500  
S    25.76400   32.03500   31.42700  
C    26.95000   31.50600   30.17100  
H    26.87000   30.43500   29.97000  
H    26.75600   31.96300   29.19800  
H    27.94500   31.70000   30.58000  
O    24.35300   31.89400   30.94600  
C    38.74200   21.48600   28.09100  
H    38.26700   21.72600   29.04600  
H    38.91500   20.42800   28.30700  
H    39.62900   22.12200   28.04600  
S    37.55500   21.72300   26.75000  
C    37.47900   23.51200   26.99600  
H    36.61600   23.95400   26.49200  
H    37.33000   23.61700   28.07300  
H    38.40600   24.01600   26.71000  
O    36.23000   21.40100   27.36900  
C    23.32100   29.68800   28.81000  
H    23.79100   29.22600   29.68200  
H    22.92400   30.69700   28.94800  
H    22.53400   29.01800   28.45400  
S    24.49200   29.73200   27.43500  
C    23.38500   29.36300   26.05500  
H    22.76300   28.53000   26.39100  
H    22.86700   30.31900   25.94300  
H    23.90300   29.13500   25.12000  
O    25.24900   28.44100   27.47500  
C    29.55800   30.86200   27.93100  
H    30.61300   30.99800   27.67900  
H    28.98200   31.79100   27.93700  
H    29.28800   30.25400   28.79800  
S    28.77000   30.12700   26.48000  
C    30.25400   29.16200   26.11700  
H    30.32600   28.30100   26.78600  
H    30.20400   28.80300   25.08600  
H    31.14700   29.78000   26.23900  
O    28.86100   31.16400   25.40500  
C    32.38300   32.34100   25.07500  
H    32.48700   32.25000   26.16000  
H    31.45800   32.90300   24.92500  
H    32.29200   31.33100   24.66800  
S    33.85900   33.20300   24.49100  
C    34.96700   32.31400   25.60600  
H    34.83300   31.22900   25.60000  
H    36.02300   32.48400   25.37800  
H    34.70700   32.63400   26.61800  
O    33.73400   34.59300   25.03200  
C    24.07100   20.93300   26.21100  
H    24.08600   19.86100   25.99800  
H    24.76300   21.30700   26.97100  
H    23.04900   21.11700   26.55200  
S    24.21600   22.07100   24.81600  
C    23.65400   20.96300   23.50300  
H    22.59200   21.17100   23.35100  
H    24.31700   21.20200   22.66800  
H    23.80400   19.92500   23.81300  
O    25.70500   22.21300   24.77100  
C    26.78800   31.30300   34.90500  
H    27.40000   32.12300   35.29100  
H    26.85300   31.21700   33.81800  
H    25.73600   31.51100   35.12000  
S    27.29700   29.85300   35.85500  
C    28.88400   29.69100   35.00700  
H    29.07900   28.62600   35.15500  
H    28.70900   29.87300   33.94400  
H    29.66300   30.37500   35.35400  
O    26.49700   28.75500   35.22600  
C    37.19500   27.94100   30.67600  
H    38.03800   27.35600   30.29800  
H    36.53900   27.98000   29.80300  
H    37.47100   28.88100   31.16200  
S    36.33100   27.08000   32.00900  
C    36.39400   25.52400   31.09200  
H    36.08000   25.61000   30.04900  
H    37.44500   25.22700   31.13700  
H    35.78000   24.75600   31.56800  
O    34.96500   27.59200   31.67100  
$end

$rem
JOBTYPE  SP
METHOD  B3LYP
BASIS  6-31+G(D)
SYMMETRY  FALSE
SYM_IGNORE  TRUE
MEM_TOTAL  16000
MEM_STATIC  8000
MAX_SUB_FILE_NUM  16000
BASIS_LIN_DEP_THRESH  6
THRESH  14
SCF_CONVERGENCE  8
GEN_SCFMAN  TRUE
SCF_GUESS  SAD
FD_MAT_VEC_PROD  FALSE
XC_GRID  000075000302
NL_GRID  1
MAX_SCF_CYCLES  200
ENV_METHOD  B3LYP
GEN_SCFMAN_EMBED  TRUE
SPADE_PARTITION  TRUE
$end

$development
embedding_early_stop  1
$end

--------------------------------------------------------------
 ----------------------------------------------------------------
             Standard Nuclear Orientation (Angstroms)
    I     Atom           X                Y                Z
 ----------------------------------------------------------------
    1      C      32.0500000000    26.4450000000    28.3140000000
    2      C      30.7340000000    25.9230000000    28.9140000000
    3      C      30.7670000000    24.3870000000    28.8470000000
    4      C      31.9220000000    23.8610000000    29.7150000000
    5      C      33.2960000000    24.4180000000    29.3070000000
    6      C      33.2470000000    25.9450000000    29.1390000000
    7      H      29.8190000000    24.0120000000    29.2520000000
    8      H      30.6110000000    26.1810000000    29.9730000000
    9      H      32.0600000000    26.1470000000    27.2590000000
   10      H      32.0790000000    27.5420000000    28.3120000000
   11      H      31.7260000000    24.1690000000    30.7490000000
   12      H      31.8480000000    22.7690000000    29.6490000000
   13      H      33.9180000000    24.1200000000    30.1600000000
   14      H      33.6390000000    23.8450000000    28.4370000000
   15      H      33.2380000000    26.4940000000    30.0880000000
   16      H      34.1420000000    26.3270000000    28.6310000000
   17      H      30.9080000000    23.9880000000    27.8360000000
   18      N      29.5580000000    26.3510000000    28.1580000000
   19      H      29.2690000000    25.8500000000    27.3270000000
   20      C      28.6300000000    27.2710000000    28.6000000000
   21      H      27.7970000000    27.4770000000    27.9040000000
   22      O      28.8000000000    27.8710000000    29.6460000000
   23      C      25.5780000000    30.8630000000    23.8380000000
   24      H      25.5320000000    30.3650000000    22.8660000000
   25      H      26.1130000000    30.1260000000    24.4420000000
   26      H      24.5880000000    30.9150000000    24.2990000000
   27      S      26.4590000000    32.4400000000    23.7930000000
   28      C      26.0170000000    32.8750000000    25.4900000000
   29      H      26.4310000000    32.1070000000    26.1490000000
   30      H      26.3910000000    33.8730000000    25.7330000000
   31      H      24.9350000000    33.0230000000    25.5350000000
   32      O      25.4420000000    33.1560000000    22.9600000000
   33      C      33.7150000000    29.7630000000    29.2890000000
   34      H      33.2040000000    29.7380000000    28.3230000000
   35      H      34.2930000000    28.8370000000    29.3420000000
   36      H      32.9120000000    29.7770000000    30.0300000000
   37      S      34.6830000000    31.2890000000    29.2720000000
   38      C      35.0720000000    31.4080000000    31.0320000000
   39      H      35.9900000000    30.8200000000    31.1140000000
   40      H      35.2370000000    32.4380000000    31.3600000000
   41      H      34.2780000000    30.9510000000    31.6280000000
   42      O      33.7410000000    32.4230000000    29.0090000000
   43      C      27.4450000000    26.3780000000    33.2540000000
   44      H      28.0240000000    27.2200000000    32.8660000000
   45      H      26.6810000000    26.7230000000    33.9570000000
   46      H      28.1800000000    25.6930000000    33.6830000000
   47      S      26.6640000000    25.7750000000    31.7400000000
   48      C      25.4150000000    27.0280000000    31.3750000000
   49      H      25.1920000000    27.5760000000    32.2940000000
   50      H      25.8030000000    27.7800000000    30.6820000000
   51      H      24.5420000000    26.5610000000    30.9120000000
   52      O      25.8380000000    24.6260000000    32.2280000000
   53      C      36.0820000000    22.1140000000    31.9370000000
   54      H      36.6990000000    21.2700000000    31.6200000000
   55      H      35.0270000000    21.8860000000    31.7660000000
   56      H      36.4830000000    22.8680000000    31.2550000000
   57      S      36.2500000000    22.3530000000    33.7210000000
   58      C      34.5520000000    22.8490000000    34.0860000000
   59      H      33.9060000000    21.9940000000    33.8720000000
   60      H      34.3790000000    23.2860000000    35.0730000000
   61      H      34.2330000000    23.5400000000    33.3010000000
   62      O      36.9520000000    23.6710000000    33.8170000000
   63      C      32.1230000000    17.8090000000    30.2130000000
   64      H      31.1090000000    17.4130000000    30.3170000000
   65      H      32.3240000000    18.3150000000    29.2650000000
   66      H      32.8670000000    17.0270000000    30.3840000000
   67      S      32.2950000000    19.0310000000    31.5320000000
   68      C      30.8820000000    20.0690000000    31.0920000000
   69      H      30.9930000000    20.4540000000    30.0750000000
   70      H      29.9530000000    19.5100000000    31.2270000000
   71      H      30.9800000000    20.9790000000    31.6890000000
   72      O      33.4530000000    19.9510000000    31.3010000000
   73      C      27.3760000000    20.2580000000    28.7870000000
   74      H      28.2730000000    20.7980000000    29.1010000000
   75      H      27.4470000000    20.2180000000    27.6970000000
   76      H      26.4610000000    20.7740000000    29.0900000000
   77      S      27.3130000000    18.6620000000    29.6300000000
   78      C      27.1640000000    19.3630000000    31.2890000000
   79      H      27.8450000000    20.2120000000    31.3900000000
   80      H      26.1470000000    19.6130000000    31.6040000000
   81      H      27.4890000000    18.6110000000    32.0120000000
   82      O      28.7070000000    18.1240000000    29.5270000000
   83      C      31.9680000000    32.7640000000    31.8500000000
   84      H      31.7900000000    31.7700000000    32.2680000000
   85      H      32.7070000000    32.7480000000    31.0440000000
   86      H      32.3360000000    33.4510000000    32.6170000000
   87      S      30.4570000000    33.4290000000    31.1160000000
   88      C      30.8160000000    35.1690000000    31.4440000000
   89      H      31.6990000000    35.4490000000    30.8640000000
   90      H      30.0690000000    35.8340000000    31.0020000000
   91      H      30.8960000000    35.4170000000    32.5060000000
   92      O      29.3240000000    33.1640000000    32.0580000000
   93      C      28.3640000000    22.9260000000    33.7040000000
   94      H      29.0440000000    23.4160000000    34.4040000000
   95      H      28.6860000000    23.0020000000    32.6620000000
   96      H      27.3090000000    23.1660000000    33.8590000000
   97      S      28.4050000000    21.1680000000    34.1190000000
   98      C      27.7540000000    21.2750000000    35.8020000000
   99      H      26.7760000000    21.7540000000    35.8960000000
  100      H      27.7610000000    20.2520000000    36.1850000000
  101      H      28.4530000000    21.9160000000    36.3460000000
  102      O      29.8470000000    20.8070000000    34.2920000000
  103      C      24.2550000000    25.1950000000    27.9760000000
  104      H      24.8830000000    26.0840000000    27.8790000000
  105      H      24.0530000000    24.7600000000    26.9940000000
  106      H      23.3350000000    25.2250000000    28.5650000000
  107      S      25.1220000000    24.0050000000    29.0230000000
  108      C      26.5750000000    23.5000000000    28.0760000000
  109      H      26.2610000000    22.9330000000    27.1960000000
  110      H      27.1260000000    24.4070000000    27.8130000000
  111      H      27.1310000000    22.9550000000    28.8430000000
  112      O      24.1170000000    22.8970000000    29.0820000000
  113      C      37.1160000000    27.5760000000    26.6450000000
  114      H      36.2320000000    27.0630000000    26.2580000000
  115      H      38.0060000000    26.9700000000    26.4540000000
  116      H      37.0160000000    27.6540000000    27.7310000000
  117      S      37.4280000000    29.2480000000    26.0360000000
  118      C      39.1850000000    29.3920000000    26.4340000000
  119      H      39.8890000000    29.0430000000    25.6750000000
  120      H      39.4530000000    30.3960000000    26.7720000000
  121      H      39.3740000000    28.7820000000    27.3210000000
  122      O      36.7190000000    30.0620000000    27.0730000000
  123      C      29.5690000000    23.2270000000    25.1540000000
  124      H      30.0680000000    22.3410000000    25.5550000000
  125      H      29.5380000000    24.0720000000    25.8480000000
  126      H      28.6450000000    22.9230000000    24.6550000000
  127      S      30.5450000000    23.9350000000    23.8080000000
  128      C      31.0950000000    22.3970000000    23.0350000000
  129      H      30.2770000000    21.9330000000    22.4790000000
  130      H      31.9300000000    22.5160000000    22.3390000000
  131      H      31.4020000000    21.6980000000    23.8170000000
  132      O      31.7930000000    24.2800000000    24.5580000000
  133      C      41.8950000000    25.1200000000    29.1080000000
  134      H      41.9270000000    26.0050000000    29.7490000000
  135      H      42.0010000000    24.2450000000    29.7540000000
  136      H      42.7600000000    25.1570000000    28.4410000000
  137      S      40.4310000000    25.0460000000    28.0500000000
  138      C      40.7650000000    26.6600000000    27.3100000000
  139      H      40.7010000000    27.3560000000    28.1500000000
  140      H      41.7800000000    26.6710000000    26.9060000000
  141      H      40.0930000000    26.8090000000    26.4610000000
  142      O      39.3330000000    25.2770000000    29.0410000000
  143      C      32.8710000000    21.7820000000    26.3600000000
  144      H      32.1480000000    22.5890000000    26.2160000000
  145      H      33.7690000000    22.1300000000    26.8770000000
  146      H      33.1420000000    21.4790000000    25.3450000000
  147      S      32.0950000000    20.5050000000    27.3750000000
  148      C      33.5180000000    19.4390000000    27.0500000000
  149      H      33.1350000000    18.4660000000    27.3660000000
  150      H      33.5980000000    19.3510000000    25.9630000000
  151      H      34.4330000000    19.7520000000    27.5590000000
  152      O      30.9420000000    19.9940000000    26.5670000000
  153      C      31.4200000000    23.5780000000    36.0710000000
  154      H      31.0100000000    24.5600000000    36.3180000000
  155      H      32.4090000000    23.6100000000    35.6070000000
  156      H      30.7630000000    22.9180000000    35.4980000000
  157      S      31.6660000000    22.7820000000    37.6740000000
  158      C      32.1190000000    21.0960000000    37.2110000000
  159      H      32.1490000000    20.5270000000    38.1440000000
  160      H      31.3610000000    20.8180000000    36.4740000000
  161      H      33.0700000000    21.1120000000    36.6740000000
  162      O      30.2600000000    22.4860000000    38.0960000000
  163      C      33.0240000000    26.6190000000    34.3610000000
  164      H      33.6900000000    27.3260000000    33.8590000000
  165      H      32.6740000000    27.1730000000    35.2360000000
  166      H      33.4870000000    25.6810000000    34.6780000000
  167      S      31.5500000000    26.2880000000    33.3700000000
  168      C      31.2800000000    27.9610000000    32.7420000000
  169      H      31.9100000000    28.1120000000    31.8610000000
  170      H      30.2270000000    28.0560000000    32.4640000000
  171      H      31.5420000000    28.6530000000    33.5460000000
  172      O      30.5600000000    26.2150000000    34.4900000000
  173      C      34.0680000000    26.9130000000    25.0230000000
  174      H      34.1010000000    27.6200000000    25.8570000000
  175      H      34.0240000000    25.8930000000    25.4130000000
  176      H      34.9960000000    27.1300000000    24.4870000000
  177      S      32.6160000000    27.4890000000    24.1150000000
  178      C      32.9600000000    26.6420000000    22.5560000000
  179      H      34.0120000000    26.7790000000    22.2960000000
  180      H      32.8720000000    25.5600000000    22.6900000000
  181      H      32.2110000000    26.9960000000    21.8430000000
  182      O      32.8260000000    28.9410000000    23.8170000000
  183      C      25.9280000000    25.8220000000    24.9860000000
  184      H      25.0390000000    25.9200000000    24.3590000000
  185      H      26.1910000000    24.7640000000    25.0610000000
  186      H      25.6850000000    26.0490000000    26.0270000000
  187      S      27.3480000000    26.9350000000    24.8790000000
  188      C      27.8150000000    26.4030000000    23.2170000000
  189      H      27.0840000000    26.9430000000    22.6100000000
  190      H      28.8390000000    26.7590000000    23.0710000000
  191      H      27.8160000000    25.3250000000    23.0360000000
  192      O      28.3300000000    26.1330000000    25.6760000000
  193      C      34.9590000000    23.6030000000    23.8670000000
  194      H      34.6490000000    22.8730000000    23.1140000000
  195      H      35.1880000000    23.1490000000    24.8340000000
  196      H      34.1730000000    24.3620000000    23.8860000000
  197      S      36.3610000000    24.5900000000    23.2960000000
  198      C      37.3610000000    23.1690000000    22.8000000000
  199      H      38.4130000000    23.3870000000    23.0020000000
  200      H      37.0430000000    22.2380000000    23.2770000000
  201      H      37.1970000000    23.0090000000    21.7310000000
  202      O      37.0810000000    25.0740000000    24.5160000000
  203      C      25.9250000000    33.8270000000    31.2610000000
  204      H      26.9280000000    34.1970000000    31.4880000000
  205      H      25.8570000000    34.1260000000    30.2120000000
  206      H      25.2350000000    34.4110000000    31.8750000000
  207      S      25.7640000000    32.0350000000    31.4270000000
  208      C      26.9500000000    31.5060000000    30.1710000000
  209      H      26.8700000000    30.4350000000    29.9700000000
  210      H      26.7560000000    31.9630000000    29.1980000000
  211      H      27.9450000000    31.7000000000    30.5800000000
  212      O      24.3530000000    31.8940000000    30.9460000000
  213      C      38.7420000000    21.4860000000    28.0910000000
  214      H      38.2670000000    21.7260000000    29.0460000000
  215      H      38.9150000000    20.4280000000    28.3070000000
  216      H      39.6290000000    22.1220000000    28.0460000000
  217      S      37.5550000000    21.7230000000    26.7500000000
  218      C      37.4790000000    23.5120000000    26.9960000000
  219      H      36.6160000000    23.9540000000    26.4920000000
  220      H      37.3300000000    23.6170000000    28.0730000000
  221      H      38.4060000000    24.0160000000    26.7100000000
  222      O      36.2300000000    21.4010000000    27.3690000000
  223      C      23.3210000000    29.6880000000    28.8100000000
  224      H      23.7910000000    29.2260000000    29.6820000000
  225      H      22.9240000000    30.6970000000    28.9480000000
  226      H      22.5340000000    29.0180000000    28.4540000000
  227      S      24.4920000000    29.7320000000    27.4350000000
  228      C      23.3850000000    29.3630000000    26.0550000000
  229      H      22.7630000000    28.5300000000    26.3910000000
  230      H      22.8670000000    30.3190000000    25.9430000000
  231      H      23.9030000000    29.1350000000    25.1200000000
  232      O      25.2490000000    28.4410000000    27.4750000000
  233      C      29.5580000000    30.8620000000    27.9310000000
  234      H      30.6130000000    30.9980000000    27.6790000000
  235      H      28.9820000000    31.7910000000    27.9370000000
  236      H      29.2880000000    30.2540000000    28.7980000000
  237      S      28.7700000000    30.1270000000    26.4800000000
  238      C      30.2540000000    29.1620000000    26.1170000000
  239      H      30.3260000000    28.3010000000    26.7860000000
  240      H      30.2040000000    28.8030000000    25.0860000000
  241      H      31.1470000000    29.7800000000    26.2390000000
  242      O      28.8610000000    31.1640000000    25.4050000000
  243      C      32.3830000000    32.3410000000    25.0750000000
  244      H      32.4870000000    32.2500000000    26.1600000000
  245      H      31.4580000000    32.9030000000    24.9250000000
  246      H      32.2920000000    31.3310000000    24.6680000000
  247      S      33.8590000000    33.2030000000    24.4910000000
  248      C      34.9670000000    32.3140000000    25.6060000000
  249      H      34.8330000000    31.2290000000    25.6000000000
  250      H      36.0230000000    32.4840000000    25.3780000000
  251      H      34.7070000000    32.6340000000    26.6180000000
  252      O      33.7340000000    34.5930000000    25.0320000000
  253      C      24.0710000000    20.9330000000    26.2110000000
  254      H      24.0860000000    19.8610000000    25.9980000000
  255      H      24.7630000000    21.3070000000    26.9710000000
  256      H      23.0490000000    21.1170000000    26.5520000000
  257      S      24.2160000000    22.0710000000    24.8160000000
  258      C      23.6540000000    20.9630000000    23.5030000000
  259      H      22.5920000000    21.1710000000    23.3510000000
  260      H      24.3170000000    21.2020000000    22.6680000000
  261      H      23.8040000000    19.9250000000    23.8130000000
  262      O      25.7050000000    22.2130000000    24.7710000000
  263      C      26.7880000000    31.3030000000    34.9050000000
  264      H      27.4000000000    32.1230000000    35.2910000000
  265      H      26.8530000000    31.2170000000    33.8180000000
  266      H      25.7360000000    31.5110000000    35.1200000000
  267      S      27.2970000000    29.8530000000    35.8550000000
  268      C      28.8840000000    29.6910000000    35.0070000000
  269      H      29.0790000000    28.6260000000    35.1550000000
  270      H      28.7090000000    29.8730000000    33.9440000000
  271      H      29.6630000000    30.3750000000    35.3540000000
  272      O      26.4970000000    28.7550000000    35.2260000000
  273      C      37.1950000000    27.9410000000    30.6760000000
  274      H      38.0380000000    27.3560000000    30.2980000000
  275      H      36.5390000000    27.9800000000    29.8030000000
  276      H      37.4710000000    28.8810000000    31.1620000000
  277      S      36.3310000000    27.0800000000    32.0090000000
  278      C      36.3940000000    25.5240000000    31.0920000000
  279      H      36.0800000000    25.6100000000    30.0490000000
  280      H      37.4450000000    25.2270000000    31.1370000000
  281      H      35.7800000000    24.7560000000    31.5680000000
  282      O      34.9650000000    27.5920000000    31.6710000000
 ----------------------------------------------------------------
 Nuclear Repulsion Energy =       44969.28370478 hartrees
 There are      581 alpha and      581 beta electrons
 Requested basis set is 6-31+G(d)
 There are 929 shells and 2589 basis functions

 Total QAlloc Memory Limit  16000 MB
 Mega-Array Size      7821 MB
 MEM_STATIC part      8000 MB
 A cutoff of  1.0D-14 yielded 167087 shell pairs
 There are   1443322 function pairs
 Smallest overlap matrix eigenvalue = 6.38E-07
 Linear dependence detected in AO basis
 Tighter screening thresholds may be required for diffuse basis sets
 Use S2THRESH > 14 and THRESH = 14 in case of SCF convergence issues
 Number of orthogonalized atomic orbitals = 2587
 Maximum deviation from orthogonality = 2.095E-10

 Scale SEOQF with 1.000000e-03/1.000000e-03/1.000000e-03

 Standard Electronic Orientation quadrupole field applied
 Nucleus-field energy     =    -0.0000000696 hartrees
 Guess from superposition of atomic densities
 Warning:  Energy on first SCF cycle will be non-variational
 SAD guess density has 1162.000002 electrons

 -----------------------------------------------------------------------
  General SCF calculation program by
  Eric Jon Sundstrom, Paul Horn, Yuezhi Mao, Dmitri Zuev, Alec White,
  David Stuck, Shaama M.S., Shane Yost, Joonho Lee, David Small,
  Daniel Levine, Susi Lehtola, Hugh Burton, Evgeny Epifanovsky,
  Bang C. Huynh
 -----------------------------------------------------------------------
=================================================
        Doing projection-based embedding         
      F. Manby et al. JCTC, 8, 2564 (2012)       
=================================================

****************************************************
   Low-level SCF calculation for the whole system   
****************************************************
----------------------------------------------
 Summary of the low-level theory: 
 Exchange:     0.2000 Hartree-Fock + 0.0800 Slater + 0.7200 B88
 Correlation:  0.1900 VWN1RPA + 0.8100 LYP
 Using Euler-Maclaurin-Lebedev (75,302) quadrature formula
----------------------------------------------
 using 16 threads for integral computing
 -------------------------------------------------------
 OpenMP Integral computing Module                
 Release: version 2.0, May 2017, Q-Chem Inc. Pleasanton 
 -------------------------------------------------------
 A restricted SCF calculation will be
 performed using DIIS
 SCF converges when DIIS error is below 1.0e-08
 ---------------------------------------
  Cycle       Energy         DIIS error
 ---------------------------------------
    1  -14806.0874806862      1.37e-02  
    2  -14782.8555730034      2.55e-03  
    3  -14771.5947093927      4.78e-03  
    4  -14786.8095341955      9.55e-04  
    5  -14787.5028587264      1.91e-04  
    6  -14787.5244727665      9.54e-05  
    7  -14787.5299320055      3.90e-05  
    8  -14787.5309537518      7.23e-06  
    9  -14787.5309911313      2.76e-06  
   10  -14787.5309964292      9.77e-07  
   11  -14787.5309970276      4.02e-07  
   12  -14787.5309971319      1.19e-07  
   13  -14787.5309971413      4.00e-08  
   14  -14787.5309971420      1.67e-08  
   15  -14787.5309971425      6.07e-09  Convergence criterion met
 ---------------------------------------
 SCF time:   CPU 165560.61s  wall 10475.00s 
 SCF   energy in the final basis set =   -14787.5309971425
 Total energy in the final basis set =   -14787.5309971425

****************************************************
             Start embedding calculation            
****************************************************
----------------------------------------------
 Summary of the high-level theory: 
 Exchange:     0.2000 Hartree-Fock + 0.0800 Slater + 0.7200 B88
 Correlation:  0.1900 VWN1RPA + 0.8100 LYP
 Using Euler-Maclaurin-Lebedev (75,302) quadrature formula
----------------------------------------------
Doing R-in-R Embedding Calculation
Number of fragments: 2
Embedded fragment(s): 1 
NOcc for each fragment
           35
          546
NBasis for each fragment
          197
         2392
Variational space of the embedded problem: 
NOcc (active)  = 35
NOcc (fixed)   = 546
NVir (total)   = 2006
Read converged orbitals from disk
=========================================================
       Doing SPADE partition for the orbital space       
     D. CLaudino and N. Mayhall JCTC 15, 1053 (2019)     
=========================================================
SPADE singular values:
 1.0000 1.0000 1.0000 1.0000 1.0000 1.0000 1.0000 1.0000 1.0000 0.9999
 0.9998 0.9997 0.9996 0.9996 0.9996 0.9995 0.9994 0.9992 0.9989 0.9980
 0.9972 0.9970 0.9964 0.9959 0.9955 0.9952 0.9945 0.9941 0.9933 0.9927
 0.9921 0.9913 0.9898 0.9861 0.9784 0.2206 0.1884 0.1796 0.1521 0.1422
 0.1279 0.1264 0.1214 0.1052 0.0968 0.0926 0.0878 0.0780 0.0754 0.0623
 0.0551 0.0527 0.0492 0.0465 0.0417 0.0390 0.0372 0.0350 0.0335 0.0328
 0.0276 0.0262 0.0246 0.0238 0.0230 0.0213 0.0204 0.0199 0.0179 0.0177
 0.0170 0.0159 0.0147 0.0143 0.0128 0.0121 0.0115 0.0106 0.0103 0.0094
 0.0086 0.0083 0.0080 0.0074 0.0071 0.0069 0.0066 0.0062 0.0060 0.0057
 0.0056 0.0054 0.0052 0.0050 0.0048 0.0047 0.0040 0.0039 0.0036 0.0035
 0.0033 0.0032 0.0030 0.0029 0.0027 0.0026 0.0025 0.0025 0.0024 0.0023
 0.0021 0.0020 0.0019 0.0018 0.0018 0.0017 0.0017 0.0016 0.0015 0.0015
 0.0015 0.0014 0.0013 0.0013 0.0012 0.0012 0.0011 0.0011 0.0011 0.0010
 0.0010 0.0009 0.0009 0.0009 0.0008 0.0008 0.0007 0.0007 0.0007 0.0007
 0.0006 0.0006 0.0006 0.0005 0.0005 0.0005 0.0005 0.0005 0.0004 0.0004
 0.0004 0.0004 0.0004 0.0003 0.0003 0.0003 0.0003 0.0003 0.0003 0.0003
 0.0003 0.0003 0.0002 0.0002 0.0002 0.0002 0.0002 0.0002 0.0002 0.0002
 0.0002 0.0002 0.0002 0.0002 0.0002 0.0002 0.0001 0.0001 0.0001 0.0001
 0.0001 0.0001 0.0001 0.0001 0.0001 0.0001 0.0001 0.0001 0.0001 0.0001
 0.0001 0.0001 0.0001 0.0001 0.0001 0.0001 0.0000
Early stop requested!
546 environment occs will be part of frozen-core in future post-HF calculations
 
 --------------------------------------------------------------
 
                    Orbital Energies (a.u.)
 --------------------------------------------------------------
 
 Alpha MOs
 -- Occupied --
 -0.5383  -0.5045  -0.5016  -0.4828  -0.4748  -0.4618  -0.4580  -0.4199
 -0.4776  -0.4612  -0.4844  -0.4152  -0.4503  -0.4485  -0.5485  -0.5349
 -0.4958  -0.4597  -0.4947  -0.4760  -0.4486  -0.5265  -0.5511  -0.4545
 -0.5143  -0.4954  -0.5179  -0.6541  -0.5005  -0.6007  -0.5826  -0.7460
 -0.6265  -0.6037  -0.5770  -0.5313  -0.6010  -0.6031  -0.5160  -0.5902
 -0.5394  -0.5731  -0.5989  -0.5424  -0.5600  -0.5491  -0.5321  -0.5207
 -0.5456  -0.6576  -0.5543  -0.5923  -0.5566  -0.6148  -0.6452  -0.5336
 -0.6907  -0.6236  -0.7695  -0.6544  -0.6615  -0.6126  -0.6714  -0.6526
 -0.6781  -0.7352  -0.9359  -1.2429  -0.7301  -0.8389  -0.7915  -0.8631
 -0.8371  -1.1853  -0.7673  -1.0127  -0.8355  -1.1914  -0.8889  -1.4012
 -1.2509  -1.2910  -1.3665  -1.3569  -1.8688  -1.2140  -1.1625  -1.1810
 -1.0118  -1.4770  -1.0520  -0.8580  -0.9406  -1.2475  -1.2463  -1.5454
 -1.3475  -1.0617  -1.5884  -1.1290  -1.9495  -1.3051  -1.2802  -1.0012
 -2.1212  -3.4581  -1.2355  -3.3102  -1.3288  -1.0466  -1.1043  -1.9814
 -1.1101  -1.2653  -1.5712  -1.2318  -1.1833  -0.9526  -1.3342  -1.5373
 -1.2837  -1.5449  -1.8881  -1.6012  -1.3830  -1.1896  -1.3117  -1.1966
 -1.3026  -1.2591  -1.3627  -1.2551  -1.4328  -1.2368  -1.5642  -1.6295
 -1.2325  -1.4820  -1.8904  -1.4388  -1.6253  -1.4886  -1.7943  -1.7567
 -1.5023  -1.3725  -1.7040  -1.4381  -1.7185  -1.9940  -1.8064  -1.1946
 -1.9524  -2.3580  -1.5738  -1.9145  -1.5796  -1.4590  -2.1662  -1.8300
 -1.7436  -2.3282  -5.9822  -5.9007  -5.9657  -5.9468  -5.9852  -5.9642
 -6.0064  -5.9757  -5.9723  -5.9720  -5.9704  -5.8875  -6.0022  -5.7355
 -5.9958  -5.8497  -5.6997  -5.9605  -5.9669  -5.9563  -1.6460  -2.4088
-11.8443  -5.0549 -10.0906 -35.5874  -1.7629  -2.3848 -13.6813  -4.8274
 -1.3970 -10.6897  -8.6236  -8.2400  -7.0518  -3.1684  -7.0973  -1.8222
 -1.7820  -4.6322  -2.0405  -1.3994 -10.9286  -1.2517  -1.5996  -5.5737
 -1.2969 -73.7000  -1.6046 -79.7073  -2.8915  -1.3144  -3.8480  -5.2650
 -8.5399  -9.4209  -4.4165 -16.9288 -15.6253  -1.1295  -9.5793 -14.4576
 -9.3591  -2.4186 -10.8470 -14.6849  -7.1769  -2.9874  -1.3017  -2.4795
 -6.7500  -1.4857  -1.3559  -7.0338  -1.2464  -1.4091  -4.1171 -77.3682
-75.3598  -9.1533  -4.2906  -2.8710  -8.9083  -5.7044  -1.8037 -17.8129
-13.7101  -7.8225  -9.0544  -9.0370 -10.2438  -7.8958  -4.8313  -3.2196
-10.2537  -2.2453  -1.5228 -14.3655  -2.4798  -3.8209  -7.3257  -5.5449
 -1.6362  -1.5074  -3.0091 -62.1774  -3.1789  -9.0498  -6.1140 -11.1286
-28.9303  -1.7233 -44.8092 -23.8847  -3.3661  -2.7736  -9.0216  -9.9670
 -3.5452 -14.4751  -3.0957  -7.9496  -9.6130  -2.1774  -5.1964  -5.5163
 -2.6518  -6.2554 -59.6853  -2.2424  -4.8654  -1.9174 -53.6066 -58.9926
 -1.4268  -1.5602  -4.3439  -2.2821  -2.2554  -6.2710  -8.4650  -9.1964
 -7.3742  -3.2717  -8.6619 -13.2886 -27.5675  -4.4786 -19.7547  -3.9062
 -5.8434 -18.1703  -6.8334  -7.2919  -8.4524  -6.4669  -5.0676  -6.1124
 -5.3235 -14.1091 -13.4658  -3.6438  -9.9303 -11.3096  -4.2794  -8.0699
-10.9329 -11.1643 -15.9425 -15.3193 -16.8612  -8.8019 -16.1045  -8.1306
 -9.1040  -5.2985  -4.0116 -12.4285  -7.1359  -5.9189  -4.5081  -8.3008
 -5.3498  -7.5571  -5.1994  -6.0292  -8.4871  -3.7181  -4.7998  -5.3010
 -5.8162 -14.7994  -4.1145  -5.3877  -4.7226 -14.0554  -6.3495 -29.1418
 -8.8828 -10.0498  -4.8867  -7.2875 -20.8331  -8.6791 -14.0080 -10.1682
 -6.9746  -6.6697  -5.9896  -5.7717 -16.1834  -3.5831  -3.5695  -3.4884
 -4.1767  -6.6073  -3.2804  -3.2367  -5.4230  -6.4045  -3.2818  -5.9735
 -7.7117  -9.5426  -2.8672  -3.9857 -19.7305  -8.5966  -6.4080  -6.6902
 -4.6125 -10.8910  -8.9602  -7.5014  -8.5833 -10.3598 -10.0429  -3.7560
-18.2899 -15.0374 -16.6842 -10.6555 -13.7678  -3.1708 -16.5518  -2.7700
 -2.5822  -7.4204  -2.0231 -10.1038  -3.6544  -5.9407  -6.1416  -8.7269
 -7.9848  -9.1349 -15.3001  -7.6242  -7.8475  -4.3001  -6.2975  -4.5027
 -9.4204  -4.5525 -39.0185  -6.9019  -3.4849 -19.5575 -22.5985 -16.1480
-14.2480  -7.9432  -7.7584  -4.4539  -7.5650  -2.3180 -10.8147 -20.2509
 -4.7788  -4.9072  -2.4290 -11.4852 -13.2614 -18.2807  -6.4486 -12.5732
 -2.8155 -41.1396 -11.4555  -5.7857 -10.2737  -1.0887  -9.4390  -6.3863
 -4.6259  -3.2036 -35.9984 -12.7357 -14.9100  -6.4187  -9.7797  -6.4493
-15.8773  -5.4261 -14.1344  -4.5729  -2.6115  -2.9449 -22.4443 -12.6532
-51.7192 -17.3722 -20.7645  -4.4477  -6.2608  -3.9237  -8.2247  -1.8596
-63.5793  -5.3385  -1.9507  -4.1485  -5.0902  -1.4962  -1.2401 -72.5724
 -8.6824  -1.7230 -76.8959 -72.8121  -2.2877  -6.9130 -12.8202  -7.8690
 -1.9908  -8.5191 -16.2095  -9.3154 -10.6686  -5.9194  -4.2167 -17.8464
-15.7857 -17.9327 -13.2121 -11.4843  -4.9697 -12.6671  -9.7371 -11.0300
 -7.5210 -22.3010  -7.1159  -8.7958  -6.3597 -30.2713  -3.1612 -11.7329
 -2.0998 -19.7839 -35.5491 -44.4310  -6.7300  -5.0292  -3.6346  -9.2314
-12.7444 -17.1264 -10.5938 -16.5149 -15.2192  -7.9261 -10.2339  -6.2983
 -3.9939 -16.8461  -4.0426  -6.4994 -12.3654  -9.8735  -5.4285  -6.0991
-11.9577  -3.9094 -10.5695 -13.1211 -12.0520 -10.9486 -11.3559 -10.2570
-14.5542 -10.1029 -11.0574  -0.8837  -0.7165  -0.6122  -0.7041  -0.7211
 -0.7476  -0.6752  -0.9157  -0.4442  -0.4344  -0.4457  -0.4351  -0.4978
 -0.4586  -0.4302  -0.4254  -0.4923  -0.3897  -0.4569  -0.3904  -0.4907
 -0.4981  -0.3844  -0.4690  -0.5032  -0.5732
 -- Virtual --
 -0.0391  -0.0367  -0.0345  -0.0283  -0.0275  -0.0245  -0.0225  -0.0220
 -0.0198  -0.0184  -0.0178  -0.0164  -0.0156  -0.0139  -0.0127  -0.0114
 -0.0104  -0.0089  -0.0074  -0.0066  -0.0051  -0.0050  -0.0043  -0.0039
 -0.0026  -0.0020  -0.0001   0.0009   0.0020   0.0032   0.0039   0.0043
  0.0056   0.0062   0.0066   0.0069   0.0079   0.0093   0.0107   0.0115
  0.0116   0.0124   0.0133   0.0137   0.0147   0.0163   0.0166   0.0172
  0.0176   0.0178   0.0184   0.0193   0.0203   0.0214   0.0218   0.0223
  0.0236   0.0241   0.0245   0.0249   0.0255   0.0262   0.0265   0.0271
  0.0280   0.0288   0.0294   0.0300   0.0306   0.0311   0.0319   0.0324
  0.0329   0.0339   0.0340   0.0349   0.0357   0.0359   0.0364   0.0379
  0.0382   0.0388   0.0394   0.0401   0.0410   0.0418   0.0420   0.0426
  0.0432   0.0445   0.0448   0.0454   0.0456   0.0462   0.0473   0.0479
  0.0484   0.0497   0.0505   0.0509   0.0518   0.0525   0.0529   0.0535
  0.0538   0.0544   0.0553   0.0567   0.0573   0.0576   0.0582   0.0591
  0.0594   0.0595   0.0604   0.0616   0.0622   0.0626   0.0629   0.0635
  0.0637   0.0651   0.0659   0.0666   0.0671   0.0674   0.0685   0.0694
  0.0697   0.0701   0.0707   0.0711   0.0724   0.0728   0.0733   0.0738
  0.0742   0.0752   0.0757   0.0764   0.0773   0.0775   0.0786   0.0791
  0.0798   0.0807   0.0811   0.0815   0.0828   0.0835   0.0839   0.0852
  0.0862   0.0865   0.0871   0.0874   0.0884   0.0893   0.0900   0.0905
  0.0911   0.0912   0.0923   0.0928   0.0936   0.0948   0.0952   0.0955
  0.0960   0.0970   0.0977   0.0980   0.0984   0.0994   0.0997   0.0999
  0.1011   0.1020   0.1023   0.1029   0.1038   0.1044   0.1049   0.1053
  0.1066   0.1073   0.1078   0.1081   0.1087   0.1093   0.1101   0.1114
  0.1122   0.1126   0.1129   0.1139   0.1141   0.1148   0.1150   0.1155
  0.1158   0.1161   0.1170   0.1173   0.1178   0.1182   0.1192   0.1198
  0.1203   0.1217   0.1221   0.1225   0.1230   0.1243   0.1252   0.1253
  0.1258   0.1265   0.1272   0.1278   0.1280   0.1290   0.1301   0.1306
  0.1313   0.1316   0.1329   0.1333   0.1338   0.1351   0.1353   0.1364
  0.1368   0.1369   0.1373   0.1374   0.1384   0.1394   0.1404   0.1409
  0.1421   0.1429   0.1432   0.1434   0.1437   0.1442   0.1449   0.1462
  0.1467   0.1473   0.1476   0.1484   0.1491   0.1494   0.1502   0.1511
  0.1518   0.1525   0.1531   0.1544   0.1548   0.1552   0.1555   0.1560
  0.1562   0.1567   0.1578   0.1586   0.1595   0.1596   0.1601   0.1609
  0.1620   0.1627   0.1632   0.1636   0.1640   0.1644   0.1651   0.1658
  0.1661   0.1666   0.1677   0.1681   0.1685   0.1689   0.1692   0.1698
  0.1701   0.1712   0.1719   0.1729   0.1738   0.1740   0.1744   0.1747
  0.1757   0.1759   0.1770   0.1781   0.1783   0.1786   0.1789   0.1792
  0.1798   0.1800   0.1808   0.1816   0.1827   0.1833   0.1840   0.1846
  0.1853   0.1857   0.1866   0.1871   0.1874   0.1880   0.1887   0.1894
  0.1900   0.1906   0.1912   0.1919   0.1928   0.1931   0.1934   0.1947
  0.1950   0.1956   0.1958   0.1971   0.1983   0.1987   0.1991   0.1996
  0.2007   0.2011   0.2012   0.2016   0.2021   0.2031   0.2038   0.2047
  0.2050   0.2059   0.2066   0.2069   0.2072   0.2080   0.2086   0.2091
  0.2102   0.2109   0.2117   0.2122   0.2126   0.2133   0.2139   0.2144
  0.2150   0.2161   0.2164   0.2167   0.2176   0.2181   0.2189   0.2191
  0.2199   0.2207   0.2213   0.2221   0.2227   0.2233   0.2243   0.2247
  0.2258   0.2264   0.2268   0.2278   0.2283   0.2297   0.2299   0.2306
  0.2311   0.2319   0.2320   0.2324   0.2333   0.2348   0.2352   0.2352
  0.2358   0.2365   0.2380   0.2386   0.2388   0.2394   0.2399   0.2411
  0.2416   0.2423   0.2427   0.2442   0.2446   0.2454   0.2455   0.2467
  0.2468   0.2475   0.2485   0.2491   0.2496   0.2514   0.2519   0.2529
  0.2533   0.2539   0.2549   0.2557   0.2562   0.2565   0.2571   0.2581
  0.2581   0.2596   0.2602   0.2607   0.2612   0.2620   0.2624   0.2634
  0.2636   0.2647   0.2658   0.2665   0.2666   0.2683   0.2688   0.2697
  0.2706   0.2714   0.2716   0.2722   0.2727   0.2741   0.2746   0.2747
  0.2758   0.2764   0.2777   0.2784   0.2788   0.2800   0.2809   0.2817
  0.2821   0.2826   0.2834   0.2841   0.2855   0.2860   0.2867   0.2883
  0.2887   0.2893   0.2902   0.2904   0.2917   0.2925   0.2935   0.2936
  0.2952   0.2963   0.2972   0.2977   0.2983   0.2994   0.2998   0.3007
  0.3010   0.3020   0.3023   0.3036   0.3042   0.3045   0.3061   0.3064
  0.3075   0.3087   0.3094   0.3100   0.3110   0.3122   0.3126   0.3135
  0.3139   0.3151   0.3154   0.3164   0.3176   0.3192   0.3196   0.3204
  0.3213   0.3220   0.3223   0.3228   0.3243   0.3259   0.3265   0.3272
  0.3278   0.3282   0.3293   0.3311   0.3329   0.3332   0.3342   0.3350
  0.3358   0.3372   0.3384   0.3386   0.3398   0.3412   0.3421   0.3430
  0.3445   0.3450   0.3456   0.3468   0.3471   0.3480   0.3485   0.3486
  0.3506   0.3517   0.3530   0.3532   0.3539   0.3552   0.3556   0.3564
  0.3570   0.3581   0.3590   0.3595   0.3612   0.3625   0.3635   0.3645
  0.3652   0.3666   0.3673   0.3689   0.3699   0.3704   0.3710   0.3717
  0.3731   0.3738   0.3745   0.3752   0.3761   0.3774   0.3784   0.3792
  0.3795   0.3808   0.3815   0.3827   0.3832   0.3836   0.3844   0.3854
  0.3877   0.3878   0.3891   0.3896   0.3903   0.3915   0.3928   0.3932
  0.3938   0.3941   0.3954   0.3959   0.3971   0.3979   0.3986   0.3992
  0.4000   0.4012   0.4018   0.4027   0.4033   0.4052   0.4060   0.4069
  0.4078   0.4086   0.4093   0.4103   0.4113   0.4117   0.4127   0.4146
  0.4156   0.4168   0.4177   0.4180   0.4188   0.4199   0.4220   0.4234
  0.4239   0.4255   0.4261   0.4266   0.4274   0.4287   0.4295   0.4306
  0.4326   0.4331   0.4349   0.4360   0.4373   0.4378   0.4384   0.4403
  0.4418   0.4423   0.4444   0.4453   0.4466   0.4480   0.4486   0.4495
  0.4507   0.4513   0.4519   0.4530   0.4538   0.4554   0.4565   0.4572
  0.4587   0.4599   0.4606   0.4619   0.4645   0.4649   0.4664   0.4668
  0.4686   0.4694   0.4700   0.4708   0.4721   0.4739   0.4759   0.4764
  0.4781   0.4794   0.4816   0.4836   0.4839   0.4843   0.4862   0.4881
  0.4896   0.4910   0.4921   0.4930   0.4946   0.4960   0.4975   0.4985
  0.5003   0.5023   0.5041   0.5047   0.5055   0.5078   0.5089   0.5106
  0.5111   0.5149   0.5154   0.5186   0.5190   0.5207   0.5210   0.5235
  0.5248   0.5253   0.5267   0.5292   0.5309   0.5325   0.5361   0.5365
  0.5388   0.5405   0.5416   0.5432   0.5438   0.5451   0.5453   0.5473
  0.5475   0.5490   0.5521   0.5526   0.5537   0.5560   0.5569   0.5573
  0.5614   0.5625   0.5640   0.5660   0.5686   0.5690   0.5710   0.5723
  0.5742   0.5748   0.5768   0.5781   0.5805   0.5823   0.5840   0.5851
  0.5857   0.5867   0.5882   0.5900   0.5920   0.5926   0.5936   0.5948
  0.5959   0.5967   0.5974   0.6016   0.6028   0.6037   0.6058   0.6068
  0.6083   0.6090   0.6106   0.6112   0.6128   0.6138   0.6142   0.6160
  0.6166   0.6180   0.6203   0.6219   0.6221   0.6235   0.6253   0.6263
  0.6275   0.6303   0.6312   0.6318   0.6333   0.6348   0.6359   0.6363
  0.6380   0.6397   0.6402   0.6404   0.6420   0.6425   0.6441   0.6453
  0.6455   0.6467   0.6486   0.6517   0.6527   0.6531   0.6540   0.6563
  0.6566   0.6578   0.6585   0.6592   0.6603   0.6613   0.6623   0.6628
  0.6637   0.6648   0.6665   0.6677   0.6683   0.6689   0.6704   0.6705
  0.6729   0.6746   0.6752   0.6759   0.6778   0.6789   0.6801   0.6810
  0.6814   0.6846   0.6858   0.6869   0.6887   0.6892   0.6902   0.6909
  0.6919   0.6941   0.6965   0.6967   0.6976   0.6982   0.6992   0.7008
  0.7029   0.7033   0.7048   0.7060   0.7069   0.7087   0.7099   0.7104
  0.7125   0.7130   0.7138   0.7155   0.7158   0.7182   0.7199   0.7224
  0.7227   0.7254   0.7260   0.7272   0.7292   0.7309   0.7319   0.7323
  0.7343   0.7349   0.7363   0.7373   0.7388   0.7402   0.7412   0.7442
  0.7451   0.7458   0.7482   0.7494   0.7507   0.7522   0.7544   0.7546
  0.7566   0.7584   0.7597   0.7612   0.7626   0.7647   0.7650   0.7663
  0.7678   0.7694   0.7716   0.7729   0.7742   0.7756   0.7784   0.7790
  0.7814   0.7837   0.7854   0.7858   0.7883   0.7888   0.7901   0.7915
  0.7929   0.7951   0.7965   0.7979   0.7986   0.8019   0.8035   0.8041
  0.8051   0.8068   0.8077   0.8099   0.8110   0.8121   0.8130   0.8150
  0.8173   0.8179   0.8197   0.8213   0.8226   0.8247   0.8257   0.8261
  0.8284   0.8300   0.8310   0.8328   0.8343   0.8349   0.8362   0.8376
  0.8398   0.8415   0.8427   0.8447   0.8460   0.8471   0.8481   0.8493
  0.8509   0.8532   0.8534   0.8553   0.8570   0.8578   0.8582   0.8593
  0.8620   0.8627   0.8633   0.8648   0.8665   0.8676   0.8686   0.8706
  0.8714   0.8742   0.8750   0.8757   0.8768   0.8783   0.8792   0.8799
  0.8810   0.8826   0.8837   0.8854   0.8872   0.8879   0.8888   0.8893
  0.8931   0.8946   0.8950   0.8959   0.8966   0.8976   0.8999   0.9002
  0.9021   0.9044   0.9045   0.9066   0.9080   0.9083   0.9098   0.9119
  0.9121   0.9143   0.9154   0.9158   0.9183   0.9189   0.9213   0.9222
  0.9241   0.9242   0.9257   0.9277   0.9283   0.9302   0.9319   0.9324
  0.9327   0.9342   0.9346   0.9360   0.9371   0.9381   0.9401   0.9403
  0.9413   0.9435   0.9442   0.9447   0.9461   0.9477   0.9488   0.9498
  0.9509   0.9524   0.9531   0.9535   0.9559   0.9569   0.9582   0.9586
  0.9600   0.9607   0.9612   0.9633   0.9645   0.9651   0.9659   0.9669
  0.9683   0.9695   0.9699   0.9722   0.9731   0.9733   0.9752   0.9761
  0.9772   0.9779   0.9795   0.9810   0.9821   0.9824   0.9840   0.9850
  0.9863   0.9872   0.9877   0.9889   0.9893   0.9903   0.9915   0.9933
  0.9939   0.9952   0.9958   0.9963   0.9977   0.9995   1.0006   1.0016
  1.0029   1.0039   1.0047   1.0067   1.0085   1.0093   1.0113   1.0117
  1.0132   1.0142   1.0151   1.0156   1.0176   1.0192   1.0196   1.0220
  1.0230   1.0242   1.0262   1.0277   1.0286   1.0289   1.0298   1.0308
  1.0320   1.0344   1.0356   1.0375   1.0378   1.0391   1.0407   1.0416
  1.0427   1.0441   1.0450   1.0465   1.0476   1.0487   1.0516   1.0529
  1.0538   1.0548   1.0553   1.0566   1.0581   1.0596   1.0606   1.0618
  1.0633   1.0644   1.0653   1.0665   1.0672   1.0695   1.0712   1.0721
  1.0739   1.0752   1.0760   1.0771   1.0781   1.0794   1.0832   1.0844
  1.0863   1.0889   1.0892   1.0911   1.0933   1.0948   1.0959   1.0970
  1.0993   1.1001   1.1012   1.1021   1.1033   1.1050   1.1060   1.1076
  1.1086   1.1090   1.1114   1.1139   1.1144   1.1151   1.1166   1.1173
  1.1182   1.1203   1.1217   1.1235   1.1249   1.1257   1.1281   1.1290
  1.1294   1.1310   1.1323   1.1339   1.1348   1.1358   1.1365   1.1381
  1.1387   1.1410   1.1421   1.1434   1.1447   1.1464   1.1486   1.1498
  1.1506   1.1519   1.1523   1.1540   1.1546   1.1556   1.1563   1.1584
  1.1605   1.1621   1.1627   1.1664   1.1667   1.1676   1.1689   1.1699
  1.1707   1.1712   1.1731   1.1735   1.1753   1.1767   1.1787   1.1790
  1.1816   1.1828   1.1842   1.1849   1.1856   1.1872   1.1898   1.1908
  1.1917   1.1929   1.1946   1.1958   1.1974   1.1995   1.2016   1.2045
  1.2054   1.2093   1.2099   1.2120   1.2149   1.2174   1.2207   1.2228
  1.2236   1.2246   1.2251   1.2272   1.2285   1.2303   1.2323   1.2340
  1.2358   1.2382   1.2410   1.2421   1.2426   1.2449   1.2453   1.2485
  1.2499   1.2516   1.2549   1.2574   1.2589   1.2614   1.2652   1.2662
  1.2674   1.2685   1.2733   1.2748   1.2757   1.2776   1.2802   1.2814
  1.2853   1.2861   1.2886   1.2897   1.2946   1.2958   1.2982   1.3007
  1.3018   1.3048   1.3061   1.3092   1.3099   1.3115   1.3131   1.3176
  1.3186   1.3200   1.3215   1.3235   1.3247   1.3256   1.3294   1.3327
  1.3358   1.3381   1.3386   1.3429   1.3450   1.3466   1.3485   1.3495
  1.3503   1.3519   1.3565   1.3601   1.3619   1.3635   1.3663   1.3669
  1.3678   1.3699   1.3720   1.3734   1.3746   1.3772   1.3786   1.3798
  1.3810   1.3821   1.3826   1.3845   1.3862   1.3874   1.3917   1.3928
  1.3931   1.3945   1.3958   1.3971   1.3981   1.4000   1.4015   1.4039
  1.4053   1.4057   1.4059   1.4077   1.4092   1.4113   1.4130   1.4133
  1.4152   1.4168   1.4178   1.4200   1.4203   1.4240   1.4251   1.4259
  1.4279   1.4303   1.4314   1.4339   1.4349   1.4353   1.4373   1.4393
  1.4414   1.4420   1.4438   1.4458   1.4466   1.4492   1.4509   1.4517
  1.4531   1.4549   1.4556   1.4583   1.4588   1.4611   1.4633   1.4647
  1.4655   1.4680   1.4684   1.4702   1.4743   1.4749   1.4767   1.4790
  1.4810   1.4833   1.4834   1.4863   1.4870   1.4875   1.4913   1.4939
  1.4957   1.4973   1.4982   1.5025   1.5034   1.5037   1.5072   1.5081
  1.5106   1.5109   1.5126   1.5161   1.5185   1.5202   1.5235   1.5264
  1.5270   1.5284   1.5295   1.5337   1.5372   1.5388   1.5402   1.5441
  1.5464   1.5500   1.5505   1.5523   1.5533   1.5553   1.5628   1.5669
  1.5682   1.5724   1.5776   1.5802   1.5864   1.5883   1.5911   1.5943
  1.5974   1.5988   1.6040   1.6095   1.6137   1.6227   1.6235   1.6298
  1.6310   1.6368   1.6415   1.6443   1.6507   1.6538   1.6551   1.6627
  1.6631   1.6659   1.6666   1.6693   1.6706   1.6716   1.6724   1.6757
  1.6770   1.6782   1.6791   1.6804   1.6813   1.6831   1.6844   1.6855
  1.6869   1.6873   1.6891   1.6908   1.6918   1.6926   1.6939   1.6945
  1.6963   1.6968   1.6975   1.6993   1.7010   1.7024   1.7039   1.7047
  1.7057   1.7071   1.7075   1.7082   1.7108   1.7122   1.7125   1.7129
  1.7145   1.7153   1.7169   1.7189   1.7190   1.7216   1.7231   1.7245
  1.7261   1.7277   1.7283   1.7293   1.7299   1.7329   1.7359   1.7374
  1.7388   1.7409   1.7435   1.7451   1.7461   1.7483   1.7496   1.7509
  1.7517   1.7544   1.7563   1.7579   1.7593   1.7600   1.7614   1.7619
  1.7625   1.7642   1.7668   1.7681   1.7701   1.7712   1.7723   1.7733
  1.7745   1.7755   1.7773   1.7783   1.7798   1.7805   1.7815   1.7833
  1.7843   1.7866   1.7876   1.7911   1.7919   1.7957   1.7965   1.7979
  1.8000   1.8016   1.8053   1.8078   1.8122   1.8128   1.8174   1.8205
  1.8216   1.8235   1.8282   1.8353   1.8389   1.8392   1.8408   1.8460
  1.8477   1.8490   1.8518   1.8540   1.8563   1.8571   1.8588   1.8608
  1.8615   1.8653   1.8677   1.8708   1.8735   1.8748   1.8761   1.8786
  1.8813   1.8819   1.8827   1.8861   1.8887   1.8895   1.8900   1.8911
  1.8924   1.8935   1.8948   1.8951   1.8967   1.8984   1.9000   1.9008
  1.9037   1.9047   1.9063   1.9071   1.9086   1.9095   1.9111   1.9118
  1.9129   1.9137   1.9150   1.9162   1.9182   1.9189   1.9197   1.9211
  1.9219   1.9229   1.9238   1.9250   1.9289   1.9297   1.9311   1.9324
  1.9347   1.9360   1.9364   1.9376   1.9402   1.9411   1.9425   1.9452
  1.9466   1.9495   1.9503   1.9523   1.9590   1.9625   1.9642   1.9660
  1.9700   1.9726   1.9771   1.9830   1.9858   1.9967   1.9978   2.0065
  2.0084   2.0149   2.0243   2.0264   2.0292   2.0422   2.0466   2.0481
  2.0505   2.0558   2.0590   2.0615   2.0623   2.0635   2.0642   2.0670
  2.0677   2.0680   2.0702   2.0728   2.0735   2.0750   2.0754   2.0765
  2.0774   2.0794   2.0795   2.0805   2.0810   2.0815   2.0829   2.0841
  2.0849   2.0871   2.0892   2.0907   2.0918   2.0943   2.0949   2.0951
  2.0979   2.0997   2.1015   2.1036   2.1048   2.1075   2.1100   2.1123
  2.1124   2.1169   2.1181   2.1206   2.1230   2.1254   2.1261   2.1313
  2.1324   2.1336   2.1341   2.1353   2.1449   2.1506   2.1538   2.1583
  2.1607   2.1629   2.1662   2.1753   2.1763   2.1784   2.1812   2.1827
  2.1919   2.1933   2.1939   2.1952   2.1995   2.2064   2.2066   2.2083
  2.2088   2.2096   2.2120   2.2137   2.2144   2.2163   2.2170   2.2193
  2.2206   2.2233   2.2244   2.2256   2.2270   2.2285   2.2337   2.2373
  2.2393   2.2401   2.2415   2.2423   2.2433   2.2459   2.2463   2.2469
  2.2484   2.2498   2.2514   2.2526   2.2528   2.2543   2.2554   2.2566
  2.2571   2.2580   2.2588   2.2589   2.2597   2.2603   2.2615   2.2622
  2.2624   2.2636   2.2645   2.2655   2.2667   2.2677   2.2681   2.2688
  2.2695   2.2706   2.2726   2.2732   2.2746   2.2747   2.2749   2.2768
  2.2769   2.2775   2.2786   2.2790   2.2793   2.2806   2.2819   2.2821
  2.2840   2.2845   2.2850   2.2852   2.2865   2.2872   2.2880   2.2895
  2.2902   2.2918   2.2930   2.2934   2.2950   2.2965   2.2969   2.2993
  2.2996   2.3016   2.3026   2.3032   2.3041   2.3069   2.3077   2.3082
  2.3103   2.3123   2.3130   2.3144   2.3150   2.3185   2.3188   2.3197
  2.3210   2.3216   2.3243   2.3258   2.3263   2.3273   2.3281   2.3287
  2.3309   2.3316   2.3341   2.3345   2.3359   2.3371   2.3394   2.3409
  2.3419   2.3431   2.3436   2.3457   2.3473   2.3485   2.3503   2.3508
  2.3530   2.3544   2.3561   2.3575   2.3582   2.3596   2.3612   2.3628
  2.3644   2.3656   2.3681   2.3708   2.3729   2.3750   2.3774   2.3791
  2.3797   2.3850   2.3862   2.3883   2.3930   2.3955   2.3996   2.4086
  2.4175   2.4318   2.4453   2.4809   2.5007   2.5358   2.5563   2.5783
  2.6776   2.7018   2.7487   2.7662   2.7978   2.8144   2.8239   2.8277
  2.8355   2.8393   2.8404   2.8433   2.8442   2.8469   2.8481   2.8498
  2.8505   2.8542   2.8544   2.8566   2.8568   2.8611   2.8630   2.8638
  2.8656   2.8676   2.8726   2.8756   2.8763   2.8812   2.8825   2.8939
  2.9005   2.9034   2.9504   3.1122   3.2745   3.9445   3.9580   3.9632
  3.9651   3.9692   3.9707   3.9747   3.9767   3.9784   3.9795   3.9804
  3.9827   3.9843   3.9849   3.9895   3.9970   3.9989   4.0022   4.0023
  4.0066   4.0068   4.0094   4.0185   4.0206   4.0322   4.0366   4.2051
  4.2205   4.2285   4.2307   4.2320   4.2374   4.2421   4.2445   4.2454
  4.2519   4.2546   4.2608   4.2634   4.2668   4.2705   4.2734   4.2746
  4.2785   4.2803   4.2807   4.2844   4.2864   4.2893   4.2910   4.2925
  4.2938   4.2969   4.2986   4.3012   4.3028   4.3031   4.3080   4.3125
  4.3174   4.3181   4.3188   4.3227   4.3255   4.3291   4.3311   4.3324
  4.3344   4.3355   4.3369   4.3405   4.3414   4.3427   4.3460   4.3526
  4.3547   4.3568   4.3599   4.3609   4.3669   4.3730   4.3740   4.3755
  4.3809   4.3858   4.3893   4.3944   4.3951   4.3973   4.4028   4.4142
  4.4158   4.4211   4.4264   4.4284   4.4431   4.4463   4.4659   4.4698
  4.4783   4.4838   4.5051   4.5120   4.5136   4.5449   4.5698   4.5786
  4.5887   4.6734   4.7058   4.7374   4.7818   4.9145
 --------------------------------------------------------------
 
          Ground-State Mulliken Net Atomic Charges

     Atom                 Charge (a.u.)
  ----------------------------------------
      1 C                    -0.217917
      2 C                    -0.220925
      3 C                    -0.025533
      4 C                    -0.479705
      5 C                    -1.060364
      6 C                    -0.109679
      7 H                     0.214644
      8 H                     0.240052
      9 H                     0.249729
     10 H                     0.210244
     11 H                     0.214270
     12 H                     0.217628
     13 H                     0.204895
     14 H                     0.211126
     15 H                     0.273659
     16 H                     0.195190
     17 H                     0.212466
     18 N                     0.199064
     19 H                     0.475325
     20 C                    -1.025054
     21 H                     0.222366
     22 O                    -0.214165
     23 C                    -0.880537
     24 H                     0.243757
     25 H                     0.238030
     26 H                     0.230636
     27 S                     1.111146
     28 C                    -0.859756
     29 H                     0.239240
     30 H                     0.249947
     31 H                     0.252187
     32 O                    -0.754560
     33 C                    -0.813470
     34 H                     0.264401
     35 H                     0.280544
     36 H                     0.255869
     37 S                     0.804016
     38 C                    -0.987346
     39 H                     0.232370
     40 H                     0.265144
     41 H                     0.258657
     42 O                    -0.598893
     43 C                    -1.177755
     44 H                     0.215820
     45 H                     0.308078
     46 H                     0.299742
     47 S                     1.694904
     48 C                    -1.261188
     49 H                     0.271889
     50 H                     0.256078
     51 H                     0.261392
     52 O                    -0.686388
     53 C                    -0.925130
     54 H                     0.244687
     55 H                     0.305801
     56 H                     0.253895
     57 S                     1.057778
     58 C                    -1.038917
     59 H                     0.284458
     60 H                     0.240562
     61 H                     0.266786
     62 O                    -0.737882
     63 C                    -0.789747
     64 H                     0.285052
     65 H                     0.213788
     66 H                     0.238869
     67 S                     0.840464
     68 C                    -0.923249
     69 H                     0.257121
     70 H                     0.252925
     71 H                     0.276278
     72 O                    -0.680711
     73 C                    -0.765914
     74 H                     0.264044
     75 H                     0.280233
     76 H                     0.255688
     77 S                     0.639735
     78 C                    -0.774040
     79 H                     0.248566
     80 H                     0.262368
     81 H                     0.271744
     82 O                    -0.676996
     83 C                    -0.852035
     84 H                     0.249053
     85 H                     0.299771
     86 H                     0.238570
     87 S                     0.996376
     88 C                    -0.951252
     89 H                     0.253000
     90 H                     0.251584
     91 H                     0.256020
     92 O                    -0.716671
     93 C                    -0.659565
     94 H                     0.262044
     95 H                     0.244006
     96 H                     0.284001
     97 S                     0.423696
     98 C                    -0.799261
     99 H                     0.242865
    100 H                     0.241872
    101 H                     0.311354
    102 O                    -0.579859
    103 C                    -0.747519
    104 H                     0.273863
    105 H                     0.243304
    106 H                     0.253395
    107 S                     0.534045
    108 C                    -0.834332
    109 H                     0.282641
    110 H                     0.274283
    111 H                     0.249142
    112 O                    -0.595166
    113 C                    -0.866341
    114 H                     0.284836
    115 H                     0.228311
    116 H                     0.258422
    117 S                     1.105249
    118 C                    -0.938222
    119 H                     0.238293
    120 H                     0.276676
    121 H                     0.241798
    122 O                    -0.699851
    123 C                    -0.799610
    124 H                     0.304867
    125 H                     0.284342
    126 H                     0.276218
    127 S                     0.765679
    128 C                    -0.863469
    129 H                     0.242162
    130 H                     0.241503
    131 H                     0.290795
    132 O                    -0.701505
    133 C                    -0.841683
    134 H                     0.260525
    135 H                     0.260830
    136 H                     0.231691
    137 S                     0.751521
    138 C                    -0.785911
    139 H                     0.263359
    140 H                     0.243930
    141 H                     0.248217
    142 O                    -0.666662
    143 C                    -1.240331
    144 H                     0.294222
    145 H                     0.279627
    146 H                     0.237082
    147 S                     1.181944
    148 C                    -0.977938
    149 H                     0.235573
    150 H                     0.238214
    151 H                     0.310722
    152 O                    -0.627833
    153 C                    -0.738558
    154 H                     0.291817
    155 H                     0.176988
    156 H                     0.269553
    157 S                     0.755790
    158 C                    -0.746113
    159 H                     0.244125
    160 H                     0.302854
    161 H                     0.213682
    162 O                    -0.740235
    163 C                    -1.027890
    164 H                     0.290391
    165 H                     0.276516
    166 H                     0.245365
    167 S                     1.218529
    168 C                    -1.144209
    169 H                     0.263140
    170 H                     0.291484
    171 H                     0.251505
    172 O                    -0.645296
    173 C                    -1.175075
    174 H                     0.272476
    175 H                     0.288503
    176 H                     0.271799
    177 S                     1.061422
    178 C                    -1.027523
    179 H                     0.251200
    180 H                     0.250019
    181 H                     0.253316
    182 O                    -0.589224
    183 C                    -0.722769
    184 H                     0.239720
    185 H                     0.334552
    186 H                     0.252815
    187 S                     0.490036
    188 C                    -0.811240
    189 H                     0.235504
    190 H                     0.264891
    191 H                     0.267791
    192 O                    -0.687932
    193 C                    -0.786932
    194 H                     0.242880
    195 H                     0.283753
    196 H                     0.279195
    197 S                     0.885334
    198 C                    -0.949470
    199 H                     0.264210
    200 H                     0.264434
    201 H                     0.243880
    202 O                    -0.741114
    203 C                    -0.912103
    204 H                     0.276904
    205 H                     0.246165
    206 H                     0.253681
    207 S                     0.894902
    208 C                    -1.036072
    209 H                     0.290526
    210 H                     0.254051
    211 H                     0.290919
    212 O                    -0.685208
    213 C                    -0.878116
    214 H                     0.278078
    215 H                     0.255215
    216 H                     0.237752
    217 S                     1.015504
    218 C                    -0.951058
    219 H                     0.288340
    220 H                     0.285378
    221 H                     0.227519
    222 O                    -0.734165
    223 C                    -0.763322
    224 H                     0.291775
    225 H                     0.285647
    226 H                     0.228048
    227 S                     0.658888
    228 C                    -0.773603
    229 H                     0.248081
    230 H                     0.244780
    231 H                     0.264506
    232 O                    -0.656634
    233 C                    -0.140839
    234 H                     0.248018
    235 H                     0.242764
    236 H                     0.286834
    237 S                    -0.193327
    238 C                    -0.633982
    239 H                     0.291570
    240 H                     0.268031
    241 H                     0.260228
    242 O                    -0.533780
    243 C                    -0.859864
    244 H                     0.245994
    245 H                     0.268320
    246 H                     0.287408
    247 S                     0.979857
    248 C                    -0.927679
    249 H                     0.260455
    250 H                     0.225295
    251 H                     0.291081
    252 O                    -0.719954
    253 C                    -0.876648
    254 H                     0.238800
    255 H                     0.287630
    256 H                     0.256058
    257 S                     1.072454
    258 C                    -0.886711
    259 H                     0.245778
    260 H                     0.256796
    261 H                     0.242479
    262 O                    -0.771255
    263 C                    -0.812733
    264 H                     0.228325
    265 H                     0.257224
    266 H                     0.252545
    267 S                     0.743651
    268 C                    -0.744447
    269 H                     0.291294
    270 H                     0.257484
    271 H                     0.229568
    272 O                    -0.722518
    273 C                    -0.893030
    274 H                     0.271493
    275 H                     0.258898
    276 H                     0.225262
    277 S                     1.139588
    278 C                    -1.046101
    279 H                     0.268024
    280 H                     0.280289
    281 H                     0.262112
    282 O                    -0.767014
  ----------------------------------------
  Sum of atomic charges =     0.000000

 -----------------------------------------------------------------
                    Cartesian Multipole Moments
 -----------------------------------------------------------------
    Charge (ESU x 10^10)
                -0.0000
    Dipole Moment (Debye)
         X      17.3283      Y     -11.3565      Z     -12.1925
       Tot      24.0395
    Quadrupole Moments (Debye-Ang)
        XX     343.2793     XY     103.6452     YY   -1637.1577
        XZ     143.7932     YZ    -458.3764     ZZ   -1683.0424
    Octopole Moments (Debye-Ang^2)
       XXX  -16295.2645    XXY   -2320.5755    XYY  -38781.5424
       YYY -105912.0117    XXZ   -1409.2576    XYZ    -589.9415
       YYZ  -44864.7957    XZZ  -36163.2165    YZZ  -43152.9341
       ZZZ -116410.7179
    Hexadecapole Moments (Debye-Ang^3)
      XXXX ************   XXXY -800536.2894   XXYY ************
      XYYY ************   YYYY ************   XXXZ -857213.7384
      XXYZ -182889.5575   XYYZ ************   YYYZ ************
      XXZZ ************   XYZZ -919178.6017   YYZZ ************
      XZZZ ************   YZZZ ************   ZZZZ ************
 -----------------------------------------------------------------
Archival summary:
[...]
    3  -0.0089169   0.0293780  -0.0585197   0.0066303  -0.0297782   0.0010727
          121         122         123         124         125         126
    1   0.0022003  -0.0534986  -0.0048944   0.0116575  -0.0175585  -0.0401991
    2  -0.0139864   0.0612132  -0.0013034  -0.0225818   0.0266035  -0.0056962
    3   0.0269046   0.0745523   0.0094906   0.0161727   0.0260890   0.0075324
          127         128         129         130         131         132
    1  -0.0308961   0.0004581  -0.0253023   0.0222917   0.0073804   0.0876900
    2   0.0315305  -0.0097344  -0.0171259   0.0122096  -0.0178379   0.0250196
    3  -0.0272002   0.0005559  -0.0166182  -0.0173626   0.0237534   0.0583429
          133         134         135         136         137         138
    1   0.0081976  -0.0070602  -0.0020772   0.0326399   0.0023233   0.0013555
    2   0.0004663   0.0260669  -0.0266324  -0.0015232  -0.0408767   0.0062219
    3   0.0053675   0.0186768   0.0173427  -0.0145138  -0.0343205  -0.0019979
          139         140         141         142         143         144
    1  -0.0078086   0.0315642  -0.0203401  -0.0810536  -0.0004337  -0.0130166
    2   0.0254054   0.0033661   0.0088476   0.0140050   0.0112090   0.0330406
    3   0.0177195  -0.0127590  -0.0179186   0.0729209  -0.0023364  -0.0011150
          145         146         147         148         149         150
    1   0.0266578   0.0060582  -0.0001144   0.0050530   0.0020154   0.0080123
    2   0.0137032  -0.0171405   0.0193047  -0.0064958  -0.0342979  -0.0007631
    3   0.0149718  -0.0249311   0.0541659  -0.0016781   0.0105744  -0.0302042
          151         152         153         154         155         156
    1   0.0275056  -0.0865400  -0.0039281  -0.0141312   0.0236444  -0.0184376
    2   0.0113702  -0.0370782   0.0004213   0.0292766   0.0090614  -0.0155904
    3   0.0122364  -0.0549247  -0.0063620  -0.0075787  -0.0223848  -0.0186832
          157         158         159         160         161         162
    1   0.0361248  -0.0013873  -0.0024466  -0.0265230   0.0339934  -0.1031713
    2   0.0243724  -0.0059063  -0.0212053  -0.0196751  -0.0092684  -0.0225889
    3   0.0292688  -0.0072707   0.0207781  -0.0150785  -0.0126481   0.0331183
          163         164         165         166         167         168
    1   0.0081480   0.0296175  -0.0170425   0.0177782   0.0090083   0.0034163
    2   0.0061770   0.0085901   0.0075973  -0.0224681  -0.0387534   0.0052268
    3   0.0045785  -0.0233308   0.0283582   0.0064914  -0.0389105  -0.0014189
          169         170         171         172         173         174
    1   0.0252533  -0.0228075   0.0060473  -0.0704183   0.0059407  -0.0003546
    2   0.0060632   0.0005489   0.0222186  -0.0073877  -0.0010134   0.0154925
    3  -0.0242618  -0.0013088   0.0232023   0.0833152   0.0039363   0.0281085
          175         176         177         178         179         180
    1  -0.0093765   0.0243638  -0.0542417   0.0021615   0.0265948  -0.0143681
    2  -0.0288177   0.0024036  -0.0235150  -0.0053250   0.0176688  -0.0304629
    3   0.0090177  -0.0215906   0.0256758  -0.0042213  -0.0177315   0.0091397
          181         182         183         184         185         186
    1  -0.0132503   0.0113019  -0.0038814  -0.0225773   0.0237551  -0.0212263
    2   0.0117409   0.1058693  -0.0097891   0.0111060  -0.0296184   0.0062017
    3  -0.0255317  -0.0224032   0.0090608  -0.0195137  -0.0080099   0.0269429
          187         188         189         190         191         192
    1  -0.0101569   0.0040617  -0.0130576   0.0269198  -0.0055950   0.0788940
    2   0.0486880  -0.0014729   0.0108027   0.0116585  -0.0302248  -0.0606086
    3   0.0030399  -0.0038640  -0.0344068  -0.0089770   0.0050880   0.0720907
          193         194         195         196         197         198
    1  -0.0097847  -0.0088141   0.0006132  -0.0363488  -0.0156074   0.0043983
    2  -0.0001692  -0.0241942  -0.0119841   0.0055869   0.0299408  -0.0064038
    3   0.0047641  -0.0190370   0.0278187   0.0176193  -0.0446820  -0.0021456
          199         200         201         202         203         204
    1   0.0281954  -0.0049094   0.0021733   0.0535149   0.0051814   0.0346897
    2   0.0065910  -0.0241285  -0.0050376   0.0362715   0.0126399   0.0032094
    3   0.0061896   0.0214376  -0.0346121   0.0875040  -0.0026911   0.0183365
          205         206         207         208         209         210
    1  -0.0180655  -0.0271126   0.0149973   0.0043747  -0.0095578  -0.0059352
    2   0.0045869   0.0070305  -0.0173402   0.0019635  -0.0284974   0.0237437
    3  -0.0329197   0.0167561   0.0542849  -0.0069154   0.0004699  -0.0281806
          211         212         213         214         215         216
    1   0.0289496  -0.1062734   0.0024039  -0.0245380   0.0156491   0.0296029
    2   0.0162185  -0.0081398  -0.0014062   0.0186143  -0.0334099   0.0115440
    3   0.0097755  -0.0313218   0.0109529   0.0228947  -0.0088497  -0.0068876
          217         218         219         220         221         222
    1   0.0160323  -0.0022310  -0.0164146  -0.0038971   0.0192649  -0.0977527
    2  -0.0126593   0.0116055   0.0113803   0.0087364   0.0174021  -0.0232582
    3  -0.0485066   0.0039074  -0.0199626   0.0298142  -0.0137059   0.0448169
          223         224         225         226         227         228
    1  -0.0084985   0.0128801  -0.0084898  -0.0300119   0.0263830  -0.0050717
    2  -0.0008666  -0.0027113   0.0281058  -0.0204266   0.0508582  -0.0014484
    3   0.0059381   0.0254829   0.0187117   0.0009172  -0.0075321  -0.0035226
          229         230         231         232         233         234
    1  -0.0211261  -0.0321455   0.0200511   0.0586002   0.0018467   0.0287296
    2  -0.0241662   0.0210938  -0.0098342  -0.0954764   0.0064263   0.0143801
    3   0.0014530  -0.0147834  -0.0191046  -0.0005605  -0.0012360   0.0021602
          235         236         237         238         239         240
    1  -0.0022434   0.0040733  -0.0421831   0.0060047  -0.0002801  -0.0007552
    2   0.0387438  -0.0086027  -0.0343987  -0.0089163  -0.0284978  -0.0104365
    3   0.0103463   0.0198534   0.0106255  -0.0050459   0.0092070  -0.0292989
          241         242         243         244         245         246
    1   0.0236411   0.0067522  -0.0081763   0.0021869  -0.0236197  -0.0021311
    2   0.0179495   0.0736401  -0.0054331   0.0013277   0.0178758  -0.0294546
    3  -0.0084528  -0.0814612   0.0039047   0.0329925  -0.0128373  -0.0192354
          247         248         249         250         251         252
    1   0.0106868   0.0033149  -0.0052238   0.0284829  -0.0016635  -0.0091172
    2  -0.0118617  -0.0036281  -0.0321235   0.0108630   0.0157555   0.1035040
    3  -0.0566401   0.0094472  -0.0045578  -0.0037816   0.0300677   0.0367481
          253         254         255         256         257         258
    1  -0.0019527   0.0154548   0.0143055  -0.0279011  -0.0346885   0.0008683
    2  -0.0023170  -0.0297270   0.0036415   0.0045663   0.0430912  -0.0056465
    3   0.0099687  -0.0078889   0.0237622   0.0282423   0.0091406  -0.0039384
          259         260         261         262         263         264
    1  -0.0298173   0.0126325   0.0054300   0.1098693  -0.0034682   0.0149133
    2   0.0040503   0.0036932  -0.0304577   0.0117321   0.0065497   0.0336435
    3  -0.0141442  -0.0310380   0.0024947  -0.0002162  -0.0044636   0.0036562
          265         266         267         268         269         270
    1   0.0063922  -0.0308656   0.0032889   0.0050214   0.0205422  -0.0045431
    2  -0.0073732   0.0063316   0.0116525  -0.0041773  -0.0307404   0.0036466
    3  -0.0273018   0.0092884   0.0519458  -0.0031273   0.0027368  -0.0274946
          271         272         273         274         275         276
    1   0.0249807  -0.0610614   0.0044925   0.0346943  -0.0280281   0.0130707
    2   0.0165572  -0.0810177   0.0001507  -0.0132202   0.0124232   0.0330376
    3   0.0155005  -0.0422423  -0.0061912  -0.0040716  -0.0139134  -0.0046808
          277         278         279         280         281         282
    1   0.0246698   0.0012303  -0.0104771   0.0293399  -0.0143177  -0.0995390
    2  -0.0034323  -0.0110108   0.0091613  -0.0200738  -0.0168127   0.0362855
    3   0.0418226  -0.0025667  -0.0274906  -0.0021774   0.0184190  -0.0262650
  --- DONE ESP SUMMARY ---
Archival summary:
1\1\node026\SP\ProcedureUnspecified\6-31+G*\262652h22\ymao90\SatDec402:10:582021SatDec402:10:582021\0\\#,ProcedureUnspecified,6-31+G*,\\0,1\S\O,1,1.49642\C,1,1.807,2,100.127\H,3,1.09273,1,110.604,2,-176.736,0\H,3,1.09282,1,110.283,2,62.7818,0\H,3,1.09286,1,109.109,2,-57.129,0\C,1,1.80737,2,105.569,3,94.0868,0\H,7,1.09282,1,107.635,2,165.6,0\H,7,1.09309,1,96.9084,2,52.2665,0\H,7,1.09317,1,106.636,2,-65.1864,0\Gh,4,2.44495,3,132.374,1,-124.538,0\Gh,11,1.09739,4,107.009,3,-146.615,0\Gh,12,1.09633,11,105.648,4,50.2671,0\Gh,12,1.53735,11,107.79,4,173.561,0\Gh,14,1.0964,12,107.172,11,49.6539,0\Gh,14,1.09773,12,105.861,11,-60.3037,0\Gh,14,1.537,12,113.991,11,176.479,0\Gh,17,1.09676,14,116.252,12,76.4402,0\Gh,17,1.09695,14,111.899,12,-159.791,0\Gh,12,1.53764,11,111.266,4,-65.4119,0\Gh,20,1.09689,12,113.132,11,-64.2074,0\Gh,20,1.46209,12,112.783,11,61.2877,0\Gh,22,1.01246,20,120.606,12,82.3856,0\Gh,22,1.37947,20,124.795,12,-109.553,0\Gh,24,1.10487,22,115.448,20,-179.696,0\Gh,24,1.21779,22,120.657,20,5.52249,0\Gh,17,1.53772,14,111.124,12,-46.9224,0\Gh,27,1.09649,17,113.896,14,168.163,0\Gh,27,1.09656,17,107.948,14,-70.7385,0\Gh,27,1.53757,17,113.422,14,48.3553,0\Gh,30,1.09599,27,107.432,17,66.6551,0\Gh,30,1.09697,27,108.893,17,-175.308,0\O,23,1.92032,22,140.562,20,-153.147,0\S,33,1.49758,23,148.994,22,-22.1959,0\C,34,1.80648,33,99.3464,23,161.488,0\H,35,1.09289,34,101.102,33,177.753,0\H,35,1.09309,34,116.296,33,54.5904,0\H,35,1.0939,34,105.602,33,-64.2966,0\C,34,1.80738,33,98.8525,23,-102.553,0\H,39,1.09227,34,123.382,33,-166.587,0\H,39,1.09278,34,114.279,33,-30.4944,0\H,39,1.09282,34,95.9223,33,74.3098,0\H,42,2.0185,39,165.007,34,-174.5,0\C,43,1.09276,42,107.198,39,11.4081,0\H,44,1.0928,43,120.619,42,-145.671,0\H,44,1.09286,43,110.504,42,-15.6793,0\S,44,1.80665,43,108.15,42,105.168,0\O,47,1.49705,44,100.846,43,178.187,0\C,47,1.80639,44,105.446,43,-66.5608,0\H,49,1.09291,47,100.411,44,169.187,0\H,49,1.09292,47,109.637,44,-67.1667,0\H,49,1.09335,47,107.431,44,55.2825,0\H,51,2.22227,49,130.903,47,-44.8567,0\C,53,1.09377,51,138.332,49,148.735,0\H,54,1.09299,53,108.496,51,-112.234,0\H,54,1.09306,53,117.521,51,130.499,0\S,54,1.80613,53,105.69,51,-3.33237,0\O,57,1.49643,54,99.3752,53,43.839,0\C,57,1.80762,54,98.6185,53,156.135,0\H,59,1.09266,57,103.436,54,-140.492,0\H,59,1.0928,57,106.649,54,96.4495,0\H,59,1.09364,57,109.466,54,-23.3448,0\H,50,2.29492,49,113.636,47,83.7546,0\C,63,1.09329,50,100.042,49,116.09,0\H,64,1.09304,63,110.366,50,-80.5102,0\H,64,1.09307,63,111.964,50,35.5088,0\S,64,1.80605,63,104.982,50,154.032,0\O,67,1.49776,64,104.647,63,-164.858,0\C,67,1.80718,64,95.0822,63,-56.6197,0\H,69,1.09264,67,108.418,64,-158.402,0\H,69,1.09305,67,109.557,64,-42.2616,0\H,69,1.09362,67,115.452,64,85.3317,0\H,71,2.22779,69,109.756,67,-64.5883,0\C,73,1.09259,71,130.721,69,167.074,0\H,74,1.09275,73,115.773,71,42.7486,0\H,74,1.09309,73,112.427,71,-73.7781,0\S,74,1.80765,73,109.924,71,162.746,0\O,77,1.49691,74,102.37,73,-179.498,0\C,77,1.80627,74,97.8339,73,65.6968,0\H,79,1.09284,77,107.759,74,-174.795,0\H,79,1.09323,77,107.613,74,66.6409,0\H,79,1.09354,77,105.298,74,-56.336,0\H,81,2.07044,79,154.307,77,138.703,0\C,83,1.09237,81,117.88,79,-143.034,0\H,84,1.09283,83,114.453,81,70.2493,0\H,84,1.09349,83,103.977,81,-163.304,0\S,84,1.80746,83,101.378,81,-52.9139,0\O,87,1.4978,84,107.929,83,-59.1384,0\C,87,1.80641,84,88.7217,83,-165.12,0\H,89,1.09303,87,108.168,84,171.5,0\H,89,1.09307,87,108.193,84,-67.2679,0\H,89,1.09338,87,115.606,84,55.0978,0\H,90,2.19655,89,125.637,87,-49.7255,0\C,93,1.09307,90,116.819,89,-161.021,0\H,94,1.09325,93,109.141,90,166.899,0\H,94,1.0939,93,113.974,90,-57.7929,0\S,94,1.80708,93,110.137,90,54.4758,0\O,97,1.49634,94,99.64,93,-61.9411,0\C,97,1.80706,94,98.6008,93,38.8096,0\H,99,1.0925,97,110.566,94,74.7014,0\H,99,1.09287,97,108.892,94,-43.3505,0\H,99,1.09353,97,114.334,94,-164.345,0\O,43,2.41922,42,78.6712,39,-141.824,0\S,103,1.49711,43,140.185,42,123.031,0\C,104,1.8066,103,106.643,43,40.1554,0\H,105,1.09304,104,109.802,103,39.0314,0\H,105,1.09304,104,108.001,103,166.984,0\H,105,1.09316,104,103.516,103,-76.1671,0\C,104,1.80721,103,98.8622,43,-63.4875,0\H,109,1.09255,104,105.638,103,63.8494,0\H,109,1.09295,104,113.925,103,-59.4436,0\H,109,1.09307,104,100.95,103,-175.658,0\H,111,2.07646,109,108.407,104,-76.4477,0\C,113,1.09331,111,115.129,109,140.801,0\H,114,1.0928,113,104.024,111,-32.831,0\H,114,1.09312,113,111.008,111,75.957,0\S,114,1.80696,113,114.235,111,-154.398,0\O,117,1.49694,114,95.7423,113,-60.6742,0\C,117,1.80676,114,93.8679,113,43.7957,0\H,119,1.093,117,108.267,114,-65.9149,0\H,119,1.09313,117,110.176,114,-176.543,0\H,119,1.09339,117,107.719,114,60.7802,0\H,19,2.4195,17,144.834,14,-26.5816,0\C,123,1.09243,19,111.332,17,-18.5922,0\H,124,1.09263,123,108.044,19,-11.2508,0\H,124,1.09309,123,109.357,19,-130.599,0\S,124,1.80721,123,111.384,19,114.678,0\O,127,1.49745,124,102.219,123,-73.9794,0\C,127,1.80685,124,91.1042,123,-170.492,0\H,129,1.0927,127,108.624,124,67.6759,0\H,129,1.09351,127,111.637,124,-43.8698,0\H,129,1.09361,127,101.678,124,-166.701,0\H,123,2.0388,19,86.1352,17,-131.772,0\C,133,1.0929,123,114.617,19,-85.4155,0\H,134,1.09248,133,98.3197,123,-173.883,0\H,134,1.09282,133,113.61,123,70.177,0\S,134,1.80776,133,119.374,123,-55.7197,0\O,137,1.49638,134,102.906,133,0.870166,0\C,137,1.80622,134,98.5321,133,104.022,0\H,139,1.09277,137,107.536,134,65.1458,0\H,139,1.09319,137,116.167,134,-166.682,0\H,139,1.09337,137,107.622,134,-42.311,0\H,141,2.06665,139,116.539,137,-171.61,0\C,143,1.0929,141,165.402,139,111.443,0\H,144,1.09244,143,114.161,141,134.445,0\H,144,1.09342,143,109.812,141,-93.5642,0\S,144,1.80658,143,105.45,141,20.5951,0\O,147,1.49751,144,102.081,143,-167.257,0\C,147,1.80615,144,102.591,143,-67.0672,0\H,149,1.09226,147,109.313,144,64.5193,0\H,149,1.09317,147,103.669,144,-48.1988,0\H,149,1.09323,147,105.9,144,-172.511,0\H,146,2.09757,144,128.494,143,-114.236,0\C,153,1.09202,146,137.571,144,170.963,0\H,154,1.093,153,114.307,146,139.188,0\H,154,1.09326,153,113.351,146,-88.1194,0\S,154,1.80678,153,105.976,146,28.0283,0\O,157,1.49653,154,106.447,153,-45.7148,0\C,157,1.80769,154,98.5157,153,62.4427,0\H,159,1.09237,157,105.586,154,-178.133,0\H,159,1.09305,157,115.355,154,56.724,0\H,159,1.09335,157,105.527,154,-59.6626,0\H,130,2.15104,129,129.127,127,-137.609,0\C,163,1.09338,130,171.057,129,-159.192,0\H,164,1.09288,163,108.133,130,-59.6798,0\H,164,1.09353,163,106.706,130,-177.572,0\S,164,1.8066,163,106.535,130,66.9311,0\O,167,1.49688,164,100.833,163,-28.9759,0\C,167,1.80726,164,99.6368,163,78.8265,0\H,169,1.09247,167,116.618,164,88.3636,0\H,169,1.09274,167,112.319,164,-142.633,0\H,169,1.09297,167,107.6,164,-30.3623,0\H,166,2.09321,164,148.594,163,-72.2705,0\C,173,1.09297,166,128.763,164,76.6094,0\H,174,1.0925,173,106.415,166,-177.695,0\H,174,1.09275,173,118.312,166,-54.1798,0\S,174,1.8067,173,109.043,166,64.3963,0\O,177,1.49701,174,105.598,173,-87.1349,0\C,177,1.8078,174,93.0627,173,169.972,0\H,179,1.09278,177,113.063,174,178.838,0\H,179,1.09292,177,106.568,174,-62.5124,0\H,179,1.09322,177,113.578,174,56.1479,0\H,165,2.1607,164,137.594,163,145.754,0\C,183,1.09342,165,94.4477,164,-144.712,0\H,184,1.0929,183,113.224,165,-68.9573,0\H,184,1.09384,183,102.702,165,48.9121,0\S,184,1.8068,183,111.866,165,157.144,0\O,187,1.49707,184,107.248,183,-54.1138,0\C,187,1.80727,184,97.5353,183,54.0424,0\H,189,1.09228,187,109.261,184,-45.3553,0\H,189,1.09302,187,106.289,184,-173.255,0\H,189,1.09381,187,110.036,184,67.4484,0\H,192,2.135,189,125.076,187,-66.9403,0\C,193,1.09281,192,144.912,189,-109.471,0\H,194,1.09254,193,115.086,192,-168.295,0\H,194,1.09362,193,105.766,192,-42.7535,0\S,194,1.80716,193,100.612,192,73.4012,0\O,197,1.49702,194,106.99,193,93.2562,0\C,197,1.807,194,94.9662,193,-162.336,0\H,199,1.09318,197,108.967,194,-144.705,0\H,199,1.09328,197,107.485,194,95.231,0\H,199,1.09335,197,112.887,194,-20.0451,0\H,198,2.31845,197,116.227,194,17.5701,0\C,203,1.09277,198,115.473,197,122.477,0\H,204,1.09232,203,107.947,198,143.314,0\H,204,1.09323,203,111.255,198,23.4864,0\S,204,1.80743,203,111.764,198,-103.396,0\O,207,1.49749,204,96.8557,203,-59.6859,0\C,207,1.80649,204,93.2361,203,-164.477,0\H,209,1.09238,207,115.25,204,-51.6238,0\H,209,1.09327,207,109.521,204,66.6275,0\H,209,1.09359,207,112.178,204,172.228,0\H,132,2.44037,129,121.403,127,-89.8264,0\C,213,1.09325,132,159.787,129,22.7716,0\H,214,1.09293,213,110.135,132,46.0573,0\H,214,1.09348,213,110.942,132,167.925,0\S,214,1.8064,213,102.619,132,-71.4055,0\O,217,1.49749,214,104.874,213,-161.157,0\C,217,1.8072,214,99.3118,213,87.5931,0\H,219,1.09274,217,112.903,214,51.4696,0\H,219,1.09287,217,115.635,214,-78.6345,0\H,219,1.09312,217,105.153,214,165.195,0\H,218,2.30565,217,103.523,214,-27.6109,0\C,223,1.09362,218,162.861,217,-106.893,0\H,224,1.09291,223,112.249,218,73.0749,0\H,224,1.09347,223,107.382,218,-164.696,0\S,224,1.80668,223,105.73,218,-47.7562,0\O,227,1.49709,224,108.189,223,166.163,0\C,227,1.80667,224,96.5776,223,-88.9551,0\H,229,1.09293,227,108.115,224,64.84,0\H,229,1.09343,227,112.123,224,174.672,0\H,229,1.0935,227,114.16,224,-62.4554,0\H,5,2.4869,3,131.178,1,-85.4275,0\C,233,1.09272,5,112.303,3,123.314,0\H,234,1.09269,233,110.718,5,-82.2614,0\H,234,1.09377,233,107.488,5,31.9436,0\S,234,1.80629,233,112.875,5,148.987,0\O,237,1.4968,234,104.956,233,174.273,0\C,237,1.80588,234,93.8308,233,-77.4395,0\H,239,1.09277,237,106.359,234,-67.0757,0\H,239,1.09326,237,114.203,234,48.8049,0\H,239,1.09363,237,112.78,234,169.574,0\H,228,2.49588,227,98.5898,224,-117.94,0\C,243,1.09313,228,145.952,227,-130.713,0\H,244,1.09234,243,114.878,228,93.571,0\H,244,1.09263,243,108.025,228,-151.516,0\S,244,1.80665,243,106.586,228,-31.5537,0\O,247,1.49739,244,111.574,243,176.568,0\C,247,1.80686,244,99.6736,243,73.3493,0\H,249,1.09277,247,114.97,244,175.331,0\H,249,1.0929,247,110.73,244,48.9213,0\H,249,1.0929,247,113.482,244,-61.898,0\O,145,2.50661,144,119.735,143,62.2001,0\S,253,1.49661,145,117.336,144,-38.7722,0\C,254,1.80674,253,97.9397,145,-56.239,0\H,255,1.09302,254,110.331,253,88.3535,0\H,255,1.09318,254,105.704,253,-30.2691,0\H,255,1.09335,254,111.32,253,-142.083,0\C,254,1.80727,253,101.91,145,-156.426,0\H,259,1.09267,254,107.143,253,63.1721,0\H,259,1.09321,254,108.223,253,-56.929,0\H,259,1.09355,254,108.766,253,-176.12,0\H,261,2.39034,259,144.544,254,25.031,0\C,263,1.09305,261,144.816,259,-20.6631,0\H,264,1.09247,263,105.427,261,6.24313,0\H,264,1.09404,263,110.799,261,130.687,0\S,264,1.80714,263,100.87,261,-112.877,0\O,267,1.49687,264,102.796,263,-179.163,0\C,267,1.80644,264,103.688,263,-72.6577,0\H,269,1.09297,267,109.967,264,-146.541,0\H,269,1.09297,267,108.6,264,-21.1138,0\H,269,1.09375,267,111.078,264,93.9839,0\O,266,2.40276,264,131.264,263,-20.6346,0\S,273,1.49708,266,143.248,264,-27.1108,0\C,274,1.80663,273,101.913,266,18.1271,0\H,275,1.09257,274,107.52,273,62.2577,0\H,275,1.09277,274,100.403,273,-51.4459,0\H,275,1.09321,274,114.889,273,-176.75,0\C,274,1.80668,273,102.542,266,115.191,0\H,279,1.09233,274,116.315,273,-51.8651,0\H,279,1.09359,274,104.983,273,-176.456,0\H,279,1.09371,274,108.678,273,66.99,0\\\@

 Total job time:  59.14s(wall), 168.06s(cpu) 
 Sat Dec  4 02:10:58 2021

        *************************************************************
        *                                                           *
        *  Thank you very much for using Q-Chem.  Have a nice day.  *
        *                                                           *
        *************************************************************


