                  Welcome to Q-Chem
     A Quantum Leap Into The Future Of Chemistry


 Q-Chem 5.2 (devel), Q-Chem, Inc., Pleasanton, CA (2019)

 Yihan Shao,  Zhengting Gan,  E. Epifanovsky,  A. T. B. Gilbert,  M. Wormit,  
 J. Kussmann,  A. W. Lange,  A. Behn,  Jia Deng,  Xintian Feng,  D. Ghosh,  
 M. Goldey,  P. R. Horn,  L. D. Jacobson,  I. Kaliman,  T. Kus,  A. Landau,  
 Jie Liu,  E. I. Proynov,  R. M. Richard,  R. P. Steele,  E. J. Sundstrom,  
 H. L. Woodcock III,  P. M. Zimmerman,  D. Zuev,  B. Alam,  B. Albrecht,  
 E. Alguire,  S. A. Baeppler,  D. Barton,  Z. Benda,  Y. A. Bernard,  
 E. J. Berquist,  K. B. Bravaya,  H. Burton,  K. Carter-Fenk,  D. Casanova,  
 Chun-Min Chang,  Yunqing Chen,  A. Chien,  K. D. Closser,  M. P. Coons,  
 S. Coriani,  S. Dasgupta,  A. L. Dempwolff,  M. Diedenhofen,  Hainam Do,  
 R. G. Edgar,  Po-Tung Fang,  S. Faraji,  S. Fatehi,  Qingguo Feng,  
 J. Fosso-Tande,  J. Gayvert,  Qinghui Ge,  A. Ghysels,  G. Gidofalvi,  
 J. Gomes,  J. Gonthier,  A. Gunina,  D. Hait,  M. W. D. Hanson-Heine,  
 P. H. P. Harbach,  A. W. Hauser,  M. F. Herbst,  J. E. Herr,  
 E. G. Hohenstein,  Z. C. Holden,  Kerwin Hui,  B. C. Huynh,  T.-C. Jagau,  
 Hyunjun Ji,  B. Kaduk,  K. Khistyaev,  Jaehoon Kim,  P. Klunzinger,  K. Koh,  
 D. Kosenkov,  L. Koulias,  T. Kowalczyk,  C. M. Krauter,  A. Kunitsa,  
 Ka Un Lao,  A. Laurent,  K. V. Lawler,  Joonho Lee,  D. Lefrancois,  
 S. Lehtola,  D. S. Levine,  Yi-Pei Li,  You-Sheng Lin,  Fenglai Liu,  
 Kuan-Yu Liu,  E. Livshits,  M. Loipersberger,  A. Luenser,  P. Manohar,  
 E. Mansoor,  S. F. Manzer,  Shan-Ping Mao,  Yuezhi Mao,  N. Mardirossian,  
 A. V. Marenich,  T. Markovich,  L. A. Martinez-Martinez,  S. A. Maurer,  
 N. J. Mayhall,  S. C. McKenzie,  J.-M. Mewes,  P. Morgante,  A. F. Morrison,  
 J. W. Mullinax,  K. Nanda,  T. S. Nguyen-Beck,  R. Olivares-Amaya,  
 J. A. Parkhill,  S. K. Paul,  F. Pavosevic,  Zheng Pei,  T. M. Perrine,  
 F. Plasser,  P. Pokhilko,  S. Prager,  A. Prociuk,  E. Ramos,  B. Rana,  
 D. R. Rehn,  F. Rob,  M. Scheurer,  M. Schneider,  N. Sergueev,  
 S. M. Sharada,  S. Sharma,  D. W. Small,  T. Stauch,  C. J. Stein,  
 T. Stein,  Yu-Chuan Su,  S. P. Veccham,  Zhen Tao,  A. J. W. Thom,  
 A. Tkatchenko,  T. Tsuchimochi,  N. M. Tubman,  L. Vogt,  M. L. Vidal,  
 O. Vydrov,  M. A. Watson,  J. Wenzel,  M. de Wergifosse,  T. A. Wesolowski,  
 A. White,  J. Witte,  A. Yamada,  Jun Yang,  K. Yao,  S. Yeganeh,  
 S. R. Yost,  Zhi-Qiang You,  A. Zech,  Igor Ying Zhang,  Xing Zhang,  
 Yan Zhao,  Ying Zhu,  B. R. Brooks,  G. K. L. Chan,  C. J. Cramer,  
 M. S. Gordon,  W. J. Hehre,  A. Klamt,  M. W. Schmidt,  C. D. Sherrill,  
 D. G. Truhlar,  A. Aspuru-Guzik,  R. Baer,  A. T. Bell,  N. A. Besley,  
 Jeng-Da Chai,  A. E. DePrince, III,  R. A. DiStasio Jr.,  A. Dreuw,  
 B. D. Dunietz,  T. R. Furlani,  Chao-Ping Hsu,  Yousung Jung,  Jing Kong,  
 D. S. Lambrecht,  WanZhen Liang,  C. Ochsenfeld,  V. A. Rassolov,  
 L. V. Slipchenko,  J. E. Subotnik,  T. Van Voorhis,  J. M. Herbert,  
 A. I. Krylov,  P. M. W. Gill,  M. Head-Gordon

 Contributors to earlier versions of Q-Chem not listed above: 
 R. D. Adamson,  B. Austin,  J. Baker,  G. J. O. Beran,  K. Brandhorst,  
 S. T. Brown,  E. F. C. Byrd,  A. K. Chakraborty,  C.-L. Cheng,  
 Siu Hung Chien,  D. M. Chipman,  D. L. Crittenden,  H. Dachsel,  
 R. J. Doerksen,  A. D. Dutoi,  L. Fusti-Molnar,  W. A. Goddard III,  
 A. Golubeva-Zadorozhnaya,  S. R. Gwaltney,  G. Hawkins,  A. Heyden,  
 S. Hirata,  G. Kedziora,  F. J. Keil,  C. Kelley,  Jihan Kim,  R. A. King,  
 R. Z. Khaliullin,  P. P. Korambath,  W. Kurlancheek,  A. M. Lee,  M. S. Lee,  
 S. V. Levchenko,  Ching Yeh Lin,  D. Liotard,  R. C. Lochan,  I. Lotan,  
 P. E. Maslen,  N. Nair,  D. P. O'Neill,  D. Neuhauser,  E. Neuscamman,  
 C. M. Oana,  R. Olson,  B. Peters,  R. Peverati,  P. A. Pieniazek,  
 Y. M. Rhee,  J. Ritchie,  M. A. Rohrdanz,  E. Rosta,  N. J. Russ,  
 H. F. Schaefer III,  N. E. Schultz,  N. Shenvi,  A. C. Simmonett,  A. Sodt,  
 D. Stuck,  K. S. Thanthiriwatte,  V. Vanovschi,  Tao Wang,  A. Warshel,  
 C. F. Williams,  Q. Wu,  X. Xu,  W. Zhang

 Please cite Q-Chem as follows:
 Y. Shao et al., Mol. Phys. 113, 184-215 (2015)
 DOI: 10.1080/00268976.2014.952696

 Q-Chem 5.2.2 for Intel X86 EM64T Linux

 Parts of Q-Chem use Armadillo 9.800.1 (Horizon Scraper).
 http://arma.sourceforge.net/

 Q-Chem begins on Fri Dec  3 11:52:47 2021  

Host: node011
0

     Scratch files written to /home/ymao90/scratch/r7.00_frame_0091_spade_B3LYP_dp20211203023736//

Checking the input file for inconsistencies... 	...done.

--------------------------------------------------------------
User input:
--------------------------------------------------------------
$molecule
0 1
--
0 1
C    25.18200   30.49300   25.68200  
C    25.95800   30.14700   26.96400  
C    25.84300   28.63800   27.24000  
C    26.40600   27.92400   26.00000  
C    25.65300   28.23700   24.69700  
C    25.69900   29.75200   24.43800  
H    26.24100   28.30900   28.20800  
H    26.99300   30.48700   26.83800  
H    24.10500   30.42800   25.88100  
H    25.35800   31.56400   25.52400  
H    27.43200   28.24900   25.79100  
H    26.46800   26.84500   26.18800  
H    25.95800   27.65200   23.82100  
H    24.60500   27.95600   24.86000  
H    26.68500   30.15700   24.17900  
H    25.03600   30.04400   23.61600  
H    24.77700   28.38100   27.21600  
N    25.40600   30.92200   28.07400  
H    24.71200   30.51400   28.68900  
C    25.94200   32.09700   28.55700  
H    25.50100   32.48600   29.49300  
O    26.93700   32.60500   28.07300  
--
0 1
C    24.64200   27.48600   21.30500  
H    25.69400   27.72700   21.13300  
H    24.11000   27.82700   20.41400  
H    24.26500   28.03100   22.17400  
S    24.20300   25.74300   21.49200  
C    25.13100   25.17100   20.05100  
H    26.18000   25.29700   20.33000  
H    24.82500   24.14400   19.83800  
H    24.84900   25.83000   19.22600  
O    22.73800   25.48900   21.31600  
C    28.98900   28.28200   23.35500  
H    28.34600   29.16000   23.46300  
H    28.66200   27.47700   22.69100  
H    29.22400   27.82800   24.32100  
S    30.64800   28.82300   22.88500  
C    31.28600   27.13900   22.74000  
H    32.25000   27.15400   23.25600  
H    30.64100   26.46700   23.31200  
H    31.29100   26.89000   21.67600  
O    31.29700   29.43900   24.08500  
C    28.43800   32.76400   24.69800  
H    29.01900   32.57700   25.60500  
H    27.54800   33.21000   25.14900  
H    28.16400   31.89900   24.08800  
S    29.19900   33.96400   23.58300  
C    30.93600   33.52900   23.82900  
H    31.32000   33.64400   24.84600  
H    31.06500   32.48900   23.52100  
H    31.56300   34.08900   23.13100  
O    28.87700   35.23500   24.30600  
C    28.69700   30.93400   20.39900  
H    28.89600   29.94600   20.82100  
H    28.95700   31.04100   19.34300  
H    29.37200   31.65300   20.87000  
S    26.97400   31.40100   20.67500  
C    26.98500   32.66800   19.38700  
H    28.00900   32.80900   19.03200  
H    26.36800   32.30800   18.56000  
H    26.47400   33.57300   19.72600  
O    27.09600   32.27100   21.88800  
C    28.40600   36.60000   35.69900  
H    27.37200   36.92500   35.84100  
H    28.83600   36.21500   36.62700  
H    28.99900   37.36000   35.18600  
S    28.13300   35.18600   34.60700  
C    27.08200   36.13000   33.48100  
H    26.18900   36.46600   34.01500  
H    27.70400   36.95500   33.12500  
H    26.80600   35.49300   32.63700  
O    27.32000   34.29200   35.49100  
C    30.83500   30.32700   26.77000  
H    30.62800   31.05800   25.98300  
H    31.87300   30.54900   27.02700  
H    30.80200   29.30400   26.38500  
S    29.57000   30.61300   28.02800  
C    30.74000   31.50700   29.07500  
H    30.97000   32.52500   28.75200  
H    30.40500   31.53600   30.11500  
H    31.60400   30.83800   29.09400  
O    29.71400   29.21500   28.54300  
C    23.32800   24.13900   29.37200  
H    22.53500   23.64400   28.80600  
H    24.23400   23.58500   29.11600  
H    23.09000   24.14800   30.43900  
S    23.52200   25.82600   28.75200  
C    21.75300   26.10400   28.51000  
H    21.12600   25.86000   29.37200  
H    21.54500   27.11900   28.16500  
H    21.57600   25.50100   27.61600  
O    24.01100   25.64200   27.34900  
C    26.68000   24.89300   23.66900  
H    26.58100   25.53400   22.79000  
H    26.53400   25.46800   24.58600  
H    27.67400   24.44100   23.72800  
S    25.48500   23.53900   23.73200  
C    25.54700   23.22900   25.51100  
H    24.80100   23.88500   25.96600  
H    25.37400   22.16200   25.66800  
H    26.57600   23.44400   25.81100  
O    26.35700   22.44900   23.19200  
C    24.88600   35.23800   25.99800  
H    24.80900   34.62200   26.89700  
H    25.83200   35.78400   25.95600  
H    24.00700   35.88700   26.03800  
S    24.78200   34.15500   24.55500  
C    25.42300   35.32500   23.33700  
H    26.27000   35.88600   23.74100  
H    25.72300   34.79900   22.42700  
H    24.63300   36.03600   23.08100  
O    23.31700   34.18100   24.25000  
C    25.11600   24.84400   32.04300  
H    25.36600   23.82600   32.35200  
H    24.03000   24.96600   32.03400  
H    25.48000   25.16700   31.06400  
S    25.96900   26.01800   33.11900  
C    27.56500   25.17300   33.13700  
H    28.21300   25.59900   32.36700  
H    27.96700   25.37600   34.13300  
H    27.41700   24.10800   32.93900  
O    25.44300   25.85200   34.51100  
C    26.86800   20.87000   28.34000  
H    27.94800   21.00000   28.44900  
H    26.74600   19.93800   27.78300  
H    26.49400   21.75500   27.81900  
S    25.98400   20.59900   29.89300  
C    24.32700   20.11900   29.35700  
H    23.99300   20.94000   28.71700  
H    24.38000   19.25200   28.69400  
H    23.61800   20.02300   30.18300  
O    25.77100   21.89100   30.61700  
C    18.91700   28.11400   28.82900  
H    19.77700   28.74400   29.07000  
H    19.27500   27.21600   28.31800  
H    18.29500   28.72400   28.16800  
S    18.21400   27.64700   30.42700  
C    18.07700   29.34300   31.03500  
H    17.69100   29.28900   32.05600  
H    19.07600   29.78600   31.00500  
H    17.39300   29.98300   30.47200  
O    19.31200   26.94700   31.16600  
C    29.04700   34.58300   30.31800  
H    29.30500   35.00800   31.29200  
H    27.97900   34.78000   30.19700  
H    29.23700   33.50800   30.27300  
S    29.96300   35.54400   29.09200  
C    29.16000   34.65900   27.73600  
H    29.79600   34.66200   26.84700  
H    28.99900   33.59300   27.91300  
H    28.21600   35.16300   27.51200  
O    31.31100   34.90400   29.20500  
C    19.18500   26.09900   23.75800  
H    18.16300   25.74700   23.92200  
H    19.13700   27.11400   23.35300  
H    19.73500   25.46400   23.05900  
S    20.08300   26.16700   25.32500  
C    21.64100   26.62500   24.53300  
H    22.36400   26.09500   25.15900  
H    21.82800   26.31700   23.50100  
H    21.95000   27.67200   24.59500  
O    20.34100   24.70000   25.47600  
C    20.83100   32.23900   32.51800  
H    21.73500   32.23700   33.13200  
H    20.39800   33.24300   32.49200  
H    20.01600   31.59400   32.85400  
S    21.34100   31.68400   30.87600  
C    22.36200   33.11900   30.47300  
H    21.85300   34.00900   30.85400  
H    23.32200   32.97300   30.97500  
H    22.52800   33.23000   29.39900  
O    20.13600   31.92100   30.02100  
C    22.08600   28.26100   31.79600  
H    21.74100   29.26400   32.06200  
H    21.74700   28.14700   30.76400  
H    21.84400   27.44600   32.48300  
S    23.87600   28.43200   31.62700  
C    24.13600   29.08500   33.29200  
H    23.20700   29.52500   33.66000  
H    24.44200   28.27400   33.95800  
H    24.97500   29.78100   33.21000  
O    24.15900   29.59200   30.72300  
C    24.44200   33.95600   33.67000  
H    23.81600   33.06800   33.78400  
H    24.58800   34.23700   32.62400  
H    25.39800   33.84500   34.18800  
S    23.54600   35.34800   34.39400  
C    23.75600   34.83700   36.11500  
H    23.29000   35.57400   36.77400  
H    23.24000   33.88500   36.26300  
H    24.81800   34.86300   36.37100  
O    22.12900   34.92300   34.16600  
C    28.17600   24.33500   18.16600  
H    28.42100   23.27100   18.11900  
H    27.18300   24.46300   18.60400  
H    28.35500   24.89500   17.24500  
S    29.35200   24.94300   19.39700  
C    28.92000   23.81900   20.74400  
H    29.09000   24.33400   21.69300  
H    27.89000   23.48100   20.60900  
H    29.62800   22.98800   20.79200  
O    28.90500   26.18900   20.09600  
C    31.36200   26.25800   26.76400  
H    30.65400   25.56100   27.21900  
H    31.59600   27.11900   27.39500  
H    31.13200   26.68100   25.78300  
S    32.90900   25.33400   26.62600  
C    33.33300   25.23400   28.38000  
H    33.69300   26.18900   28.77100  
H    32.51900   24.77500   28.94700  
H    34.16800   24.54400   28.52400  
O    33.92700   26.24800   26.01900  
C    23.40900   32.28400   21.79300  
H    22.74700   32.58200   22.61000  
H    24.43400   32.14300   22.14500  
H    23.30000   32.95200   20.93500  
S    22.87700   30.67800   21.15800  
C    21.28000   31.31900   20.60600  
H    20.69800   31.93600   21.29600  
H    21.46600   31.74900   19.61900  
H    20.59500   30.47400   20.50200  
O    22.48900   29.95000   22.40800  
C    21.74800   31.19600   27.20500  
H    22.70600   31.70300   27.06700  
H    20.88600   31.86800   27.19500  
H    21.82700   30.61400   28.12600  
S    21.32300   30.11900   25.81800  
C    20.69100   31.46500   24.79200  
H    19.77000   31.75100   25.30700  
H    21.50800   32.18600   24.70900  
H    20.54900   30.97300   23.82700  
O    20.12800   29.35300   26.29400  
C    28.27600   30.86500   34.32000  
H    28.25300   30.28100   35.24400  
H    29.03100   31.65500   34.33400  
H    27.29600   31.34000   34.23000  
S    28.59300   29.80600   32.89100  
C    27.68600   30.75100   31.64600  
H    26.74400   31.13200   32.05000  
H    28.32000   31.60900   31.41100  
H    27.47800   30.12100   30.77700  
O    27.77300   28.64400   33.35700  
C    28.28800   26.09300   29.21100  
H    29.29200   26.22100   29.62500  
H    28.23200   26.84800   28.42300  
H    27.53800   26.42700   29.93300  
S    27.85300   24.47000   28.54700  
C    28.58000   23.58400   29.94300  
H    28.07300   23.91500   30.85300  
H    28.24900   22.55600   29.77900  
H    29.63700   23.84400   30.04500  
O    28.81300   24.28400   27.41400  
C    25.80500   37.36100   30.55100  
H    26.86800   37.16600   30.71300  
H    25.70200   38.41300   30.27300  
H    25.21900   37.14400   31.44800  
S    25.39200   36.27800   29.16500  
C    23.62500   36.64300   29.06400  
H    23.58400   37.66200   28.67000  
H    23.17100   35.91800   28.38400  
H    23.28700   36.66700   30.10300  
O    25.52500   34.88700   29.70200  
$end

$rem
JOBTYPE  SP
METHOD  B3LYP
BASIS  6-31+G(D)
SYMMETRY  FALSE
SYM_IGNORE  TRUE
MEM_TOTAL  16000
MEM_STATIC  8000
MAX_SUB_FILE_NUM  16000
BASIS_LIN_DEP_THRESH  6
THRESH  14
SCF_CONVERGENCE  8
GEN_SCFMAN  TRUE
SCF_GUESS  SAD
FD_MAT_VEC_PROD  FALSE
XC_GRID  000075000302
NL_GRID  1
MAX_SCF_CYCLES  200
ENV_METHOD  B3LYP
GEN_SCFMAN_EMBED  TRUE
SPADE_PARTITION  TRUE
$end

$development
embedding_early_stop  1
$end

--------------------------------------------------------------
 ----------------------------------------------------------------
             Standard Nuclear Orientation (Angstroms)
    I     Atom           X                Y                Z
 ----------------------------------------------------------------
    1      C      25.1820000000    30.4930000000    25.6820000000
    2      C      25.9580000000    30.1470000000    26.9640000000
    3      C      25.8430000000    28.6380000000    27.2400000000
    4      C      26.4060000000    27.9240000000    26.0000000000
    5      C      25.6530000000    28.2370000000    24.6970000000
    6      C      25.6990000000    29.7520000000    24.4380000000
    7      H      26.2410000000    28.3090000000    28.2080000000
    8      H      26.9930000000    30.4870000000    26.8380000000
    9      H      24.1050000000    30.4280000000    25.8810000000
   10      H      25.3580000000    31.5640000000    25.5240000000
   11      H      27.4320000000    28.2490000000    25.7910000000
   12      H      26.4680000000    26.8450000000    26.1880000000
   13      H      25.9580000000    27.6520000000    23.8210000000
   14      H      24.6050000000    27.9560000000    24.8600000000
   15      H      26.6850000000    30.1570000000    24.1790000000
   16      H      25.0360000000    30.0440000000    23.6160000000
   17      H      24.7770000000    28.3810000000    27.2160000000
   18      N      25.4060000000    30.9220000000    28.0740000000
   19      H      24.7120000000    30.5140000000    28.6890000000
   20      C      25.9420000000    32.0970000000    28.5570000000
   21      H      25.5010000000    32.4860000000    29.4930000000
   22      O      26.9370000000    32.6050000000    28.0730000000
   23      C      24.6420000000    27.4860000000    21.3050000000
   24      H      25.6940000000    27.7270000000    21.1330000000
   25      H      24.1100000000    27.8270000000    20.4140000000
   26      H      24.2650000000    28.0310000000    22.1740000000
   27      S      24.2030000000    25.7430000000    21.4920000000
   28      C      25.1310000000    25.1710000000    20.0510000000
   29      H      26.1800000000    25.2970000000    20.3300000000
   30      H      24.8250000000    24.1440000000    19.8380000000
   31      H      24.8490000000    25.8300000000    19.2260000000
   32      O      22.7380000000    25.4890000000    21.3160000000
   33      C      28.9890000000    28.2820000000    23.3550000000
   34      H      28.3460000000    29.1600000000    23.4630000000
   35      H      28.6620000000    27.4770000000    22.6910000000
   36      H      29.2240000000    27.8280000000    24.3210000000
   37      S      30.6480000000    28.8230000000    22.8850000000
   38      C      31.2860000000    27.1390000000    22.7400000000
   39      H      32.2500000000    27.1540000000    23.2560000000
   40      H      30.6410000000    26.4670000000    23.3120000000
   41      H      31.2910000000    26.8900000000    21.6760000000
   42      O      31.2970000000    29.4390000000    24.0850000000
   43      C      28.4380000000    32.7640000000    24.6980000000
   44      H      29.0190000000    32.5770000000    25.6050000000
   45      H      27.5480000000    33.2100000000    25.1490000000
   46      H      28.1640000000    31.8990000000    24.0880000000
   47      S      29.1990000000    33.9640000000    23.5830000000
   48      C      30.9360000000    33.5290000000    23.8290000000
   49      H      31.3200000000    33.6440000000    24.8460000000
   50      H      31.0650000000    32.4890000000    23.5210000000
   51      H      31.5630000000    34.0890000000    23.1310000000
   52      O      28.8770000000    35.2350000000    24.3060000000
   53      C      28.6970000000    30.9340000000    20.3990000000
   54      H      28.8960000000    29.9460000000    20.8210000000
   55      H      28.9570000000    31.0410000000    19.3430000000
   56      H      29.3720000000    31.6530000000    20.8700000000
   57      S      26.9740000000    31.4010000000    20.6750000000
   58      C      26.9850000000    32.6680000000    19.3870000000
   59      H      28.0090000000    32.8090000000    19.0320000000
   60      H      26.3680000000    32.3080000000    18.5600000000
   61      H      26.4740000000    33.5730000000    19.7260000000
   62      O      27.0960000000    32.2710000000    21.8880000000
   63      C      28.4060000000    36.6000000000    35.6990000000
   64      H      27.3720000000    36.9250000000    35.8410000000
   65      H      28.8360000000    36.2150000000    36.6270000000
   66      H      28.9990000000    37.3600000000    35.1860000000
   67      S      28.1330000000    35.1860000000    34.6070000000
   68      C      27.0820000000    36.1300000000    33.4810000000
   69      H      26.1890000000    36.4660000000    34.0150000000
   70      H      27.7040000000    36.9550000000    33.1250000000
   71      H      26.8060000000    35.4930000000    32.6370000000
   72      O      27.3200000000    34.2920000000    35.4910000000
   73      C      30.8350000000    30.3270000000    26.7700000000
   74      H      30.6280000000    31.0580000000    25.9830000000
   75      H      31.8730000000    30.5490000000    27.0270000000
   76      H      30.8020000000    29.3040000000    26.3850000000
   77      S      29.5700000000    30.6130000000    28.0280000000
   78      C      30.7400000000    31.5070000000    29.0750000000
   79      H      30.9700000000    32.5250000000    28.7520000000
   80      H      30.4050000000    31.5360000000    30.1150000000
   81      H      31.6040000000    30.8380000000    29.0940000000
   82      O      29.7140000000    29.2150000000    28.5430000000
   83      C      23.3280000000    24.1390000000    29.3720000000
   84      H      22.5350000000    23.6440000000    28.8060000000
   85      H      24.2340000000    23.5850000000    29.1160000000
   86      H      23.0900000000    24.1480000000    30.4390000000
   87      S      23.5220000000    25.8260000000    28.7520000000
   88      C      21.7530000000    26.1040000000    28.5100000000
   89      H      21.1260000000    25.8600000000    29.3720000000
   90      H      21.5450000000    27.1190000000    28.1650000000
   91      H      21.5760000000    25.5010000000    27.6160000000
   92      O      24.0110000000    25.6420000000    27.3490000000
   93      C      26.6800000000    24.8930000000    23.6690000000
   94      H      26.5810000000    25.5340000000    22.7900000000
   95      H      26.5340000000    25.4680000000    24.5860000000
   96      H      27.6740000000    24.4410000000    23.7280000000
   97      S      25.4850000000    23.5390000000    23.7320000000
   98      C      25.5470000000    23.2290000000    25.5110000000
   99      H      24.8010000000    23.8850000000    25.9660000000
  100      H      25.3740000000    22.1620000000    25.6680000000
  101      H      26.5760000000    23.4440000000    25.8110000000
  102      O      26.3570000000    22.4490000000    23.1920000000
  103      C      24.8860000000    35.2380000000    25.9980000000
  104      H      24.8090000000    34.6220000000    26.8970000000
  105      H      25.8320000000    35.7840000000    25.9560000000
  106      H      24.0070000000    35.8870000000    26.0380000000
  107      S      24.7820000000    34.1550000000    24.5550000000
  108      C      25.4230000000    35.3250000000    23.3370000000
  109      H      26.2700000000    35.8860000000    23.7410000000
  110      H      25.7230000000    34.7990000000    22.4270000000
  111      H      24.6330000000    36.0360000000    23.0810000000
  112      O      23.3170000000    34.1810000000    24.2500000000
  113      C      25.1160000000    24.8440000000    32.0430000000
  114      H      25.3660000000    23.8260000000    32.3520000000
  115      H      24.0300000000    24.9660000000    32.0340000000
  116      H      25.4800000000    25.1670000000    31.0640000000
  117      S      25.9690000000    26.0180000000    33.1190000000
  118      C      27.5650000000    25.1730000000    33.1370000000
  119      H      28.2130000000    25.5990000000    32.3670000000
  120      H      27.9670000000    25.3760000000    34.1330000000
  121      H      27.4170000000    24.1080000000    32.9390000000
  122      O      25.4430000000    25.8520000000    34.5110000000
  123      C      26.8680000000    20.8700000000    28.3400000000
  124      H      27.9480000000    21.0000000000    28.4490000000
  125      H      26.7460000000    19.9380000000    27.7830000000
  126      H      26.4940000000    21.7550000000    27.8190000000
  127      S      25.9840000000    20.5990000000    29.8930000000
  128      C      24.3270000000    20.1190000000    29.3570000000
  129      H      23.9930000000    20.9400000000    28.7170000000
  130      H      24.3800000000    19.2520000000    28.6940000000
  131      H      23.6180000000    20.0230000000    30.1830000000
  132      O      25.7710000000    21.8910000000    30.6170000000
  133      C      18.9170000000    28.1140000000    28.8290000000
  134      H      19.7770000000    28.7440000000    29.0700000000
  135      H      19.2750000000    27.2160000000    28.3180000000
  136      H      18.2950000000    28.7240000000    28.1680000000
  137      S      18.2140000000    27.6470000000    30.4270000000
  138      C      18.0770000000    29.3430000000    31.0350000000
  139      H      17.6910000000    29.2890000000    32.0560000000
  140      H      19.0760000000    29.7860000000    31.0050000000
  141      H      17.3930000000    29.9830000000    30.4720000000
  142      O      19.3120000000    26.9470000000    31.1660000000
  143      C      29.0470000000    34.5830000000    30.3180000000
  144      H      29.3050000000    35.0080000000    31.2920000000
  145      H      27.9790000000    34.7800000000    30.1970000000
  146      H      29.2370000000    33.5080000000    30.2730000000
  147      S      29.9630000000    35.5440000000    29.0920000000
  148      C      29.1600000000    34.6590000000    27.7360000000
  149      H      29.7960000000    34.6620000000    26.8470000000
  150      H      28.9990000000    33.5930000000    27.9130000000
  151      H      28.2160000000    35.1630000000    27.5120000000
  152      O      31.3110000000    34.9040000000    29.2050000000
  153      C      19.1850000000    26.0990000000    23.7580000000
  154      H      18.1630000000    25.7470000000    23.9220000000
  155      H      19.1370000000    27.1140000000    23.3530000000
  156      H      19.7350000000    25.4640000000    23.0590000000
  157      S      20.0830000000    26.1670000000    25.3250000000
  158      C      21.6410000000    26.6250000000    24.5330000000
  159      H      22.3640000000    26.0950000000    25.1590000000
  160      H      21.8280000000    26.3170000000    23.5010000000
  161      H      21.9500000000    27.6720000000    24.5950000000
  162      O      20.3410000000    24.7000000000    25.4760000000
  163      C      20.8310000000    32.2390000000    32.5180000000
  164      H      21.7350000000    32.2370000000    33.1320000000
  165      H      20.3980000000    33.2430000000    32.4920000000
  166      H      20.0160000000    31.5940000000    32.8540000000
  167      S      21.3410000000    31.6840000000    30.8760000000
  168      C      22.3620000000    33.1190000000    30.4730000000
  169      H      21.8530000000    34.0090000000    30.8540000000
  170      H      23.3220000000    32.9730000000    30.9750000000
  171      H      22.5280000000    33.2300000000    29.3990000000
  172      O      20.1360000000    31.9210000000    30.0210000000
  173      C      22.0860000000    28.2610000000    31.7960000000
  174      H      21.7410000000    29.2640000000    32.0620000000
  175      H      21.7470000000    28.1470000000    30.7640000000
  176      H      21.8440000000    27.4460000000    32.4830000000
  177      S      23.8760000000    28.4320000000    31.6270000000
  178      C      24.1360000000    29.0850000000    33.2920000000
  179      H      23.2070000000    29.5250000000    33.6600000000
  180      H      24.4420000000    28.2740000000    33.9580000000
  181      H      24.9750000000    29.7810000000    33.2100000000
  182      O      24.1590000000    29.5920000000    30.7230000000
  183      C      24.4420000000    33.9560000000    33.6700000000
  184      H      23.8160000000    33.0680000000    33.7840000000
  185      H      24.5880000000    34.2370000000    32.6240000000
  186      H      25.3980000000    33.8450000000    34.1880000000
  187      S      23.5460000000    35.3480000000    34.3940000000
  188      C      23.7560000000    34.8370000000    36.1150000000
  189      H      23.2900000000    35.5740000000    36.7740000000
  190      H      23.2400000000    33.8850000000    36.2630000000
  191      H      24.8180000000    34.8630000000    36.3710000000
  192      O      22.1290000000    34.9230000000    34.1660000000
  193      C      28.1760000000    24.3350000000    18.1660000000
  194      H      28.4210000000    23.2710000000    18.1190000000
  195      H      27.1830000000    24.4630000000    18.6040000000
  196      H      28.3550000000    24.8950000000    17.2450000000
  197      S      29.3520000000    24.9430000000    19.3970000000
  198      C      28.9200000000    23.8190000000    20.7440000000
  199      H      29.0900000000    24.3340000000    21.6930000000
  200      H      27.8900000000    23.4810000000    20.6090000000
  201      H      29.6280000000    22.9880000000    20.7920000000
  202      O      28.9050000000    26.1890000000    20.0960000000
  203      C      31.3620000000    26.2580000000    26.7640000000
  204      H      30.6540000000    25.5610000000    27.2190000000
  205      H      31.5960000000    27.1190000000    27.3950000000
  206      H      31.1320000000    26.6810000000    25.7830000000
  207      S      32.9090000000    25.3340000000    26.6260000000
  208      C      33.3330000000    25.2340000000    28.3800000000
  209      H      33.6930000000    26.1890000000    28.7710000000
  210      H      32.5190000000    24.7750000000    28.9470000000
  211      H      34.1680000000    24.5440000000    28.5240000000
  212      O      33.9270000000    26.2480000000    26.0190000000
  213      C      23.4090000000    32.2840000000    21.7930000000
  214      H      22.7470000000    32.5820000000    22.6100000000
  215      H      24.4340000000    32.1430000000    22.1450000000
  216      H      23.3000000000    32.9520000000    20.9350000000
  217      S      22.8770000000    30.6780000000    21.1580000000
  218      C      21.2800000000    31.3190000000    20.6060000000
  219      H      20.6980000000    31.9360000000    21.2960000000
  220      H      21.4660000000    31.7490000000    19.6190000000
  221      H      20.5950000000    30.4740000000    20.5020000000
  222      O      22.4890000000    29.9500000000    22.4080000000
  223      C      21.7480000000    31.1960000000    27.2050000000
  224      H      22.7060000000    31.7030000000    27.0670000000
  225      H      20.8860000000    31.8680000000    27.1950000000
  226      H      21.8270000000    30.6140000000    28.1260000000
  227      S      21.3230000000    30.1190000000    25.8180000000
  228      C      20.6910000000    31.4650000000    24.7920000000
  229      H      19.7700000000    31.7510000000    25.3070000000
  230      H      21.5080000000    32.1860000000    24.7090000000
  231      H      20.5490000000    30.9730000000    23.8270000000
  232      O      20.1280000000    29.3530000000    26.2940000000
  233      C      28.2760000000    30.8650000000    34.3200000000
  234      H      28.2530000000    30.2810000000    35.2440000000
  235      H      29.0310000000    31.6550000000    34.3340000000
  236      H      27.2960000000    31.3400000000    34.2300000000
  237      S      28.5930000000    29.8060000000    32.8910000000
  238      C      27.6860000000    30.7510000000    31.6460000000
  239      H      26.7440000000    31.1320000000    32.0500000000
  240      H      28.3200000000    31.6090000000    31.4110000000
  241      H      27.4780000000    30.1210000000    30.7770000000
  242      O      27.7730000000    28.6440000000    33.3570000000
  243      C      28.2880000000    26.0930000000    29.2110000000
  244      H      29.2920000000    26.2210000000    29.6250000000
  245      H      28.2320000000    26.8480000000    28.4230000000
  246      H      27.5380000000    26.4270000000    29.9330000000
  247      S      27.8530000000    24.4700000000    28.5470000000
  248      C      28.5800000000    23.5840000000    29.9430000000
  249      H      28.0730000000    23.9150000000    30.8530000000
  250      H      28.2490000000    22.5560000000    29.7790000000
  251      H      29.6370000000    23.8440000000    30.0450000000
  252      O      28.8130000000    24.2840000000    27.4140000000
  253      C      25.8050000000    37.3610000000    30.5510000000
  254      H      26.8680000000    37.1660000000    30.7130000000
  255      H      25.7020000000    38.4130000000    30.2730000000
  256      H      25.2190000000    37.1440000000    31.4480000000
  257      S      25.3920000000    36.2780000000    29.1650000000
  258      C      23.6250000000    36.6430000000    29.0640000000
  259      H      23.5840000000    37.6620000000    28.6700000000
  260      H      23.1710000000    35.9180000000    28.3840000000
  261      H      23.2870000000    36.6670000000    30.1030000000
  262      O      25.5250000000    34.8870000000    29.7020000000
 ----------------------------------------------------------------
 Nuclear Repulsion Energy =       40265.44383053 hartrees
 There are      539 alpha and      539 beta electrons
 Requested basis set is 6-31+G(d)
 There are 863 shells and 2405 basis functions

 Total QAlloc Memory Limit  16000 MB
 Mega-Array Size      7821 MB
 MEM_STATIC part      8000 MB
 A cutoff of  1.0D-14 yielded 151662 shell pairs
 There are   1310703 function pairs
 Smallest overlap matrix eigenvalue = 5.09E-07
 Linear dependence detected in AO basis
 Tighter screening thresholds may be required for diffuse basis sets
 Use S2THRESH > 14 and THRESH = 14 in case of SCF convergence issues
 Number of orthogonalized atomic orbitals = 2402
 Maximum deviation from orthogonality = 1.290E-10

 Scale SEOQF with 1.000000e-03/1.000000e-03/1.000000e-03

 Standard Electronic Orientation quadrupole field applied
 Nucleus-field energy     =     0.0000000509 hartrees
 Guess from superposition of atomic densities
 Warning:  Energy on first SCF cycle will be non-variational
 SAD guess density has 1078.000002 electrons

 -----------------------------------------------------------------------
  General SCF calculation program by
  Eric Jon Sundstrom, Paul Horn, Yuezhi Mao, Dmitri Zuev, Alec White,
  David Stuck, Shaama M.S., Shane Yost, Joonho Lee, David Small,
  Daniel Levine, Susi Lehtola, Hugh Burton, Evgeny Epifanovsky,
  Bang C. Huynh
 -----------------------------------------------------------------------
=================================================
        Doing projection-based embedding         
      F. Manby et al. JCTC, 8, 2564 (2012)       
=================================================

****************************************************
   Low-level SCF calculation for the whole system   
****************************************************
----------------------------------------------
 Summary of the low-level theory: 
 Exchange:     0.2000 Hartree-Fock + 0.0800 Slater + 0.7200 B88
 Correlation:  0.1900 VWN1RPA + 0.8100 LYP
 Using Euler-Maclaurin-Lebedev (75,302) quadrature formula
----------------------------------------------
 using 16 threads for integral computing
 -------------------------------------------------------
 OpenMP Integral computing Module                
 Release: version 2.0, May 2017, Q-Chem Inc. Pleasanton 
 -------------------------------------------------------
 A restricted SCF calculation will be
 performed using DIIS
 SCF converges when DIIS error is below 1.0e-08
 ---------------------------------------
  Cycle       Energy         DIIS error
 ---------------------------------------
    1  -13698.4338807548      1.43e-02  
    2  -13676.8203424849      2.64e-03  
    3  -13664.0458757362      5.13e-03  
    4  -13680.1665569377      1.19e-03  
    5  -13681.1309316873      1.77e-04  
    6  -13681.1416859251      1.42e-04  
    7  -13681.1520928080      5.66e-05  
    8  -13681.1539512816      1.33e-05  
    9  -13681.1540524086      5.29e-06  
   10  -13681.1540675579      2.22e-06  
   11  -13681.1540703847      5.23e-07  
   12  -13681.1540705298      2.19e-07  
   13  -13681.1540705567      7.19e-08  
   14  -13681.1540705592      3.18e-08  
   15  -13681.1540705598      7.74e-09  Convergence criterion met
 ---------------------------------------
 SCF time:   CPU 142042.17s  wall 8943.00s 
 SCF   energy in the final basis set =   -13681.1540705598
 Total energy in the final basis set =   -13681.1540705598

****************************************************
             Start embedding calculation            
****************************************************
----------------------------------------------
 Summary of the high-level theory: 
 Exchange:     0.2000 Hartree-Fock + 0.0800 Slater + 0.7200 B88
 Correlation:  0.1900 VWN1RPA + 0.8100 LYP
 Using Euler-Maclaurin-Lebedev (75,302) quadrature formula
----------------------------------------------
Doing R-in-R Embedding Calculation
Number of fragments: 2
Embedded fragment(s): 1 
NOcc for each fragment
           35
          504
NBasis for each fragment
          197
         2208
Variational space of the embedded problem: 
NOcc (active)  = 35
NOcc (fixed)   = 504
NVir (total)   = 1863
Read converged orbitals from disk
=========================================================
       Doing SPADE partition for the orbital space       
     D. CLaudino and N. Mayhall JCTC 15, 1053 (2019)     
=========================================================
SPADE singular values:
 1.0000 1.0000 1.0000 1.0000 1.0000 1.0000 1.0000 1.0000 1.0000 0.9999
 0.9998 0.9997 0.9996 0.9995 0.9993 0.9992 0.9991 0.9986 0.9978 0.9973
 0.9967 0.9965 0.9958 0.9955 0.9951 0.9941 0.9935 0.9923 0.9922 0.9919
 0.9911 0.9904 0.9877 0.9841 0.9780 0.2187 0.1912 0.1751 0.1630 0.1583
 0.1477 0.1422 0.1333 0.1238 0.1131 0.1086 0.0986 0.0826 0.0783 0.0705
 0.0639 0.0600 0.0543 0.0494 0.0450 0.0441 0.0423 0.0404 0.0379 0.0349
 0.0341 0.0319 0.0305 0.0292 0.0276 0.0255 0.0251 0.0234 0.0214 0.0201
 0.0195 0.0182 0.0177 0.0170 0.0157 0.0146 0.0143 0.0133 0.0126 0.0125
 0.0110 0.0102 0.0099 0.0096 0.0091 0.0081 0.0078 0.0075 0.0072 0.0067
 0.0066 0.0064 0.0060 0.0055 0.0052 0.0051 0.0048 0.0048 0.0046 0.0041
 0.0039 0.0037 0.0035 0.0033 0.0032 0.0031 0.0031 0.0029 0.0028 0.0026
 0.0024 0.0024 0.0024 0.0022 0.0022 0.0020 0.0019 0.0019 0.0018 0.0017
 0.0017 0.0016 0.0015 0.0015 0.0015 0.0014 0.0013 0.0013 0.0012 0.0012
 0.0011 0.0011 0.0010 0.0010 0.0010 0.0009 0.0009 0.0009 0.0008 0.0008
 0.0007 0.0007 0.0007 0.0007 0.0006 0.0006 0.0006 0.0006 0.0005 0.0005
 0.0005 0.0004 0.0004 0.0004 0.0004 0.0004 0.0004 0.0004 0.0004 0.0003
 0.0003 0.0003 0.0003 0.0003 0.0003 0.0003 0.0003 0.0003 0.0002 0.0002
 0.0002 0.0002 0.0002 0.0002 0.0002 0.0002 0.0002 0.0002 0.0002 0.0001
 0.0001 0.0001 0.0001 0.0001 0.0001 0.0001 0.0001 0.0001 0.0001 0.0001
 0.0001 0.0001 0.0001 0.0001 0.0001 0.0001 0.0001
Early stop requested!
504 environment occs will be part of frozen-core in future post-HF calculations
 
 --------------------------------------------------------------
 
                    Orbital Energies (a.u.)
 --------------------------------------------------------------
 
 Alpha MOs
 -- Occupied --
 -0.4724  -0.5048  -0.4982  -0.4817  -0.5205  -0.5388  -0.5043  -0.5045
 -0.4664  -0.4845  -0.4579  -0.4602  -0.4275  -0.4462  -0.4596  -0.4544
 -0.4335  -0.4285  -0.4757  -0.4361  -0.4651  -0.4875  -0.5824  -0.4881
 -0.5701  -0.5277  -0.6143  -0.5344  -0.4826  -0.6179  -0.5965  -0.6281
 -0.5735  -0.6034  -0.6202  -0.4978  -0.6421  -0.5301  -0.5700  -0.5018
 -0.5465  -0.6626  -0.5432  -0.5592  -0.5431  -0.5472  -0.5234  -0.5921
 -0.6305  -0.5601  -0.5899  -0.5730  -0.5460  -0.6488  -0.6126  -0.6589
 -0.6002  -0.7545  -0.6105  -0.6119  -0.6994  -0.7286  -0.7744  -0.7618
 -0.6939  -0.7683  -0.8000  -0.7783  -0.7779  -0.8280  -1.1246  -0.9118
 -1.1398  -0.9903  -0.8152  -1.0075  -0.9664  -0.6931  -1.0789  -0.8687
 -1.2006  -1.2024  -0.8016  -1.1622  -1.1294  -0.9580  -1.0552  -1.0117
 -1.0639  -1.0897  -1.2373  -1.0138  -1.0021  -1.2693  -1.1311  -1.1182
 -1.3356  -1.0803  -1.0254  -1.0346  -1.7358  -1.6759  -1.5622  -1.1131
 -0.9086  -1.5704  -1.4035  -1.2611  -1.4460  -1.3269  -1.3053  -1.6237
 -1.2820  -1.4781  -1.0718  -1.2075  -1.4719  -1.9317  -1.3675  -1.2915
 -1.7318  -1.3954  -1.2479  -1.2988  -1.5346  -1.6621  -1.6634  -1.5136
 -2.6063  -1.2037  -1.6425  -1.5100  -1.3656  -1.3930  -1.8115  -1.7739
 -1.2049  -2.0459  -1.4485  -1.9058  -1.9477  -2.7981  -1.2973  -2.1584
 -1.3843  -1.7868  -1.3606  -1.8598  -2.0083  -2.0682  -1.5843  -2.4576
 -1.8185  -2.2610  -1.8927  -2.6177  -2.7253  -1.8465  -2.0034  -2.6042
 -1.8331  -3.0146  -5.9613  -5.9172  -5.9385  -5.9430  -1.3143  -7.4267
 -9.5590  -1.6061 -35.2225  -1.3077  -1.3374 -16.6413  -9.5377  -5.3185
 -6.2395  -9.4937  -2.8679  -4.7943  -3.0508  -3.0274  -3.6066 -11.4187
-11.8587 -13.2768  -2.0449  -3.9259  -1.9490  -1.9341  -2.6175 -62.3523
 -1.1185  -4.9627  -6.6291 -71.4965  -1.7888  -1.0616 -10.6797  -1.1655
 -6.5249  -7.1533 -10.4076  -8.0494  -3.6736  -4.9885  -6.1709  -5.1059
-28.9041  -9.4340  -7.4330  -1.2599  -2.9360  -2.4474  -9.3800  -9.3601
 -3.4666  -1.1715  -4.2429  -4.7252  -1.0669  -1.1381 -64.7130  -1.0929
-71.8951  -7.2555  -7.3105  -8.8541 -13.1671  -3.7758  -5.8331 -15.0750
 -9.8563  -5.6704  -3.6912  -3.9058  -3.6773 -12.2944 -11.1291  -3.0333
 -2.1037  -7.1251  -6.2487  -2.5503  -4.9100  -3.2794 -51.9064  -1.8258
 -1.1913  -0.9982  -8.7486 -13.4193 -13.0422 -43.9422 -21.8521  -6.9818
 -4.6907 -10.0569  -5.1604 -10.2478  -7.6738 -10.6361  -7.7439  -5.2842
 -6.8240  -8.5628  -3.0178  -1.2893  -4.6696 -54.5570 -50.6399 -46.4389
 -1.9330  -3.9886  -5.3199  -1.4868  -3.4354  -1.7154  -3.9916  -5.1167
 -4.8653  -1.4558  -4.2178  -7.8530 -29.8603  -0.9197 -11.2068 -22.6800
 -7.8530  -6.7909  -6.2636  -9.9640  -6.7755 -18.9974  -9.5841  -4.1512
-12.7711  -1.6378  -8.9976  -5.9307 -12.8822  -9.0109  -5.3791  -6.7490
 -3.3410  -3.3458  -7.7678  -6.1812  -9.3234  -7.5588  -5.1804  -5.7327
 -7.7084  -8.0983  -3.2407  -5.9715 -12.1558  -4.2770  -4.8853  -6.2764
 -8.2125  -7.8158 -11.3073 -11.8238  -3.8165  -4.9058  -6.1121 -10.9940
 -7.0993  -5.1097 -10.4903 -11.3449  -2.9854  -7.7588  -7.2404  -6.2216
-11.3565 -12.0414  -6.2163  -3.6491  -6.5119  -3.8593  -1.9497  -4.3689
-10.7102  -8.4025  -8.6696 -11.8580 -17.7908  -7.3765  -7.1261  -3.4412
-13.6828 -27.9272  -6.4165 -18.7343  -3.1242  -3.4845 -23.5095  -2.3431
 -6.1633  -4.8380  -1.8227 -11.8214  -9.9005 -11.2495  -4.1248  -5.0822
-14.4855  -5.5160  -5.6612  -7.6154 -12.2088  -6.9978  -6.4913  -5.5753
 -3.7525  -7.2078 -12.0722 -13.9853  -6.7131  -5.3156  -9.2297  -2.8544
 -4.6259 -12.6788 -13.2698 -19.1907 -16.2219  -3.6089  -3.6277  -2.0856
 -3.1227  -3.4322 -19.1395 -26.0285  -7.6294  -8.3736  -8.9709  -6.2139
 -2.2414 -13.4041 -16.5228 -14.9467 -10.7290  -8.3069 -13.5525 -25.0715
-16.6394 -12.6168 -14.7378  -6.6218  -8.0154  -4.6387 -14.0874 -14.4427
 -4.7050  -4.5395  -4.2272  -3.2083 -22.2310  -2.6804  -3.3864  -1.0614
-18.2515  -7.9828 -16.9608 -19.1987  -2.0104 -43.8475 -10.8146  -8.3674
 -8.9303 -12.8614 -26.4144  -6.4058  -9.3257  -8.0199 -17.0897 -11.2255
-20.3426 -14.2071 -13.8644 -14.2826  -5.9794 -48.0472 -27.9643  -8.4832
-45.1869  -5.0487  -6.0218 -64.1382 -12.0634 -55.8933  -9.5442 -78.4292
-12.8666  -1.2875  -2.1175 -10.0835  -4.2155  -9.2570 -11.1210 -11.0986
-19.7198 -10.5440  -2.3261  -6.9400 -10.5113 -10.1736 -10.7535 -11.4873
-11.5200  -6.3189  -6.6452 -14.1154 -38.1425  -3.3532  -5.3433  -4.4956
 -2.5264 -15.8477 -26.1989 -17.7454 -45.4726 -42.6697  -8.7856 -16.6663
 -7.7029 -11.2548  -4.6278 -10.5565  -6.1485  -9.9445 -11.2979 -12.0999
-12.9336 -20.5469 -32.5298  -7.6926  -8.2372  -5.1310  -5.0934  -9.2498
-13.9532 -10.6273 -10.2581 -17.0386 -10.4798 -10.3476 -11.1897 -10.0912
-10.0724  -0.7226  -0.7513  -0.6335  -0.8362  -0.6835  -0.7703  -0.7289
 -0.7025  -0.3821  -0.4123  -0.4042  -0.4618  -0.4680  -0.4445  -0.4511
 -0.4286  -0.3884  -0.4171  -0.4240  -0.4158  -0.4209  -0.4115  -0.4536
 -0.4565  -0.5820  -0.5408
 -- Virtual --
 -0.0368  -0.0275  -0.0259  -0.0254  -0.0229  -0.0204  -0.0200  -0.0136
 -0.0119  -0.0111  -0.0109  -0.0085  -0.0066  -0.0064  -0.0060  -0.0047
 -0.0044  -0.0036  -0.0022  -0.0013   0.0007   0.0009   0.0015   0.0034
  0.0042   0.0056   0.0062   0.0065   0.0078   0.0085   0.0092   0.0098
  0.0108   0.0113   0.0120   0.0130   0.0134   0.0138   0.0157   0.0159
  0.0166   0.0175   0.0182   0.0203   0.0209   0.0214   0.0221   0.0231
  0.0237   0.0240   0.0250   0.0266   0.0271   0.0271   0.0275   0.0282
  0.0291   0.0299   0.0310   0.0314   0.0318   0.0326   0.0333   0.0335
  0.0346   0.0350   0.0355   0.0370   0.0375   0.0380   0.0385   0.0392
  0.0394   0.0398   0.0404   0.0410   0.0422   0.0431   0.0440   0.0443
  0.0451   0.0455   0.0465   0.0476   0.0478   0.0482   0.0487   0.0493
  0.0506   0.0515   0.0519   0.0526   0.0529   0.0542   0.0545   0.0549
  0.0552   0.0563   0.0563   0.0577   0.0583   0.0591   0.0597   0.0605
  0.0613   0.0617   0.0628   0.0637   0.0644   0.0650   0.0651   0.0657
  0.0665   0.0673   0.0683   0.0694   0.0697   0.0710   0.0713   0.0720
  0.0733   0.0738   0.0747   0.0752   0.0755   0.0764   0.0769   0.0777
  0.0783   0.0785   0.0788   0.0796   0.0802   0.0803   0.0812   0.0822
  0.0841   0.0845   0.0852   0.0857   0.0871   0.0877   0.0889   0.0892
  0.0894   0.0903   0.0915   0.0918   0.0926   0.0931   0.0937   0.0946
  0.0953   0.0955   0.0968   0.0974   0.0987   0.0990   0.0997   0.1004
  0.1010   0.1016   0.1017   0.1023   0.1036   0.1038   0.1047   0.1054
  0.1064   0.1067   0.1073   0.1083   0.1090   0.1097   0.1110   0.1123
  0.1124   0.1127   0.1132   0.1138   0.1147   0.1148   0.1150   0.1162
  0.1167   0.1174   0.1179   0.1185   0.1197   0.1204   0.1207   0.1222
  0.1225   0.1243   0.1247   0.1251   0.1253   0.1262   0.1268   0.1271
  0.1277   0.1298   0.1303   0.1303   0.1308   0.1316   0.1325   0.1325
  0.1338   0.1342   0.1350   0.1354   0.1361   0.1374   0.1383   0.1391
  0.1397   0.1404   0.1412   0.1419   0.1427   0.1433   0.1438   0.1443
  0.1453   0.1455   0.1461   0.1476   0.1482   0.1486   0.1490   0.1500
  0.1506   0.1514   0.1522   0.1525   0.1535   0.1536   0.1548   0.1554
  0.1557   0.1565   0.1570   0.1574   0.1579   0.1583   0.1594   0.1598
  0.1603   0.1612   0.1620   0.1631   0.1636   0.1649   0.1653   0.1655
  0.1665   0.1669   0.1676   0.1691   0.1698   0.1702   0.1707   0.1714
  0.1720   0.1731   0.1742   0.1744   0.1748   0.1755   0.1763   0.1766
  0.1773   0.1783   0.1787   0.1800   0.1806   0.1810   0.1817   0.1826
  0.1829   0.1839   0.1843   0.1850   0.1858   0.1861   0.1865   0.1874
  0.1877   0.1882   0.1893   0.1904   0.1908   0.1913   0.1916   0.1918
  0.1924   0.1931   0.1940   0.1941   0.1953   0.1954   0.1964   0.1966
  0.1978   0.1982   0.1986   0.2001   0.2008   0.2020   0.2025   0.2030
  0.2035   0.2038   0.2045   0.2054   0.2059   0.2067   0.2070   0.2075
  0.2086   0.2089   0.2096   0.2102   0.2109   0.2118   0.2131   0.2136
  0.2139   0.2143   0.2151   0.2159   0.2166   0.2173   0.2180   0.2189
  0.2195   0.2201   0.2206   0.2221   0.2231   0.2241   0.2246   0.2254
  0.2261   0.2267   0.2274   0.2278   0.2281   0.2288   0.2296   0.2308
  0.2320   0.2325   0.2334   0.2339   0.2345   0.2357   0.2364   0.2372
  0.2374   0.2381   0.2394   0.2399   0.2413   0.2419   0.2420   0.2424
  0.2434   0.2442   0.2447   0.2463   0.2466   0.2468   0.2471   0.2475
  0.2488   0.2498   0.2502   0.2507   0.2512   0.2531   0.2544   0.2551
  0.2554   0.2562   0.2568   0.2575   0.2581   0.2593   0.2598   0.2604
  0.2625   0.2629   0.2632   0.2646   0.2653   0.2659   0.2673   0.2677
  0.2680   0.2691   0.2697   0.2701   0.2711   0.2725   0.2732   0.2735
  0.2746   0.2766   0.2769   0.2774   0.2778   0.2791   0.2796   0.2801
  0.2809   0.2819   0.2827   0.2835   0.2847   0.2854   0.2856   0.2874
  0.2880   0.2884   0.2897   0.2906   0.2911   0.2925   0.2937   0.2939
  0.2950   0.2955   0.2965   0.2981   0.2986   0.2993   0.3006   0.3011
  0.3023   0.3035   0.3039   0.3048   0.3060   0.3062   0.3069   0.3077
  0.3093   0.3097   0.3105   0.3120   0.3123   0.3125   0.3145   0.3151
  0.3166   0.3168   0.3184   0.3196   0.3203   0.3214   0.3220   0.3236
  0.3238   0.3244   0.3255   0.3260   0.3268   0.3284   0.3288   0.3301
  0.3309   0.3318   0.3332   0.3351   0.3357   0.3374   0.3382   0.3383
  0.3394   0.3405   0.3419   0.3427   0.3435   0.3446   0.3449   0.3454
  0.3462   0.3474   0.3478   0.3493   0.3506   0.3517   0.3525   0.3537
  0.3554   0.3559   0.3566   0.3568   0.3579   0.3589   0.3599   0.3601
  0.3618   0.3629   0.3643   0.3654   0.3659   0.3670   0.3674   0.3675
  0.3690   0.3703   0.3705   0.3717   0.3728   0.3735   0.3738   0.3761
  0.3768   0.3771   0.3781   0.3791   0.3804   0.3807   0.3817   0.3827
  0.3836   0.3851   0.3861   0.3872   0.3874   0.3887   0.3897   0.3902
  0.3905   0.3911   0.3932   0.3943   0.3952   0.3955   0.3960   0.3976
  0.3980   0.3984   0.3994   0.4013   0.4026   0.4031   0.4033   0.4050
  0.4058   0.4068   0.4077   0.4090   0.4095   0.4102   0.4114   0.4126
  0.4144   0.4146   0.4153   0.4155   0.4164   0.4173   0.4196   0.4207
  0.4211   0.4221   0.4239   0.4245   0.4254   0.4266   0.4283   0.4291
  0.4306   0.4312   0.4334   0.4341   0.4349   0.4373   0.4381   0.4384
  0.4390   0.4411   0.4419   0.4430   0.4450   0.4453   0.4464   0.4477
  0.4484   0.4495   0.4511   0.4524   0.4549   0.4551   0.4570   0.4575
  0.4593   0.4607   0.4612   0.4627   0.4646   0.4651   0.4662   0.4676
  0.4704   0.4716   0.4731   0.4733   0.4754   0.4762   0.4780   0.4799
  0.4812   0.4821   0.4844   0.4858   0.4871   0.4900   0.4908   0.4921
  0.4931   0.4934   0.4957   0.4982   0.4998   0.5014   0.5032   0.5052
  0.5060   0.5075   0.5080   0.5102   0.5137   0.5146   0.5161   0.5184
  0.5205   0.5226   0.5236   0.5271   0.5291   0.5298   0.5332   0.5338
  0.5351   0.5383   0.5389   0.5411   0.5425   0.5434   0.5442   0.5462
  0.5494   0.5510   0.5523   0.5529   0.5551   0.5560   0.5582   0.5609
  0.5618   0.5645   0.5657   0.5663   0.5695   0.5706   0.5739   0.5748
  0.5754   0.5774   0.5792   0.5797   0.5810   0.5838   0.5846   0.5859
  0.5882   0.5909   0.5916   0.5938   0.5952   0.5967   0.5976   0.5992
  0.6005   0.6017   0.6032   0.6045   0.6055   0.6085   0.6094   0.6101
  0.6128   0.6131   0.6141   0.6164   0.6175   0.6184   0.6194   0.6211
  0.6216   0.6235   0.6238   0.6271   0.6289   0.6301   0.6306   0.6316
  0.6329   0.6357   0.6363   0.6372   0.6375   0.6392   0.6402   0.6415
  0.6429   0.6442   0.6449   0.6469   0.6497   0.6497   0.6504   0.6527
  0.6541   0.6551   0.6558   0.6579   0.6581   0.6603   0.6607   0.6627
  0.6632   0.6641   0.6668   0.6679   0.6698   0.6713   0.6727   0.6733
  0.6741   0.6758   0.6768   0.6770   0.6800   0.6803   0.6821   0.6840
  0.6846   0.6861   0.6862   0.6886   0.6889   0.6907   0.6915   0.6918
  0.6938   0.6944   0.6950   0.6972   0.6996   0.7007   0.7014   0.7027
  0.7041   0.7060   0.7080   0.7089   0.7101   0.7109   0.7113   0.7143
  0.7152   0.7171   0.7177   0.7201   0.7214   0.7224   0.7246   0.7265
  0.7285   0.7295   0.7301   0.7329   0.7342   0.7351   0.7354   0.7368
  0.7394   0.7399   0.7412   0.7435   0.7456   0.7462   0.7490   0.7500
  0.7511   0.7524   0.7549   0.7578   0.7584   0.7604   0.7610   0.7617
  0.7633   0.7643   0.7651   0.7687   0.7693   0.7705   0.7719   0.7733
  0.7753   0.7764   0.7771   0.7800   0.7827   0.7842   0.7858   0.7863
  0.7894   0.7896   0.7924   0.7933   0.7956   0.7973   0.7981   0.8007
  0.8027   0.8035   0.8048   0.8067   0.8088   0.8095   0.8123   0.8131
  0.8150   0.8176   0.8189   0.8207   0.8215   0.8219   0.8245   0.8253
  0.8258   0.8274   0.8282   0.8300   0.8316   0.8336   0.8359   0.8371
  0.8375   0.8395   0.8408   0.8421   0.8432   0.8440   0.8459   0.8461
  0.8481   0.8489   0.8515   0.8525   0.8540   0.8548   0.8575   0.8611
  0.8623   0.8631   0.8645   0.8648   0.8660   0.8683   0.8689   0.8710
  0.8716   0.8727   0.8743   0.8763   0.8789   0.8794   0.8803   0.8824
  0.8847   0.8849   0.8860   0.8869   0.8882   0.8892   0.8909   0.8928
  0.8946   0.8972   0.8976   0.8992   0.8996   0.9004   0.9013   0.9053
  0.9059   0.9064   0.9089   0.9108   0.9113   0.9122   0.9136   0.9144
  0.9167   0.9172   0.9182   0.9192   0.9202   0.9245   0.9253   0.9275
  0.9289   0.9293   0.9327   0.9335   0.9345   0.9348   0.9362   0.9370
  0.9389   0.9401   0.9425   0.9431   0.9440   0.9448   0.9461   0.9482
  0.9488   0.9501   0.9519   0.9538   0.9549   0.9557   0.9570   0.9572
  0.9586   0.9601   0.9608   0.9624   0.9634   0.9648   0.9666   0.9671
  0.9683   0.9690   0.9709   0.9721   0.9743   0.9746   0.9754   0.9772
  0.9785   0.9802   0.9810   0.9824   0.9836   0.9844   0.9857   0.9865
  0.9878   0.9897   0.9910   0.9920   0.9929   0.9948   0.9965   0.9977
  0.9981   1.0000   1.0005   1.0014   1.0015   1.0032   1.0036   1.0044
  1.0057   1.0066   1.0075   1.0087   1.0115   1.0118   1.0132   1.0136
  1.0167   1.0170   1.0180   1.0190   1.0201   1.0209   1.0215   1.0236
  1.0245   1.0266   1.0283   1.0297   1.0307   1.0315   1.0328   1.0334
  1.0352   1.0361   1.0376   1.0397   1.0413   1.0427   1.0439   1.0449
  1.0459   1.0473   1.0482   1.0502   1.0508   1.0527   1.0543   1.0561
  1.0564   1.0583   1.0599   1.0617   1.0626   1.0636   1.0641   1.0674
  1.0684   1.0705   1.0711   1.0727   1.0736   1.0751   1.0785   1.0801
  1.0809   1.0822   1.0840   1.0849   1.0873   1.0876   1.0894   1.0899
  1.0908   1.0929   1.0950   1.0966   1.0979   1.0996   1.1004   1.1018
  1.1026   1.1044   1.1046   1.1063   1.1075   1.1103   1.1109   1.1132
  1.1149   1.1169   1.1176   1.1206   1.1221   1.1234   1.1253   1.1274
  1.1286   1.1295   1.1309   1.1317   1.1335   1.1349   1.1362   1.1385
  1.1395   1.1411   1.1427   1.1432   1.1453   1.1459   1.1477   1.1484
  1.1499   1.1505   1.1515   1.1541   1.1544   1.1569   1.1575   1.1584
  1.1592   1.1610   1.1628   1.1633   1.1644   1.1665   1.1677   1.1692
  1.1708   1.1719   1.1733   1.1747   1.1777   1.1783   1.1800   1.1813
  1.1829   1.1840   1.1856   1.1866   1.1886   1.1913   1.1942   1.1952
  1.1976   1.1993   1.2026   1.2029   1.2056   1.2081   1.2086   1.2093
  1.2120   1.2131   1.2139   1.2171   1.2181   1.2216   1.2224   1.2241
  1.2253   1.2261   1.2290   1.2296   1.2331   1.2349   1.2355   1.2367
  1.2386   1.2422   1.2438   1.2461   1.2497   1.2517   1.2533   1.2558
  1.2583   1.2588   1.2622   1.2638   1.2687   1.2692   1.2722   1.2748
  1.2775   1.2805   1.2827   1.2830   1.2874   1.2879   1.2894   1.2960
  1.2979   1.3001   1.3036   1.3041   1.3057   1.3084   1.3131   1.3136
  1.3167   1.3181   1.3198   1.3226   1.3253   1.3269   1.3292   1.3314
  1.3322   1.3345   1.3361   1.3393   1.3405   1.3448   1.3459   1.3479
  1.3508   1.3543   1.3552   1.3564   1.3603   1.3605   1.3616   1.3640
  1.3676   1.3678   1.3685   1.3714   1.3733   1.3749   1.3761   1.3781
  1.3797   1.3824   1.3830   1.3854   1.3869   1.3892   1.3897   1.3915
  1.3960   1.3968   1.3984   1.3994   1.4007   1.4014   1.4035   1.4044
  1.4053   1.4065   1.4078   1.4103   1.4107   1.4146   1.4148   1.4166
  1.4184   1.4227   1.4245   1.4264   1.4285   1.4293   1.4303   1.4334
  1.4337   1.4356   1.4365   1.4375   1.4394   1.4403   1.4412   1.4473
  1.4482   1.4498   1.4506   1.4522   1.4536   1.4562   1.4578   1.4610
  1.4624   1.4641   1.4649   1.4675   1.4698   1.4731   1.4744   1.4769
  1.4786   1.4799   1.4824   1.4841   1.4847   1.4859   1.4895   1.4917
  1.4938   1.4964   1.4986   1.4998   1.5015   1.5062   1.5076   1.5116
  1.5135   1.5136   1.5153   1.5185   1.5198   1.5220   1.5236   1.5269
  1.5306   1.5315   1.5344   1.5357   1.5388   1.5403   1.5432   1.5456
  1.5476   1.5503   1.5528   1.5586   1.5597   1.5620   1.5672   1.5684
  1.5734   1.5778   1.5834   1.5839   1.5880   1.5935   1.5983   1.5991
  1.6023   1.6071   1.6087   1.6123   1.6174   1.6205   1.6257   1.6268
  1.6309   1.6339   1.6344   1.6364   1.6452   1.6502   1.6511   1.6514
  1.6609   1.6616   1.6624   1.6643   1.6682   1.6693   1.6727   1.6748
  1.6772   1.6802   1.6806   1.6832   1.6847   1.6859   1.6870   1.6875
  1.6905   1.6918   1.6923   1.6933   1.6953   1.6971   1.6985   1.7001
  1.7031   1.7053   1.7058   1.7070   1.7079   1.7102   1.7106   1.7116
  1.7130   1.7138   1.7153   1.7176   1.7177   1.7199   1.7204   1.7231
  1.7244   1.7257   1.7271   1.7279   1.7283   1.7307   1.7311   1.7342
  1.7355   1.7367   1.7388   1.7395   1.7415   1.7445   1.7468   1.7482
  1.7489   1.7495   1.7503   1.7516   1.7530   1.7538   1.7555   1.7569
  1.7587   1.7602   1.7612   1.7628   1.7642   1.7651   1.7674   1.7720
  1.7725   1.7736   1.7748   1.7766   1.7796   1.7802   1.7835   1.7840
  1.7845   1.7886   1.7903   1.7914   1.7942   1.7963   1.7973   1.8001
  1.8007   1.8028   1.8056   1.8084   1.8122   1.8130   1.8147   1.8176
  1.8230   1.8276   1.8330   1.8355   1.8375   1.8381   1.8426   1.8441
  1.8456   1.8516   1.8539   1.8583   1.8610   1.8624   1.8632   1.8657
  1.8695   1.8719   1.8735   1.8746   1.8770   1.8786   1.8801   1.8823
  1.8837   1.8860   1.8892   1.8897   1.8905   1.8921   1.8930   1.8949
  1.8971   1.8989   1.9003   1.9020   1.9028   1.9044   1.9046   1.9062
  1.9075   1.9079   1.9097   1.9100   1.9127   1.9137   1.9150   1.9186
  1.9194   1.9199   1.9214   1.9223   1.9244   1.9253   1.9278   1.9293
  1.9304   1.9324   1.9331   1.9371   1.9376   1.9389   1.9402   1.9417
  1.9427   1.9435   1.9445   1.9458   1.9497   1.9544   1.9559   1.9602
  1.9608   1.9643   1.9698   1.9720   1.9773   1.9810   1.9878   1.9932
  2.0008   2.0065   2.0093   2.0244   2.0268   2.0278   2.0311   2.0386
  2.0426   2.0487   2.0492   2.0504   2.0552   2.0617   2.0625   2.0641
  2.0680   2.0695   2.0709   2.0724   2.0738   2.0740   2.0764   2.0776
  2.0780   2.0798   2.0804   2.0835   2.0865   2.0878   2.0889   2.0915
  2.0935   2.0950   2.0957   2.0990   2.1002   2.1011   2.1053   2.1085
  2.1097   2.1106   2.1112   2.1125   2.1134   2.1175   2.1193   2.1200
  2.1217   2.1230   2.1241   2.1272   2.1278   2.1315   2.1331   2.1364
  2.1389   2.1427   2.1444   2.1458   2.1551   2.1575   2.1626   2.1644
  2.1707   2.1835   2.1863   2.1888   2.1910   2.1926   2.1936   2.1973
  2.1994   2.2017   2.2082   2.2097   2.2114   2.2127   2.2138   2.2161
  2.2171   2.2186   2.2210   2.2220   2.2227   2.2234   2.2256   2.2260
  2.2282   2.2290   2.2300   2.2318   2.2321   2.2350   2.2360   2.2363
  2.2373   2.2397   2.2413   2.2432   2.2449   2.2454   2.2474   2.2483
  2.2488   2.2524   2.2550   2.2578   2.2592   2.2602   2.2626   2.2634
  2.2641   2.2649   2.2672   2.2684   2.2687   2.2689   2.2703   2.2713
  2.2722   2.2737   2.2755   2.2762   2.2770   2.2776   2.2791   2.2806
  2.2807   2.2817   2.2826   2.2837   2.2848   2.2865   2.2874   2.2878
  2.2894   2.2908   2.2927   2.2932   2.2934   2.2945   2.2952   2.2960
  2.2979   2.2994   2.3004   2.3016   2.3034   2.3047   2.3058   2.3076
  2.3083   2.3103   2.3115   2.3121   2.3133   2.3143   2.3154   2.3166
  2.3174   2.3184   2.3190   2.3206   2.3211   2.3240   2.3247   2.3259
  2.3278   2.3296   2.3302   2.3318   2.3332   2.3345   2.3367   2.3382
  2.3382   2.3410   2.3422   2.3431   2.3464   2.3473   2.3483   2.3494
  2.3501   2.3519   2.3532   2.3549   2.3582   2.3612   2.3633   2.3644
  2.3657   2.3685   2.3708   2.3717   2.3743   2.3748   2.3807   2.3821
  2.3871   2.3890   2.3912   2.3931   2.3989   2.4044   2.4074   2.4129
  2.4155   2.4243   2.4279   2.4410   2.4498   2.4792   2.4905   2.5180
  2.5610   2.5672   2.6042   2.6910   2.7399   2.7611   2.7699   2.8041
  2.8083   2.8256   2.8302   2.8309   2.8398   2.8472   2.8496   2.8511
  2.8539   2.8549   2.8565   2.8579   2.8603   2.8643   2.8658   2.8679
  2.8725   2.8754   2.8808   2.8813   2.8887   2.8924   2.8952   2.8983
  2.9019   2.9070   2.9103   2.9576   3.1125   3.2643   3.9317   3.9581
  3.9622   3.9718   3.9728   3.9754   3.9828   3.9849   3.9860   3.9919
  3.9936   3.9948   3.9975   3.9989   4.0012   4.0049   4.0085   4.0106
  4.0163   4.0200   4.0293   4.0322   4.0399   4.0502   4.2036   4.2181
  4.2276   4.2294   4.2373   4.2386   4.2431   4.2460   4.2526   4.2551
  4.2556   4.2571   4.2583   4.2632   4.2693   4.2719   4.2730   4.2749
  4.2774   4.2813   4.2828   4.2853   4.2880   4.2939   4.2960   4.2994
  4.3023   4.3064   4.3092   4.3130   4.3171   4.3190   4.3215   4.3246
  4.3297   4.3313   4.3318   4.3351   4.3398   4.3413   4.3435   4.3451
  4.3471   4.3527   4.3539   4.3586   4.3625   4.3648   4.3656   4.3716
  4.3724   4.3753   4.3833   4.3882   4.3946   4.3989   4.4060   4.4095
  4.4179   4.4215   4.4233   4.4262   4.4348   4.4425   4.4504   4.4593
  4.4705   4.4762   4.4913   4.5059   4.5189   4.5291   4.5486   4.5838
  4.6092   4.6343   4.6752   4.7337   4.7577   4.7898   4.9309
 --------------------------------------------------------------
 
          Ground-State Mulliken Net Atomic Charges

     Atom                 Charge (a.u.)
  ----------------------------------------
      1 C                    -0.074027
      2 C                    -0.597138
      3 C                    -0.217815
      4 C                    -0.731207
      5 C                    -0.880388
      6 C                    -0.390540
      7 H                     0.230086
      8 H                     0.229267
      9 H                     0.212343
     10 H                     0.213808
     11 H                     0.194582
     12 H                     0.209156
     13 H                     0.198418
     14 H                     0.239404
     15 H                     0.182999
     16 H                     0.220369
     17 H                     0.245988
     18 N                     0.107524
     19 H                     0.485774
     20 C                    -0.125139
     21 H                     0.190069
     22 O                    -0.168972
     23 C                    -0.926056
     24 H                     0.259585
     25 H                     0.249908
     26 H                     0.320086
     27 S                     0.759728
     28 C                    -0.905123
     29 H                     0.247066
     30 H                     0.270721
     31 H                     0.243626
     32 O                    -0.576917
     33 C                    -0.881723
     34 H                     0.251612
     35 H                     0.291957
     36 H                     0.278458
     37 S                     0.803056
     38 C                    -0.997829
     39 H                     0.305843
     40 H                     0.251361
     41 H                     0.260848
     42 O                    -0.660071
     43 C                    -1.078135
     44 H                     0.259478
     45 H                     0.307792
     46 H                     0.257201
     47 S                     1.064054
     48 C                    -0.937297
     49 H                     0.260756
     50 H                     0.273635
     51 H                     0.248804
     52 O                    -0.657779
     53 C                    -1.017087
     54 H                     0.270157
     55 H                     0.236193
     56 H                     0.290790
     57 S                     1.295356
     58 C                    -1.007634
     59 H                     0.246582
     60 H                     0.243870
     61 H                     0.273817
     62 O                    -0.753856
     63 C                    -0.791228
     64 H                     0.233233
     65 H                     0.265517
     66 H                     0.233360
     67 S                     0.929076
     68 C                    -1.053716
     69 H                     0.256411
     70 H                     0.248924
     71 H                     0.301114
     72 O                    -0.687117
     73 C                    -1.117613
     74 H                     0.243581
     75 H                     0.249994
     76 H                     0.300229
     77 S                     1.275802
     78 C                    -1.002236
     79 H                     0.294601
     80 H                     0.230059
     81 H                     0.255744
     82 O                    -0.676122
     83 C                    -0.837321
     84 H                     0.266817
     85 H                     0.287904
     86 H                     0.237449
     87 S                     0.525798
     88 C                    -0.881580
     89 H                     0.291173
     90 H                     0.284957
     91 H                     0.302768
     92 O                    -0.619276
     93 C                    -1.068618
     94 H                     0.237719
     95 H                     0.264812
     96 H                     0.275380
     97 S                     1.345093
     98 C                    -1.027832
     99 H                     0.303962
    100 H                     0.242634
    101 H                     0.275159
    102 O                    -0.745642
    103 C                    -1.083226
    104 H                     0.262771
    105 H                     0.257511
    106 H                     0.265485
    107 S                     1.210074
    108 C                    -0.975890
    109 H                     0.283434
    110 H                     0.273194
    111 H                     0.266725
    112 O                    -0.712422
    113 C                    -0.864981
    114 H                     0.275152
    115 H                     0.238389
    116 H                     0.238323
    117 S                     1.093225
    118 C                    -1.020967
    119 H                     0.255373
    120 H                     0.279889
    121 H                     0.234484
    122 O                    -0.730892
    123 C                    -0.836770
    124 H                     0.269951
    125 H                     0.244707
    126 H                     0.266864
    127 S                     0.753424
    128 C                    -0.790481
    129 H                     0.258239
    130 H                     0.237688
    131 H                     0.271185
    132 O                    -0.671032
    133 C                    -0.773433
    134 H                     0.268060
    135 H                     0.268336
    136 H                     0.273296
    137 S                     0.515928
    138 C                    -0.680687
    139 H                     0.238486
    140 H                     0.248981
    141 H                     0.254563
    142 O                    -0.653877
    143 C                    -0.968402
    144 H                     0.224945
    145 H                     0.279692
    146 H                     0.261520
    147 S                     0.956147
    148 C                    -0.891726
    149 H                     0.277587
    150 H                     0.284668
    151 H                     0.258727
    152 O                    -0.705021
    153 C                    -1.130573
    154 H                     0.234503
    155 H                     0.226958
    156 H                     0.282108
    157 S                     1.332803
    158 C                    -0.975659
    159 H                     0.283997
    160 H                     0.285364
    161 H                     0.251420
    162 O                    -0.744462
    163 C                    -0.925382
    164 H                     0.228059
    165 H                     0.282267
    166 H                     0.256607
    167 S                     1.173257
    168 C                    -0.964406
    169 H                     0.257230
    170 H                     0.249766
    171 H                     0.269108
    172 O                    -0.680695
    173 C                    -0.704033
    174 H                     0.231405
    175 H                     0.283499
    176 H                     0.275720
    177 S                     0.748179
    178 C                    -0.945707
    179 H                     0.225587
    180 H                     0.305285
    181 H                     0.265258
    182 O                    -0.648650
    183 C                    -0.890424
    184 H                     0.258721
    185 H                     0.269994
    186 H                     0.286169
    187 S                     0.891635
    188 C                    -0.842918
    189 H                     0.248463
    190 H                     0.259105
    191 H                     0.266137
    192 O                    -0.751259
    193 C                    -0.788717
    194 H                     0.248783
    195 H                     0.253665
    196 H                     0.250541
    197 S                     0.851209
    198 C                    -0.854412
    199 H                     0.266088
    200 H                     0.271599
    201 H                     0.245204
    202 O                    -0.721955
    203 C                    -0.803579
    204 H                     0.287332
    205 H                     0.273185
    206 H                     0.234827
    207 S                     0.896553
    208 C                    -0.882085
    209 H                     0.259567
    210 H                     0.223242
    211 H                     0.246643
    212 O                    -0.677211
    213 C                    -0.823388
    214 H                     0.326902
    215 H                     0.274322
    216 H                     0.219271
    217 S                     0.707322
    218 C                    -0.827138
    219 H                     0.265688
    220 H                     0.227310
    221 H                     0.267207
    222 O                    -0.694599
    223 C                    -0.875330
    224 H                     0.253847
    225 H                     0.255841
    226 H                     0.265517
    227 S                     0.826841
    228 C                    -0.868029
    229 H                     0.250619
    230 H                     0.283089
    231 H                     0.262985
    232 O                    -0.617955
    233 C                    -0.779533
    234 H                     0.275810
    235 H                     0.231642
    236 H                     0.248227
    237 S                     0.720825
    238 C                    -0.882999
    239 H                     0.260994
    240 H                     0.226307
    241 H                     0.307400
    242 O                    -0.677795
    243 C                    -1.013818
    244 H                     0.274663
    245 H                     0.327585
    246 H                     0.256033
    247 S                     0.798001
    248 C                    -0.813153
    249 H                     0.248767
    250 H                     0.218861
    251 H                     0.253638
    252 O                    -0.634740
    253 C                    -0.810184
    254 H                     0.252071
    255 H                     0.250275
    256 H                     0.259792
    257 S                     0.700027
    258 C                    -0.770864
    259 H                     0.248762
    260 H                     0.266157
    261 H                     0.257605
    262 O                    -0.621167
  ----------------------------------------
  Sum of atomic charges =     0.000000

 -----------------------------------------------------------------
                    Cartesian Multipole Moments
 -----------------------------------------------------------------
    Charge (ESU x 10^10)
                -0.0000
    Dipole Moment (Debye)
         X       1.3465      Y      13.9851      Z      -6.9539
       Tot      15.6765
    Quadrupole Moments (Debye-Ang)
        XX    -904.8996     XY     354.8212     YY      73.9715
        XZ    -131.6893     YZ     233.5584     ZZ   -1111.5858
    Octopole Moments (Debye-Ang^2)
       XXX  -73254.8911    XXY  -19575.4267    XYY     563.6020
       YYY  -29307.5988    XXZ  -28791.5315    XYZ    6427.8432
       YYZ    -197.3904    XZZ  -26665.7966    YZZ  -18476.9264
       ZZZ  -77091.3072
    Hexadecapole Moments (Debye-Ang^3)
      XXXX ************   XXXY ************   XXYY -886596.2022
      XYYY -826480.6182   YYYY ************   XXXZ ************
      XXYZ -609282.6563   XYYZ  -15989.7476   YYYZ -794591.3710
      XXZZ ************   XYZZ -438775.5556   YYZZ -684551.6239
      XZZZ ************   YZZZ ************   ZZZZ ************
 -----------------------------------------------------------------
Archival summary:
[...]
    3  -0.0065671   0.0319055   0.0026579   0.0348584  -0.0002899  -0.0163675
           85          86          87          88          89          90
    1   0.0305178  -0.0043277   0.0237409  -0.0089420  -0.0196466   0.0001299
    2  -0.0119466  -0.0070746   0.0370949   0.0000625  -0.0066725   0.0340992
    3   0.0051378   0.0275025   0.0395110  -0.0063425   0.0235554  -0.0053173
           91          92          93          94          95          96
    1  -0.0138484   0.0373762   0.0052970  -0.0048242  -0.0018245   0.0244087
    2  -0.0256827  -0.0084636   0.0044697   0.0152943   0.0257864  -0.0188398
    3  -0.0216322  -0.1012380   0.0050802  -0.0219881   0.0248947   0.0012488
           97          98          99         100         101         102
    1  -0.0523286   0.0000044  -0.0194070  -0.0107784   0.0282181   0.0633543
    2   0.0124150   0.0035319   0.0198855  -0.0289345   0.0079066  -0.0802862
    3  -0.0179988   0.0090125   0.0275949   0.0005562   0.0162910  -0.0389334
          103         104         105         106         107         108
    1  -0.0034711   0.0019807   0.0234580  -0.0267053   0.0303648   0.0030742
    2   0.0057465  -0.0211874   0.0205059   0.0212800  -0.0470310   0.0084196
    3   0.0040907   0.0250811   0.0054816  -0.0130916   0.0031263  -0.0073339
          109         110         111         112         113         114
    1   0.0311619   0.0113434  -0.0291675  -0.1082239  -0.0013056   0.0040449
    2   0.0132672  -0.0178932   0.0167102   0.0024887  -0.0058847  -0.0323861
    3   0.0040282  -0.0236700  -0.0049869  -0.0232699  -0.0017897  -0.0027687
          115         116         117         118         119         120
    1  -0.0276604   0.0069199   0.0020632   0.0053637   0.0209078   0.0118712
    2   0.0095756  -0.0047814   0.0568536  -0.0028157   0.0171094   0.0041751
    3   0.0083178  -0.0360478  -0.0293406   0.0012607  -0.0173204   0.0267481
          121         122         123         124         125         126
    1  -0.0009742  -0.0379185   0.0015336   0.0294333  -0.0039822  -0.0135846
    2  -0.0323802  -0.0093832   0.0042301   0.0022435  -0.0229966   0.0229909
    3   0.0033761   0.1020264  -0.0100133   0.0101016  -0.0275597  -0.0199970
          127         128         129         130         131         132
    1   0.0279591  -0.0086058  -0.0184237  -0.0038071  -0.0136226  -0.0158976
    2  -0.0488446   0.0015239   0.0257643  -0.0314754  -0.0049611   0.0937350
    3   0.0322907  -0.0070804  -0.0167484  -0.0138235   0.0265509   0.0569357
          133         134         135         136         137         138
    1   0.0084144   0.0290334   0.0068522  -0.0180751  -0.0566699   0.0043695
    2   0.0040792   0.0179540  -0.0211379   0.0141884  -0.0235789   0.0084554
    3  -0.0090220  -0.0024116  -0.0179846  -0.0202518  -0.0099225   0.0029019
          139         140         141         142         143         144
    1  -0.0067491   0.0252054  -0.0169841   0.0773807  -0.0047139   0.0143628
    2  -0.0000040   0.0187000   0.0166772  -0.0547621  -0.0008503   0.0044696
    3   0.0316769  -0.0007704  -0.0223857   0.0545601   0.0094923   0.0341786
          145         146         147         148         149         150
    1  -0.0375406   0.0138293  -0.0094780   0.0028154   0.0212638   0.0011685
    2  -0.0021537  -0.0240325   0.0498737   0.0003450   0.0188826  -0.0178328
    3  -0.0004722   0.0003914   0.0015708  -0.0107849  -0.0296581   0.0149922
          151         152         153         154         155         156
    1  -0.0254403   0.1032806  -0.0017348  -0.0269994  -0.0032392   0.0161776
    2   0.0165648  -0.0438796   0.0002588  -0.0141183   0.0303594  -0.0220666
    3  -0.0142119   0.0099566  -0.0071769   0.0050229  -0.0164622  -0.0138543
          157         158         159         160         161         162
    1  -0.0174615   0.0142907   0.0250862  -0.0062084   0.0027090   0.0192132
    2   0.0332068   0.0029501  -0.0162622  -0.0172261   0.0347192  -0.1071165
    3   0.0350469  -0.0023421   0.0174334  -0.0294911   0.0041246   0.0104550
          163         164         165         166         167         168
    1  -0.0022142   0.0172512  -0.0061150  -0.0173507   0.0305884   0.0059807
    2   0.0057902   0.0020826   0.0306997  -0.0235534  -0.0497347   0.0042002
    3   0.0049444   0.0296635  -0.0024617   0.0144550   0.0001243  -0.0003378
          169         170         171         172         173         174
    1  -0.0127716   0.0342683   0.0031283  -0.0869638  -0.0066976  -0.0166148
    2   0.0242157  -0.0006269  -0.0073473   0.0156908   0.0035161   0.0219014
    3   0.0097772   0.0082543  -0.0286449  -0.0643623  -0.0044160   0.0130185
          175         176         177         178         179         180
    1  -0.0195865  -0.0173683   0.0251514   0.0036601  -0.0224229   0.0108849
    2  -0.0155378  -0.0209647  -0.0558703   0.0013484   0.0186268  -0.0232744
    3  -0.0244169   0.0142806  -0.0062658   0.0066958   0.0123217   0.0211652
          181         182         183         184         185         186
    1   0.0211443   0.0253334   0.0049917  -0.0180291   0.0054930   0.0295895
    2   0.0184941   0.0860729  -0.0073424  -0.0242751  -0.0050751  -0.0112758
    3  -0.0011117  -0.0749871  -0.0016193   0.0018407  -0.0342536   0.0141035
          187         188         189         190         191         192
    1   0.0202277   0.0023722  -0.0197338  -0.0117141   0.0336708  -0.1054319
    2   0.0423477  -0.0030904   0.0209374  -0.0290824  -0.0131584  -0.0313115
    3  -0.0102144   0.0083386   0.0167285   0.0022943   0.0106576  -0.0161022
          193         194         195         196         197         198
    1  -0.0070248   0.0008916  -0.0325238  -0.0017301   0.0553234  -0.0019940
    2  -0.0006734  -0.0337684   0.0043055   0.0105742  -0.0092205  -0.0067283
    3  -0.0011130  -0.0145705   0.0006225  -0.0295885  -0.0167720   0.0084694
          199         200         201         202         203         204
    1  -0.0036397  -0.0288144   0.0147676  -0.0288819  -0.0068099  -0.0365989
    2   0.0207835  -0.0150294  -0.0330909   0.0905855   0.0043445  -0.0142690
    3   0.0216130   0.0106183  -0.0007295   0.0532773   0.0056101   0.0047184
          205         206         207         208         209         210
    1  -0.0033012  -0.0119215  -0.0121051   0.0027669   0.0031078  -0.0275758
    2   0.0265844   0.0046394  -0.0535984   0.0009426   0.0319039  -0.0063961
    3   0.0222452  -0.0270682  -0.0235273   0.0070353   0.0091942   0.0203200
          211         212         213         214         215         216
    1   0.0272497   0.0762433  -0.0004256  -0.0135408   0.0301121   0.0048645
    2  -0.0206933   0.0652285   0.0049053   0.0101319   0.0053335   0.0321801
    3  -0.0037568  -0.0467737   0.0079599   0.0249764   0.0121851  -0.0178186
          217         218         219         220         221         222
    1   0.0285021  -0.0079278  -0.0022729  -0.0071604  -0.0139595  -0.0278836
    2  -0.0157437  -0.0003850   0.0273149   0.0190459  -0.0318754  -0.0549597
    3  -0.0357069  -0.0024078   0.0240450  -0.0299700  -0.0094779   0.0922412
          223         224         225         226         227         228
    1  -0.0000463   0.0242010  -0.0185195  -0.0021444   0.0525452  -0.0010068
    2   0.0019012   0.0137300   0.0232008  -0.0189972  -0.0257085   0.0014393
    3   0.0077067  -0.0066077   0.0236572   0.0269656  -0.0247567  -0.0038027
          229         230         231         232         233         234
    1  -0.0281787   0.0164206  -0.0078022  -0.0844760  -0.0029945   0.0046075
    2   0.0154048   0.0310132  -0.0088591  -0.0585140   0.0054956  -0.0224407
    3   0.0069328  -0.0037153  -0.0298263   0.0345509   0.0065048   0.0205138
          235         236         237         238         239         240
    1   0.0209310  -0.0296831   0.0537138  -0.0102417  -0.0335625   0.0130709
    2   0.0254543   0.0129187  -0.0051429   0.0006429   0.0057219   0.0235985
    3   0.0117465  -0.0000734  -0.0114691  -0.0038520   0.0069274  -0.0121651
          241         242         243         244         245         246
    1  -0.0079207  -0.0593765  -0.0003772   0.0280031  -0.0023173  -0.0218420
    2  -0.0187991  -0.0863278   0.0134505  -0.0017369   0.0208656   0.0118096
    3  -0.0247757   0.0366276   0.0002075   0.0111181  -0.0248007   0.0241180
          247         248         249         250         251         252
    1  -0.0570048  -0.0005667  -0.0164298   0.0063709   0.0317214   0.0667534
    2  -0.0055434  -0.0031083   0.0044593  -0.0303190  -0.0039124  -0.0136465
    3  -0.0003665   0.0065920   0.0255726   0.0069738  -0.0034466  -0.0843032
          253         254         255         256         257         258
    1   0.0004169   0.0287224  -0.0040789  -0.0172451   0.0245944  -0.0076843
    2   0.0041799  -0.0011193   0.0331344  -0.0086511   0.0195305   0.0013255
    3   0.0069883   0.0115227  -0.0066155   0.0263198  -0.0490169   0.0028759
          259         260         261         262
    1  -0.0130444  -0.0220945  -0.0262675   0.0065738
    2   0.0298630  -0.0194454  -0.0082068  -0.1069702
    3  -0.0152722  -0.0117948   0.0255752   0.0387831
  --- DONE ESP SUMMARY ---
Archival summary:
1\1\node011\SP\ProcedureUnspecified\6-31+G*\242448h22\ymao90\FriDec314:30:262021FriDec314:30:262021\0\\#,ProcedureUnspecified,6-31+G*,\\0,1\S\O,1,1.49713\C,1,1.80699,2,102.308\H,3,1.09202,1,111.825,2,-77.3344,0\H,3,1.09278,1,100.558,2,31.3061,0\H,3,1.09348,1,114.925,2,155.898,0\C,1,1.80776,2,103.991,3,98.2464,0\H,7,1.09238,1,107.692,2,47.3511,0\H,7,1.09281,1,108.841,2,-65.4131,0\H,7,1.09326,1,110.512,2,172.991,0\H,10,2.02404,7,132.169,1,-55.623,0\C,11,1.09287,10,115.016,7,-42.7627,0\H,12,1.09284,11,109.49,10,-77.2525,0\H,12,1.09328,11,106.888,10,50.2494,0\S,12,1.80656,11,113.676,10,160.324,0\O,15,1.4973,12,108.409,11,58.3576,0\C,15,1.80598,12,96.8428,11,166.091,0\H,17,1.09283,15,109.548,12,94.5221,0\H,17,1.09308,15,104.312,12,-147.081,0\H,17,1.09331,15,109.532,12,-25.4919,0\H,20,2.19522,17,102.549,15,104.036,0\C,21,1.09303,20,163.012,17,127.895,0\H,22,1.09236,21,105.63,20,64.119,0\H,22,1.09328,21,107.383,20,-67.5726,0\S,22,1.8062,21,107.952,20,173.676,0\O,25,1.49662,22,105.424,21,164.445,0\C,25,1.80672,22,93.4221,21,59.3065,0\H,27,1.09275,25,110.078,22,162.961,0\H,27,1.09332,25,110.607,22,-83.5202,0\H,27,1.09352,25,117.733,22,44.2841,0\H,23,2.06897,22,148.033,21,156.308,0\C,31,1.09324,23,107.292,22,-110.14,0\H,32,1.09259,31,105.223,23,-170.047,0\H,32,1.09295,31,106.815,23,68.2456,0\S,32,1.8074,31,114.54,23,-55.5055,0\O,35,1.49627,32,110.85,31,79.2806,0\C,35,1.80647,32,103.505,31,-169.726,0\H,37,1.09273,35,110.265,32,56.2348,0\H,37,1.09278,35,113.215,32,-173.528,0\H,37,1.09325,35,104.737,32,-56.0187,0\H,26,2.24901,25,121.342,22,-81.4587,0\C,41,1.09275,26,158.224,25,-122.13,0\H,42,1.09279,41,118.968,26,1.73866,0\H,42,1.09281,41,113.631,26,126.116,0\S,42,1.80722,41,105.088,26,-119.303,0\O,45,1.49672,42,107.516,41,-179.403,0\C,45,1.80729,42,98.9172,41,-69.9039,0\H,47,1.09273,45,110.005,42,169.883,0\H,47,1.09293,45,112.094,42,-74.1232,0\H,47,1.09305,45,110.607,42,56.0109,0\H,4,2.27722,3,102.019,1,-170.69,0\C,51,1.09348,4,113.125,3,131.52,0\H,52,1.09297,51,108.59,4,3.33104,0\H,52,1.09357,51,111.213,4,118.419,0\S,52,1.80718,51,109.17,4,-110.712,0\O,55,1.49724,52,105.782,51,57.9232,0\C,55,1.80689,52,94.8462,51,169.417,0\H,57,1.09286,55,107.143,52,-177.67,0\H,57,1.0929,55,115.073,52,63.7497,0\H,57,1.09323,55,107.568,52,-57.5326,0\H,2,2.37146,1,138.278,3,-108.183,0\C,61,1.09265,2,156.221,1,-90.8559,0\H,62,1.09228,61,114.739,2,123.89,0\H,62,1.09319,61,114.224,2,-0.97548,0\S,62,1.80687,61,106.473,2,-117.102,0\O,65,1.49669,62,102.139,61,-170.869,0\C,65,1.80702,62,98.0588,61,88.5763,0\H,67,1.09217,65,106.07,62,-35.9148,0\H,67,1.09239,65,114.067,62,-158.107,0\H,67,1.09354,65,106.829,62,78.0758,0\Gh,68,2.1135,67,169.609,65,-166.957,0\Gh,71,1.09701,68,120.844,67,37.5372,0\Gh,72,1.09635,71,105.745,68,-81.671,0\Gh,72,1.53714,71,111.916,68,30.555,0\Gh,74,1.09664,72,115.611,71,-47.5313,0\Gh,74,1.09719,72,106.848,71,68.0741,0\Gh,72,1.53765,71,109.829,68,158.47,0\Gh,77,1.0968,72,103.262,71,-74.1802,0\Gh,77,1.09712,72,116.069,71,43.2254,0\Gh,74,1.53767,72,109.193,71,-175.575,0\Gh,80,1.09568,74,111.767,72,-170.371,0\Gh,80,1.09695,74,115.494,72,68.9275,0\Gh,80,1.5375,74,109.178,72,-53.4671,0\Gh,83,1.0968,80,107.464,74,172.165,0\Gh,83,1.09716,80,116.634,74,-71.6677,0\Gh,83,1.53799,80,113.35,74,56.6147,0\Gh,86,1.09668,83,108.099,80,63.8928,0\Gh,86,1.46199,83,108.851,80,178.853,0\Gh,88,1.01308,86,120.402,83,96.1516,0\Gh,88,1.37884,86,124.814,83,-98.2842,0\Gh,90,1.10539,88,116.194,86,-171.217,0\Gh,90,1.21752,88,122.276,86,0.920878,0\H,82,2.06533,80,128.793,74,19.5823,0\C,93,1.09362,82,153.463,80,-28.8121,0\H,94,1.09293,93,111.878,82,-50.0288,0\H,94,1.09355,93,118.369,82,75.3058,0\S,94,1.80717,93,108.971,82,-158.496,0\O,97,1.49688,94,108.223,93,73.4213,0\C,97,1.80663,94,93.7854,93,-177.137,0\H,99,1.09276,97,106.987,94,100.257,0\H,99,1.09307,97,108.824,94,-20.7567,0\H,99,1.09352,97,105.109,94,-134.355,0\H,85,2.2337,83,132.633,80,-158.452,0\C,103,1.09264,85,110.569,83,-167.743,0\H,104,1.09234,103,106.876,85,89.7607,0\H,104,1.09304,103,113.892,85,-144.593,0\S,104,1.80674,103,112.699,85,-31.5438,0\O,107,1.49712,104,104.399,103,170.555,0\C,107,1.8066,104,94.2522,103,-81.2893,0\H,109,1.09245,107,102.216,104,170.559,0\H,109,1.0928,107,105.852,104,56.3843,0\H,109,1.09328,107,102.831,104,-69.7927,0\H,82,2.28698,80,150.682,74,-155.203,0\C,113,1.09334,82,137.944,80,37.0565,0\H,114,1.09289,113,110.427,82,-38.4868,0\H,114,1.09324,113,117.434,82,74.2175,0\S,114,1.8062,113,106.666,82,-156.875,0\O,117,1.49728,114,100.095,113,152.531,0\C,117,1.80746,114,99.2643,113,-94.8656,0\H,119,1.09229,117,107.714,114,60.8655,0\H,119,1.09267,117,109.948,114,173.449,0\H,119,1.09315,117,116.033,114,-61.2112,0\H,116,2.2448,114,129.522,113,35.8437,0\C,123,1.09388,116,135.152,114,-131.517,0\H,124,1.09214,123,102.317,116,-128.837,0\H,124,1.09355,123,111.478,116,116.471,0\S,124,1.80682,123,105.228,116,-4.96233,0\O,127,1.49678,124,91.3959,123,156.338,0\C,127,1.80675,124,91.6283,123,-102.049,0\H,129,1.0925,127,115.219,124,76.0601,0\H,129,1.09289,127,102.658,124,-48.6367,0\H,129,1.09301,127,111.472,124,-159.422,0\H,92,2.29207,90,160.529,88,-132.151,0\C,133,1.09252,92,124.365,90,-102.545,0\H,134,1.09308,133,102.72,92,-124.59,0\H,134,1.09331,133,110.839,92,-7.66475,0\S,134,1.80742,133,114.941,92,115.341,0\O,137,1.49649,134,104.326,133,62.8339,0\C,137,1.80711,134,91.3407,133,-38.0997,0\H,139,1.09259,137,114.025,134,60.8389,0\H,139,1.09274,137,108.93,134,-62.5028,0\H,139,1.09356,137,106.141,134,-175.113,0\O,89,2.30066,88,149.627,86,105.01,0\S,143,1.49763,89,152.808,88,-100.074,0\C,144,1.80607,143,108.488,89,-100.213,0\H,145,1.09222,144,103.243,143,56.9488,0\H,145,1.09305,144,110.416,143,-177.745,0\H,145,1.09352,144,104.395,143,-50.6203,0\C,144,1.80727,143,104.422,89,159.149,0\H,149,1.09182,144,109.495,143,88.0528,0\H,149,1.09312,144,109.482,143,-152.039,0\H,149,1.09319,144,105.744,143,-36.3237,0\H,75,2.39217,74,105.582,72,167.036,0\C,153,1.09285,75,102.963,74,176.451,0\H,154,1.09233,153,108.961,75,-163.319,0\H,154,1.09287,153,110.319,75,-47.6319,0\S,154,1.80714,153,108.356,75,82.3724,0\O,157,1.49724,154,112.902,153,71.1819,0\C,157,1.80689,154,95.6264,153,-173.417,0\H,159,1.09258,157,108.011,154,-167.551,0\H,159,1.09276,157,104.65,154,69.144,0\H,159,1.0929,157,106.177,154,-49.2155,0\H,161,2.16348,159,101.356,157,176.304,0\C,163,1.09283,161,141.828,159,173.174,0\H,164,1.09265,163,115.256,161,-112.668,0\H,164,1.09285,163,109.571,161,115.447,0\S,164,1.80776,163,106.188,161,5.79728,0\O,167,1.49697,164,113.807,163,-40.462,0\C,167,1.80677,164,98.2156,163,59.4564,0\H,169,1.09241,167,109.014,164,-24.991,0\H,169,1.09276,167,110.544,164,99.0311,0\H,169,1.09304,167,108.481,164,-149.112,0\H,140,2.39628,139,133.917,137,-174.767,0\C,173,1.0924,140,161.207,139,91.5693,0\H,174,1.09331,173,113.08,140,42.3192,0\H,174,1.0935,173,107.805,140,-78.6268,0\S,174,1.80712,173,105.524,140,162.578,0\O,177,1.4966,174,110.215,173,176.334,0\C,177,1.80666,174,98.6465,173,76.1121,0\H,179,1.09276,177,110.304,174,31.9983,0\H,179,1.09285,177,108.218,174,-85.7587,0\H,179,1.09333,177,111.042,174,149.745,0\O,91,2.4102,90,114.836,88,-148.966,0\S,183,1.49698,91,153.338,90,38.9568,0\C,184,1.80678,183,105.158,91,-176.348,0\H,185,1.09281,184,103.245,183,67.1186,0\H,185,1.09298,184,111.117,183,-177.887,0\H,185,1.0932,184,112.825,183,-53.2247,0\C,184,1.80713,183,107.134,91,79.7029,0\H,189,1.09277,184,107.879,183,-60.576,0\H,189,1.09286,184,104.697,183,66.546,0\H,189,1.09329,184,104.186,183,179.965,0\H,111,2.46936,109,123.058,107,110.147,0\C,193,1.09295,111,153.584,109,-64.791,0\H,194,1.09283,193,111.089,111,161.269,0\H,194,1.09289,193,111.253,111,-69.0091,0\S,194,1.80707,193,109.067,111,47.4917,0\O,197,1.49767,194,102.415,193,-38.8835,0\C,197,1.80721,194,92.9958,193,63.5295,0\H,199,1.09255,197,105.372,194,84.2598,0\H,199,1.09273,197,107.984,194,-159.399,0\H,199,1.0934,197,118.54,194,-47.6023,0\O,193,2.36036,111,68.8509,109,170.762,0\S,203,1.49664,193,111.482,111,121.022,0\C,204,1.80646,203,101.46,193,88.9456,0\H,205,1.09306,204,110.307,203,-92.3948,0\H,205,1.09323,204,108.826,203,26.4566,0\H,205,1.09332,204,110.982,203,145.438,0\C,204,1.8072,203,102.043,193,-170.761,0\H,209,1.09251,204,108.367,203,92.6403,0\H,209,1.09307,204,108.57,203,-145.52,0\H,209,1.09336,204,109.795,203,-20.7587,0\O,113,2.47366,82,82.5722,80,-88.8376,0\S,213,1.49772,113,131.922,82,-59.313,0\C,214,1.80638,213,101.316,113,-52.3254,0\H,215,1.09262,214,110.395,213,98.0836,0\H,215,1.09279,214,110.443,213,-133.964,0\H,215,1.0929,214,110.682,213,-21.9599,0\C,214,1.80675,213,99.7597,113,-148.255,0\H,219,1.0928,214,107.76,213,-148.302,0\H,219,1.09292,214,109.131,213,93.4636,0\H,219,1.09319,214,110.893,213,-34.9783,0\H,158,2.50757,157,101.341,154,-76.119,0\C,223,1.0931,158,167.9,157,-26.6698,0\H,224,1.09339,223,106.907,158,-22.3397,0\H,224,1.0934,223,105.962,158,88.3366,0\S,224,1.80676,223,119.337,158,-136.309,0\O,227,1.49715,224,98.2793,223,70.9966,0\C,227,1.80735,224,93.3209,223,-27.4166,0\H,229,1.09285,227,109.048,224,51.6142,0\H,229,1.09329,227,110.274,224,175.348,0\H,229,1.09387,227,107.933,224,-66.5809,0\H,186,2.5504,185,101.843,184,-98.0206,0\C,233,1.09283,186,101.193,185,-103.02,0\H,234,1.09282,233,109.402,186,-27.6911,0\H,234,1.09339,233,110.49,186,97.4256,0\S,234,1.80655,233,108.888,186,-142.464,0\O,237,1.49722,234,111.353,233,-80.3929,0\C,237,1.80732,234,93.1902,233,176.384,0\H,239,1.09198,237,110.041,234,-67.4549,0\H,239,1.09284,237,107.27,234,166.158,0\H,239,1.09314,237,99.684,234,49.893,0\H,238,2.36468,237,103.231,234,27.9505,0\C,243,1.09297,238,162.344,237,-73.5497,0\H,244,1.09244,243,111.667,238,-138.188,0\H,244,1.09288,243,111.277,238,94.9579,0\S,244,1.80684,243,108.789,238,-19.7358,0\O,247,1.49683,244,100.933,243,-150.661,0\C,247,1.8075,244,96.091,243,-49.147,0\H,249,1.09273,247,109.223,244,64.4683,0\H,249,1.09292,247,108.684,244,-63.7459,0\H,249,1.09298,247,109.507,244,178.821,0\H,245,2.33372,244,140.468,243,-179.029,0\C,253,1.0928,245,153.377,244,14.942,0\H,254,1.09231,253,116.315,245,-168.309,0\H,254,1.0937,253,110.032,245,-49.4991,0\S,254,1.80673,253,106.055,245,71.6391,0\O,257,1.4964,254,104.082,253,-170.816,0\C,257,1.80668,254,96.7915,253,-66.9637,0\H,259,1.09241,257,112.699,254,-159.769,0\H,259,1.09312,257,106.725,254,80.1633,0\H,259,1.09377,257,107.795,254,-39.0713,0\\\@

 Total job time:  35.84s(wall), 129.56s(cpu) 
 Fri Dec  3 14:30:26 2021

        *************************************************************
        *                                                           *
        *  Thank you very much for using Q-Chem.  Have a nice day.  *
        *                                                           *
        *************************************************************


