                  Welcome to Q-Chem
     A Quantum Leap Into The Future Of Chemistry


 Q-Chem 5.2 (devel), Q-Chem, Inc., Pleasanton, CA (2019)

 Yihan Shao,  Zhengting Gan,  E. Epifanovsky,  A. T. B. Gilbert,  M. Wormit,  
 J. Kussmann,  A. W. Lange,  A. Behn,  Jia Deng,  Xintian Feng,  D. Ghosh,  
 M. Goldey,  P. R. Horn,  L. D. Jacobson,  I. Kaliman,  T. Kus,  A. Landau,  
 Jie Liu,  E. I. Proynov,  R. M. Richard,  R. P. Steele,  E. J. Sundstrom,  
 H. L. Woodcock III,  P. M. Zimmerman,  D. Zuev,  B. Alam,  B. Albrecht,  
 E. Alguire,  S. A. Baeppler,  D. Barton,  Z. Benda,  Y. A. Bernard,  
 E. J. Berquist,  K. B. Bravaya,  H. Burton,  K. Carter-Fenk,  D. Casanova,  
 Chun-Min Chang,  Yunqing Chen,  A. Chien,  K. D. Closser,  M. P. Coons,  
 S. Coriani,  S. Dasgupta,  A. L. Dempwolff,  M. Diedenhofen,  Hainam Do,  
 R. G. Edgar,  Po-Tung Fang,  S. Faraji,  S. Fatehi,  Qingguo Feng,  
 J. Fosso-Tande,  J. Gayvert,  Qinghui Ge,  A. Ghysels,  G. Gidofalvi,  
 J. Gomes,  J. Gonthier,  A. Gunina,  D. Hait,  M. W. D. Hanson-Heine,  
 P. H. P. Harbach,  A. W. Hauser,  M. F. Herbst,  J. E. Herr,  
 E. G. Hohenstein,  Z. C. Holden,  Kerwin Hui,  B. C. Huynh,  T.-C. Jagau,  
 Hyunjun Ji,  B. Kaduk,  K. Khistyaev,  Jaehoon Kim,  P. Klunzinger,  K. Koh,  
 D. Kosenkov,  L. Koulias,  T. Kowalczyk,  C. M. Krauter,  A. Kunitsa,  
 Ka Un Lao,  A. Laurent,  K. V. Lawler,  Joonho Lee,  D. Lefrancois,  
 S. Lehtola,  D. S. Levine,  Yi-Pei Li,  You-Sheng Lin,  Fenglai Liu,  
 Kuan-Yu Liu,  E. Livshits,  M. Loipersberger,  A. Luenser,  P. Manohar,  
 E. Mansoor,  S. F. Manzer,  Shan-Ping Mao,  Yuezhi Mao,  N. Mardirossian,  
 A. V. Marenich,  T. Markovich,  L. A. Martinez-Martinez,  S. A. Maurer,  
 N. J. Mayhall,  S. C. McKenzie,  J.-M. Mewes,  P. Morgante,  A. F. Morrison,  
 J. W. Mullinax,  K. Nanda,  T. S. Nguyen-Beck,  R. Olivares-Amaya,  
 J. A. Parkhill,  S. K. Paul,  F. Pavosevic,  Zheng Pei,  T. M. Perrine,  
 F. Plasser,  P. Pokhilko,  S. Prager,  A. Prociuk,  E. Ramos,  B. Rana,  
 D. R. Rehn,  F. Rob,  M. Scheurer,  M. Schneider,  N. Sergueev,  
 S. M. Sharada,  S. Sharma,  D. W. Small,  T. Stauch,  C. J. Stein,  
 T. Stein,  Yu-Chuan Su,  S. P. Veccham,  Zhen Tao,  A. J. W. Thom,  
 A. Tkatchenko,  T. Tsuchimochi,  N. M. Tubman,  L. Vogt,  M. L. Vidal,  
 O. Vydrov,  M. A. Watson,  J. Wenzel,  M. de Wergifosse,  T. A. Wesolowski,  
 A. White,  J. Witte,  A. Yamada,  Jun Yang,  K. Yao,  S. Yeganeh,  
 S. R. Yost,  Zhi-Qiang You,  A. Zech,  Igor Ying Zhang,  Xing Zhang,  
 Yan Zhao,  Ying Zhu,  B. R. Brooks,  G. K. L. Chan,  C. J. Cramer,  
 M. S. Gordon,  W. J. Hehre,  A. Klamt,  M. W. Schmidt,  C. D. Sherrill,  
 D. G. Truhlar,  A. Aspuru-Guzik,  R. Baer,  A. T. Bell,  N. A. Besley,  
 Jeng-Da Chai,  A. E. DePrince, III,  R. A. DiStasio Jr.,  A. Dreuw,  
 B. D. Dunietz,  T. R. Furlani,  Chao-Ping Hsu,  Yousung Jung,  Jing Kong,  
 D. S. Lambrecht,  WanZhen Liang,  C. Ochsenfeld,  V. A. Rassolov,  
 L. V. Slipchenko,  J. E. Subotnik,  T. Van Voorhis,  J. M. Herbert,  
 A. I. Krylov,  P. M. W. Gill,  M. Head-Gordon

 Contributors to earlier versions of Q-Chem not listed above: 
 R. D. Adamson,  B. Austin,  J. Baker,  G. J. O. Beran,  K. Brandhorst,  
 S. T. Brown,  E. F. C. Byrd,  A. K. Chakraborty,  C.-L. Cheng,  
 Siu Hung Chien,  D. M. Chipman,  D. L. Crittenden,  H. Dachsel,  
 R. J. Doerksen,  A. D. Dutoi,  L. Fusti-Molnar,  W. A. Goddard III,  
 A. Golubeva-Zadorozhnaya,  S. R. Gwaltney,  G. Hawkins,  A. Heyden,  
 S. Hirata,  G. Kedziora,  F. J. Keil,  C. Kelley,  Jihan Kim,  R. A. King,  
 R. Z. Khaliullin,  P. P. Korambath,  W. Kurlancheek,  A. M. Lee,  M. S. Lee,  
 S. V. Levchenko,  Ching Yeh Lin,  D. Liotard,  R. C. Lochan,  I. Lotan,  
 P. E. Maslen,  N. Nair,  D. P. O'Neill,  D. Neuhauser,  E. Neuscamman,  
 C. M. Oana,  R. Olson,  B. Peters,  R. Peverati,  P. A. Pieniazek,  
 Y. M. Rhee,  J. Ritchie,  M. A. Rohrdanz,  E. Rosta,  N. J. Russ,  
 H. F. Schaefer III,  N. E. Schultz,  N. Shenvi,  A. C. Simmonett,  A. Sodt,  
 D. Stuck,  K. S. Thanthiriwatte,  V. Vanovschi,  Tao Wang,  A. Warshel,  
 C. F. Williams,  Q. Wu,  X. Xu,  W. Zhang

 Please cite Q-Chem as follows:
 Y. Shao et al., Mol. Phys. 113, 184-215 (2015)
 DOI: 10.1080/00268976.2014.952696

 Q-Chem 5.2.2 for Intel X86 EM64T Linux

 Parts of Q-Chem use Armadillo 9.800.1 (Horizon Scraper).
 http://arma.sourceforge.net/

 Q-Chem begins on Fri Dec  3 02:37:43 2021  

Host: node002
0

     Scratch files written to /home/ymao90/scratch/r7.00_frame_0042_spade_B3LYP_dp20211203023716//

Checking the input file for inconsistencies... 	...done.

--------------------------------------------------------------
User input:
--------------------------------------------------------------
$molecule
0 1
--
0 1
C    23.43300   15.98100   26.14200  
C    22.08600   16.59300   26.56300  
C    22.20700   17.88600   27.38500  
C    23.15900   18.87000   26.68500  
C    24.50600   18.18000   26.41400  
C    24.32100   17.01400   25.42900  
H    21.22000   18.36400   27.38200  
H    21.55300   16.90800   25.65800  
H    23.93000   15.55700   27.02400  
H    23.27100   15.09600   25.51400  
H    22.70100   19.28300   25.77700  
H    23.34500   19.76900   27.28500  
H    25.17100   18.91200   25.93900  
H    24.79500   17.83100   27.41200  
H    23.83400   17.22600   24.47000  
H    25.29200   16.53600   25.25200  
H    22.49800   17.76500   28.43600  
N    21.22000   15.63600   27.25000  
H    21.64300   15.21300   28.06700  
C    20.14500   14.93100   26.75100  
H    19.88400   14.09700   27.42700  
O    19.60600   15.29100   25.71900  
--
0 1
C    18.83500   16.61900   21.86100  
H    18.74100   17.31700   22.69800  
H    18.67600   17.09100   20.88800  
H    18.18300   15.74500   21.94400  
S    20.47300   15.86500   21.96500  
C    21.16800   17.47800   21.54000  
H    20.73400   17.78200   20.58400  
H    20.92900   18.17000   22.35200  
H    22.20600   17.23600   21.29800  
O    20.38100   14.95300   20.78200  
C    24.50800   21.68100   32.48600  
H    24.55200   22.62400   33.03600  
H    24.53200   20.92700   33.27700  
H    25.36200   21.70100   31.80400  
S    23.02500   21.41200   31.48900  
C    23.69500   19.85500   30.86400  
H    22.90700   19.57000   30.16300  
H    24.64800   19.96900   30.34100  
H    23.80700   19.12700   31.67200  
O    23.21800   22.35800   30.34400  
C    27.96300   13.22000   24.13600  
H    26.92600   13.55600   24.05500  
H    27.99700   12.23700   24.61300  
H    28.65500   13.83300   24.71800  
S    28.66300   12.92600   22.49700  
C    29.97200   11.73400   22.85900  
H    29.54600   10.80000   23.23200  
H    30.49000   11.58200   21.90900  
H    30.66100   12.16500   23.59100  
O    29.50900   14.13200   22.22900  
C    19.62000   25.32200   22.26200  
H    19.25900   25.40700   23.29000  
H    19.52200   26.32000   21.82700  
H    19.15200   24.49400   21.72400  
S    21.37800   24.92000   22.37300  
C    21.11900   23.57300   23.55000  
H    20.46100   23.72800   24.40900  
H    20.74700   22.77100   22.90700  
H    22.15200   23.32000   23.80200  
O    22.07900   25.96900   23.17800  
C    13.38300   9.66900    27.69100  
H    14.09800   8.85400    27.55000  
H    12.44500   9.43700    28.20300  
H    13.18300   10.05500   26.68800  
S    14.15800   10.97800   28.66500  
C    15.09200   9.88400    29.75900  
H    15.66800   10.58700   30.36600  
H    14.43600   9.31900    30.42600  
H    15.83500   9.27300    29.24000  
O    13.13900   11.70000   29.49100  
C    26.25300   15.64100   34.79900  
H    25.47300   14.98700   35.19700  
H    26.81200   15.24600   33.94700  
H    26.98900   15.93900   35.54900  
S    25.27900   17.10800   34.39400  
C    26.56200   17.96500   33.45400  
H    27.29800   18.23200   34.21800  
H    26.98600   17.32500   32.67600  
H    26.25500   18.95100   33.09600  
O    25.11200   17.86800   35.67300  
C    15.44400   14.29400   22.87600  
H    14.40200   14.26500   22.54800  
H    15.99800   14.99300   22.24400  
H    15.94100   13.34300   22.67000  
S    15.16900   14.77900   24.59500  
C    16.64000   13.89800   25.16500  
H    17.56100   14.09800   24.61100  
H    16.74200   14.15700   26.22200  
H    16.44400   12.82300   25.17300  
O    14.15500   13.85000   25.18500  
C    22.58400   7.88400    29.91000  
H    22.82000   6.87000    30.24300  
H    21.51900   8.11300    29.99200  
H    22.81600   7.94400    28.84300  
S    23.52400   9.10100    30.85800  
C    23.11100   8.53800    32.52500  
H    23.46500   9.34800    33.16900  
H    22.04200   8.53400    32.75200  
H    23.60200   7.58500    32.73900  
O    22.75100   10.36100   30.62700  
C    19.74000   12.53300   23.55900  
H    19.67700   13.30200   22.78500  
H    18.81200   11.97500   23.70700  
H    19.86600   12.87000   24.59100  
S    21.00300   11.29400   23.19200  
C    20.71400   11.19900   21.41100  
H    20.87600   12.09900   20.81200  
H    21.34500   10.44900   20.92800  
H    19.70100   10.88600   21.14300  
O    20.56900   10.05800   23.91600  
C    28.16200   13.87200   27.80500  
H    27.13000   13.64300   27.52500  
H    28.82900   14.16400   26.99000  
H    28.63300   12.96700   28.19500  
S    28.23700   15.05900   29.16500  
C    27.28400   16.48500   28.59600  
H    27.80500   17.06200   27.82700  
H    26.30500   16.04300   28.39300  
H    27.14700   17.20100   29.41000  
O    29.70600   15.34700   29.18100  
C    23.97400   20.88400   21.79500  
H    23.98000   21.66700   21.03300  
H    23.47700   20.00500   21.37600  
H    23.36500   21.12000   22.67200  
S    25.61100   20.36400   22.35800  
C    26.20900   20.00900   20.69000  
H    27.15700   19.48200   20.82600  
H    25.44900   19.38300   20.21500  
H    26.52900   20.95500   20.24500  
O    25.27700   18.99400   22.86000  
C    15.21900   14.41000   28.98200  
H    15.29200   15.44200   29.33500  
H    15.39400   14.15700   27.93300  
H    14.21800   14.08500   29.27600  
S    16.39000   13.37100   29.88500  
C    16.17700   13.98100   31.57300  
H    15.97600   15.05500   31.60200  
H    15.53600   13.28000   32.11200  
H    17.18100   13.85400   31.98600  
O    17.66400   14.06300   29.51100  
C    17.73700   17.60200   26.33200  
H    18.46600   17.36800   27.11300  
H    17.92200   16.97400   25.45700  
H    17.73500   18.68200   26.16600  
S    16.28500   17.14800   27.30700  
C    15.24000   18.16100   26.23600  
H    15.46300   17.94200   25.18900  
H    14.18000   18.00600   26.45400  
H    15.44400   19.21700   26.43000  
O    16.42600   18.02400   28.51300  
C    18.69600   17.95100   30.66500  
H    18.58500   18.12800   31.73700  
H    18.66900   18.86900   30.07200  
H    17.91400   17.25600   30.35000  
S    20.30000   17.14700   30.45300  
C    19.95900   15.79500   31.60200  
H    19.06700   15.26400   31.25900  
H    20.77700   15.07000   31.57600  
H    19.86900   16.17400   32.62300  
O    21.09000   18.19700   31.17000  
C    23.31300   13.65200   31.94300  
H    22.36600   14.11000   32.24300  
H    23.17700   12.58200   31.76900  
H    23.96200   13.62600   32.82200  
S    23.88300   14.46300   30.43200  
C    24.04900   16.17500   30.98600  
H    23.17200   16.52000   31.53900  
H    25.00900   16.06400   31.49600  
H    24.22900   16.79600   30.10500  
O    22.67400   14.37600   29.55400  
C    26.39500   21.88500   28.42200  
H    25.69500   21.20100   27.93600  
H    26.00500   22.52600   29.21700  
H    26.94500   22.52400   27.72800  
S    27.64600   20.73700   29.04200  
C    28.16800   20.13300   27.42100  
H    28.65700   19.18200   27.64700  
H    27.29200   19.99800   26.78000  
H    28.93800   20.78900   27.00700  
O    26.82400   19.58000   29.51700  
C    28.12100   17.75500   24.48600  
H    27.12900   17.74600   24.02700  
H    28.84800   17.06100   24.05500  
H    28.10000   17.41200   25.52400  
S    28.91500   19.37200   24.35000  
C    29.32800   19.03000   22.62400  
H    28.42900   18.71300   22.08900  
H    29.76300   19.92700   22.17500  
H    29.98600   18.15900   22.68100  
O    30.24500   19.31800   25.03500  
C    20.16500   12.20500   31.06100  
H    20.75800   13.10000   30.85800  
H    20.57000   11.42000   30.41700  
H    19.13800   12.34100   30.71200  
S    20.34800   11.53600   32.73000  
C    18.82900   10.57700   32.53400  
H    18.81000   9.90400    31.67300  
H    18.69900   9.90600    33.38800  
H    18.00700   11.28700   32.65000  
O    19.92900   12.68900   33.58900  
C    26.89900   16.03300   21.20400  
H    27.76700   16.12400   20.54500  
H    26.32400   16.96200   21.22900  
H    27.11800   15.71800   22.22700  
S    25.67800   14.82100   20.65100  
C    24.54500   15.28500   21.98000  
H    24.33700   16.35500   21.89100  
H    23.61900   14.72900   21.80900  
H    25.01200   14.94200   22.90600  
O    26.07400   13.43100   21.04300  
C    24.41300   25.87100   25.82100  
H    24.31400   26.67500   26.55600  
H    24.85300   26.10000   24.84700  
H    23.43400   25.44700   25.58400  
S    25.20600   24.38200   26.46800  
C    26.68200   25.29500   26.97000  
H    27.01600   25.74600   26.03200  
H    26.56200   26.11100   27.68800  
H    27.45100   24.60000   27.31600  
O    25.66300   23.58800   25.28500  
C    20.03300   8.86500    27.67700  
H    20.40400   8.91400    26.65000  
H    20.68500   9.32900    28.42100  
H    19.83600   7.81500    27.90600  
S    18.48800   9.79500    27.79300  
C    19.26000   11.39600   27.46600  
H    20.12000   11.57900   28.11500  
H    19.48600   11.44300   26.39700  
H    18.62500   12.21400   27.81300  
O    18.29400   10.04900   29.25500  
C    20.64500   21.30800   28.84200  
H    19.81500   20.64300   29.09400  
H    21.56700   20.72100   28.86700  
H    20.81700   22.14000   29.52900  
S    20.44900   21.79900   27.11400  
C    21.93100   22.83300   27.13100  
H    22.79400   22.18100   27.28600  
H    21.90600   23.33700   26.16200  
H    21.99600   23.60100   27.90700  
O    19.45900   22.92100   27.13400  
C    16.21600   23.78100   27.63100  
H    16.40000   24.36800   28.53400  
H    17.15200   23.40000   27.21500  
H    15.61400   24.34900   26.91600  
S    15.26100   22.34400   28.16800  
C    16.57900   21.19500   28.62400  
H    15.99800   20.35200   29.00700  
H    17.10400   20.94700   27.69800  
H    17.21500   21.58300   29.42400  
O    14.69200   21.75800   26.91300  
C    23.07700   11.81800   27.28900  
H    22.65800   10.98400   27.85800  
H    23.03300   12.74300   27.87000  
H    22.32100   12.01900   26.52600  
S    24.72100   11.53500   26.59300  
C    25.44300   11.25200   28.22500  
H    25.16100   12.11300   28.83600  
H    25.06900   10.36200   28.73900  
H    26.52100   11.13800   28.08700  
O    25.19600   12.85800   26.08000  
C    23.58500   17.83600   16.88500  
H    24.17100   18.75000   16.75300  
H    24.21300   16.99000   16.59700  
H    22.67200   17.92500   16.29000  
S    23.19200   17.86800   18.64900  
C    22.77800   16.11200   18.53600  
H    23.66000   15.51700   18.28600  
H    22.33100   15.80900   19.48600  
H    22.09100   15.90800   17.71100  
O    21.91100   18.64200   18.67800  
C    28.48800   24.30100   23.46600  
H    29.29100   24.94700   23.83100  
H    27.92200   24.79100   22.66900  
H    27.71700   24.10900   24.21600  
S    29.17500   22.70900   22.95900  
C    30.67000   23.46500   22.28100  
H    31.05700   22.70400   21.59800  
H    30.45900   24.33400   21.65300  
H    31.41900   23.69400   23.04400  
O    28.43600   22.34800   21.70800  
C    24.52900   10.14700   21.93600  
H    24.68300   11.10300   21.42900  
H    24.43800   9.33900    21.20600  
H    23.66800   10.11100   22.60900  
S    25.99200   9.67000    22.88200  
C    27.27400   9.69200    21.60800  
H    27.31800   10.62800   21.04600  
H    28.24100   9.57100    22.10400  
H    27.00300   8.86400    20.94800  
O    25.94100   8.22100    23.25300  
$end

$rem
JOBTYPE  SP
METHOD  B3LYP
BASIS  6-31+G(D)
SYMMETRY  FALSE
SYM_IGNORE  TRUE
MEM_TOTAL  16000
MEM_STATIC  8000
MAX_SUB_FILE_NUM  16000
BASIS_LIN_DEP_THRESH  6
THRESH  14
SCF_CONVERGENCE  8
GEN_SCFMAN  TRUE
SCF_GUESS  SAD
FD_MAT_VEC_PROD  FALSE
XC_GRID  000075000302
NL_GRID  1
MAX_SCF_CYCLES  200
ENV_METHOD  B3LYP
GEN_SCFMAN_EMBED  TRUE
SPADE_PARTITION  TRUE
$end

$development
embedding_early_stop  1
$end

--------------------------------------------------------------
 ----------------------------------------------------------------
             Standard Nuclear Orientation (Angstroms)
    I     Atom           X                Y                Z
 ----------------------------------------------------------------
    1      C      23.4330000000    15.9810000000    26.1420000000
    2      C      22.0860000000    16.5930000000    26.5630000000
    3      C      22.2070000000    17.8860000000    27.3850000000
    4      C      23.1590000000    18.8700000000    26.6850000000
    5      C      24.5060000000    18.1800000000    26.4140000000
    6      C      24.3210000000    17.0140000000    25.4290000000
    7      H      21.2200000000    18.3640000000    27.3820000000
    8      H      21.5530000000    16.9080000000    25.6580000000
    9      H      23.9300000000    15.5570000000    27.0240000000
   10      H      23.2710000000    15.0960000000    25.5140000000
   11      H      22.7010000000    19.2830000000    25.7770000000
   12      H      23.3450000000    19.7690000000    27.2850000000
   13      H      25.1710000000    18.9120000000    25.9390000000
   14      H      24.7950000000    17.8310000000    27.4120000000
   15      H      23.8340000000    17.2260000000    24.4700000000
   16      H      25.2920000000    16.5360000000    25.2520000000
   17      H      22.4980000000    17.7650000000    28.4360000000
   18      N      21.2200000000    15.6360000000    27.2500000000
   19      H      21.6430000000    15.2130000000    28.0670000000
   20      C      20.1450000000    14.9310000000    26.7510000000
   21      H      19.8840000000    14.0970000000    27.4270000000
   22      O      19.6060000000    15.2910000000    25.7190000000
   23      C      18.8350000000    16.6190000000    21.8610000000
   24      H      18.7410000000    17.3170000000    22.6980000000
   25      H      18.6760000000    17.0910000000    20.8880000000
   26      H      18.1830000000    15.7450000000    21.9440000000
   27      S      20.4730000000    15.8650000000    21.9650000000
   28      C      21.1680000000    17.4780000000    21.5400000000
   29      H      20.7340000000    17.7820000000    20.5840000000
   30      H      20.9290000000    18.1700000000    22.3520000000
   31      H      22.2060000000    17.2360000000    21.2980000000
   32      O      20.3810000000    14.9530000000    20.7820000000
   33      C      24.5080000000    21.6810000000    32.4860000000
   34      H      24.5520000000    22.6240000000    33.0360000000
   35      H      24.5320000000    20.9270000000    33.2770000000
   36      H      25.3620000000    21.7010000000    31.8040000000
   37      S      23.0250000000    21.4120000000    31.4890000000
   38      C      23.6950000000    19.8550000000    30.8640000000
   39      H      22.9070000000    19.5700000000    30.1630000000
   40      H      24.6480000000    19.9690000000    30.3410000000
   41      H      23.8070000000    19.1270000000    31.6720000000
   42      O      23.2180000000    22.3580000000    30.3440000000
   43      C      27.9630000000    13.2200000000    24.1360000000
   44      H      26.9260000000    13.5560000000    24.0550000000
   45      H      27.9970000000    12.2370000000    24.6130000000
   46      H      28.6550000000    13.8330000000    24.7180000000
   47      S      28.6630000000    12.9260000000    22.4970000000
   48      C      29.9720000000    11.7340000000    22.8590000000
   49      H      29.5460000000    10.8000000000    23.2320000000
   50      H      30.4900000000    11.5820000000    21.9090000000
   51      H      30.6610000000    12.1650000000    23.5910000000
   52      O      29.5090000000    14.1320000000    22.2290000000
   53      C      19.6200000000    25.3220000000    22.2620000000
   54      H      19.2590000000    25.4070000000    23.2900000000
   55      H      19.5220000000    26.3200000000    21.8270000000
   56      H      19.1520000000    24.4940000000    21.7240000000
   57      S      21.3780000000    24.9200000000    22.3730000000
   58      C      21.1190000000    23.5730000000    23.5500000000
   59      H      20.4610000000    23.7280000000    24.4090000000
   60      H      20.7470000000    22.7710000000    22.9070000000
   61      H      22.1520000000    23.3200000000    23.8020000000
   62      O      22.0790000000    25.9690000000    23.1780000000
   63      C      13.3830000000     9.6690000000    27.6910000000
   64      H      14.0980000000     8.8540000000    27.5500000000
   65      H      12.4450000000     9.4370000000    28.2030000000
   66      H      13.1830000000    10.0550000000    26.6880000000
   67      S      14.1580000000    10.9780000000    28.6650000000
   68      C      15.0920000000     9.8840000000    29.7590000000
   69      H      15.6680000000    10.5870000000    30.3660000000
   70      H      14.4360000000     9.3190000000    30.4260000000
   71      H      15.8350000000     9.2730000000    29.2400000000
   72      O      13.1390000000    11.7000000000    29.4910000000
   73      C      26.2530000000    15.6410000000    34.7990000000
   74      H      25.4730000000    14.9870000000    35.1970000000
   75      H      26.8120000000    15.2460000000    33.9470000000
   76      H      26.9890000000    15.9390000000    35.5490000000
   77      S      25.2790000000    17.1080000000    34.3940000000
   78      C      26.5620000000    17.9650000000    33.4540000000
   79      H      27.2980000000    18.2320000000    34.2180000000
   80      H      26.9860000000    17.3250000000    32.6760000000
   81      H      26.2550000000    18.9510000000    33.0960000000
   82      O      25.1120000000    17.8680000000    35.6730000000
   83      C      15.4440000000    14.2940000000    22.8760000000
   84      H      14.4020000000    14.2650000000    22.5480000000
   85      H      15.9980000000    14.9930000000    22.2440000000
   86      H      15.9410000000    13.3430000000    22.6700000000
   87      S      15.1690000000    14.7790000000    24.5950000000
   88      C      16.6400000000    13.8980000000    25.1650000000
   89      H      17.5610000000    14.0980000000    24.6110000000
   90      H      16.7420000000    14.1570000000    26.2220000000
   91      H      16.4440000000    12.8230000000    25.1730000000
   92      O      14.1550000000    13.8500000000    25.1850000000
   93      C      22.5840000000     7.8840000000    29.9100000000
   94      H      22.8200000000     6.8700000000    30.2430000000
   95      H      21.5190000000     8.1130000000    29.9920000000
   96      H      22.8160000000     7.9440000000    28.8430000000
   97      S      23.5240000000     9.1010000000    30.8580000000
   98      C      23.1110000000     8.5380000000    32.5250000000
   99      H      23.4650000000     9.3480000000    33.1690000000
  100      H      22.0420000000     8.5340000000    32.7520000000
  101      H      23.6020000000     7.5850000000    32.7390000000
  102      O      22.7510000000    10.3610000000    30.6270000000
  103      C      19.7400000000    12.5330000000    23.5590000000
  104      H      19.6770000000    13.3020000000    22.7850000000
  105      H      18.8120000000    11.9750000000    23.7070000000
  106      H      19.8660000000    12.8700000000    24.5910000000
  107      S      21.0030000000    11.2940000000    23.1920000000
  108      C      20.7140000000    11.1990000000    21.4110000000
  109      H      20.8760000000    12.0990000000    20.8120000000
  110      H      21.3450000000    10.4490000000    20.9280000000
  111      H      19.7010000000    10.8860000000    21.1430000000
  112      O      20.5690000000    10.0580000000    23.9160000000
  113      C      28.1620000000    13.8720000000    27.8050000000
  114      H      27.1300000000    13.6430000000    27.5250000000
  115      H      28.8290000000    14.1640000000    26.9900000000
  116      H      28.6330000000    12.9670000000    28.1950000000
  117      S      28.2370000000    15.0590000000    29.1650000000
  118      C      27.2840000000    16.4850000000    28.5960000000
  119      H      27.8050000000    17.0620000000    27.8270000000
  120      H      26.3050000000    16.0430000000    28.3930000000
  121      H      27.1470000000    17.2010000000    29.4100000000
  122      O      29.7060000000    15.3470000000    29.1810000000
  123      C      23.9740000000    20.8840000000    21.7950000000
  124      H      23.9800000000    21.6670000000    21.0330000000
  125      H      23.4770000000    20.0050000000    21.3760000000
  126      H      23.3650000000    21.1200000000    22.6720000000
  127      S      25.6110000000    20.3640000000    22.3580000000
  128      C      26.2090000000    20.0090000000    20.6900000000
  129      H      27.1570000000    19.4820000000    20.8260000000
  130      H      25.4490000000    19.3830000000    20.2150000000
  131      H      26.5290000000    20.9550000000    20.2450000000
  132      O      25.2770000000    18.9940000000    22.8600000000
  133      C      15.2190000000    14.4100000000    28.9820000000
  134      H      15.2920000000    15.4420000000    29.3350000000
  135      H      15.3940000000    14.1570000000    27.9330000000
  136      H      14.2180000000    14.0850000000    29.2760000000
  137      S      16.3900000000    13.3710000000    29.8850000000
  138      C      16.1770000000    13.9810000000    31.5730000000
  139      H      15.9760000000    15.0550000000    31.6020000000
  140      H      15.5360000000    13.2800000000    32.1120000000
  141      H      17.1810000000    13.8540000000    31.9860000000
  142      O      17.6640000000    14.0630000000    29.5110000000
  143      C      17.7370000000    17.6020000000    26.3320000000
  144      H      18.4660000000    17.3680000000    27.1130000000
  145      H      17.9220000000    16.9740000000    25.4570000000
  146      H      17.7350000000    18.6820000000    26.1660000000
  147      S      16.2850000000    17.1480000000    27.3070000000
  148      C      15.2400000000    18.1610000000    26.2360000000
  149      H      15.4630000000    17.9420000000    25.1890000000
  150      H      14.1800000000    18.0060000000    26.4540000000
  151      H      15.4440000000    19.2170000000    26.4300000000
  152      O      16.4260000000    18.0240000000    28.5130000000
  153      C      18.6960000000    17.9510000000    30.6650000000
  154      H      18.5850000000    18.1280000000    31.7370000000
  155      H      18.6690000000    18.8690000000    30.0720000000
  156      H      17.9140000000    17.2560000000    30.3500000000
  157      S      20.3000000000    17.1470000000    30.4530000000
  158      C      19.9590000000    15.7950000000    31.6020000000
  159      H      19.0670000000    15.2640000000    31.2590000000
  160      H      20.7770000000    15.0700000000    31.5760000000
  161      H      19.8690000000    16.1740000000    32.6230000000
  162      O      21.0900000000    18.1970000000    31.1700000000
  163      C      23.3130000000    13.6520000000    31.9430000000
  164      H      22.3660000000    14.1100000000    32.2430000000
  165      H      23.1770000000    12.5820000000    31.7690000000
  166      H      23.9620000000    13.6260000000    32.8220000000
  167      S      23.8830000000    14.4630000000    30.4320000000
  168      C      24.0490000000    16.1750000000    30.9860000000
  169      H      23.1720000000    16.5200000000    31.5390000000
  170      H      25.0090000000    16.0640000000    31.4960000000
  171      H      24.2290000000    16.7960000000    30.1050000000
  172      O      22.6740000000    14.3760000000    29.5540000000
  173      C      26.3950000000    21.8850000000    28.4220000000
  174      H      25.6950000000    21.2010000000    27.9360000000
  175      H      26.0050000000    22.5260000000    29.2170000000
  176      H      26.9450000000    22.5240000000    27.7280000000
  177      S      27.6460000000    20.7370000000    29.0420000000
  178      C      28.1680000000    20.1330000000    27.4210000000
  179      H      28.6570000000    19.1820000000    27.6470000000
  180      H      27.2920000000    19.9980000000    26.7800000000
  181      H      28.9380000000    20.7890000000    27.0070000000
  182      O      26.8240000000    19.5800000000    29.5170000000
  183      C      28.1210000000    17.7550000000    24.4860000000
  184      H      27.1290000000    17.7460000000    24.0270000000
  185      H      28.8480000000    17.0610000000    24.0550000000
  186      H      28.1000000000    17.4120000000    25.5240000000
  187      S      28.9150000000    19.3720000000    24.3500000000
  188      C      29.3280000000    19.0300000000    22.6240000000
  189      H      28.4290000000    18.7130000000    22.0890000000
  190      H      29.7630000000    19.9270000000    22.1750000000
  191      H      29.9860000000    18.1590000000    22.6810000000
  192      O      30.2450000000    19.3180000000    25.0350000000
  193      C      20.1650000000    12.2050000000    31.0610000000
  194      H      20.7580000000    13.1000000000    30.8580000000
  195      H      20.5700000000    11.4200000000    30.4170000000
  196      H      19.1380000000    12.3410000000    30.7120000000
  197      S      20.3480000000    11.5360000000    32.7300000000
  198      C      18.8290000000    10.5770000000    32.5340000000
  199      H      18.8100000000     9.9040000000    31.6730000000
  200      H      18.6990000000     9.9060000000    33.3880000000
  201      H      18.0070000000    11.2870000000    32.6500000000
  202      O      19.9290000000    12.6890000000    33.5890000000
  203      C      26.8990000000    16.0330000000    21.2040000000
  204      H      27.7670000000    16.1240000000    20.5450000000
  205      H      26.3240000000    16.9620000000    21.2290000000
  206      H      27.1180000000    15.7180000000    22.2270000000
  207      S      25.6780000000    14.8210000000    20.6510000000
  208      C      24.5450000000    15.2850000000    21.9800000000
  209      H      24.3370000000    16.3550000000    21.8910000000
  210      H      23.6190000000    14.7290000000    21.8090000000
  211      H      25.0120000000    14.9420000000    22.9060000000
  212      O      26.0740000000    13.4310000000    21.0430000000
  213      C      24.4130000000    25.8710000000    25.8210000000
  214      H      24.3140000000    26.6750000000    26.5560000000
  215      H      24.8530000000    26.1000000000    24.8470000000
  216      H      23.4340000000    25.4470000000    25.5840000000
  217      S      25.2060000000    24.3820000000    26.4680000000
  218      C      26.6820000000    25.2950000000    26.9700000000
  219      H      27.0160000000    25.7460000000    26.0320000000
  220      H      26.5620000000    26.1110000000    27.6880000000
  221      H      27.4510000000    24.6000000000    27.3160000000
  222      O      25.6630000000    23.5880000000    25.2850000000
  223      C      20.0330000000     8.8650000000    27.6770000000
  224      H      20.4040000000     8.9140000000    26.6500000000
  225      H      20.6850000000     9.3290000000    28.4210000000
  226      H      19.8360000000     7.8150000000    27.9060000000
  227      S      18.4880000000     9.7950000000    27.7930000000
  228      C      19.2600000000    11.3960000000    27.4660000000
  229      H      20.1200000000    11.5790000000    28.1150000000
  230      H      19.4860000000    11.4430000000    26.3970000000
  231      H      18.6250000000    12.2140000000    27.8130000000
  232      O      18.2940000000    10.0490000000    29.2550000000
  233      C      20.6450000000    21.3080000000    28.8420000000
  234      H      19.8150000000    20.6430000000    29.0940000000
  235      H      21.5670000000    20.7210000000    28.8670000000
  236      H      20.8170000000    22.1400000000    29.5290000000
  237      S      20.4490000000    21.7990000000    27.1140000000
  238      C      21.9310000000    22.8330000000    27.1310000000
  239      H      22.7940000000    22.1810000000    27.2860000000
  240      H      21.9060000000    23.3370000000    26.1620000000
  241      H      21.9960000000    23.6010000000    27.9070000000
  242      O      19.4590000000    22.9210000000    27.1340000000
  243      C      16.2160000000    23.7810000000    27.6310000000
  244      H      16.4000000000    24.3680000000    28.5340000000
  245      H      17.1520000000    23.4000000000    27.2150000000
  246      H      15.6140000000    24.3490000000    26.9160000000
  247      S      15.2610000000    22.3440000000    28.1680000000
  248      C      16.5790000000    21.1950000000    28.6240000000
  249      H      15.9980000000    20.3520000000    29.0070000000
  250      H      17.1040000000    20.9470000000    27.6980000000
  251      H      17.2150000000    21.5830000000    29.4240000000
  252      O      14.6920000000    21.7580000000    26.9130000000
  253      C      23.0770000000    11.8180000000    27.2890000000
  254      H      22.6580000000    10.9840000000    27.8580000000
  255      H      23.0330000000    12.7430000000    27.8700000000
  256      H      22.3210000000    12.0190000000    26.5260000000
  257      S      24.7210000000    11.5350000000    26.5930000000
  258      C      25.4430000000    11.2520000000    28.2250000000
  259      H      25.1610000000    12.1130000000    28.8360000000
  260      H      25.0690000000    10.3620000000    28.7390000000
  261      H      26.5210000000    11.1380000000    28.0870000000
  262      O      25.1960000000    12.8580000000    26.0800000000
  263      C      23.5850000000    17.8360000000    16.8850000000
  264      H      24.1710000000    18.7500000000    16.7530000000
  265      H      24.2130000000    16.9900000000    16.5970000000
  266      H      22.6720000000    17.9250000000    16.2900000000
  267      S      23.1920000000    17.8680000000    18.6490000000
  268      C      22.7780000000    16.1120000000    18.5360000000
  269      H      23.6600000000    15.5170000000    18.2860000000
  270      H      22.3310000000    15.8090000000    19.4860000000
  271      H      22.0910000000    15.9080000000    17.7110000000
  272      O      21.9110000000    18.6420000000    18.6780000000
  273      C      28.4880000000    24.3010000000    23.4660000000
  274      H      29.2910000000    24.9470000000    23.8310000000
  275      H      27.9220000000    24.7910000000    22.6690000000
  276      H      27.7170000000    24.1090000000    24.2160000000
  277      S      29.1750000000    22.7090000000    22.9590000000
  278      C      30.6700000000    23.4650000000    22.2810000000
  279      H      31.0570000000    22.7040000000    21.5980000000
  280      H      30.4590000000    24.3340000000    21.6530000000
  281      H      31.4190000000    23.6940000000    23.0440000000
  282      O      28.4360000000    22.3480000000    21.7080000000
  283      C      24.5290000000    10.1470000000    21.9360000000
  284      H      24.6830000000    11.1030000000    21.4290000000
  285      H      24.4380000000     9.3390000000    21.2060000000
  286      H      23.6680000000    10.1110000000    22.6090000000
  287      S      25.9920000000     9.6700000000    22.8820000000
  288      C      27.2740000000     9.6920000000    21.6080000000
  289      H      27.3180000000    10.6280000000    21.0460000000
  290      H      28.2410000000     9.5710000000    22.1040000000
  291      H      27.0030000000     8.8640000000    20.9480000000
  292      O      25.9410000000     8.2210000000    23.2530000000
 ----------------------------------------------------------------
 Nuclear Repulsion Energy =       47253.93868939 hartrees
 There are      602 alpha and      602 beta electrons
 Requested basis set is 6-31+G(d)
 There are 962 shells and 2681 basis functions

 Total QAlloc Memory Limit  16000 MB
 Mega-Array Size      7821 MB
 MEM_STATIC part      8000 MB
 A cutoff of  1.0D-14 yielded 170623 shell pairs
 There are   1484486 function pairs
 Smallest overlap matrix eigenvalue = 6.24E-07
 Linear dependence detected in AO basis
 Tighter screening thresholds may be required for diffuse basis sets
 Use S2THRESH > 14 and THRESH = 14 in case of SCF convergence issues
 Number of orthogonalized atomic orbitals = 2679
 Maximum deviation from orthogonality = 1.085E-10

 Scale SEOQF with 1.000000e-03/1.000000e-03/1.000000e-03

 Standard Electronic Orientation quadrupole field applied
 Nucleus-field energy     =    -0.0000004504 hartrees
 Guess from superposition of atomic densities
 Warning:  Energy on first SCF cycle will be non-variational
 SAD guess density has 1204.000002 electrons

 -----------------------------------------------------------------------
  General SCF calculation program by
  Eric Jon Sundstrom, Paul Horn, Yuezhi Mao, Dmitri Zuev, Alec White,
  David Stuck, Shaama M.S., Shane Yost, Joonho Lee, David Small,
  Daniel Levine, Susi Lehtola, Hugh Burton, Evgeny Epifanovsky,
  Bang C. Huynh
 -----------------------------------------------------------------------
=================================================
        Doing projection-based embedding         
      F. Manby et al. JCTC, 8, 2564 (2012)       
=================================================

****************************************************
   Low-level SCF calculation for the whole system   
****************************************************
----------------------------------------------
 Summary of the low-level theory: 
 Exchange:     0.2000 Hartree-Fock + 0.0800 Slater + 0.7200 B88
 Correlation:  0.1900 VWN1RPA + 0.8100 LYP
 Using Euler-Maclaurin-Lebedev (75,302) quadrature formula
----------------------------------------------
 using 16 threads for integral computing
 -------------------------------------------------------
 OpenMP Integral computing Module                
 Release: version 2.0, May 2017, Q-Chem Inc. Pleasanton 
 -------------------------------------------------------
 A restricted SCF calculation will be
 performed using DIIS
 SCF converges when DIIS error is below 1.0e-08
 ---------------------------------------
  Cycle       Energy         DIIS error
 ---------------------------------------
    1  -15359.8787875795      1.35e-02  
    2  -15335.9504326164      2.50e-03  
    3  -15324.5406981545      4.67e-03  
    4  -15339.9983626382      9.51e-04  
    5  -15340.7353617517      1.87e-04  
    6  -15340.7563984196      1.02e-04  
    7  -15340.7630757665      3.95e-05  
    8  -15340.7642060956      7.04e-06  
    9  -15340.7642411900      3.15e-06  
   10  -15340.7642483303      1.18e-06  
   11  -15340.7642492704      3.94e-07  
   12  -15340.7642493765      1.16e-07  
   13  -15340.7642493858      4.36e-08  
   14  -15340.7642493871      1.90e-08  
   15  -15340.7642493873      5.27e-09  Convergence criterion met
 ---------------------------------------
 SCF time:   CPU 169560.01s  wall 10684.00s 
 SCF   energy in the final basis set =   -15340.7642493873
 Total energy in the final basis set =   -15340.7642493873

****************************************************
             Start embedding calculation            
****************************************************
----------------------------------------------
 Summary of the high-level theory: 
 Exchange:     0.2000 Hartree-Fock + 0.0800 Slater + 0.7200 B88
 Correlation:  0.1900 VWN1RPA + 0.8100 LYP
 Using Euler-Maclaurin-Lebedev (75,302) quadrature formula
----------------------------------------------
Doing R-in-R Embedding Calculation
Number of fragments: 2
Embedded fragment(s): 1 
NOcc for each fragment
           35
          567
NBasis for each fragment
          197
         2484
Variational space of the embedded problem: 
NOcc (active)  = 35
NOcc (fixed)   = 567
NVir (total)   = 2077
Read converged orbitals from disk
=========================================================
       Doing SPADE partition for the orbital space       
     D. CLaudino and N. Mayhall JCTC 15, 1053 (2019)     
=========================================================
SPADE singular values:
 1.0000 1.0000 1.0000 1.0000 1.0000 1.0000 1.0000 1.0000 1.0000 0.9999
 0.9999 0.9998 0.9997 0.9997 0.9996 0.9995 0.9994 0.9991 0.9990 0.9979
 0.9973 0.9973 0.9968 0.9963 0.9960 0.9958 0.9950 0.9946 0.9940 0.9929
 0.9925 0.9902 0.9895 0.9872 0.9819 0.2095 0.1877 0.1599 0.1517 0.1503
 0.1411 0.1269 0.1203 0.1167 0.1054 0.0991 0.0835 0.0762 0.0653 0.0613
 0.0566 0.0529 0.0481 0.0426 0.0366 0.0351 0.0336 0.0313 0.0291 0.0263
 0.0253 0.0234 0.0222 0.0211 0.0199 0.0197 0.0192 0.0178 0.0166 0.0157
 0.0154 0.0143 0.0136 0.0118 0.0116 0.0111 0.0107 0.0103 0.0096 0.0093
 0.0088 0.0081 0.0080 0.0076 0.0071 0.0067 0.0066 0.0063 0.0060 0.0059
 0.0058 0.0053 0.0051 0.0047 0.0044 0.0041 0.0039 0.0038 0.0036 0.0034
 0.0033 0.0031 0.0029 0.0028 0.0027 0.0025 0.0025 0.0023 0.0022 0.0021
 0.0019 0.0019 0.0018 0.0017 0.0017 0.0016 0.0015 0.0015 0.0014 0.0014
 0.0013 0.0013 0.0012 0.0012 0.0012 0.0011 0.0011 0.0011 0.0010 0.0010
 0.0010 0.0009 0.0009 0.0009 0.0008 0.0007 0.0007 0.0007 0.0007 0.0007
 0.0007 0.0006 0.0006 0.0006 0.0005 0.0005 0.0005 0.0005 0.0004 0.0004
 0.0004 0.0004 0.0004 0.0004 0.0003 0.0003 0.0003 0.0003 0.0003 0.0003
 0.0003 0.0003 0.0002 0.0002 0.0002 0.0002 0.0002 0.0002 0.0002 0.0002
 0.0002 0.0002 0.0002 0.0002 0.0002 0.0002 0.0001 0.0001 0.0001 0.0001
 0.0001 0.0001 0.0001 0.0001 0.0001 0.0001 0.0001 0.0001 0.0001 0.0001
 0.0001 0.0001 0.0001 0.0001 0.0001 0.0001 0.0000
Early stop requested!
567 environment occs will be part of frozen-core in future post-HF calculations
 
 --------------------------------------------------------------
 
                    Orbital Energies (a.u.)
 --------------------------------------------------------------
 
 Alpha MOs
 -- Occupied --
 -0.4563  -0.5189  -0.5092  -0.4751  -0.5014  -0.5043  -0.4788  -0.4805
 -0.4649  -0.4573  -0.4442  -0.4866  -0.4691  -0.4471  -0.4370  -0.4774
 -0.4369  -0.4863  -0.4874  -0.4526  -0.5287  -0.5095  -0.5472  -0.5722
 -0.5371  -0.6300  -0.5696  -0.6443  -0.5299  -0.5301  -0.4907  -0.5072
 -0.5216  -0.5667  -0.5998  -0.5541  -0.5851  -0.5452  -0.5098  -0.6372
 -0.5419  -0.5471  -0.5639  -0.6018  -0.5597  -0.5142  -0.5414  -0.6224
 -0.5732  -0.6090  -0.5322  -0.5836  -0.5348  -0.5944  -0.5595  -0.5511
 -0.7054  -0.6358  -0.7545  -0.7461  -0.7259  -0.7369  -0.7855  -0.9043
 -0.6730  -0.6528  -0.8499  -0.9907  -0.8826  -0.8450  -0.7545  -0.7246
 -0.6404  -0.7729  -0.8146  -0.8589  -0.9361  -1.0039  -1.0198  -0.8873
 -0.8208  -0.9093  -0.9162  -0.9782  -0.7743  -1.2762  -1.2213  -0.9348
 -1.2419  -0.9731  -1.1281  -1.0408  -0.9199  -0.9179  -0.9073  -1.2860
 -1.1483  -0.9573  -2.2581  -1.0869  -0.8835  -1.7238  -0.9163  -1.8328
 -1.7401  -1.4462  -0.9820  -1.3762  -3.4776  -1.5788  -2.1056  -1.4005
 -1.5650  -1.2473  -1.0883  -1.4463  -1.0161  -1.3937  -1.1977  -1.6951
 -1.4499  -1.1169  -1.3795  -1.6045  -1.5599  -1.2476  -1.1462  -1.6097
 -1.5257  -1.7725  -1.8342  -1.3087  -1.3483  -1.1409  -1.2706  -1.7415
 -1.2225  -2.0138  -1.7238  -2.0557  -1.3183  -1.1320  -1.6210  -1.5589
 -1.9808  -1.7128  -1.5523  -1.7362  -1.9573  -1.8286  -1.8110  -1.7110
 -1.6823  -2.1932  -1.8243  -1.7723  -2.3463  -1.2920  -2.1769  -2.3921
 -1.9022  -2.5167  -6.0082  -5.9701  -6.0298  -5.9980  -5.9774  -5.8542
 -5.9867  -5.9766  -5.9958  -5.9726  -5.9680  -5.9871  -5.9920  -5.8431
 -5.9734  -5.9979  -5.9829  -5.9996  -5.9964  -5.9801  -5.9844  -5.8611
 -5.9771  -8.2164  -5.9764  -5.9791  -5.9697  -5.9676  -1.8730 -38.9927
 -6.4344 -21.6545  -2.0959  -2.1436  -3.2632 -14.3544  -3.0787 -25.6074
 -1.6640  -4.1169  -7.8645  -3.2445  -1.5286  -1.9238 -10.2796  -4.1757
 -5.5055  -4.0978  -1.1936  -5.4184 -13.5839  -1.9493  -1.3592  -4.9791
 -1.5780  -1.8947 -76.2718 -82.0335  -1.7513  -8.9032  -1.7186 -13.5838
 -2.1202 -10.4768  -1.2204  -4.6573  -3.7724  -8.2871  -2.4809  -3.3264
 -6.6979 -10.1500  -4.4107  -7.0024  -0.9540 -10.8929  -9.8443  -6.9978
 -1.5044 -10.3982  -3.9155  -1.6218  -2.1204 -11.0162  -1.5754  -1.0497
-79.5821 -10.5194 -74.9433  -5.4557  -5.6261  -1.6745  -2.5663  -5.4472
 -1.4342  -3.5037  -4.2760  -7.0822  -4.9306  -3.2095  -6.0011 -12.4205
-11.5953  -1.8887  -2.2003  -0.8508  -1.5809  -9.5226  -6.9399  -9.2795
-10.7226  -4.9464  -1.5081  -7.2854  -1.2448 -63.2422  -1.6583 -14.3311
 -6.1468  -6.4006  -4.3013  -2.1382  -3.1543 -12.3112  -5.9867 -13.4030
-64.6653  -4.2708  -7.1435  -6.2013  -7.3616  -9.9537  -4.9279  -7.9633
 -5.8474  -3.5031  -1.2393  -7.2284  -3.2677  -1.0635  -2.6005 -11.5765
-61.6263  -2.5231 -71.3663 -58.9373  -6.6975  -4.0391  -9.3127  -4.3379
-13.8776  -7.8704  -3.1791  -6.8147  -7.3971  -6.1112 -41.8065 -14.1803
 -1.7166  -5.1560  -4.0695  -1.9918  -3.2684  -7.4042  -4.1919 -12.1562
 -5.5650  -6.5299  -3.2305  -3.5519  -2.8846  -2.2625  -6.3730 -10.3076
 -7.1983  -2.1863  -7.6563  -7.8793  -6.5865 -10.1291  -7.4780  -1.9675
 -7.1642  -6.5187  -4.9351  -5.8226  -3.3195  -3.1651  -2.3884  -9.8978
 -4.9820  -5.2887  -5.3274  -5.5651  -8.6886  -7.4590  -4.6050  -8.3686
 -2.8441  -7.0022 -16.3618  -6.4772  -7.2792 -11.2944  -9.9445  -4.1553
 -8.4068  -7.6154  -7.5582  -8.3678  -6.1403 -22.8758 -11.5868  -5.3186
 -3.7885 -10.2656 -12.3739 -10.4108 -11.6849  -3.7231 -37.0437 -16.6677
 -6.4909  -3.2107  -5.1154  -3.9506  -8.2554  -5.8845 -12.3190  -8.8875
 -4.1470  -4.7311 -19.4922 -28.1451  -3.0387  -9.3578  -2.8918  -4.6503
-12.5896  -4.6670  -2.4015  -5.9841  -1.1851  -3.0602  -7.2466  -1.5708
 -2.0735  -1.5443  -3.7970 -12.9161  -6.7717  -3.2669 -11.0573 -13.9532
 -4.8825 -16.2990 -15.6883  -8.9647  -8.6284  -9.6065  -3.0575 -12.1272
 -7.3498  -4.2214  -9.4895 -17.5020 -11.0580 -14.5597 -22.3014  -2.5817
 -9.7160  -9.0685  -9.7203  -7.1355  -8.4904 -12.6549  -7.6367  -5.7590
 -3.6416  -1.9899  -6.9229  -6.4601  -9.6163 -10.0888  -8.7277  -7.2331
-22.8049  -6.4828  -7.2538  -3.7265  -3.2062 -21.0515 -10.9657  -8.3472
 -3.7523  -4.2784  -5.4432  -5.0247  -7.6223  -3.9436  -7.6752  -5.7078
 -9.9388  -1.7140 -12.7086  -4.2071 -17.4053 -11.1248 -25.6406 -46.0693
 -6.2077  -9.4141  -6.3193  -2.9690  -2.2879  -9.2987 -36.5890 -37.9248
 -4.9384  -4.5833  -5.8391  -1.6290  -3.8743 -10.0200 -10.7576  -6.0289
-10.3600 -10.7540  -8.1263 -12.6700  -9.8977 -16.6521  -5.7798  -1.8623
-19.3141  -2.8528  -9.3669 -49.9795  -6.6882  -3.5760  -9.2396  -1.9242
 -4.9505 -39.1238 -50.4608  -4.0865 -73.8685  -3.5543 -75.0288 -82.7075
-27.5450  -7.2308  -8.7244  -2.1488 -37.5155  -8.0834 -12.8995  -5.0943
 -8.9671  -8.2538  -5.1997  -7.7111  -8.0350 -10.7032  -2.0270  -3.4363
-38.0643 -13.8602 -10.4463  -3.1810 -16.6350  -4.0159  -7.0239 -11.5770
-13.7120 -26.6052 -12.0410 -12.2457  -5.7379 -11.3386 -16.4706  -7.5727
-26.7711 -28.7304 -24.5976  -9.1911  -9.6309 -17.6293 -14.9036 -51.1352
 -9.0682  -2.4841 -21.0820  -9.9190  -5.7795  -6.9446  -6.7958 -10.4407
 -4.3489  -3.0871 -25.8083  -8.0187  -9.0647  -3.0201  -6.2180 -11.6479
-12.7083 -10.0937 -10.4623 -10.4958 -10.2900 -15.0141 -13.2950 -10.1482
 -0.7474  -0.7205  -0.6869  -0.6657  -0.7587  -0.8206  -0.8357  -0.6674
 -0.4522  -0.4338  -0.4595  -0.3972  -0.4755  -0.4332  -0.4498  -0.3965
 -0.4457  -0.3960  -0.4642  -0.4264  -0.3978  -0.3985  -0.4911  -0.4667
 -0.5825  -0.5498
 -- Virtual --
 -0.0289  -0.0270  -0.0266  -0.0256  -0.0242  -0.0214  -0.0209  -0.0194
 -0.0181  -0.0153  -0.0136  -0.0131  -0.0110  -0.0098  -0.0096  -0.0084
 -0.0076  -0.0068  -0.0066  -0.0055  -0.0040  -0.0033  -0.0031  -0.0022
 -0.0017  -0.0009  -0.0004   0.0006   0.0013   0.0020   0.0021   0.0037
  0.0042   0.0045   0.0055   0.0061   0.0065   0.0067   0.0071   0.0080
  0.0088   0.0094   0.0099   0.0110   0.0118   0.0119   0.0135   0.0137
  0.0144   0.0152   0.0159   0.0163   0.0171   0.0183   0.0185   0.0195
  0.0205   0.0209   0.0212   0.0222   0.0229   0.0240   0.0242   0.0251
  0.0254   0.0267   0.0272   0.0276   0.0281   0.0288   0.0293   0.0297
  0.0301   0.0309   0.0314   0.0318   0.0324   0.0335   0.0342   0.0349
  0.0353   0.0363   0.0366   0.0378   0.0386   0.0389   0.0394   0.0402
  0.0406   0.0407   0.0410   0.0419   0.0425   0.0429   0.0437   0.0444
  0.0452   0.0455   0.0458   0.0465   0.0472   0.0476   0.0485   0.0490
  0.0492   0.0498   0.0505   0.0507   0.0514   0.0519   0.0527   0.0534
  0.0544   0.0545   0.0553   0.0567   0.0569   0.0574   0.0583   0.0586
  0.0594   0.0602   0.0609   0.0618   0.0625   0.0629   0.0630   0.0637
  0.0643   0.0646   0.0653   0.0659   0.0666   0.0669   0.0672   0.0683
  0.0689   0.0692   0.0706   0.0707   0.0712   0.0719   0.0726   0.0730
  0.0737   0.0746   0.0749   0.0758   0.0770   0.0776   0.0780   0.0786
  0.0793   0.0805   0.0809   0.0814   0.0819   0.0821   0.0830   0.0842
  0.0847   0.0852   0.0854   0.0863   0.0868   0.0873   0.0877   0.0889
  0.0895   0.0901   0.0904   0.0908   0.0916   0.0924   0.0926   0.0935
  0.0944   0.0950   0.0957   0.0961   0.0974   0.0978   0.0985   0.0990
  0.0992   0.1001   0.1006   0.1008   0.1018   0.1022   0.1032   0.1033
  0.1038   0.1044   0.1049   0.1057   0.1063   0.1078   0.1088   0.1091
  0.1092   0.1102   0.1106   0.1114   0.1122   0.1131   0.1132   0.1137
  0.1142   0.1146   0.1148   0.1153   0.1159   0.1168   0.1170   0.1174
  0.1176   0.1179   0.1199   0.1203   0.1206   0.1212   0.1217   0.1226
  0.1228   0.1238   0.1243   0.1253   0.1264   0.1269   0.1272   0.1279
  0.1292   0.1297   0.1298   0.1303   0.1306   0.1314   0.1319   0.1326
  0.1335   0.1343   0.1346   0.1354   0.1359   0.1364   0.1372   0.1375
  0.1382   0.1389   0.1394   0.1400   0.1403   0.1409   0.1419   0.1421
  0.1429   0.1432   0.1437   0.1440   0.1445   0.1453   0.1460   0.1462
  0.1463   0.1479   0.1482   0.1487   0.1495   0.1499   0.1501   0.1513
  0.1523   0.1529   0.1530   0.1541   0.1544   0.1547   0.1554   0.1557
  0.1567   0.1569   0.1572   0.1583   0.1590   0.1596   0.1599   0.1605
  0.1608   0.1612   0.1616   0.1619   0.1633   0.1639   0.1641   0.1652
  0.1653   0.1662   0.1669   0.1676   0.1681   0.1687   0.1699   0.1700
  0.1703   0.1709   0.1716   0.1719   0.1725   0.1732   0.1734   0.1743
  0.1751   0.1756   0.1762   0.1770   0.1778   0.1786   0.1791   0.1794
  0.1802   0.1807   0.1812   0.1817   0.1822   0.1824   0.1833   0.1844
  0.1847   0.1850   0.1858   0.1867   0.1875   0.1880   0.1886   0.1893
  0.1897   0.1905   0.1916   0.1920   0.1923   0.1925   0.1930   0.1944
  0.1949   0.1953   0.1959   0.1965   0.1974   0.1977   0.1984   0.1987
  0.1994   0.1999   0.2009   0.2016   0.2021   0.2026   0.2031   0.2039
  0.2045   0.2052   0.2063   0.2069   0.2073   0.2081   0.2085   0.2092
  0.2094   0.2099   0.2107   0.2120   0.2123   0.2129   0.2133   0.2141
  0.2148   0.2152   0.2155   0.2165   0.2170   0.2172   0.2187   0.2195
  0.2200   0.2203   0.2209   0.2212   0.2220   0.2223   0.2230   0.2238
  0.2243   0.2246   0.2255   0.2268   0.2269   0.2276   0.2285   0.2289
  0.2299   0.2304   0.2309   0.2317   0.2321   0.2329   0.2331   0.2337
  0.2349   0.2353   0.2360   0.2375   0.2381   0.2385   0.2396   0.2401
  0.2405   0.2407   0.2423   0.2429   0.2435   0.2439   0.2441   0.2449
  0.2452   0.2462   0.2472   0.2479   0.2488   0.2494   0.2498   0.2511
  0.2514   0.2519   0.2527   0.2529   0.2531   0.2546   0.2550   0.2564
  0.2573   0.2578   0.2587   0.2591   0.2600   0.2611   0.2617   0.2622
  0.2626   0.2632   0.2644   0.2647   0.2650   0.2657   0.2663   0.2664
  0.2676   0.2677   0.2688   0.2694   0.2701   0.2718   0.2721   0.2728
  0.2736   0.2742   0.2746   0.2755   0.2762   0.2769   0.2773   0.2788
  0.2791   0.2803   0.2808   0.2811   0.2817   0.2834   0.2839   0.2841
  0.2844   0.2854   0.2867   0.2876   0.2878   0.2889   0.2895   0.2906
  0.2915   0.2919   0.2936   0.2947   0.2952   0.2955   0.2962   0.2977
  0.2986   0.2990   0.2997   0.3015   0.3017   0.3029   0.3031   0.3039
  0.3041   0.3057   0.3057   0.3062   0.3080   0.3084   0.3092   0.3096
  0.3108   0.3115   0.3119   0.3122   0.3127   0.3134   0.3152   0.3157
  0.3158   0.3162   0.3168   0.3189   0.3193   0.3198   0.3205   0.3210
  0.3223   0.3236   0.3240   0.3251   0.3256   0.3263   0.3274   0.3294
  0.3297   0.3306   0.3318   0.3319   0.3326   0.3334   0.3343   0.3356
  0.3366   0.3372   0.3376   0.3380   0.3390   0.3397   0.3402   0.3413
  0.3424   0.3432   0.3438   0.3450   0.3458   0.3460   0.3462   0.3471
  0.3496   0.3499   0.3501   0.3508   0.3519   0.3531   0.3536   0.3545
  0.3554   0.3555   0.3566   0.3573   0.3576   0.3586   0.3595   0.3604
  0.3612   0.3618   0.3628   0.3635   0.3644   0.3647   0.3663   0.3672
  0.3685   0.3699   0.3702   0.3711   0.3721   0.3723   0.3736   0.3748
  0.3750   0.3758   0.3769   0.3784   0.3788   0.3792   0.3804   0.3817
  0.3820   0.3833   0.3841   0.3845   0.3851   0.3863   0.3874   0.3884
  0.3885   0.3896   0.3901   0.3911   0.3923   0.3927   0.3934   0.3955
  0.3966   0.3974   0.3982   0.3990   0.3994   0.4006   0.4011   0.4021
  0.4026   0.4032   0.4054   0.4058   0.4073   0.4077   0.4083   0.4094
  0.4106   0.4119   0.4139   0.4143   0.4153   0.4163   0.4174   0.4178
  0.4194   0.4201   0.4210   0.4215   0.4226   0.4236   0.4243   0.4247
  0.4256   0.4268   0.4274   0.4291   0.4309   0.4314   0.4328   0.4336
  0.4342   0.4370   0.4374   0.4380   0.4382   0.4390   0.4400   0.4413
  0.4423   0.4426   0.4437   0.4454   0.4466   0.4479   0.4492   0.4498
  0.4509   0.4518   0.4545   0.4561   0.4578   0.4583   0.4596   0.4615
  0.4621   0.4631   0.4645   0.4659   0.4666   0.4685   0.4703   0.4726
  0.4733   0.4754   0.4760   0.4782   0.4791   0.4809   0.4817   0.4831
  0.4848   0.4855   0.4864   0.4896   0.4905   0.4914   0.4923   0.4946
  0.4961   0.4976   0.4988   0.5000   0.5004   0.5027   0.5042   0.5047
  0.5068   0.5083   0.5100   0.5144   0.5149   0.5157   0.5185   0.5192
  0.5203   0.5224   0.5252   0.5259   0.5275   0.5317   0.5325   0.5347
  0.5348   0.5356   0.5385   0.5406   0.5424   0.5440   0.5450   0.5466
  0.5477   0.5503   0.5512   0.5529   0.5545   0.5550   0.5558   0.5579
  0.5584   0.5596   0.5602   0.5613   0.5624   0.5642   0.5657   0.5674
  0.5692   0.5699   0.5708   0.5721   0.5731   0.5757   0.5769   0.5788
  0.5799   0.5811   0.5822   0.5852   0.5867   0.5877   0.5884   0.5899
  0.5921   0.5937   0.5948   0.5959   0.5979   0.5985   0.6000   0.6009
  0.6019   0.6029   0.6044   0.6060   0.6074   0.6091   0.6099   0.6111
  0.6123   0.6132   0.6160   0.6164   0.6174   0.6180   0.6186   0.6194
  0.6207   0.6218   0.6245   0.6255   0.6259   0.6272   0.6292   0.6301
  0.6309   0.6317   0.6332   0.6343   0.6357   0.6370   0.6371   0.6387
  0.6392   0.6401   0.6415   0.6426   0.6439   0.6457   0.6472   0.6478
  0.6487   0.6500   0.6519   0.6521   0.6532   0.6544   0.6552   0.6557
  0.6568   0.6585   0.6600   0.6613   0.6615   0.6625   0.6640   0.6643
  0.6667   0.6676   0.6691   0.6697   0.6722   0.6726   0.6735   0.6743
  0.6752   0.6756   0.6760   0.6783   0.6801   0.6805   0.6812   0.6818
  0.6836   0.6847   0.6861   0.6867   0.6882   0.6890   0.6900   0.6919
  0.6923   0.6931   0.6946   0.6955   0.6966   0.6976   0.6982   0.6992
  0.7005   0.7011   0.7032   0.7060   0.7066   0.7074   0.7092   0.7111
  0.7120   0.7128   0.7137   0.7148   0.7170   0.7183   0.7186   0.7192
  0.7200   0.7222   0.7242   0.7249   0.7254   0.7266   0.7274   0.7286
  0.7309   0.7317   0.7326   0.7361   0.7383   0.7393   0.7399   0.7430
  0.7437   0.7444   0.7444   0.7459   0.7489   0.7495   0.7511   0.7530
  0.7539   0.7554   0.7562   0.7577   0.7601   0.7607   0.7616   0.7637
  0.7648   0.7655   0.7668   0.7685   0.7705   0.7717   0.7732   0.7765
  0.7776   0.7783   0.7801   0.7817   0.7834   0.7843   0.7869   0.7877
  0.7885   0.7887   0.7904   0.7916   0.7929   0.7942   0.7951   0.7983
  0.7993   0.8003   0.8018   0.8022   0.8038   0.8061   0.8069   0.8086
  0.8105   0.8137   0.8143   0.8149   0.8157   0.8165   0.8184   0.8187
  0.8202   0.8222   0.8240   0.8268   0.8280   0.8287   0.8297   0.8319
  0.8330   0.8342   0.8355   0.8359   0.8362   0.8385   0.8396   0.8404
  0.8415   0.8440   0.8450   0.8465   0.8476   0.8493   0.8502   0.8516
  0.8522   0.8532   0.8544   0.8557   0.8566   0.8591   0.8604   0.8628
  0.8631   0.8641   0.8668   0.8673   0.8686   0.8698   0.8716   0.8722
  0.8739   0.8754   0.8758   0.8772   0.8782   0.8800   0.8810   0.8830
  0.8831   0.8841   0.8853   0.8875   0.8881   0.8900   0.8915   0.8932
  0.8940   0.8945   0.8962   0.8975   0.8989   0.9000   0.9012   0.9033
  0.9040   0.9056   0.9077   0.9080   0.9087   0.9092   0.9106   0.9114
  0.9123   0.9135   0.9152   0.9155   0.9166   0.9180   0.9190   0.9197
  0.9221   0.9237   0.9251   0.9258   0.9269   0.9279   0.9298   0.9304
  0.9315   0.9334   0.9339   0.9358   0.9369   0.9370   0.9394   0.9398
  0.9424   0.9427   0.9436   0.9445   0.9450   0.9467   0.9475   0.9482
  0.9488   0.9508   0.9522   0.9531   0.9545   0.9564   0.9583   0.9590
  0.9600   0.9611   0.9616   0.9635   0.9642   0.9655   0.9662   0.9670
  0.9679   0.9699   0.9706   0.9715   0.9725   0.9731   0.9745   0.9753
  0.9768   0.9779   0.9785   0.9794   0.9819   0.9823   0.9826   0.9843
  0.9844   0.9870   0.9878   0.9888   0.9893   0.9904   0.9913   0.9934
  0.9939   0.9945   0.9958   0.9966   0.9975   0.9986   1.0000   1.0008
  1.0020   1.0030   1.0038   1.0041   1.0053   1.0065   1.0073   1.0087
  1.0096   1.0112   1.0115   1.0136   1.0138   1.0142   1.0161   1.0168
  1.0175   1.0186   1.0196   1.0210   1.0226   1.0239   1.0246   1.0252
  1.0272   1.0273   1.0289   1.0303   1.0320   1.0327   1.0350   1.0356
  1.0360   1.0371   1.0379   1.0391   1.0392   1.0413   1.0415   1.0435
  1.0460   1.0470   1.0475   1.0495   1.0501   1.0526   1.0548   1.0564
  1.0572   1.0593   1.0594   1.0614   1.0625   1.0651   1.0655   1.0670
  1.0685   1.0703   1.0707   1.0720   1.0726   1.0737   1.0744   1.0765
  1.0774   1.0808   1.0815   1.0830   1.0853   1.0859   1.0871   1.0875
  1.0897   1.0907   1.0928   1.0933   1.0954   1.0959   1.0971   1.0988
  1.0994   1.1004   1.1012   1.1043   1.1062   1.1069   1.1076   1.1089
  1.1114   1.1118   1.1128   1.1133   1.1155   1.1177   1.1186   1.1193
  1.1203   1.1217   1.1229   1.1236   1.1243   1.1261   1.1273   1.1281
  1.1295   1.1312   1.1324   1.1329   1.1346   1.1351   1.1365   1.1380
  1.1398   1.1399   1.1411   1.1426   1.1440   1.1452   1.1465   1.1469
  1.1481   1.1496   1.1508   1.1515   1.1530   1.1538   1.1548   1.1562
  1.1582   1.1591   1.1598   1.1612   1.1619   1.1627   1.1645   1.1656
  1.1670   1.1692   1.1701   1.1720   1.1731   1.1743   1.1754   1.1777
  1.1795   1.1814   1.1823   1.1837   1.1840   1.1864   1.1872   1.1891
  1.1909   1.1925   1.1957   1.1988   1.1992   1.2001   1.2005   1.2025
  1.2055   1.2075   1.2078   1.2102   1.2119   1.2138   1.2165   1.2196
  1.2210   1.2216   1.2229   1.2237   1.2258   1.2292   1.2305   1.2328
  1.2343   1.2351   1.2357   1.2393   1.2402   1.2423   1.2445   1.2469
  1.2481   1.2504   1.2520   1.2561   1.2587   1.2590   1.2619   1.2639
  1.2675   1.2687   1.2699   1.2708   1.2714   1.2751   1.2803   1.2821
  1.2860   1.2871   1.2907   1.2917   1.2960   1.2987   1.3003   1.3021
  1.3033   1.3052   1.3083   1.3107   1.3142   1.3175   1.3195   1.3202
  1.3222   1.3244   1.3250   1.3272   1.3282   1.3300   1.3334   1.3353
  1.3367   1.3381   1.3399   1.3417   1.3431   1.3451   1.3464   1.3475
  1.3494   1.3505   1.3542   1.3551   1.3563   1.3573   1.3585   1.3591
  1.3606   1.3621   1.3634   1.3654   1.3664   1.3681   1.3690   1.3704
  1.3710   1.3744   1.3749   1.3756   1.3767   1.3795   1.3799   1.3815
  1.3825   1.3830   1.3848   1.3875   1.3878   1.3894   1.3907   1.3930
  1.3950   1.3958   1.3967   1.3973   1.3988   1.4000   1.4020   1.4026
  1.4056   1.4062   1.4083   1.4087   1.4097   1.4123   1.4131   1.4142
  1.4165   1.4176   1.4192   1.4199   1.4212   1.4236   1.4251   1.4269
  1.4281   1.4292   1.4296   1.4312   1.4330   1.4357   1.4363   1.4388
  1.4403   1.4407   1.4416   1.4450   1.4463   1.4468   1.4478   1.4500
  1.4516   1.4533   1.4562   1.4572   1.4592   1.4618   1.4627   1.4636
  1.4652   1.4684   1.4698   1.4716   1.4727   1.4732   1.4776   1.4792
  1.4811   1.4824   1.4851   1.4880   1.4893   1.4904   1.4924   1.4931
  1.4948   1.4989   1.5007   1.5019   1.5045   1.5086   1.5104   1.5147
  1.5175   1.5192   1.5217   1.5255   1.5297   1.5311   1.5359   1.5401
  1.5436   1.5457   1.5470   1.5495   1.5534   1.5557   1.5590   1.5624
  1.5641   1.5649   1.5689   1.5714   1.5723   1.5797   1.5824   1.5843
  1.5880   1.5945   1.5999   1.6043   1.6055   1.6075   1.6138   1.6153
  1.6189   1.6234   1.6265   1.6333   1.6388   1.6409   1.6421   1.6450
  1.6488   1.6502   1.6521   1.6545   1.6554   1.6573   1.6593   1.6601
  1.6617   1.6650   1.6679   1.6688   1.6692   1.6705   1.6732   1.6738
  1.6758   1.6767   1.6776   1.6793   1.6811   1.6826   1.6830   1.6839
  1.6848   1.6873   1.6890   1.6892   1.6917   1.6923   1.6951   1.6960
  1.6967   1.6984   1.7002   1.7009   1.7018   1.7034   1.7042   1.7062
  1.7070   1.7078   1.7082   1.7106   1.7111   1.7127   1.7131   1.7167
  1.7176   1.7193   1.7198   1.7207   1.7215   1.7239   1.7277   1.7296
  1.7306   1.7316   1.7323   1.7339   1.7358   1.7395   1.7397   1.7415
  1.7426   1.7451   1.7454   1.7464   1.7473   1.7479   1.7494   1.7505
  1.7524   1.7535   1.7548   1.7551   1.7562   1.7569   1.7583   1.7595
  1.7609   1.7613   1.7621   1.7645   1.7656   1.7678   1.7685   1.7715
  1.7725   1.7732   1.7743   1.7766   1.7773   1.7800   1.7833   1.7840
  1.7860   1.7872   1.7894   1.7928   1.7936   1.7960   1.7974   1.7981
  1.7995   1.8029   1.8063   1.8097   1.8105   1.8129   1.8154   1.8160
  1.8201   1.8224   1.8238   1.8255   1.8264   1.8306   1.8314   1.8342
  1.8360   1.8372   1.8396   1.8406   1.8430   1.8448   1.8475   1.8515
  1.8554   1.8589   1.8601   1.8656   1.8666   1.8676   1.8696   1.8714
  1.8742   1.8747   1.8758   1.8766   1.8769   1.8796   1.8802   1.8820
  1.8825   1.8835   1.8843   1.8853   1.8873   1.8892   1.8909   1.8922
  1.8937   1.8948   1.8961   1.8970   1.8979   1.8990   1.9004   1.9015
  1.9019   1.9035   1.9060   1.9063   1.9083   1.9090   1.9099   1.9116
  1.9131   1.9144   1.9159   1.9165   1.9179   1.9192   1.9215   1.9228
  1.9235   1.9247   1.9254   1.9275   1.9295   1.9310   1.9320   1.9340
  1.9347   1.9410   1.9417   1.9440   1.9476   1.9495   1.9508   1.9540
  1.9592   1.9616   1.9655   1.9685   1.9715   1.9785   1.9936   1.9953
  2.0010   2.0050   2.0125   2.0245   2.0271   2.0318   2.0335   2.0378
  2.0454   2.0465   2.0489   2.0493   2.0507   2.0531   2.0550   2.0575
  2.0588   2.0594   2.0616   2.0628   2.0644   2.0650   2.0656   2.0694
  2.0703   2.0721   2.0727   2.0772   2.0793   2.0803   2.0808   2.0820
  2.0847   2.0852   2.0861   2.0878   2.0896   2.0911   2.0916   2.0931
  2.0938   2.0947   2.0969   2.0972   2.0996   2.1006   2.1024   2.1036
  2.1045   2.1059   2.1066   2.1090   2.1112   2.1140   2.1151   2.1173
  2.1189   2.1203   2.1219   2.1221   2.1232   2.1258   2.1341   2.1387
  2.1513   2.1573   2.1592   2.1616   2.1650   2.1686   2.1702   2.1706
  2.1711   2.1730   2.1750   2.1753   2.1816   2.1837   2.1924   2.1948
  2.1977   2.1994   2.2005   2.2020   2.2038   2.2060   2.2064   2.2083
  2.2096   2.2117   2.2124   2.2137   2.2162   2.2180   2.2198   2.2212
  2.2218   2.2235   2.2235   2.2249   2.2266   2.2272   2.2304   2.2314
  2.2327   2.2340   2.2342   2.2347   2.2376   2.2390   2.2396   2.2407
  2.2417   2.2429   2.2434   2.2440   2.2451   2.2461   2.2493   2.2515
  2.2528   2.2537   2.2544   2.2561   2.2565   2.2568   2.2572   2.2581
  2.2592   2.2596   2.2608   2.2617   2.2625   2.2638   2.2640   2.2648
  2.2669   2.2677   2.2687   2.2690   2.2705   2.2714   2.2728   2.2732
  2.2738   2.2740   2.2750   2.2753   2.2758   2.2765   2.2767   2.2784
  2.2791   2.2812   2.2815   2.2831   2.2840   2.2848   2.2855   2.2871
  2.2875   2.2887   2.2891   2.2905   2.2913   2.2919   2.2930   2.2957
  2.2965   2.2977   2.2980   2.2992   2.2998   2.3011   2.3015   2.3019
  2.3031   2.3032   2.3045   2.3056   2.3078   2.3091   2.3114   2.3122
  2.3128   2.3147   2.3148   2.3169   2.3183   2.3195   2.3205   2.3219
  2.3237   2.3250   2.3260   2.3281   2.3291   2.3295   2.3316   2.3343
  2.3353   2.3362   2.3374   2.3391   2.3399   2.3418   2.3439   2.3461
  2.3485   2.3510   2.3521   2.3533   2.3556   2.3572   2.3594   2.3625
  2.3634   2.3650   2.3670   2.3678   2.3694   2.3714   2.3732   2.3762
  2.3796   2.3809   2.3838   2.3882   2.3889   2.3909   2.3962   2.3992
  2.4091   2.4158   2.4186   2.4207   2.4595   2.4763   2.5020   2.5350
  2.5624   2.5879   2.6662   2.7191   2.7246   2.8029   2.8086   2.8188
  2.8245   2.8262   2.8271   2.8320   2.8336   2.8364   2.8387   2.8396
  2.8401   2.8429   2.8436   2.8465   2.8474   2.8481   2.8500   2.8526
  2.8570   2.8605   2.8637   2.8649   2.8667   2.8697   2.8727   2.8739
  2.8745   2.8851   2.8904   2.8983   2.9077   2.9259   3.1159   3.2370
  3.9466   3.9494   3.9525   3.9580   3.9630   3.9657   3.9682   3.9710
  3.9717   3.9733   3.9755   3.9782   3.9798   3.9832   3.9840   3.9846
  3.9914   3.9952   3.9978   3.9987   3.9999   4.0036   4.0117   4.0133
  4.0161   4.0254   4.0409   4.1855   4.1965   4.2143   4.2160   4.2187
  4.2212   4.2230   4.2287   4.2310   4.2360   4.2375   4.2384   4.2410
  4.2433   4.2458   4.2496   4.2555   4.2579   4.2675   4.2694   4.2700
  4.2703   4.2742   4.2756   4.2802   4.2814   4.2833   4.2857   4.2868
  4.2905   4.2938   4.2951   4.2965   4.3002   4.3028   4.3031   4.3047
  4.3105   4.3134   4.3154   4.3178   4.3199   4.3224   4.3262   4.3282
  4.3309   4.3367   4.3377   4.3403   4.3420   4.3452   4.3462   4.3490
  4.3502   4.3514   4.3557   4.3615   4.3668   4.3678   4.3711   4.3757
  4.3824   4.3881   4.3896   4.3910   4.3970   4.4003   4.4066   4.4096
  4.4142   4.4217   4.4305   4.4341   4.4356   4.4566   4.4701   4.4735
  4.5009   4.5118   4.5208   4.5418   4.5538   4.5655   4.5790   4.6179
  4.6695   4.6926   4.7228   4.7844   4.8594
 --------------------------------------------------------------
 
          Ground-State Mulliken Net Atomic Charges

     Atom                 Charge (a.u.)
  ----------------------------------------
      1 C                    -0.396115
      2 C                    -0.892408
      3 C                     0.216141
      4 C                    -0.664540
      5 C                    -0.493518
      6 C                    -0.467391
      7 H                     0.220760
      8 H                     0.213155
      9 H                     0.235833
     10 H                     0.225409
     11 H                     0.205609
     12 H                     0.198654
     13 H                     0.196113
     14 H                     0.216904
     15 H                     0.223627
     16 H                     0.199272
     17 H                     0.240679
     18 N                     0.268933
     19 H                     0.499762
     20 C                    -0.126988
     21 H                     0.182009
     22 O                    -0.318289
     23 C                    -0.875400
     24 H                     0.237234
     25 H                     0.268782
     26 H                     0.228685
     27 S                     1.027287
     28 C                    -1.084309
     29 H                     0.321113
     30 H                     0.247140
     31 H                     0.226707
     32 O                    -0.669991
     33 C                    -0.938594
     34 H                     0.249074
     35 H                     0.238569
     36 H                     0.254395
     37 S                     1.166493
     38 C                    -0.998574
     39 H                     0.264045
     40 H                     0.315999
     41 H                     0.250566
     42 O                    -0.724628
     43 C                    -0.868025
     44 H                     0.286555
     45 H                     0.236419
     46 H                     0.251645
     47 S                     0.948629
     48 C                    -0.885504
     49 H                     0.211624
     50 H                     0.257276
     51 H                     0.257214
     52 O                    -0.708646
     53 C                    -0.823634
     54 H                     0.255291
     55 H                     0.253397
     56 H                     0.231889
     57 S                     0.906181
     58 C                    -0.947061
     59 H                     0.280428
     60 H                     0.236122
     61 H                     0.257112
     62 O                    -0.702552
     63 C                    -0.957616
     64 H                     0.228810
     65 H                     0.263134
     66 H                     0.259442
     67 S                     0.957670
     68 C                    -0.795670
     69 H                     0.262533
     70 H                     0.246927
     71 H                     0.250391
     72 O                    -0.676988
     73 C                    -0.824805
     74 H                     0.245335
     75 H                     0.234400
     76 H                     0.267724
     77 S                     0.779664
     78 C                    -0.778695
     79 H                     0.258469
     80 H                     0.227692
     81 H                     0.272968
     82 O                    -0.676626
     83 C                    -0.915784
     84 H                     0.248309
     85 H                     0.237230
     86 H                     0.253076
     87 S                     1.107632
     88 C                    -1.095396
     89 H                     0.267999
     90 H                     0.272529
     91 H                     0.273124
     92 O                    -0.650798
     93 C                    -0.813851
     94 H                     0.236484
     95 H                     0.267872
     96 H                     0.264033
     97 S                     0.866748
     98 C                    -0.828758
     99 H                     0.262739
    100 H                     0.272448
    101 H                     0.240776
    102 O                    -0.739507
    103 C                    -0.982168
    104 H                     0.249092
    105 H                     0.271412
    106 H                     0.286745
    107 S                     1.089096
    108 C                    -1.091945
    109 H                     0.293424
    110 H                     0.253276
    111 H                     0.253223
    112 O                    -0.671354
    113 C                    -0.724159
    114 H                     0.272487
    115 H                     0.250971
    116 H                     0.250215
    117 S                     0.679171
    118 C                    -0.767093
    119 H                     0.237229
    120 H                     0.221451
    121 H                     0.313852
    122 O                    -0.677066
    123 C                    -0.844751
    124 H                     0.246788
    125 H                     0.278291
    126 H                     0.248287
    127 S                     0.785603
    128 C                    -0.809094
    129 H                     0.250443
    130 H                     0.234960
    131 H                     0.283736
    132 O                    -0.650492
    133 C                    -0.730649
    134 H                     0.266203
    135 H                     0.259096
    136 H                     0.294374
    137 S                     0.565785
    138 C                    -0.823060
    139 H                     0.262846
    140 H                     0.250889
    141 H                     0.288435
    142 O                    -0.696808
    143 C                    -0.647157
    144 H                     0.248831
    145 H                     0.268431
    146 H                     0.254696
    147 S                     0.508563
    148 C                    -0.782031
    149 H                     0.233986
    150 H                     0.253211
    151 H                     0.318331
    152 O                    -0.641401
    153 C                    -0.886631
    154 H                     0.250847
    155 H                     0.246352
    156 H                     0.292965
    157 S                     1.008793
    158 C                    -0.918424
    159 H                     0.289329
    160 H                     0.229509
    161 H                     0.267170
    162 O                    -0.631759
    163 C                    -0.738354
    164 H                     0.287049
    165 H                     0.312881
    166 H                     0.243935
    167 S                    -0.363807
    168 C                    -0.323411
    169 H                     0.310900
    170 H                     0.227985
    171 H                     0.288188
    172 O                    -0.520032
    173 C                    -0.753301
    174 H                     0.261783
    175 H                     0.273247
    176 H                     0.206237
    177 S                     0.790502
    178 C                    -0.875249
    179 H                     0.278869
    180 H                     0.261547
    181 H                     0.273610
    182 O                    -0.761130
    183 C                    -0.995361
    184 H                     0.303271
    185 H                     0.260515
    186 H                     0.246972
    187 S                     1.153892
    188 C                    -0.913308
    189 H                     0.217525
    190 H                     0.252157
    191 H                     0.274849
    192 O                    -0.678026
    193 C                    -1.114863
    194 H                     0.275218
    195 H                     0.277104
    196 H                     0.302373
    197 S                     1.155169
    198 C                    -0.957639
    199 H                     0.281337
    200 H                     0.235126
    201 H                     0.262427
    202 O                    -0.689182
    203 C                    -0.655949
    204 H                     0.273527
    205 H                     0.251173
    206 H                     0.277302
    207 S                     0.464655
    208 C                    -0.907400
    209 H                     0.251664
    210 H                     0.261303
    211 H                     0.281679
    212 O                    -0.613679
    213 C                    -0.698783
    214 H                     0.235693
    215 H                     0.279136
    216 H                     0.273167
    217 S                     0.414601
    218 C                    -0.729374
    219 H                     0.249571
    220 H                     0.247350
    221 H                     0.235693
    222 O                    -0.573781
    223 C                    -0.881223
    224 H                     0.295032
    225 H                     0.244672
    226 H                     0.246206
    227 S                     0.971827
    228 C                    -1.120523
    229 H                     0.287287
    230 H                     0.249698
    231 H                     0.320361
    232 O                    -0.688099
    233 C                    -1.084643
    234 H                     0.249498
    235 H                     0.249909
    236 H                     0.298984
    237 S                     1.136095
    238 C                    -0.816977
    239 H                     0.250277
    240 H                     0.215953
    241 H                     0.299896
    242 O                    -0.711345
    243 C                    -0.797078
    244 H                     0.226141
    245 H                     0.302986
    246 H                     0.245455
    247 S                     0.777138
    248 C                    -0.821515
    249 H                     0.289905
    250 H                     0.250269
    251 H                     0.232502
    252 O                    -0.737514
    253 C                    -0.721905
    254 H                     0.249977
    255 H                     0.325637
    256 H                     0.264276
    257 S                     0.420650
    258 C                    -0.760929
    259 H                     0.268420
    260 H                     0.244854
    261 H                     0.250695
    262 O                    -0.554128
    263 C                    -1.038865
    264 H                     0.237726
    265 H                     0.234482
    266 H                     0.278408
    267 S                     1.134137
    268 C                    -0.940186
    269 H                     0.258306
    270 H                     0.262371
    271 H                     0.264525
    272 O                    -0.669668
    273 C                    -0.948297
    274 H                     0.227510
    275 H                     0.276158
    276 H                     0.296289
    277 S                     1.083967
    278 C                    -0.922113
    279 H                     0.250577
    280 H                     0.256089
    281 H                     0.243151
    282 O                    -0.744057
    283 C                    -0.762082
    284 H                     0.283725
    285 H                     0.240274
    286 H                     0.253239
    287 S                     0.736082
    288 C                    -0.813717
    289 H                     0.273524
    290 H                     0.232674
    291 H                     0.248257
    292 O                    -0.676336
  ----------------------------------------
  Sum of atomic charges =     0.000000

 -----------------------------------------------------------------
                    Cartesian Multipole Moments
 -----------------------------------------------------------------
    Charge (ESU x 10^10)
                -0.0000
    Dipole Moment (Debye)
         X       5.5761      Y      -3.4091      Z      -7.1228
       Tot       9.6670
    Quadrupole Moments (Debye-Ang)
        XX    -850.5318     XY      88.5019     YY    -961.8727
        XZ      18.7497     YZ    -280.3230     ZZ   -1316.1728
    Octopole Moments (Debye-Ang^2)
       XXX  -65386.2607    XXY  -12251.1577    XYY  -17361.1701
       YYY  -44737.8815    XXZ  -25052.0989    XYZ   -1580.0553
       YYZ  -29139.9252    XZZ  -23917.9917    YZZ  -28208.9046
       ZZZ  -90827.0508
    Hexadecapole Moments (Debye-Ang^3)
      XXXX ************   XXXY -999653.5188   XXYY -622593.6751
      XYYY -907916.0961   YYYY ************   XXXZ ************
      XXYZ -408176.0146   XYYZ -535136.0015   YYYZ ************
      XXZZ ************   XYZZ -502307.7082   YYZZ ************
      XZZZ ************   YZZZ ************   ZZZZ ************
 -----------------------------------------------------------------
Archival summary:
[...]
    2   0.0031712   0.0310016   0.0035948  -0.0146053  -0.0523973   0.0013071
    3  -0.0002055   0.0006058  -0.0272776   0.0006938  -0.0046082   0.0072660
          139         140         141         142         143         144
    1  -0.0136251  -0.0274818   0.0304399   0.0954425   0.0051093   0.0374474
    2   0.0281656  -0.0094013  -0.0028772   0.0498097   0.0067994   0.0020967
    3   0.0033335   0.0215762   0.0158442  -0.0263662   0.0048136   0.0173255
          145         146         147         148         149         150
    1  -0.0010845  -0.0010727  -0.0145143  -0.0078155  -0.0026424  -0.0325294
    2  -0.0056220   0.0342662  -0.0514954   0.0107016  -0.0035812  -0.0037227
    3  -0.0204274  -0.0044355  -0.0022589  -0.0023526  -0.0315707   0.0043481
          151         152         153         154         155         156
    1   0.0036150   0.0090816  -0.0097520   0.0007666  -0.0041893  -0.0290720
    2   0.0327598   0.0636458  -0.0009343   0.0122961   0.0221837  -0.0104383
    3   0.0100727   0.0902252   0.0011003   0.0306466  -0.0129145  -0.0152511
          157         158         159         160         161         162
    1   0.0097713  -0.0004763  -0.0237314   0.0210301  -0.0033496   0.0571964
    2  -0.0208275  -0.0089707  -0.0186566  -0.0178323   0.0108580   0.0767486
    3  -0.0530234   0.0045921  -0.0107738  -0.0054631   0.0288722   0.0505053
          163         164         165         166         167         168
    1  -0.0089596  -0.0259503  -0.0116748   0.0250711   0.0524284  -0.0040298
    2  -0.0057430   0.0086145  -0.0291696   0.0122347  -0.0161322   0.0069098
    3   0.0075867   0.0085999  -0.0210250   0.0229008  -0.0200967  -0.0005140
          169         170         171         172         173         174
    1  -0.0209274   0.0238234  -0.0005356  -0.0947999  -0.0056486  -0.0299193
    2   0.0153369   0.0152518   0.0180188  -0.0012702   0.0023593  -0.0086456
    3   0.0166771   0.0250447  -0.0274992  -0.0767021  -0.0027293  -0.0132357
          175         176         177         178         179         180
    1  -0.0225796   0.0064835   0.0405379   0.0044524   0.0152683  -0.0222485
    2   0.0103784   0.0171464   0.0249957  -0.0033744  -0.0271007  -0.0050013
    3   0.0219765  -0.0296893   0.0257489  -0.0067377   0.0001785  -0.0200611
          181         182         183         184         185         186
    1   0.0220584  -0.0589033  -0.0022654  -0.0301677   0.0131319  -0.0080192
    2   0.0148168  -0.0853025  -0.0097085   0.0012268  -0.0271173  -0.0033034
    3  -0.0203209   0.0355525   0.0012503  -0.0131042  -0.0176257   0.0318937
          187         188         189         190         191         192
    1  -0.0399222   0.0032972  -0.0229769   0.0134244   0.0278934   0.0973634
    2   0.0437107  -0.0029998  -0.0076605   0.0194951  -0.0186554  -0.0018456
    3   0.0052124  -0.0054546  -0.0167380  -0.0167095  -0.0040692   0.0508273
          193         194         195         196         197         198
    1  -0.0000778   0.0177618   0.0154674  -0.0265763   0.0447024  -0.0074492
    2   0.0043135   0.0245460  -0.0183744   0.0106144  -0.0267677  -0.0040475
    3  -0.0152682  -0.0063251  -0.0225709  -0.0045023   0.0024117  -0.0009085
          199         200         201         202         203         204
    1  -0.0052570  -0.0000470  -0.0222018  -0.0281604   0.0060090   0.0281953
    2  -0.0063450  -0.0176251   0.0224323   0.0846913   0.0048324  -0.0042972
    3  -0.0366736   0.0303275  -0.0067801   0.0627905   0.0058808  -0.0112962
          205         206         207         208         209         210
    1  -0.0077896   0.0229712  -0.0211543  -0.0031744  -0.0040244  -0.0242110
    2   0.0341963  -0.0017981   0.0159208   0.0013912   0.0332015  -0.0179977
    3   0.0069958   0.0274897  -0.0503863   0.0064410   0.0137380   0.0006503
          211         212         213         214         215         216
    1   0.0089899   0.0290904  -0.0067107  -0.0027926   0.0130102  -0.0368687
    2  -0.0046588  -0.1020384   0.0025597   0.0253384   0.0131457   0.0076554
    3   0.0317723   0.0260783  -0.0078548   0.0167828  -0.0264088  -0.0146436
          217         218         219         220         221         222
    1  -0.0317676   0.0076235   0.0174954  -0.0091531   0.0233688   0.0314158
    2  -0.0203299   0.0035198   0.0125991   0.0199008  -0.0171209  -0.0614599
    3   0.0474577  -0.0012134  -0.0257811   0.0243972   0.0101410  -0.0850772
          223         224         225         226         227         228
    1   0.0079729   0.0176090   0.0216403  -0.0043275  -0.0346518   0.0061509
    2  -0.0015477   0.0042162   0.0120038  -0.0304176  -0.0111474   0.0122151
    3  -0.0001012  -0.0301191   0.0186467   0.0098355  -0.0336434   0.0001926
          229         230         231         232         233         234
    1   0.0315064   0.0142129  -0.0263581  -0.0148892   0.0030980  -0.0217768
    2  -0.0022027   0.0092282   0.0230571   0.0222758  -0.0022472  -0.0149051
    3   0.0175715  -0.0255657   0.0082214   0.1070538   0.0102401   0.0162002
          235         236         237         238         239         240
    1   0.0261368   0.0002670   0.0051742   0.0093659   0.0343976   0.0088256
    2  -0.0202728   0.0271012  -0.0371191   0.0042266  -0.0128621   0.0142650
    3   0.0076058   0.0155676  -0.0290763   0.0014255  -0.0010556  -0.0257841
          241         242         243         244         245         246
    1  -0.0117503  -0.0709466   0.0082364   0.0112706   0.0324492  -0.0155549
    2   0.0155833   0.0840313   0.0029619   0.0237642  -0.0006769   0.0140336
    3   0.0281919   0.0019493  -0.0039130   0.0232428  -0.0155016  -0.0212647
          247         248         249         250         251         252
    1  -0.0317972   0.0026799  -0.0041211   0.0175593   0.0226008  -0.0457411
    2   0.0142225  -0.0069854  -0.0351916  -0.0089203   0.0123737  -0.0413012
    3   0.0470058   0.0011631   0.0070366  -0.0216785   0.0211401  -0.0909744
          253         254         255         256         257         258
    1  -0.0107706  -0.0038006   0.0032590  -0.0139461  -0.0009246   0.0021902
    2   0.0099221  -0.0206862   0.0309025   0.0040958  -0.0519379   0.0031629
    3   0.0081733   0.0244082   0.0286793  -0.0289148  -0.0324708   0.0088428
          259         260         261         262         263         264
    1  -0.0005578  -0.0135874   0.0310840   0.0333484   0.0021379   0.0169890
    2   0.0273133  -0.0247998   0.0014462   0.0960589   0.0036599   0.0268438
    3   0.0209573   0.0100845   0.0018220  -0.0403596  -0.0084794  -0.0172253
          265         266         267         268         269         270
    1   0.0173911  -0.0283388   0.0440033  -0.0047189   0.0291620  -0.0168598
    2  -0.0245934   0.0010070   0.0064522  -0.0102149  -0.0186764  -0.0214945
    3  -0.0112938  -0.0117191   0.0290888   0.0014641   0.0029465   0.0188310
          271         272         273         274         275         276
    1  -0.0291568  -0.0923881  -0.0090423   0.0186560  -0.0089711  -0.0225429
    2  -0.0002267   0.0593803   0.0063146   0.0217604   0.0079864  -0.0054652
    3  -0.0184071   0.0020094   0.0043542   0.0142390  -0.0324887   0.0265563
          277         278         279         280         281         282
    1   0.0103329   0.0065638   0.0168403  -0.0118095   0.0232517  -0.0540229
    2  -0.0322056   0.0012579  -0.0210103   0.0255891   0.0060765  -0.0267803
    3   0.0435234  -0.0052211  -0.0190700  -0.0160434   0.0218274  -0.0912551
          283         284         285         286         287         288
    1  -0.0050722   0.0046218  -0.0116311  -0.0222425   0.0132291   0.0031418
    2  -0.0003033   0.0319070  -0.0231721   0.0022479   0.0450107   0.0003606
    3  -0.0061338  -0.0107087  -0.0255029   0.0193060   0.0451734  -0.0083866
          289         290         291         292
    1  -0.0028365   0.0242707   0.0023435  -0.0017113
    2   0.0302461  -0.0139158  -0.0280918  -0.1062929
    3  -0.0166093   0.0108922  -0.0193019   0.0310337
  --- DONE ESP SUMMARY ---
Archival summary:
1\1\node002\SP\ProcedureUnspecified\6-31+G*\272754h22\ymao90\FriDec305:48:062021FriDec305:48:062021\0\\#,ProcedureUnspecified,6-31+G*,\\0,1\S\O,1,1.49671\C,1,1.80705,2,108.006\H,3,1.09269,1,112.368,2,59.1696,0\H,3,1.09271,1,97.3283,2,-174.022,0\H,3,1.0928,1,107.839,2,-63.6696,0\C,1,1.80714,2,102.1,3,106.404,0\H,7,1.09255,1,110.219,2,69.3649,0\H,7,1.09294,1,119.725,2,-175.194,0\H,7,1.09388,1,108.329,2,-51.3257,0\H,10,1.97267,7,143.938,1,26.2309,0\C,11,1.09335,10,156.535,7,-144.289,0\H,12,1.09279,11,108.289,10,-12.823,0\H,12,1.09329,11,106.313,10,-134.795,0\S,12,1.80676,11,109.869,10,107.947,0\O,15,1.49689,12,108.656,11,-88.2606,0\C,15,1.8067,12,95.2107,11,173.867,0\H,17,1.09217,15,106.112,12,55.1062,0\H,17,1.0926,15,108.574,12,-61.0695,0\H,17,1.09321,15,109.388,12,177.534,0\Gh,2,1.99366,1,146.188,3,44.3534,0\Gh,21,1.01259,2,173.314,1,53.2682,0\Gh,22,1.379,21,113.831,2,122.421,0\Gh,23,1.10483,22,110.406,21,6.8593,0\Gh,23,1.21867,22,120.013,21,-175.207,0\Gh,22,1.46211,21,113.898,2,-38.4207,0\Gh,26,1.09651,22,106.734,21,175.092,0\Gh,26,1.53694,22,110.242,21,-72.837,0\Gh,28,1.09666,26,107.12,22,-67.1401,0\Gh,28,1.09723,26,116.129,22,52.0925,0\Gh,28,1.53771,26,110.098,22,177.938,0\Gh,31,1.09672,28,112.365,26,-174.743,0\Gh,31,1.09763,28,111.04,26,71.2249,0\Gh,31,1.53751,28,109.6,26,-54.1519,0\Gh,34,1.09605,31,102.322,28,-55.0981,0\Gh,34,1.09712,31,107.934,28,-178.564,0\Gh,34,1.53753,31,110.355,28,64.1702,0\Gh,37,1.09626,34,117.854,31,54.2499,0\Gh,37,1.09666,34,109.112,31,-179.889,0\Gh,37,1.53753,34,106.375,31,-64.7106,0\Gh,40,1.0972,37,111.209,34,-178.491,0\Gh,40,1.09759,37,111.756,34,-64.6993,0\H,11,2.09685,10,70.4802,7,67.8351,0\C,43,1.09265,11,135.305,10,108.765,0\H,44,1.09315,43,106.122,11,-179.387,0\H,44,1.09317,43,110.405,11,68.0049,0\S,44,1.80738,43,114.822,11,-65.1977,0\O,47,1.49762,44,102.495,43,58.4957,0\C,47,1.80706,44,90.6398,43,162.608,0\H,49,1.09236,47,106.027,44,-76.6568,0\H,49,1.09298,47,115.267,44,55.9706,0\H,49,1.09383,47,109.924,44,172.571,0\H,24,2.29777,23,148.302,22,-172.849,0\C,53,1.09213,24,103.995,23,93.1334,0\H,54,1.09284,53,98.2471,24,58.3886,0\H,54,1.09364,53,113.486,24,-62.6374,0\S,54,1.80724,53,110.956,24,176.001,0\O,57,1.49653,54,94.691,53,-54.3738,0\C,57,1.80704,54,94.5357,53,-159.985,0\H,59,1.09259,57,109.086,54,176.625,0\H,59,1.09267,57,104.354,54,56.8938,0\H,59,1.09306,57,109.113,54,-66.1671,0\H,61,2.15459,59,119.195,57,122.442,0\C,63,1.09242,61,116.164,59,106.804,0\H,64,1.09306,63,112.463,61,-142.813,0\H,64,1.09358,63,105.579,61,-25.7539,0\S,64,1.80649,63,109.067,61,94.0422,0\O,67,1.49616,64,102.561,63,-36.6968,0\C,67,1.80733,64,98.9321,63,72.7141,0\H,69,1.09284,67,114.598,64,-58.6669,0\H,69,1.0932,67,110.456,64,70.7529,0\H,69,1.09369,67,103.795,64,-168.271,0\H,20,2.32742,17,148.852,15,-27.8589,0\C,73,1.09299,20,159.155,17,-7.22008,0\H,74,1.0926,73,115.969,20,-87.2223,0\H,74,1.09329,73,107.967,20,30.4215,0\S,74,1.80706,73,107.663,20,143.33,0\O,77,1.49646,74,105.23,73,81.9347,0\C,77,1.80714,74,93.2976,73,179.602,0\H,79,1.09252,77,103.7,74,-172.822,0\H,79,1.09266,77,107.916,74,65.0209,0\H,79,1.09372,77,117.206,74,-54.118,0\H,76,2.19089,74,144.232,73,-64.2148,0\C,83,1.09251,76,133.13,74,-80.3051,0\H,84,1.09304,83,110.43,76,-86.3775,0\H,84,1.09334,83,111.986,76,151.315,0\S,84,1.80659,83,100.33,76,33.6677,0\O,87,1.49773,84,103.42,83,-73.3345,0\C,87,1.80711,84,90.8485,83,-176.737,0\H,89,1.09256,87,116.057,84,176.497,0\H,89,1.09306,87,108.336,84,-67.9084,0\H,89,1.09309,87,107.437,84,58.7934,0\H,80,2.30519,79,140.092,77,13.5956,0\C,93,1.0931,80,101.315,79,-137.971,0\H,94,1.09298,93,114.87,80,-0.70531,0\H,94,1.09318,93,111.187,80,120.589,0\S,94,1.80743,93,119.493,80,-120.657,0\O,97,1.49661,94,103.84,93,64.9459,0\C,97,1.80679,94,93.8069,93,-46.1508,0\H,99,1.09273,97,106.163,94,-70.2434,0\H,99,1.09285,97,106.315,94,49.6056,0\H,99,1.09308,97,108.35,94,163.032,0\H,56,2.33289,54,144.751,53,33.1946,0\C,103,1.09292,56,121.574,54,-158.766,0\H,104,1.09289,103,117.285,56,164.393,0\H,104,1.09291,103,97.3225,56,42.5826,0\S,104,1.80693,103,108.822,56,-66.8309,0\O,107,1.49674,104,105.386,103,73.8204,0\C,107,1.80679,104,97.1495,103,-170.136,0\H,109,1.09268,107,112.299,104,-177.107,0\H,109,1.09318,107,118.238,104,62.1374,0\H,109,1.0936,107,113.877,104,-60.1342,0\H,78,2.35759,77,143.145,74,-81.8831,0\C,113,1.09285,78,157.222,77,114.241,0\H,114,1.09263,113,110.956,78,9.10012,0\H,114,1.09373,113,113.805,78,134.778,0\S,114,1.80703,113,106.769,78,-105.613,0\O,117,1.49739,114,105.246,113,-77.1219,0\C,117,1.807,114,101.255,113,30.7977,0\H,119,1.09298,117,106.31,114,-66.1907,0\H,119,1.09311,117,101.018,114,176.594,0\H,119,1.09318,117,112.541,114,60.4272,0\O,85,2.35908,84,162.582,83,-103.422,0\S,123,1.49665,85,119.34,84,-159.134,0\C,124,1.80691,123,100.66,85,-129.447,0\H,125,1.09298,124,103.568,123,-55.8748,0\H,125,1.09299,124,110.041,123,-169.485,0\H,125,1.09384,124,109.61,123,63.6183,0\C,124,1.80757,123,102.693,85,-30.7375,0\H,129,1.092,124,103.949,123,-157.981,0\H,129,1.09273,124,101.441,123,-39.4666,0\H,129,1.09316,124,111.708,123,86.5386,0\H,130,2.17613,129,142.719,124,-122.759,0\C,133,1.09275,130,120.203,129,-69.7357,0\H,134,1.09307,133,108.608,130,-124.728,0\H,134,1.09352,133,110.116,130,118.645,0\S,134,1.8067,133,109.968,130,-13.075,0\O,137,1.49625,134,103.788,133,-65.1577,0\C,137,1.80681,134,92.3843,133,-173.053,0\H,139,1.09288,137,98.6902,134,-173.784,0\H,139,1.09303,137,108.365,134,77.8084,0\H,139,1.09382,137,113.882,134,-56.7397,0\H,126,2.29188,125,130.902,124,88.2641,0\C,143,1.09349,126,136.091,125,-81.182,0\H,144,1.09271,143,103.76,126,3.48628,0\H,144,1.09317,143,120.627,126,123.033,0\S,144,1.80705,143,112.741,126,-115.975,0\O,147,1.49705,144,111.657,143,34.7617,0\C,147,1.80671,144,105.043,143,-72.8087,0\H,149,1.09223,147,104.933,144,-173.344,0\H,149,1.09288,147,111.13,144,76.0376,0\H,149,1.09356,147,111.684,144,-55.4478,0\H,151,2.30257,149,130.64,147,-148.821,0\C,153,1.09241,151,130.861,149,-9.8986,0\H,154,1.09308,153,117.901,151,72.0913,0\H,154,1.09315,153,104.621,151,-50.164,0\S,154,1.80631,153,109.224,151,-160.709,0\O,157,1.49732,154,104.493,153,-29.3394,0\C,157,1.80704,154,101.907,153,73.4372,0\H,159,1.09223,157,110.485,154,64.5396,0\H,159,1.09267,157,105.129,154,-175.31,0\H,159,1.09376,157,109.296,154,-57.5549,0\H,160,2.11798,159,123.686,157,62.1313,0\C,163,1.0935,160,136.239,159,-57.973,0\H,164,1.09265,163,107.007,160,46.0298,0\H,164,1.09299,163,114.163,160,168.474,0\S,164,1.80751,163,107.828,160,-76.6147,0\O,167,1.49661,164,102.162,163,-74.1645,0\C,167,1.80633,164,101.66,163,171.108,0\H,169,1.09272,167,102.83,164,62.0422,0\H,169,1.09302,167,111.087,164,-56.0568,0\H,169,1.09341,167,107.862,164,176.85,0\H,143,2.34805,126,74.8339,125,81.7248,0\C,173,1.0934,143,168.605,126,-52.7557,0\H,174,1.09308,173,112.248,143,-65.942,0\H,174,1.09358,173,100.827,143,170.41,0\S,174,1.80655,173,111.143,143,60.3695,0\O,177,1.49701,174,108.89,173,51.8248,0\C,177,1.80738,174,90.1692,173,155.775,0\H,179,1.09309,177,103.8,174,-62.1763,0\H,179,1.09312,177,109.532,174,51.6178,0\H,179,1.09336,177,109.138,174,173.763,0\H,181,1.95052,179,137.638,177,103.45,0\C,183,1.09313,181,146.74,179,-92.551,0\H,184,1.09321,183,112.389,181,-112.06,0\H,184,1.09332,183,102.354,181,116.006,0\S,184,1.80717,183,105.477,181,3.5472,0\O,187,1.49682,184,101.747,183,-68.6317,0\C,187,1.80752,184,93.9399,183,-169.232,0\H,189,1.0926,187,114.735,184,-53.929,0\H,189,1.09326,187,107.445,184,66.3461,0\H,189,1.09348,187,108.462,184,177.235,0\H,2,2.37306,1,109.517,3,147.066,0\C,193,1.09322,2,164.902,1,91.3736,0\H,194,1.09275,193,100.813,2,108.96,0\H,194,1.0931,193,110.701,2,-0.421698,0\S,194,1.80755,193,111.945,2,-130.767,0\O,197,1.49637,194,106.397,193,-42.2539,0\C,197,1.80687,194,92.302,193,68.0503,0\H,199,1.09276,197,107.245,194,-174.76,0\H,199,1.09278,197,106.17,194,-52.4746,0\H,199,1.0937,197,114.538,194,65.2006,0\H,138,2.37342,137,120.261,134,-14.2884,0\C,203,1.09261,138,163.42,137,-137.599,0\H,204,1.09332,203,113.137,138,155.281,0\H,204,1.09346,203,102.346,138,35.7515,0\S,204,1.80651,203,107.827,138,-83.3745,0\O,207,1.49714,204,105.028,203,96.4641,0\C,207,1.80728,204,92.9365,203,-161.022,0\H,209,1.09273,207,112.863,204,-46.5492,0\H,209,1.09333,207,103.651,204,-159.875,0\H,209,1.09344,207,113.108,204,81.2327,0\H,25,2.3952,23,127.673,22,-83.5275,0\C,213,1.09281,25,115.8,23,11.0468,0\H,214,1.09268,213,116.53,25,130.021,0\H,214,1.09369,213,109.632,25,6.01949,0\S,214,1.80694,213,115.068,25,-100.242,0\O,217,1.49723,214,102.237,213,171.466,0\C,217,1.807,214,90.2319,213,-86.4414,0\H,219,1.09266,217,109.727,214,47.8202,0\H,219,1.09288,217,109.179,214,-71.5879,0\H,219,1.09323,217,111.288,214,171.242,0\H,14,2.46447,12,144.068,11,87.2259,0\C,223,1.09303,14,121.668,12,140.691,0\H,224,1.09216,223,106.144,14,-176.459,0\H,224,1.09303,223,105.846,14,-47.1358,0\S,224,1.80743,223,101.854,14,70.3252,0\O,227,1.49727,224,100.229,223,-45.923,0\C,227,1.80726,224,101.318,223,-147.621,0\H,229,1.09273,227,106.746,224,-70.3731,0\H,229,1.09314,227,109.763,224,42.6531,0\H,229,1.09318,227,104.045,224,173.717,0\H,232,2.17822,229,148.521,227,-64.8274,0\C,233,1.09304,232,134.576,229,-173.121,0\H,234,1.09275,233,104.05,232,-65.4473,0\H,234,1.09323,233,111.597,232,176.503,0\S,234,1.8069,233,105.396,232,49.9001,0\O,237,1.49644,234,97.1563,233,-77.6864,0\C,237,1.80716,234,92.5981,233,173.65,0\H,239,1.09263,237,118.826,234,30.1148,0\H,239,1.09279,237,98.4838,234,149.499,0\H,239,1.09313,237,117.095,234,-93.9284,0\H,242,2.33018,239,139.115,237,73.47,0\C,243,1.09356,242,145.769,239,-129.066,0\H,244,1.09307,243,109.023,242,-73.4007,0\H,244,1.0939,243,113.62,242,53.7973,0\S,244,1.8062,243,101.694,242,168.958,0\O,247,1.49656,244,98.8082,243,59.2525,0\C,247,1.80705,244,87.858,243,171.631,0\H,249,1.09296,247,102.691,244,-166.808,0\H,249,1.09303,247,107.533,244,-57.2637,0\H,249,1.09331,247,107.832,244,64.5859,0\H,250,2.30983,249,111.216,247,62.0938,0\C,253,1.09276,250,122.197,249,114.47,0\H,254,1.0928,253,110.328,250,-127.991,0\H,254,1.09291,253,112.211,250,117.194,0\S,254,1.80768,253,107.98,250,-5.45105,0\O,257,1.49696,254,107.908,253,-69.4002,0\C,257,1.80753,254,88.3721,253,-171.87,0\H,259,1.09227,257,113.331,254,-47.0027,0\H,259,1.0934,257,110.37,254,81.6369,0\H,259,1.09372,257,102.679,254,-163.117,0\H,250,2.38096,249,151.257,247,-59.6185,0\C,263,1.09366,250,123.539,249,74.7838,0\H,264,1.09234,263,117.226,250,-128.086,0\H,264,1.09355,263,108.885,250,-3.05042,0\S,264,1.80699,263,108.097,250,112.36,0\O,267,1.49752,264,102.218,263,169.681,0\C,267,1.8071,264,91.5107,263,57.4699,0\H,269,1.09257,267,103.214,264,59.4297,0\H,269,1.09284,267,102.805,264,-54.1533,0\H,269,1.09361,267,114.06,264,-174.586,0\H,58,2.57858,57,93.8337,54,132.158,0\C,273,1.09304,58,118.506,57,-134.536,0\H,274,1.0929,273,105.369,58,-12.9212,0\H,274,1.09291,273,114.13,58,-131.301,0\S,274,1.80722,273,113.72,58,98.7377,0\O,277,1.4973,274,108.04,273,177.266,0\C,277,1.80632,274,96.2849,273,62.9739,0\H,279,1.09316,277,108.503,274,-151.578,0\H,279,1.09331,277,109.218,274,-37.2423,0\H,279,1.09353,277,105.623,274,90.1179,0\H,5,2.62508,3,145.351,1,171.133,0\C,283,1.09301,5,108.004,3,53.4054,0\H,284,1.09298,283,113.831,5,-86.6848,0\H,284,1.09393,283,112.274,5,158.84,0\S,284,1.80669,283,111.596,5,43.3925,0\O,287,1.49711,284,106.434,283,161.251,0\C,287,1.80687,284,96.831,283,51.9712,0\H,289,1.09225,287,107.196,284,72.4611,0\H,289,1.09289,287,113.23,284,-45.0766,0\H,289,1.09294,287,100.53,284,-169.04,0\\\@

 Total job time:  43.45s(wall), 154.24s(cpu) 
 Fri Dec  3 05:48:06 2021

        *************************************************************
        *                                                           *
        *  Thank you very much for using Q-Chem.  Have a nice day.  *
        *                                                           *
        *************************************************************


