                  Welcome to Q-Chem
     A Quantum Leap Into The Future Of Chemistry


 Q-Chem 5.2 (devel), Q-Chem, Inc., Pleasanton, CA (2019)

 Yihan Shao,  Zhengting Gan,  E. Epifanovsky,  A. T. B. Gilbert,  M. Wormit,  
 J. Kussmann,  A. W. Lange,  A. Behn,  Jia Deng,  Xintian Feng,  D. Ghosh,  
 M. Goldey,  P. R. Horn,  L. D. Jacobson,  I. Kaliman,  T. Kus,  A. Landau,  
 Jie Liu,  E. I. Proynov,  R. M. Richard,  R. P. Steele,  E. J. Sundstrom,  
 H. L. Woodcock III,  P. M. Zimmerman,  D. Zuev,  B. Alam,  B. Albrecht,  
 E. Alguire,  S. A. Baeppler,  D. Barton,  Z. Benda,  Y. A. Bernard,  
 E. J. Berquist,  K. B. Bravaya,  H. Burton,  K. Carter-Fenk,  D. Casanova,  
 Chun-Min Chang,  Yunqing Chen,  A. Chien,  K. D. Closser,  M. P. Coons,  
 S. Coriani,  S. Dasgupta,  A. L. Dempwolff,  M. Diedenhofen,  Hainam Do,  
 R. G. Edgar,  Po-Tung Fang,  S. Faraji,  S. Fatehi,  Qingguo Feng,  
 J. Fosso-Tande,  J. Gayvert,  Qinghui Ge,  A. Ghysels,  G. Gidofalvi,  
 J. Gomes,  J. Gonthier,  A. Gunina,  D. Hait,  M. W. D. Hanson-Heine,  
 P. H. P. Harbach,  A. W. Hauser,  M. F. Herbst,  J. E. Herr,  
 E. G. Hohenstein,  Z. C. Holden,  Kerwin Hui,  B. C. Huynh,  T.-C. Jagau,  
 Hyunjun Ji,  B. Kaduk,  K. Khistyaev,  Jaehoon Kim,  P. Klunzinger,  K. Koh,  
 D. Kosenkov,  L. Koulias,  T. Kowalczyk,  C. M. Krauter,  A. Kunitsa,  
 Ka Un Lao,  A. Laurent,  K. V. Lawler,  Joonho Lee,  D. Lefrancois,  
 S. Lehtola,  D. S. Levine,  Yi-Pei Li,  You-Sheng Lin,  Fenglai Liu,  
 Kuan-Yu Liu,  E. Livshits,  M. Loipersberger,  A. Luenser,  P. Manohar,  
 E. Mansoor,  S. F. Manzer,  Shan-Ping Mao,  Yuezhi Mao,  N. Mardirossian,  
 A. V. Marenich,  T. Markovich,  L. A. Martinez-Martinez,  S. A. Maurer,  
 N. J. Mayhall,  S. C. McKenzie,  J.-M. Mewes,  P. Morgante,  A. F. Morrison,  
 J. W. Mullinax,  K. Nanda,  T. S. Nguyen-Beck,  R. Olivares-Amaya,  
 J. A. Parkhill,  S. K. Paul,  F. Pavosevic,  Zheng Pei,  T. M. Perrine,  
 F. Plasser,  P. Pokhilko,  S. Prager,  A. Prociuk,  E. Ramos,  B. Rana,  
 D. R. Rehn,  F. Rob,  M. Scheurer,  M. Schneider,  N. Sergueev,  
 S. M. Sharada,  S. Sharma,  D. W. Small,  T. Stauch,  C. J. Stein,  
 T. Stein,  Yu-Chuan Su,  S. P. Veccham,  Zhen Tao,  A. J. W. Thom,  
 A. Tkatchenko,  T. Tsuchimochi,  N. M. Tubman,  L. Vogt,  M. L. Vidal,  
 O. Vydrov,  M. A. Watson,  J. Wenzel,  M. de Wergifosse,  T. A. Wesolowski,  
 A. White,  J. Witte,  A. Yamada,  Jun Yang,  K. Yao,  S. Yeganeh,  
 S. R. Yost,  Zhi-Qiang You,  A. Zech,  Igor Ying Zhang,  Xing Zhang,  
 Yan Zhao,  Ying Zhu,  B. R. Brooks,  G. K. L. Chan,  C. J. Cramer,  
 M. S. Gordon,  W. J. Hehre,  A. Klamt,  M. W. Schmidt,  C. D. Sherrill,  
 D. G. Truhlar,  A. Aspuru-Guzik,  R. Baer,  A. T. Bell,  N. A. Besley,  
 Jeng-Da Chai,  A. E. DePrince, III,  R. A. DiStasio Jr.,  A. Dreuw,  
 B. D. Dunietz,  T. R. Furlani,  Chao-Ping Hsu,  Yousung Jung,  Jing Kong,  
 D. S. Lambrecht,  WanZhen Liang,  C. Ochsenfeld,  V. A. Rassolov,  
 L. V. Slipchenko,  J. E. Subotnik,  T. Van Voorhis,  J. M. Herbert,  
 A. I. Krylov,  P. M. W. Gill,  M. Head-Gordon

 Contributors to earlier versions of Q-Chem not listed above: 
 R. D. Adamson,  B. Austin,  J. Baker,  G. J. O. Beran,  K. Brandhorst,  
 S. T. Brown,  E. F. C. Byrd,  A. K. Chakraborty,  C.-L. Cheng,  
 Siu Hung Chien,  D. M. Chipman,  D. L. Crittenden,  H. Dachsel,  
 R. J. Doerksen,  A. D. Dutoi,  L. Fusti-Molnar,  W. A. Goddard III,  
 A. Golubeva-Zadorozhnaya,  S. R. Gwaltney,  G. Hawkins,  A. Heyden,  
 S. Hirata,  G. Kedziora,  F. J. Keil,  C. Kelley,  Jihan Kim,  R. A. King,  
 R. Z. Khaliullin,  P. P. Korambath,  W. Kurlancheek,  A. M. Lee,  M. S. Lee,  
 S. V. Levchenko,  Ching Yeh Lin,  D. Liotard,  R. C. Lochan,  I. Lotan,  
 P. E. Maslen,  N. Nair,  D. P. O'Neill,  D. Neuhauser,  E. Neuscamman,  
 C. M. Oana,  R. Olson,  B. Peters,  R. Peverati,  P. A. Pieniazek,  
 Y. M. Rhee,  J. Ritchie,  M. A. Rohrdanz,  E. Rosta,  N. J. Russ,  
 H. F. Schaefer III,  N. E. Schultz,  N. Shenvi,  A. C. Simmonett,  A. Sodt,  
 D. Stuck,  K. S. Thanthiriwatte,  V. Vanovschi,  Tao Wang,  A. Warshel,  
 C. F. Williams,  Q. Wu,  X. Xu,  W. Zhang

 Please cite Q-Chem as follows:
 Y. Shao et al., Mol. Phys. 113, 184-215 (2015)
 DOI: 10.1080/00268976.2014.952696

 Q-Chem 5.2.2 for Intel X86 EM64T Linux

 Parts of Q-Chem use Armadillo 9.800.1 (Horizon Scraper).
 http://arma.sourceforge.net/

 Q-Chem begins on Fri Dec  3 08:32:45 2021  

Host: node006
0

     Scratch files written to /home/ymao90/scratch/r7.00_frame_0040_spade_B3LYP_dp20211203023735//

Checking the input file for inconsistencies... 	...done.

--------------------------------------------------------------
User input:
--------------------------------------------------------------
$molecule
0 1
--
0 1
C    23.10500   15.11500   26.76000  
C    22.23500   15.20100   28.02500  
C    22.77700   16.23600   29.02400  
C    22.79800   17.61800   28.35000  
C    23.67200   17.62200   27.08500  
C    23.32800   16.48800   26.10600  
H    22.13800   16.20400   29.91500  
H    21.28500   15.59100   27.63900  
H    24.07700   14.73700   27.10100  
H    22.62700   14.38600   26.09400  
H    21.79600   17.93900   28.04000  
H    23.15900   18.41600   29.01000  
H    23.50300   18.59900   26.61700  
H    24.71400   17.61400   27.42800  
H    22.43500   16.83100   25.56800  
H    24.15800   16.50900   25.38900  
H    23.76800   15.97000   29.41100  
N    22.06800   13.91100   28.69300  
H    22.96600   13.59800   29.04000  
C    20.86800   13.24400   28.82100  
H    20.95200   12.28500   29.36400  
O    19.74600   13.58400   28.49000  
--
0 1
C    22.51200   22.73100   21.28400  
H    23.44800   23.06800   20.83100  
H    21.66200   23.07300   20.68900  
H    22.32100   23.08100   22.30100  
S    22.43500   20.92600   21.22600  
C    22.61800   20.84700   19.43000  
H    21.91300   21.61800   19.11000  
H    23.62900   21.08600   19.08900  
H    22.35200   19.83700   19.10900  
O    20.97800   20.68500   21.47000  
C    18.65400   15.70800   25.54000  
H    18.99300   16.70900   25.81800  
H    17.59400   15.68100   25.80400  
H    19.25900   14.95800   26.05600  
S    18.93500   15.32600   23.79600  
C    18.14200   16.84700   23.22700  
H    17.97300   16.74000   22.15300  
H    17.11300   16.93300   23.58500  
H    18.75900   17.70700   23.50400  
O    18.01700   14.17300   23.53200  
C    22.81900   23.32800   29.05400  
H    22.82000   24.41900   29.12300  
H    22.43800   22.94100   28.10600  
H    22.41000   22.78900   29.91300  
S    24.57400   22.93700   29.22800  
C    24.22600   21.18800   28.93800  
H    24.96800   20.52600   29.39200  
H    23.31200   20.92700   29.47800  
H    24.12400   20.96700   27.87300  
O    24.77300   22.85200   30.71000  
C    27.67200   11.73900   24.44900  
H    27.31000   12.48500   25.16100  
H    28.63300   12.07200   24.05000  
H    27.01600   11.62800   23.58100  
S    28.03100   10.14200   25.21300  
C    29.06900   10.77100   26.55200  
H    29.85000   11.43200   26.16800  
H    28.49000   11.35300   27.27300  
H    29.57100   9.91600    27.01200  
O    29.05800   9.60100    24.26800  
C    29.87600   20.42100   30.89500  
H    28.91900   20.54200   30.38100  
H    29.68400   19.93000   31.85300  
H    30.37000   21.39500   30.85200  
S    30.91800   19.21900   30.03800  
C    29.87900   17.78000   30.37800  
H    28.95400   18.03000   29.85200  
H    30.33200   16.90700   29.90000  
H    29.80500   17.57900   31.44900  
O    32.15000   19.00000   30.86000  
C    25.19200   18.31500   31.50300  
H    25.60900   18.56900   30.52500  
H    25.22400   17.23300   31.65700  
H    24.20400   18.73500   31.70600  
S    26.18900   19.07200   32.80600  
C    26.40700   20.63600   31.92600  
H    25.42600   21.11300   31.99200  
H    27.15600   21.27600   32.40100  
H    26.63900   20.28400   30.91800  
O    27.51000   18.41100   32.56200  
C    14.63800   9.85900    29.37500  
H    15.49600   10.08700   28.73800  
H    14.78000   8.80800    29.64200  
H    13.84200   9.98200    28.63700  
S    14.64000   10.88800   30.86000  
C    14.49700   12.48500   30.02700  
H    13.56000   12.63600   29.48300  
H    14.60400   13.24600   30.80400  
H    15.38100   12.62900   29.40100  
O    16.05500   10.57100   31.23300  
C    29.62400   13.23700   34.37500  
H    29.31300   12.24400   34.71000  
H    30.71100   13.34900   34.41300  
H    29.17800   13.95700   35.06600  
S    29.11000   13.64900   32.69300  
C    29.27100   15.44600   32.77600  
H    30.34100   15.59800   32.61100  
H    28.65400   15.89600   31.99400  
H    29.03800   15.86600   33.75800  
O    27.64600   13.33200   32.69300  
C    22.56100   22.42800   33.46300  
H    23.36200   22.80000   32.81900  
H    21.60800   22.68100   32.99200  
H    22.73600   22.79300   34.47800  
S    22.55400   20.62900   33.63500  
C    21.35000   20.74800   34.97700  
H    20.51000   21.39700   34.71400  
H    20.88800   19.76100   35.06000  
H    21.81500   21.10100   35.90100  
O    23.90700   20.53300   34.26700  
C    15.26200   12.89100   24.75700  
H    15.57700   11.87900   24.48900  
H    14.24300   13.19700   24.50700  
H    15.96600   13.64300   24.39200  
S    15.25900   12.96100   26.56300  
C    16.90600   12.26400   26.81600  
H    17.13000   12.41200   27.87500  
H    16.92400   11.17400   26.73600  
H    17.62200   12.76600   26.16100  
O    14.31000   11.84400   26.86900  
C    22.88100   7.59400    30.58700  
H    22.65400   8.15700    29.67800  
H    23.45800   8.17900    31.30700  
H    23.43300   6.66500    30.42200  
S    21.21900   7.36100    31.25800  
C    21.84100   6.96500    32.90800  
H    22.54400   6.12800    32.88800  
H    22.26700   7.88000    33.32600  
H    21.00000   6.58500    33.49400  
O    20.78900   6.07600    30.62200  
C    20.61600   10.12800   21.59000  
H    21.39800   9.45100    21.94300  
H    19.81300   9.56600    21.10700  
H    21.07400   10.84800   20.90600  
S    19.94700   11.04800   22.99400  
C    21.29700   12.17800   23.40200  
H    21.07600   12.68200   24.34600  
H    22.24000   11.62600   23.41700  
H    21.36800   12.94900   22.63100  
O    19.82500   10.13900   24.17700  
C    27.49600   14.13700   27.52100  
H    28.31000   13.67000   26.96200  
H    26.57100   13.55600   27.50100  
H    27.38000   15.16500   27.16800  
S    27.97300   14.23500   29.26200  
C    26.93000   15.63600   29.72500  
H    27.20500   15.77300   30.77400  
H    27.11400   16.58900   29.22200  
H    25.89200   15.30600   29.63600  
O    29.41900   14.61400   29.19200  
C    25.01900   18.94400   23.33100  
H    25.79500   19.69900   23.48000  
H    24.12700   19.55900   23.18500  
H    24.81200   18.28100   24.17600  
S    25.59500   18.19200   21.79200  
C    25.90300   19.73000   20.89500  
H    26.98200   19.89900   20.92100  
H    25.59100   19.55800   19.86100  
H    25.29800   20.52100   21.34700  
O    24.27500   17.75100   21.24200  
C    17.45100   15.54800   29.79900  
H    17.89900   15.49500   28.80400  
H    17.26000   14.51000   30.08300  
H    16.44500   15.91800   29.58200  
S    18.37300   16.62900   30.91700  
C    17.37900   16.11200   32.33500  
H    17.91900   16.58000   33.16200  
H    16.35800   16.47300   32.18900  
H    17.37500   15.02200   32.41700  
O    17.64400   17.91500   30.68000  
C    23.02400   16.42600   34.40700  
H    23.00400   16.09400   35.44800  
H    23.54100   15.74500   33.72600  
H    23.49600   17.41200   34.39500  
S    21.39600   16.82200   33.73000  
C    20.97500   15.10700   33.34900  
H    21.48200   14.73100   32.45700  
H    21.20600   14.51000   34.23500  
H    19.90000   15.06200   33.15900  
O    21.65700   17.25700   32.32100  
C    28.57500   7.77800    30.63800  
H    28.33700   7.97500    31.68700  
H    28.37500   6.74900    30.33000  
H    29.62200   7.98400    30.40400  
S    27.60100   8.86100    29.56800  
C    28.04300   10.37200   30.45500  
H    27.77900   10.24100   31.50800  
H    29.12900   10.44500   30.35700  
H    27.52900   11.20600   29.97100  
O    26.17200   8.55400    29.89300  
C    20.79200   19.88600   30.13800  
H    21.36900   20.65000   29.61000  
H    21.28700   19.57500   31.06200  
H    20.60400   19.04800   29.46200  
S    19.23700   20.61200   30.70300  
C    18.53800   20.88200   29.05900  
H    18.52100   19.91500   28.55000  
H    17.64300   21.51000   29.07100  
H    19.25200   21.38200   28.40000  
O    19.61500   22.00900   31.08400  
C    23.26400   11.50000   31.49200  
H    23.35400   11.55400   32.58000  
H    22.41100   12.12200   31.20800  
H    23.06000   10.50000   31.10100  
S    24.71100   12.44200   30.95800  
C    24.29900   14.01400   31.74800  
H    23.26000   14.29900   31.56300  
H    24.37200   13.78500   32.81400  
H    25.03800   14.80400   31.58900  
O    24.65300   12.80000   29.50600  
C    27.10300   20.91300   26.37700  
H    26.16100   20.36000   26.42400  
H    26.97300   21.92600   26.76700  
H    27.55700   20.93600   25.38400  
S    28.19100   20.14300   27.59800  
C    28.59000   18.73400   26.54000  
H    28.88500   17.99000   27.28500  
H    27.66700   18.31300   26.13500  
H    29.32900   18.98000   25.77300  
O    27.09200   19.61000   28.46300  
C    19.04900   12.44400   31.59800  
H    19.05600   13.52500   31.43500  
H    19.59200   11.85300   30.85600  
H    18.00400   12.12200   31.57600  
S    19.76900   12.00800   33.19600  
C    18.90400   10.42600   33.32000  
H    17.85200   10.67800   33.16700  
H    19.29600   9.80000    32.51500  
H    19.03800   9.88800    34.26200  
O    19.05700   12.79300   34.25300  
C    29.46200   16.82700   23.30800  
H    29.56800   16.69300   22.22800  
H    28.68800   16.19100   23.74400  
H    29.36300   17.84600   23.68900  
S    31.08500   16.25700   23.86300  
C    30.63900   14.56300   24.30300  
H    30.06700   14.08700   23.50200  
H    31.57600   14.07200   24.58000  
H    29.90200   14.67500   25.10200  
O    30.97500   16.82900   25.24200  
C    26.94300   14.32100   19.89800  
H    27.88900   13.83000   19.65300  
H    26.22600   13.86000   19.21400  
H    27.05600   15.40800   19.88800  
S    26.70700   13.68400   21.57200  
C    25.13600   14.57700   21.59100  
H    24.43300   13.75100   21.45600  
H    24.94400   15.10400   22.52900  
H    25.07700   15.31800   20.79000  
O    27.60800   14.58000   22.36300  
C    25.48900   24.26200   25.53400  
H    26.40900   24.13800   24.95700  
H    25.22900   25.30800   25.35000  
H    25.54400   24.14400   26.61900  
S    24.17200   23.27900   24.78200  
C    22.86200   24.33100   25.44500  
H    22.98800   25.34800   25.06400  
H    21.87100   23.97800   25.15000  
H    22.82600   24.22000   26.53200  
O    24.16700   22.06800   25.66200  
C    18.16800   8.04300    29.64500  
H    18.23800   8.31200    30.70200  
H    17.12700   7.91400    29.33900  
H    18.64500   7.07200    29.48900  
S    18.92000   9.45000    28.79700  
C    19.60600   8.52300    27.40500  
H    18.83000   7.97700    26.86300  
H    20.17700   9.11800    26.68800  
H    20.22500   7.73600    27.84200  
O    20.12500   9.78100    29.62200  
C    25.91800   14.26200   35.47200  
H    25.45000   15.19000   35.81000  
H    26.90100   14.08100   35.91300  
H    25.93200   14.35500   34.38300  
S    24.85200   12.84100   35.80100  
C    25.79600   11.73200   34.73100  
H    26.79400   11.81300   35.16800  
H    25.39200   10.71900   34.64800  
H    25.71900   12.25700   33.77600  
O    23.58800   13.20300   35.08400  
C    21.19500   20.91900   25.90300  
H    21.68800   21.62400   25.22900  
H    20.54000   21.48500   26.57000  
H    21.89800   20.44900   26.59600  
S    20.14300   19.85200   24.89300  
C    19.10000   21.11900   24.13700  
H    18.57500   20.60100   23.33000  
H    18.38200   21.36700   24.92300  
H    19.58800   21.97600   23.66600  
O    19.19500   19.32400   25.92400  
C    24.75300   10.03000   27.52900  
H    24.08700   9.46700    28.18800  
H    25.32500   9.45700    26.79600  
H    25.50200   10.51800   28.15800  
S    24.02200   11.33300   26.51300  
C    22.35500   10.63700   26.50600  
H    22.43600   9.83800    25.76500  
H    22.11100   10.26600   27.50400  
H    21.66600   11.41600   26.16900  
O    24.44400   10.87500   25.15100  
C    20.44700   17.34500   17.97700  
H    19.61600   17.42100   17.27100  
H    21.26000   18.06100   17.83800  
H    20.71400   16.30800   17.75700  
S    19.78300   17.49400   19.65100  
C    21.03000   16.49100   20.48900  
H    21.25000   15.67300   19.79800  
H    21.98100   17.02400   20.57300  
H    20.58700   16.11300   21.41400  
O    18.52400   16.68700   19.58100  
$end

$rem
JOBTYPE  SP
METHOD  B3LYP
BASIS  6-31+G(D)
SYMMETRY  FALSE
SYM_IGNORE  TRUE
MEM_TOTAL  16000
MEM_STATIC  8000
MAX_SUB_FILE_NUM  16000
BASIS_LIN_DEP_THRESH  6
THRESH  14
SCF_CONVERGENCE  8
GEN_SCFMAN  TRUE
SCF_GUESS  SAD
FD_MAT_VEC_PROD  FALSE
XC_GRID  000075000302
NL_GRID  1
MAX_SCF_CYCLES  200
ENV_METHOD  B3LYP
GEN_SCFMAN_EMBED  TRUE
SPADE_PARTITION  TRUE
$end

$development
embedding_early_stop  1
$end

--------------------------------------------------------------
 ----------------------------------------------------------------
             Standard Nuclear Orientation (Angstroms)
    I     Atom           X                Y                Z
 ----------------------------------------------------------------
    1      C      23.1050000000    15.1150000000    26.7600000000
    2      C      22.2350000000    15.2010000000    28.0250000000
    3      C      22.7770000000    16.2360000000    29.0240000000
    4      C      22.7980000000    17.6180000000    28.3500000000
    5      C      23.6720000000    17.6220000000    27.0850000000
    6      C      23.3280000000    16.4880000000    26.1060000000
    7      H      22.1380000000    16.2040000000    29.9150000000
    8      H      21.2850000000    15.5910000000    27.6390000000
    9      H      24.0770000000    14.7370000000    27.1010000000
   10      H      22.6270000000    14.3860000000    26.0940000000
   11      H      21.7960000000    17.9390000000    28.0400000000
   12      H      23.1590000000    18.4160000000    29.0100000000
   13      H      23.5030000000    18.5990000000    26.6170000000
   14      H      24.7140000000    17.6140000000    27.4280000000
   15      H      22.4350000000    16.8310000000    25.5680000000
   16      H      24.1580000000    16.5090000000    25.3890000000
   17      H      23.7680000000    15.9700000000    29.4110000000
   18      N      22.0680000000    13.9110000000    28.6930000000
   19      H      22.9660000000    13.5980000000    29.0400000000
   20      C      20.8680000000    13.2440000000    28.8210000000
   21      H      20.9520000000    12.2850000000    29.3640000000
   22      O      19.7460000000    13.5840000000    28.4900000000
   23      C      22.5120000000    22.7310000000    21.2840000000
   24      H      23.4480000000    23.0680000000    20.8310000000
   25      H      21.6620000000    23.0730000000    20.6890000000
   26      H      22.3210000000    23.0810000000    22.3010000000
   27      S      22.4350000000    20.9260000000    21.2260000000
   28      C      22.6180000000    20.8470000000    19.4300000000
   29      H      21.9130000000    21.6180000000    19.1100000000
   30      H      23.6290000000    21.0860000000    19.0890000000
   31      H      22.3520000000    19.8370000000    19.1090000000
   32      O      20.9780000000    20.6850000000    21.4700000000
   33      C      18.6540000000    15.7080000000    25.5400000000
   34      H      18.9930000000    16.7090000000    25.8180000000
   35      H      17.5940000000    15.6810000000    25.8040000000
   36      H      19.2590000000    14.9580000000    26.0560000000
   37      S      18.9350000000    15.3260000000    23.7960000000
   38      C      18.1420000000    16.8470000000    23.2270000000
   39      H      17.9730000000    16.7400000000    22.1530000000
   40      H      17.1130000000    16.9330000000    23.5850000000
   41      H      18.7590000000    17.7070000000    23.5040000000
   42      O      18.0170000000    14.1730000000    23.5320000000
   43      C      22.8190000000    23.3280000000    29.0540000000
   44      H      22.8200000000    24.4190000000    29.1230000000
   45      H      22.4380000000    22.9410000000    28.1060000000
   46      H      22.4100000000    22.7890000000    29.9130000000
   47      S      24.5740000000    22.9370000000    29.2280000000
   48      C      24.2260000000    21.1880000000    28.9380000000
   49      H      24.9680000000    20.5260000000    29.3920000000
   50      H      23.3120000000    20.9270000000    29.4780000000
   51      H      24.1240000000    20.9670000000    27.8730000000
   52      O      24.7730000000    22.8520000000    30.7100000000
   53      C      27.6720000000    11.7390000000    24.4490000000
   54      H      27.3100000000    12.4850000000    25.1610000000
   55      H      28.6330000000    12.0720000000    24.0500000000
   56      H      27.0160000000    11.6280000000    23.5810000000
   57      S      28.0310000000    10.1420000000    25.2130000000
   58      C      29.0690000000    10.7710000000    26.5520000000
   59      H      29.8500000000    11.4320000000    26.1680000000
   60      H      28.4900000000    11.3530000000    27.2730000000
   61      H      29.5710000000     9.9160000000    27.0120000000
   62      O      29.0580000000     9.6010000000    24.2680000000
   63      C      29.8760000000    20.4210000000    30.8950000000
   64      H      28.9190000000    20.5420000000    30.3810000000
   65      H      29.6840000000    19.9300000000    31.8530000000
   66      H      30.3700000000    21.3950000000    30.8520000000
   67      S      30.9180000000    19.2190000000    30.0380000000
   68      C      29.8790000000    17.7800000000    30.3780000000
   69      H      28.9540000000    18.0300000000    29.8520000000
   70      H      30.3320000000    16.9070000000    29.9000000000
   71      H      29.8050000000    17.5790000000    31.4490000000
   72      O      32.1500000000    19.0000000000    30.8600000000
   73      C      25.1920000000    18.3150000000    31.5030000000
   74      H      25.6090000000    18.5690000000    30.5250000000
   75      H      25.2240000000    17.2330000000    31.6570000000
   76      H      24.2040000000    18.7350000000    31.7060000000
   77      S      26.1890000000    19.0720000000    32.8060000000
   78      C      26.4070000000    20.6360000000    31.9260000000
   79      H      25.4260000000    21.1130000000    31.9920000000
   80      H      27.1560000000    21.2760000000    32.4010000000
   81      H      26.6390000000    20.2840000000    30.9180000000
   82      O      27.5100000000    18.4110000000    32.5620000000
   83      C      14.6380000000     9.8590000000    29.3750000000
   84      H      15.4960000000    10.0870000000    28.7380000000
   85      H      14.7800000000     8.8080000000    29.6420000000
   86      H      13.8420000000     9.9820000000    28.6370000000
   87      S      14.6400000000    10.8880000000    30.8600000000
   88      C      14.4970000000    12.4850000000    30.0270000000
   89      H      13.5600000000    12.6360000000    29.4830000000
   90      H      14.6040000000    13.2460000000    30.8040000000
   91      H      15.3810000000    12.6290000000    29.4010000000
   92      O      16.0550000000    10.5710000000    31.2330000000
   93      C      29.6240000000    13.2370000000    34.3750000000
   94      H      29.3130000000    12.2440000000    34.7100000000
   95      H      30.7110000000    13.3490000000    34.4130000000
   96      H      29.1780000000    13.9570000000    35.0660000000
   97      S      29.1100000000    13.6490000000    32.6930000000
   98      C      29.2710000000    15.4460000000    32.7760000000
   99      H      30.3410000000    15.5980000000    32.6110000000
  100      H      28.6540000000    15.8960000000    31.9940000000
  101      H      29.0380000000    15.8660000000    33.7580000000
  102      O      27.6460000000    13.3320000000    32.6930000000
  103      C      22.5610000000    22.4280000000    33.4630000000
  104      H      23.3620000000    22.8000000000    32.8190000000
  105      H      21.6080000000    22.6810000000    32.9920000000
  106      H      22.7360000000    22.7930000000    34.4780000000
  107      S      22.5540000000    20.6290000000    33.6350000000
  108      C      21.3500000000    20.7480000000    34.9770000000
  109      H      20.5100000000    21.3970000000    34.7140000000
  110      H      20.8880000000    19.7610000000    35.0600000000
  111      H      21.8150000000    21.1010000000    35.9010000000
  112      O      23.9070000000    20.5330000000    34.2670000000
  113      C      15.2620000000    12.8910000000    24.7570000000
  114      H      15.5770000000    11.8790000000    24.4890000000
  115      H      14.2430000000    13.1970000000    24.5070000000
  116      H      15.9660000000    13.6430000000    24.3920000000
  117      S      15.2590000000    12.9610000000    26.5630000000
  118      C      16.9060000000    12.2640000000    26.8160000000
  119      H      17.1300000000    12.4120000000    27.8750000000
  120      H      16.9240000000    11.1740000000    26.7360000000
  121      H      17.6220000000    12.7660000000    26.1610000000
  122      O      14.3100000000    11.8440000000    26.8690000000
  123      C      22.8810000000     7.5940000000    30.5870000000
  124      H      22.6540000000     8.1570000000    29.6780000000
  125      H      23.4580000000     8.1790000000    31.3070000000
  126      H      23.4330000000     6.6650000000    30.4220000000
  127      S      21.2190000000     7.3610000000    31.2580000000
  128      C      21.8410000000     6.9650000000    32.9080000000
  129      H      22.5440000000     6.1280000000    32.8880000000
  130      H      22.2670000000     7.8800000000    33.3260000000
  131      H      21.0000000000     6.5850000000    33.4940000000
  132      O      20.7890000000     6.0760000000    30.6220000000
  133      C      20.6160000000    10.1280000000    21.5900000000
  134      H      21.3980000000     9.4510000000    21.9430000000
  135      H      19.8130000000     9.5660000000    21.1070000000
  136      H      21.0740000000    10.8480000000    20.9060000000
  137      S      19.9470000000    11.0480000000    22.9940000000
  138      C      21.2970000000    12.1780000000    23.4020000000
  139      H      21.0760000000    12.6820000000    24.3460000000
  140      H      22.2400000000    11.6260000000    23.4170000000
  141      H      21.3680000000    12.9490000000    22.6310000000
  142      O      19.8250000000    10.1390000000    24.1770000000
  143      C      27.4960000000    14.1370000000    27.5210000000
  144      H      28.3100000000    13.6700000000    26.9620000000
  145      H      26.5710000000    13.5560000000    27.5010000000
  146      H      27.3800000000    15.1650000000    27.1680000000
  147      S      27.9730000000    14.2350000000    29.2620000000
  148      C      26.9300000000    15.6360000000    29.7250000000
  149      H      27.2050000000    15.7730000000    30.7740000000
  150      H      27.1140000000    16.5890000000    29.2220000000
  151      H      25.8920000000    15.3060000000    29.6360000000
  152      O      29.4190000000    14.6140000000    29.1920000000
  153      C      25.0190000000    18.9440000000    23.3310000000
  154      H      25.7950000000    19.6990000000    23.4800000000
  155      H      24.1270000000    19.5590000000    23.1850000000
  156      H      24.8120000000    18.2810000000    24.1760000000
  157      S      25.5950000000    18.1920000000    21.7920000000
  158      C      25.9030000000    19.7300000000    20.8950000000
  159      H      26.9820000000    19.8990000000    20.9210000000
  160      H      25.5910000000    19.5580000000    19.8610000000
  161      H      25.2980000000    20.5210000000    21.3470000000
  162      O      24.2750000000    17.7510000000    21.2420000000
  163      C      17.4510000000    15.5480000000    29.7990000000
  164      H      17.8990000000    15.4950000000    28.8040000000
  165      H      17.2600000000    14.5100000000    30.0830000000
  166      H      16.4450000000    15.9180000000    29.5820000000
  167      S      18.3730000000    16.6290000000    30.9170000000
  168      C      17.3790000000    16.1120000000    32.3350000000
  169      H      17.9190000000    16.5800000000    33.1620000000
  170      H      16.3580000000    16.4730000000    32.1890000000
  171      H      17.3750000000    15.0220000000    32.4170000000
  172      O      17.6440000000    17.9150000000    30.6800000000
  173      C      23.0240000000    16.4260000000    34.4070000000
  174      H      23.0040000000    16.0940000000    35.4480000000
  175      H      23.5410000000    15.7450000000    33.7260000000
  176      H      23.4960000000    17.4120000000    34.3950000000
  177      S      21.3960000000    16.8220000000    33.7300000000
  178      C      20.9750000000    15.1070000000    33.3490000000
  179      H      21.4820000000    14.7310000000    32.4570000000
  180      H      21.2060000000    14.5100000000    34.2350000000
  181      H      19.9000000000    15.0620000000    33.1590000000
  182      O      21.6570000000    17.2570000000    32.3210000000
  183      C      28.5750000000     7.7780000000    30.6380000000
  184      H      28.3370000000     7.9750000000    31.6870000000
  185      H      28.3750000000     6.7490000000    30.3300000000
  186      H      29.6220000000     7.9840000000    30.4040000000
  187      S      27.6010000000     8.8610000000    29.5680000000
  188      C      28.0430000000    10.3720000000    30.4550000000
  189      H      27.7790000000    10.2410000000    31.5080000000
  190      H      29.1290000000    10.4450000000    30.3570000000
  191      H      27.5290000000    11.2060000000    29.9710000000
  192      O      26.1720000000     8.5540000000    29.8930000000
  193      C      20.7920000000    19.8860000000    30.1380000000
  194      H      21.3690000000    20.6500000000    29.6100000000
  195      H      21.2870000000    19.5750000000    31.0620000000
  196      H      20.6040000000    19.0480000000    29.4620000000
  197      S      19.2370000000    20.6120000000    30.7030000000
  198      C      18.5380000000    20.8820000000    29.0590000000
  199      H      18.5210000000    19.9150000000    28.5500000000
  200      H      17.6430000000    21.5100000000    29.0710000000
  201      H      19.2520000000    21.3820000000    28.4000000000
  202      O      19.6150000000    22.0090000000    31.0840000000
  203      C      23.2640000000    11.5000000000    31.4920000000
  204      H      23.3540000000    11.5540000000    32.5800000000
  205      H      22.4110000000    12.1220000000    31.2080000000
  206      H      23.0600000000    10.5000000000    31.1010000000
  207      S      24.7110000000    12.4420000000    30.9580000000
  208      C      24.2990000000    14.0140000000    31.7480000000
  209      H      23.2600000000    14.2990000000    31.5630000000
  210      H      24.3720000000    13.7850000000    32.8140000000
  211      H      25.0380000000    14.8040000000    31.5890000000
  212      O      24.6530000000    12.8000000000    29.5060000000
  213      C      27.1030000000    20.9130000000    26.3770000000
  214      H      26.1610000000    20.3600000000    26.4240000000
  215      H      26.9730000000    21.9260000000    26.7670000000
  216      H      27.5570000000    20.9360000000    25.3840000000
  217      S      28.1910000000    20.1430000000    27.5980000000
  218      C      28.5900000000    18.7340000000    26.5400000000
  219      H      28.8850000000    17.9900000000    27.2850000000
  220      H      27.6670000000    18.3130000000    26.1350000000
  221      H      29.3290000000    18.9800000000    25.7730000000
  222      O      27.0920000000    19.6100000000    28.4630000000
  223      C      19.0490000000    12.4440000000    31.5980000000
  224      H      19.0560000000    13.5250000000    31.4350000000
  225      H      19.5920000000    11.8530000000    30.8560000000
  226      H      18.0040000000    12.1220000000    31.5760000000
  227      S      19.7690000000    12.0080000000    33.1960000000
  228      C      18.9040000000    10.4260000000    33.3200000000
  229      H      17.8520000000    10.6780000000    33.1670000000
  230      H      19.2960000000     9.8000000000    32.5150000000
  231      H      19.0380000000     9.8880000000    34.2620000000
  232      O      19.0570000000    12.7930000000    34.2530000000
  233      C      29.4620000000    16.8270000000    23.3080000000
  234      H      29.5680000000    16.6930000000    22.2280000000
  235      H      28.6880000000    16.1910000000    23.7440000000
  236      H      29.3630000000    17.8460000000    23.6890000000
  237      S      31.0850000000    16.2570000000    23.8630000000
  238      C      30.6390000000    14.5630000000    24.3030000000
  239      H      30.0670000000    14.0870000000    23.5020000000
  240      H      31.5760000000    14.0720000000    24.5800000000
  241      H      29.9020000000    14.6750000000    25.1020000000
  242      O      30.9750000000    16.8290000000    25.2420000000
  243      C      26.9430000000    14.3210000000    19.8980000000
  244      H      27.8890000000    13.8300000000    19.6530000000
  245      H      26.2260000000    13.8600000000    19.2140000000
  246      H      27.0560000000    15.4080000000    19.8880000000
  247      S      26.7070000000    13.6840000000    21.5720000000
  248      C      25.1360000000    14.5770000000    21.5910000000
  249      H      24.4330000000    13.7510000000    21.4560000000
  250      H      24.9440000000    15.1040000000    22.5290000000
  251      H      25.0770000000    15.3180000000    20.7900000000
  252      O      27.6080000000    14.5800000000    22.3630000000
  253      C      25.4890000000    24.2620000000    25.5340000000
  254      H      26.4090000000    24.1380000000    24.9570000000
  255      H      25.2290000000    25.3080000000    25.3500000000
  256      H      25.5440000000    24.1440000000    26.6190000000
  257      S      24.1720000000    23.2790000000    24.7820000000
  258      C      22.8620000000    24.3310000000    25.4450000000
  259      H      22.9880000000    25.3480000000    25.0640000000
  260      H      21.8710000000    23.9780000000    25.1500000000
  261      H      22.8260000000    24.2200000000    26.5320000000
  262      O      24.1670000000    22.0680000000    25.6620000000
  263      C      18.1680000000     8.0430000000    29.6450000000
  264      H      18.2380000000     8.3120000000    30.7020000000
  265      H      17.1270000000     7.9140000000    29.3390000000
  266      H      18.6450000000     7.0720000000    29.4890000000
  267      S      18.9200000000     9.4500000000    28.7970000000
  268      C      19.6060000000     8.5230000000    27.4050000000
  269      H      18.8300000000     7.9770000000    26.8630000000
  270      H      20.1770000000     9.1180000000    26.6880000000
  271      H      20.2250000000     7.7360000000    27.8420000000
  272      O      20.1250000000     9.7810000000    29.6220000000
  273      C      25.9180000000    14.2620000000    35.4720000000
  274      H      25.4500000000    15.1900000000    35.8100000000
  275      H      26.9010000000    14.0810000000    35.9130000000
  276      H      25.9320000000    14.3550000000    34.3830000000
  277      S      24.8520000000    12.8410000000    35.8010000000
  278      C      25.7960000000    11.7320000000    34.7310000000
  279      H      26.7940000000    11.8130000000    35.1680000000
  280      H      25.3920000000    10.7190000000    34.6480000000
  281      H      25.7190000000    12.2570000000    33.7760000000
  282      O      23.5880000000    13.2030000000    35.0840000000
  283      C      21.1950000000    20.9190000000    25.9030000000
  284      H      21.6880000000    21.6240000000    25.2290000000
  285      H      20.5400000000    21.4850000000    26.5700000000
  286      H      21.8980000000    20.4490000000    26.5960000000
  287      S      20.1430000000    19.8520000000    24.8930000000
  288      C      19.1000000000    21.1190000000    24.1370000000
  289      H      18.5750000000    20.6010000000    23.3300000000
  290      H      18.3820000000    21.3670000000    24.9230000000
  291      H      19.5880000000    21.9760000000    23.6660000000
  292      O      19.1950000000    19.3240000000    25.9240000000
  293      C      24.7530000000    10.0300000000    27.5290000000
  294      H      24.0870000000     9.4670000000    28.1880000000
  295      H      25.3250000000     9.4570000000    26.7960000000
  296      H      25.5020000000    10.5180000000    28.1580000000
  297      S      24.0220000000    11.3330000000    26.5130000000
  298      C      22.3550000000    10.6370000000    26.5060000000
  299      H      22.4360000000     9.8380000000    25.7650000000
  300      H      22.1110000000    10.2660000000    27.5040000000
  301      H      21.6660000000    11.4160000000    26.1690000000
  302      O      24.4440000000    10.8750000000    25.1510000000
  303      C      20.4470000000    17.3450000000    17.9770000000
  304      H      19.6160000000    17.4210000000    17.2710000000
  305      H      21.2600000000    18.0610000000    17.8380000000
  306      H      20.7140000000    16.3080000000    17.7570000000
  307      S      19.7830000000    17.4940000000    19.6510000000
  308      C      21.0300000000    16.4910000000    20.4890000000
  309      H      21.2500000000    15.6730000000    19.7980000000
  310      H      21.9810000000    17.0240000000    20.5730000000
  311      H      20.5870000000    16.1130000000    21.4140000000
  312      O      18.5240000000    16.6870000000    19.5810000000
 ----------------------------------------------------------------
 Nuclear Repulsion Energy =       53972.13208440 hartrees
 There are      644 alpha and      644 beta electrons
 Requested basis set is 6-31+G(d)
 There are 1028 shells and 2865 basis functions

 Total QAlloc Memory Limit  16000 MB
 Mega-Array Size      7821 MB
 MEM_STATIC part      8000 MB
 A cutoff of  1.0D-14 yielded 196029 shell pairs
 There are   1704737 function pairs
 Smallest overlap matrix eigenvalue = 4.73E-07
 Linear dependence detected in AO basis
 Tighter screening thresholds may be required for diffuse basis sets
 Use S2THRESH > 14 and THRESH = 14 in case of SCF convergence issues
 Number of orthogonalized atomic orbitals = 2863
 Maximum deviation from orthogonality = 1.161E-10

 Scale SEOQF with 1.000000e-03/1.000000e-03/1.000000e-03

 Standard Electronic Orientation quadrupole field applied
 Nucleus-field energy     =    -0.0000006150 hartrees
 Guess from superposition of atomic densities
 Warning:  Energy on first SCF cycle will be non-variational
 SAD guess density has 1288.000002 electrons

 -----------------------------------------------------------------------
  General SCF calculation program by
  Eric Jon Sundstrom, Paul Horn, Yuezhi Mao, Dmitri Zuev, Alec White,
  David Stuck, Shaama M.S., Shane Yost, Joonho Lee, David Small,
  Daniel Levine, Susi Lehtola, Hugh Burton, Evgeny Epifanovsky,
  Bang C. Huynh
 -----------------------------------------------------------------------
=================================================
        Doing projection-based embedding         
      F. Manby et al. JCTC, 8, 2564 (2012)       
=================================================

****************************************************
   Low-level SCF calculation for the whole system   
****************************************************
----------------------------------------------
 Summary of the low-level theory: 
 Exchange:     0.2000 Hartree-Fock + 0.0800 Slater + 0.7200 B88
 Correlation:  0.1900 VWN1RPA + 0.8100 LYP
 Using Euler-Maclaurin-Lebedev (75,302) quadrature formula
----------------------------------------------
 using 16 threads for integral computing
 -------------------------------------------------------
 OpenMP Integral computing Module                
 Release: version 2.0, May 2017, Q-Chem Inc. Pleasanton 
 -------------------------------------------------------
 A restricted SCF calculation will be
 performed using DIIS
 SCF converges when DIIS error is below 1.0e-08
 ---------------------------------------
  Cycle       Energy         DIIS error
 ---------------------------------------
    1  -16467.6478412148      1.31e-02  
    2  -16441.8596114098      2.43e-03  
    3  -16424.3846597932      4.82e-03  
    4  -16443.3648900276      1.47e-03  
    5  -16445.1689127702      9.24e-04  
    6  -16446.9677462561      3.48e-04  
    7  -16447.0324149907      2.44e-04  
    8  -16447.0783312577      1.05e-04  
    9  -16447.0874902906      5.67e-05  
   10  -16447.0903358088      2.45e-05  
   11  -16447.0910658639      9.99e-06  
   12  -16447.0911565081      3.27e-06  
   13  -16447.0911652239      1.29e-06  
   14  -16447.0911665436      4.01e-07  
   15  -16447.0911666833      1.09e-07  
   16  -16447.0911666923      5.11e-08  
   17  -16447.0911666942      1.59e-08  
   18  -16447.0911666944      5.47e-09  Convergence criterion met
 ---------------------------------------
 SCF time:   CPU 275362.57s  wall 17397.00s 
 SCF   energy in the final basis set =   -16447.0911666944
 Total energy in the final basis set =   -16447.0911666944

****************************************************
             Start embedding calculation            
****************************************************
----------------------------------------------
 Summary of the high-level theory: 
 Exchange:     0.2000 Hartree-Fock + 0.0800 Slater + 0.7200 B88
 Correlation:  0.1900 VWN1RPA + 0.8100 LYP
 Using Euler-Maclaurin-Lebedev (75,302) quadrature formula
----------------------------------------------
Doing R-in-R Embedding Calculation
Number of fragments: 2
Embedded fragment(s): 1 
NOcc for each fragment
           35
          609
NBasis for each fragment
          197
         2668
Variational space of the embedded problem: 
NOcc (active)  = 35
NOcc (fixed)   = 609
NVir (total)   = 2219
Read converged orbitals from disk
=========================================================
       Doing SPADE partition for the orbital space       
     D. CLaudino and N. Mayhall JCTC 15, 1053 (2019)     
=========================================================
SPADE singular values:
 1.0000 1.0000 1.0000 1.0000 1.0000 1.0000 1.0000 1.0000 1.0000 0.9999
 0.9998 0.9998 0.9997 0.9997 0.9996 0.9995 0.9994 0.9991 0.9990 0.9980
 0.9974 0.9972 0.9969 0.9966 0.9960 0.9959 0.9953 0.9946 0.9940 0.9935
 0.9922 0.9912 0.9895 0.9863 0.9797 0.2194 0.1719 0.1603 0.1515 0.1461
 0.1378 0.1302 0.1123 0.1105 0.0985 0.0918 0.0799 0.0722 0.0677 0.0652
 0.0544 0.0523 0.0501 0.0458 0.0431 0.0389 0.0340 0.0328 0.0312 0.0311
 0.0277 0.0259 0.0245 0.0228 0.0225 0.0212 0.0201 0.0185 0.0165 0.0158
 0.0151 0.0144 0.0137 0.0125 0.0119 0.0103 0.0102 0.0097 0.0094 0.0089
 0.0089 0.0080 0.0078 0.0077 0.0071 0.0069 0.0065 0.0064 0.0059 0.0057
 0.0055 0.0053 0.0048 0.0046 0.0043 0.0042 0.0040 0.0040 0.0038 0.0034
 0.0032 0.0031 0.0029 0.0027 0.0027 0.0025 0.0024 0.0024 0.0022 0.0021
 0.0021 0.0019 0.0018 0.0017 0.0017 0.0016 0.0016 0.0015 0.0015 0.0015
 0.0014 0.0014 0.0013 0.0013 0.0012 0.0011 0.0011 0.0011 0.0011 0.0011
 0.0010 0.0010 0.0009 0.0009 0.0009 0.0008 0.0008 0.0008 0.0007 0.0007
 0.0007 0.0007 0.0006 0.0006 0.0006 0.0006 0.0005 0.0005 0.0005 0.0005
 0.0004 0.0004 0.0004 0.0004 0.0004 0.0004 0.0004 0.0003 0.0003 0.0003
 0.0003 0.0003 0.0003 0.0003 0.0002 0.0002 0.0002 0.0002 0.0002 0.0002
 0.0002 0.0002 0.0002 0.0002 0.0002 0.0002 0.0002 0.0001 0.0001 0.0001
 0.0001 0.0001 0.0001 0.0001 0.0001 0.0001 0.0001 0.0001 0.0001 0.0001
 0.0001 0.0001 0.0001 0.0001 0.0001 0.0001 0.0001
Early stop requested!
609 environment occs will be part of frozen-core in future post-HF calculations
 
 --------------------------------------------------------------
 
                    Orbital Energies (a.u.)
 --------------------------------------------------------------
 
 Alpha MOs
 -- Occupied --
 -0.4752  -0.4973  -0.5232  -0.4937  -0.4619  -0.4909  -0.4686  -0.4402
 -0.4929  -0.4947  -0.4660  -0.4617  -0.4501  -0.4571  -0.4401  -0.4692
 -0.4640  -0.4556  -0.5816  -0.4651  -0.4591  -0.5162  -0.4612  -0.5240
 -0.4816  -0.4588  -0.5513  -0.4869  -0.4911  -0.4764  -0.5004  -0.5261
 -0.4921  -0.5271  -0.5531  -0.5284  -0.4752  -0.5763  -0.5543  -0.6643
 -0.5732  -0.5791  -0.5547  -0.5459  -0.5489  -0.6168  -0.5028  -0.5655
 -0.6071  -0.5486  -0.5397  -0.6609  -0.6160  -0.5699  -0.5783  -0.6006
 -0.6485  -0.7457  -0.7033  -0.6515  -0.7312  -0.7933  -0.6279  -0.6323
 -0.8714  -0.8119  -0.6114  -0.7150  -0.7809  -0.9175  -0.9451  -1.0106
 -0.9243  -0.7368  -1.0882  -0.8365  -0.8249  -0.7626  -0.8356  -0.9158
 -0.6954  -0.9524  -0.9473  -0.8422  -0.8614  -0.8368  -0.8385  -0.7982
 -0.9895  -0.9710  -0.8956  -1.1441  -1.7053  -0.7275  -1.5595  -1.0745
 -1.0589  -1.4045  -1.2858  -2.2922  -1.3771  -1.2364  -0.9127  -1.0182
 -1.5857  -1.5608  -1.1686  -1.0169  -1.3740  -0.8566  -1.9712  -1.1998
 -1.2538  -0.9906  -1.5661  -1.0003  -1.1534  -1.1970  -1.0695  -1.0500
 -1.2564  -1.2023  -1.1544  -1.2010  -1.1686  -1.2007  -1.0789  -1.1713
 -1.2321  -1.5478  -1.2943  -1.1984  -0.9460  -1.3669  -1.2744  -1.3540
 -1.4468  -0.9160  -1.3351  -1.5406  -1.4644  -2.0307  -1.5172  -2.0037
 -1.3450  -1.3671  -1.7792  -0.9614  -1.3897  -1.6043  -1.1609  -1.5612
 -1.5578  -1.5854  -1.5955  -1.8888  -1.7223  -1.8693  -1.5963  -2.0263
 -1.9126  -1.9194  -5.9991  -5.9877  -5.9980  -5.9336  -5.9188  -5.8904
 -5.9669  -5.9213  -5.9533  -5.9945  -5.9948  -5.9689  -5.9975  -5.9999
 -5.9922  -5.9720  -5.9904  -5.9838  -5.9896  -5.9821  -5.8455  -5.9141
 -5.9486  -5.9838  -5.9829  -5.9199  -5.9312  -5.9726  -5.9374  -5.9507
 -5.9146  -5.8733  -6.3716  -5.9631  -5.9635  -6.0324  -5.9455  -5.9824
 -5.9713  -5.9607  -5.9665  -5.9703  -5.9644  -5.9630  -4.6839  -2.3845
 -4.5366 -26.5907  -2.3807  -4.9852 -39.7483 -10.1254  -2.2531  -4.2771
 -2.3205  -1.7473  -1.6046  -5.9094 -12.0188  -4.2426  -5.0243  -1.5216
 -1.4325  -1.9255  -3.0435  -5.4646  -1.3648 -16.2543  -2.3395  -2.5848
 -3.0076  -7.8709  -4.4707  -1.5208 -76.1716  -5.3113  -2.4497  -9.4569
-82.5030  -3.7020 -11.8530  -4.4070  -1.4054  -5.2027  -1.9104 -11.1191
 -9.2231  -1.1353 -19.4508  -8.9582  -7.0164  -1.5381  -8.0451  -1.5824
 -1.2155  -4.6345  -1.5940  -2.3768  -6.4253  -4.7721 -15.4683  -3.6522
-10.5969  -7.7476  -1.5569  -1.7486  -2.8144  -8.4646 -78.6779 -76.5632
 -6.6152 -10.9068  -4.0922  -5.3976  -3.7184  -1.8721  -1.5550  -1.3278
-10.3389  -8.3044  -8.6865  -1.2341  -1.5270 -11.2790  -7.4606  -1.5701
 -1.9766  -5.4894  -7.1294 -10.3646  -4.1994  -8.5611  -2.5012  -5.6609
 -7.5501  -2.7475  -4.1719  -4.2124  -4.7524 -65.4647 -67.9693  -5.5288
 -9.7186 -22.9352  -6.4938  -2.7868  -8.6513  -1.0448  -1.7647  -1.9145
-11.0269  -7.4498  -4.0054  -5.0476  -4.4335  -6.6984  -7.1121  -4.3234
 -1.9569  -1.9167  -4.4644 -57.0146 -22.1160 -11.1855  -6.0963  -3.7557
 -6.1973  -2.8873 -64.8374  -6.6932 -58.4928  -3.6717  -6.3211  -2.9895
 -2.9661  -1.7618  -1.1223  -3.0657  -3.2656  -8.5335  -6.0470 -14.0271
-14.6306 -13.7870 -16.3935 -14.9831  -4.9849 -17.9095 -13.8245  -6.5288
 -5.4147  -6.1880  -1.5817  -5.9653  -4.7778  -6.0076 -11.6843  -6.2751
-15.1950  -6.2232 -10.8997  -1.8601  -4.2408  -5.3702 -23.2823  -4.6981
 -3.8445  -5.8735 -18.8890  -6.9998 -18.2763  -7.7931 -13.8883  -2.5766
-11.5744  -4.2381  -5.2764  -8.7097  -7.6275  -5.4341  -2.1227  -3.8786
 -1.9817  -5.4504  -9.0158  -6.9562  -5.2743  -5.3381  -4.2445  -2.1690
 -4.0244  -5.1781  -3.8991 -10.4125  -4.8846 -13.8150  -7.1428 -12.2537
 -6.1859 -12.7944  -3.4806  -5.0179  -7.1275 -16.3865  -5.5585 -22.2264
-21.4174 -10.5952  -7.1792  -9.3552 -11.3153  -7.2576  -9.2846  -4.3154
-13.0562 -11.4210  -8.1510  -6.7856 -13.6818  -3.5151  -5.2392  -5.7710
 -8.3787 -10.5474  -5.0055  -4.5484 -10.5988  -5.1595  -7.0581  -4.4208
 -4.9696  -5.3917  -5.5802  -1.0476  -7.1731  -7.1289  -2.9360 -13.5840
 -9.9483 -12.1898 -11.4726  -8.3882  -4.5175 -10.3135 -46.8978  -4.0713
-15.7933  -6.2766  -9.7284 -11.1095  -6.0982 -11.1888  -3.3888 -14.3607
-13.5660 -12.5495  -7.8710  -3.0943  -1.5486  -8.9080 -10.0849  -7.4132
 -6.3376  -5.3820 -19.8204  -2.9029 -13.2610  -4.1932 -12.6912 -10.0079
 -9.7738  -9.3452  -4.1497 -19.0414  -8.5629  -7.1757  -4.5274  -2.8704
 -7.8156 -17.6373  -4.0538 -19.5746  -6.0587 -11.4829  -6.2932  -9.1239
 -8.5212  -5.4183  -5.6709  -8.6752  -6.1241  -3.4098 -17.4584  -2.7230
-38.9943  -2.9792 -16.4033  -5.3012  -7.5658 -22.8586 -27.6368  -7.5842
 -2.8084  -7.5161 -17.4641  -3.1617 -14.6143  -8.9552  -7.5294  -9.0176
 -8.0075  -7.8517 -12.7288  -6.9051 -12.0662  -8.3876  -7.3595  -7.0012
 -8.6951  -3.5298  -2.7185  -5.4580  -2.9929  -3.4146  -4.9004 -59.6424
-12.2167  -7.9076 -14.9509  -4.4886  -1.7002  -5.2595  -4.8142 -10.6683
 -6.0451  -6.0085 -66.4287  -6.1202  -3.8931 -36.0334  -6.8481  -9.6012
-12.4500 -73.2573  -2.2869 -76.6375  -5.0041 -84.2374  -2.7527 -11.4643
-18.4791  -5.8241  -3.5707  -6.3199 -18.2548  -8.4392  -4.3898  -3.3650
 -8.0908  -4.0799 -12.6776 -18.2991 -12.4788 -11.1412 -11.5381  -7.8833
 -2.4901 -12.4747  -6.6441 -50.6847  -4.8707 -11.8462  -7.8930 -72.4119
 -4.4059 -19.4229 -14.7270 -12.3026 -11.1233 -19.0631 -23.4015  -3.1077
-11.9094 -10.2411  -7.9816  -4.1110  -5.7849  -6.8524 -19.8622 -10.7386
-17.3110  -2.4518  -6.9822 -16.2097  -3.2626 -12.7993  -9.4192  -8.9912
-15.6105 -45.7770 -15.4259  -7.4772 -14.4042  -8.7711 -13.5899  -8.7432
 -6.2665 -10.8386 -10.4332 -13.3866 -15.3512 -12.4138 -11.1447 -10.0940
-10.2424 -10.2205  -0.8044  -0.6998  -0.8012  -0.8850  -0.5822  -0.7655
 -0.6754  -0.8035  -0.4296  -0.4257  -0.4989  -0.3978  -0.4078  -0.4280
 -0.4259  -0.4426  -0.4441  -0.4376  -0.4735  -0.4638  -0.4465  -0.4556
 -0.3801  -0.5302  -0.5198  -0.5517
 -- Virtual --
 -0.0542  -0.0512  -0.0470  -0.0432  -0.0361  -0.0322  -0.0287  -0.0250
 -0.0238  -0.0229  -0.0224  -0.0182  -0.0144  -0.0140  -0.0131  -0.0115
 -0.0105  -0.0091  -0.0081  -0.0071  -0.0067  -0.0059  -0.0044  -0.0038
 -0.0035  -0.0022  -0.0014  -0.0013  -0.0008   0.0002   0.0019   0.0023
  0.0040   0.0044   0.0051   0.0056   0.0060   0.0063   0.0073   0.0077
  0.0085   0.0094   0.0101   0.0103   0.0105   0.0109   0.0114   0.0120
  0.0124   0.0134   0.0138   0.0147   0.0158   0.0161   0.0167   0.0173
  0.0179   0.0182   0.0188   0.0196   0.0207   0.0211   0.0215   0.0227
  0.0232   0.0243   0.0249   0.0252   0.0260   0.0268   0.0273   0.0286
  0.0291   0.0303   0.0305   0.0314   0.0320   0.0329   0.0331   0.0337
  0.0340   0.0348   0.0352   0.0359   0.0368   0.0373   0.0382   0.0385
  0.0387   0.0391   0.0392   0.0395   0.0405   0.0414   0.0416   0.0421
  0.0433   0.0436   0.0440   0.0447   0.0452   0.0458   0.0462   0.0466
  0.0480   0.0486   0.0493   0.0499   0.0504   0.0508   0.0512   0.0517
  0.0521   0.0524   0.0536   0.0539   0.0544   0.0553   0.0560   0.0562
  0.0570   0.0570   0.0580   0.0592   0.0598   0.0603   0.0608   0.0615
  0.0617   0.0618   0.0627   0.0635   0.0643   0.0646   0.0652   0.0659
  0.0663   0.0676   0.0688   0.0691   0.0694   0.0705   0.0707   0.0710
  0.0716   0.0725   0.0727   0.0735   0.0739   0.0741   0.0750   0.0752
  0.0766   0.0769   0.0774   0.0779   0.0794   0.0796   0.0802   0.0805
  0.0822   0.0824   0.0830   0.0835   0.0843   0.0846   0.0852   0.0857
  0.0860   0.0868   0.0876   0.0877   0.0886   0.0894   0.0901   0.0904
  0.0909   0.0916   0.0920   0.0925   0.0930   0.0942   0.0949   0.0951
  0.0956   0.0963   0.0967   0.0972   0.0983   0.0993   0.0998   0.1007
  0.1010   0.1016   0.1019   0.1027   0.1033   0.1046   0.1047   0.1051
  0.1054   0.1060   0.1068   0.1074   0.1075   0.1085   0.1090   0.1092
  0.1100   0.1106   0.1112   0.1120   0.1121   0.1132   0.1134   0.1135
  0.1146   0.1158   0.1169   0.1172   0.1175   0.1178   0.1185   0.1193
  0.1194   0.1196   0.1201   0.1210   0.1219   0.1227   0.1230   0.1233
  0.1241   0.1245   0.1254   0.1256   0.1259   0.1271   0.1273   0.1282
  0.1292   0.1295   0.1300   0.1310   0.1313   0.1319   0.1321   0.1325
  0.1328   0.1337   0.1344   0.1348   0.1360   0.1371   0.1375   0.1378
  0.1382   0.1384   0.1390   0.1400   0.1404   0.1404   0.1413   0.1420
  0.1423   0.1432   0.1434   0.1441   0.1447   0.1454   0.1457   0.1464
  0.1474   0.1477   0.1483   0.1486   0.1502   0.1505   0.1513   0.1516
  0.1525   0.1531   0.1539   0.1542   0.1543   0.1548   0.1559   0.1560
  0.1569   0.1574   0.1580   0.1583   0.1589   0.1591   0.1600   0.1606
  0.1610   0.1616   0.1622   0.1626   0.1634   0.1637   0.1643   0.1648
  0.1653   0.1658   0.1670   0.1671   0.1676   0.1684   0.1695   0.1697
  0.1705   0.1705   0.1715   0.1724   0.1726   0.1728   0.1735   0.1741
  0.1749   0.1751   0.1753   0.1765   0.1772   0.1779   0.1782   0.1783
  0.1793   0.1797   0.1804   0.1806   0.1818   0.1821   0.1826   0.1830
  0.1836   0.1841   0.1852   0.1855   0.1861   0.1866   0.1870   0.1877
  0.1882   0.1884   0.1890   0.1901   0.1905   0.1907   0.1912   0.1917
  0.1921   0.1931   0.1935   0.1937   0.1943   0.1947   0.1956   0.1958
  0.1966   0.1970   0.1973   0.1984   0.1997   0.1999   0.2004   0.2008
  0.2009   0.2020   0.2021   0.2026   0.2031   0.2034   0.2044   0.2046
  0.2057   0.2060   0.2070   0.2074   0.2078   0.2083   0.2098   0.2100
  0.2103   0.2117   0.2121   0.2132   0.2134   0.2138   0.2141   0.2143
  0.2151   0.2159   0.2165   0.2171   0.2175   0.2184   0.2193   0.2198
  0.2199   0.2207   0.2217   0.2219   0.2228   0.2229   0.2234   0.2236
  0.2245   0.2257   0.2262   0.2270   0.2277   0.2280   0.2284   0.2291
  0.2302   0.2305   0.2310   0.2317   0.2333   0.2337   0.2341   0.2348
  0.2350   0.2357   0.2365   0.2366   0.2374   0.2386   0.2390   0.2392
  0.2405   0.2410   0.2414   0.2420   0.2428   0.2431   0.2437   0.2442
  0.2452   0.2456   0.2460   0.2463   0.2465   0.2478   0.2480   0.2494
  0.2498   0.2507   0.2513   0.2521   0.2523   0.2530   0.2535   0.2541
  0.2547   0.2550   0.2555   0.2565   0.2574   0.2579   0.2583   0.2587
  0.2592   0.2600   0.2606   0.2611   0.2623   0.2623   0.2641   0.2644
  0.2650   0.2656   0.2661   0.2662   0.2675   0.2683   0.2685   0.2690
  0.2700   0.2707   0.2715   0.2725   0.2730   0.2734   0.2755   0.2758
  0.2764   0.2765   0.2776   0.2782   0.2788   0.2793   0.2805   0.2817
  0.2819   0.2837   0.2840   0.2845   0.2853   0.2857   0.2865   0.2871
  0.2880   0.2884   0.2891   0.2894   0.2905   0.2907   0.2915   0.2916
  0.2924   0.2938   0.2947   0.2954   0.2958   0.2963   0.2971   0.2979
  0.2984   0.2988   0.2989   0.3012   0.3018   0.3030   0.3040   0.3045
  0.3059   0.3063   0.3065   0.3078   0.3085   0.3091   0.3093   0.3102
  0.3108   0.3116   0.3127   0.3132   0.3134   0.3144   0.3152   0.3161
  0.3168   0.3184   0.3187   0.3196   0.3206   0.3215   0.3224   0.3228
  0.3238   0.3248   0.3256   0.3261   0.3275   0.3280   0.3289   0.3290
  0.3299   0.3308   0.3315   0.3319   0.3334   0.3337   0.3341   0.3359
  0.3370   0.3378   0.3382   0.3385   0.3392   0.3404   0.3406   0.3414
  0.3424   0.3431   0.3438   0.3457   0.3462   0.3465   0.3471   0.3484
  0.3493   0.3495   0.3504   0.3511   0.3522   0.3528   0.3535   0.3539
  0.3544   0.3556   0.3564   0.3568   0.3577   0.3585   0.3595   0.3596
  0.3603   0.3611   0.3620   0.3633   0.3638   0.3645   0.3650   0.3655
  0.3669   0.3677   0.3683   0.3689   0.3711   0.3715   0.3717   0.3724
  0.3737   0.3746   0.3751   0.3759   0.3763   0.3768   0.3782   0.3789
  0.3796   0.3804   0.3813   0.3816   0.3826   0.3829   0.3837   0.3850
  0.3853   0.3866   0.3878   0.3882   0.3884   0.3894   0.3902   0.3913
  0.3920   0.3924   0.3928   0.3936   0.3946   0.3950   0.3955   0.3962
  0.3984   0.3989   0.3993   0.4007   0.4026   0.4032   0.4034   0.4053
  0.4058   0.4067   0.4071   0.4079   0.4092   0.4097   0.4109   0.4120
  0.4123   0.4129   0.4138   0.4141   0.4154   0.4167   0.4170   0.4179
  0.4189   0.4194   0.4204   0.4212   0.4227   0.4236   0.4245   0.4249
  0.4258   0.4269   0.4272   0.4286   0.4302   0.4308   0.4315   0.4322
  0.4336   0.4343   0.4351   0.4362   0.4364   0.4377   0.4393   0.4403
  0.4413   0.4416   0.4439   0.4443   0.4456   0.4459   0.4480   0.4490
  0.4492   0.4497   0.4504   0.4509   0.4519   0.4529   0.4551   0.4564
  0.4573   0.4588   0.4590   0.4600   0.4610   0.4623   0.4628   0.4646
  0.4656   0.4674   0.4675   0.4685   0.4700   0.4711   0.4718   0.4734
  0.4741   0.4747   0.4752   0.4778   0.4794   0.4797   0.4815   0.4828
  0.4834   0.4846   0.4856   0.4877   0.4882   0.4894   0.4900   0.4913
  0.4948   0.4954   0.4973   0.4978   0.4993   0.5001   0.5016   0.5020
  0.5040   0.5055   0.5072   0.5091   0.5099   0.5122   0.5133   0.5154
  0.5162   0.5164   0.5199   0.5215   0.5225   0.5246   0.5261   0.5265
  0.5271   0.5281   0.5291   0.5299   0.5341   0.5366   0.5370   0.5384
  0.5394   0.5408   0.5424   0.5429   0.5437   0.5452   0.5467   0.5487
  0.5505   0.5520   0.5533   0.5555   0.5567   0.5582   0.5593   0.5620
  0.5637   0.5652   0.5661   0.5674   0.5689   0.5698   0.5713   0.5721
  0.5746   0.5758   0.5780   0.5788   0.5802   0.5818   0.5827   0.5847
  0.5860   0.5869   0.5894   0.5905   0.5921   0.5932   0.5943   0.5955
  0.5963   0.5975   0.5994   0.6005   0.6024   0.6041   0.6052   0.6062
  0.6081   0.6086   0.6111   0.6118   0.6120   0.6129   0.6146   0.6151
  0.6156   0.6175   0.6182   0.6194   0.6196   0.6208   0.6239   0.6243
  0.6247   0.6252   0.6262   0.6265   0.6279   0.6287   0.6306   0.6323
  0.6332   0.6340   0.6353   0.6375   0.6380   0.6394   0.6407   0.6412
  0.6430   0.6437   0.6453   0.6456   0.6465   0.6482   0.6486   0.6500
  0.6514   0.6523   0.6526   0.6535   0.6543   0.6549   0.6566   0.6575
  0.6579   0.6602   0.6611   0.6624   0.6625   0.6636   0.6648   0.6657
  0.6665   0.6671   0.6677   0.6696   0.6702   0.6709   0.6725   0.6733
  0.6749   0.6751   0.6766   0.6771   0.6785   0.6797   0.6805   0.6806
  0.6820   0.6831   0.6859   0.6866   0.6875   0.6887   0.6898   0.6902
  0.6912   0.6919   0.6930   0.6950   0.6961   0.6974   0.6978   0.6987
  0.6998   0.7005   0.7016   0.7031   0.7038   0.7053   0.7070   0.7077
  0.7081   0.7094   0.7106   0.7110   0.7116   0.7139   0.7157   0.7167
  0.7169   0.7183   0.7191   0.7196   0.7206   0.7212   0.7231   0.7247
  0.7269   0.7283   0.7292   0.7309   0.7326   0.7330   0.7349   0.7355
  0.7376   0.7387   0.7395   0.7407   0.7424   0.7433   0.7446   0.7467
  0.7493   0.7501   0.7519   0.7532   0.7547   0.7559   0.7563   0.7575
  0.7590   0.7603   0.7610   0.7622   0.7635   0.7645   0.7671   0.7694
  0.7704   0.7724   0.7731   0.7741   0.7747   0.7765   0.7790   0.7803
  0.7806   0.7812   0.7827   0.7835   0.7852   0.7877   0.7884   0.7893
  0.7918   0.7942   0.7944   0.7953   0.7966   0.7985   0.8004   0.8012
  0.8027   0.8042   0.8046   0.8055   0.8080   0.8084   0.8092   0.8101
  0.8126   0.8137   0.8145   0.8163   0.8172   0.8183   0.8191   0.8202
  0.8211   0.8230   0.8242   0.8250   0.8269   0.8283   0.8303   0.8304
  0.8318   0.8321   0.8350   0.8368   0.8385   0.8405   0.8413   0.8418
  0.8434   0.8441   0.8448   0.8455   0.8471   0.8478   0.8511   0.8516
  0.8521   0.8527   0.8543   0.8563   0.8578   0.8589   0.8601   0.8607
  0.8628   0.8639   0.8652   0.8658   0.8672   0.8677   0.8697   0.8710
  0.8730   0.8739   0.8754   0.8764   0.8768   0.8786   0.8794   0.8801
  0.8807   0.8815   0.8844   0.8848   0.8855   0.8870   0.8878   0.8896
  0.8896   0.8908   0.8921   0.8935   0.8941   0.8950   0.8972   0.8979
  0.8996   0.9009   0.9012   0.9029   0.9039   0.9057   0.9057   0.9065
  0.9070   0.9085   0.9096   0.9099   0.9128   0.9141   0.9146   0.9155
  0.9160   0.9168   0.9184   0.9195   0.9198   0.9204   0.9222   0.9237
  0.9251   0.9259   0.9280   0.9287   0.9299   0.9306   0.9323   0.9330
  0.9344   0.9358   0.9374   0.9377   0.9392   0.9396   0.9407   0.9415
  0.9430   0.9444   0.9453   0.9456   0.9462   0.9475   0.9485   0.9494
  0.9509   0.9519   0.9532   0.9549   0.9553   0.9559   0.9570   0.9580
  0.9591   0.9602   0.9608   0.9620   0.9628   0.9630   0.9646   0.9650
  0.9663   0.9673   0.9695   0.9705   0.9719   0.9721   0.9737   0.9747
  0.9748   0.9768   0.9774   0.9780   0.9802   0.9806   0.9821   0.9837
  0.9839   0.9856   0.9862   0.9864   0.9881   0.9889   0.9905   0.9916
  0.9932   0.9936   0.9957   0.9963   0.9973   0.9979   0.9998   1.0008
  1.0021   1.0029   1.0037   1.0046   1.0055   1.0076   1.0077   1.0084
  1.0097   1.0115   1.0120   1.0128   1.0132   1.0138   1.0160   1.0181
  1.0188   1.0194   1.0205   1.0212   1.0227   1.0230   1.0240   1.0260
  1.0265   1.0275   1.0294   1.0305   1.0307   1.0324   1.0336   1.0342
  1.0347   1.0372   1.0382   1.0391   1.0407   1.0417   1.0423   1.0431
  1.0458   1.0468   1.0481   1.0495   1.0502   1.0511   1.0529   1.0530
  1.0544   1.0555   1.0566   1.0584   1.0597   1.0602   1.0607   1.0613
  1.0630   1.0638   1.0646   1.0668   1.0679   1.0688   1.0703   1.0713
  1.0731   1.0754   1.0758   1.0778   1.0793   1.0796   1.0798   1.0829
  1.0841   1.0855   1.0863   1.0867   1.0870   1.0888   1.0897   1.0910
  1.0923   1.0927   1.0940   1.0949   1.0960   1.0972   1.0988   1.1008
  1.1013   1.1023   1.1048   1.1059   1.1070   1.1081   1.1086   1.1099
  1.1119   1.1125   1.1135   1.1142   1.1167   1.1186   1.1188   1.1195
  1.1212   1.1224   1.1226   1.1249   1.1258   1.1278   1.1293   1.1299
  1.1304   1.1314   1.1327   1.1333   1.1347   1.1349   1.1360   1.1379
  1.1387   1.1394   1.1410   1.1416   1.1424   1.1451   1.1457   1.1464
  1.1481   1.1491   1.1498   1.1504   1.1513   1.1532   1.1545   1.1555
  1.1566   1.1574   1.1581   1.1606   1.1625   1.1640   1.1646   1.1658
  1.1665   1.1688   1.1696   1.1711   1.1718   1.1725   1.1732   1.1747
  1.1758   1.1770   1.1781   1.1804   1.1812   1.1829   1.1843   1.1847
  1.1859   1.1879   1.1890   1.1911   1.1917   1.1933   1.1951   1.1962
  1.1983   1.1988   1.2010   1.2024   1.2036   1.2063   1.2077   1.2082
  1.2109   1.2122   1.2150   1.2159   1.2180   1.2191   1.2204   1.2226
  1.2258   1.2267   1.2279   1.2292   1.2305   1.2336   1.2352   1.2379
  1.2397   1.2415   1.2433   1.2439   1.2496   1.2498   1.2502   1.2523
  1.2541   1.2564   1.2580   1.2588   1.2617   1.2624   1.2653   1.2664
  1.2689   1.2713   1.2721   1.2740   1.2753   1.2777   1.2813   1.2814
  1.2828   1.2845   1.2862   1.2875   1.2909   1.2924   1.2933   1.2988
  1.2999   1.3022   1.3039   1.3052   1.3075   1.3092   1.3141   1.3147
  1.3169   1.3188   1.3220   1.3231   1.3254   1.3292   1.3303   1.3313
  1.3328   1.3336   1.3345   1.3351   1.3383   1.3401   1.3420   1.3440
  1.3456   1.3468   1.3493   1.3511   1.3523   1.3539   1.3549   1.3582
  1.3590   1.3609   1.3621   1.3625   1.3654   1.3671   1.3685   1.3694
  1.3717   1.3730   1.3763   1.3768   1.3780   1.3800   1.3801   1.3827
  1.3833   1.3836   1.3863   1.3871   1.3883   1.3900   1.3914   1.3922
  1.3936   1.3946   1.3969   1.3982   1.3997   1.4009   1.4010   1.4037
  1.4054   1.4074   1.4077   1.4093   1.4104   1.4118   1.4122   1.4139
  1.4141   1.4158   1.4176   1.4188   1.4189   1.4201   1.4209   1.4230
  1.4248   1.4252   1.4264   1.4288   1.4299   1.4317   1.4340   1.4348
  1.4353   1.4376   1.4392   1.4396   1.4437   1.4454   1.4457   1.4467
  1.4479   1.4490   1.4499   1.4507   1.4525   1.4536   1.4555   1.4566
  1.4592   1.4597   1.4624   1.4655   1.4662   1.4672   1.4696   1.4712
  1.4726   1.4734   1.4760   1.4770   1.4780   1.4801   1.4816   1.4826
  1.4843   1.4864   1.4895   1.4917   1.4925   1.4949   1.4961   1.4972
  1.4982   1.4993   1.5018   1.5036   1.5052   1.5094   1.5116   1.5144
  1.5156   1.5176   1.5185   1.5199   1.5208   1.5239   1.5263   1.5277
  1.5296   1.5303   1.5336   1.5360   1.5392   1.5425   1.5453   1.5499
  1.5514   1.5524   1.5544   1.5566   1.5580   1.5599   1.5630   1.5657
  1.5698   1.5723   1.5730   1.5757   1.5791   1.5828   1.5847   1.5861
  1.5889   1.5947   1.5959   1.5988   1.5999   1.6069   1.6083   1.6112
  1.6151   1.6199   1.6213   1.6236   1.6274   1.6299   1.6313   1.6333
  1.6368   1.6400   1.6450   1.6456   1.6524   1.6547   1.6563   1.6585
  1.6591   1.6627   1.6637   1.6669   1.6688   1.6703   1.6731   1.6748
  1.6758   1.6767   1.6777   1.6801   1.6818   1.6835   1.6845   1.6860
  1.6868   1.6895   1.6907   1.6915   1.6931   1.6944   1.6952   1.6965
  1.6981   1.6982   1.7000   1.7008   1.7021   1.7024   1.7029   1.7043
  1.7056   1.7074   1.7083   1.7094   1.7100   1.7125   1.7130   1.7135
  1.7151   1.7174   1.7178   1.7195   1.7201   1.7211   1.7214   1.7225
  1.7249   1.7250   1.7270   1.7277   1.7283   1.7291   1.7313   1.7319
  1.7331   1.7338   1.7352   1.7375   1.7380   1.7390   1.7412   1.7427
  1.7438   1.7446   1.7453   1.7480   1.7500   1.7503   1.7510   1.7526
  1.7538   1.7546   1.7559   1.7570   1.7609   1.7618   1.7635   1.7649
  1.7666   1.7674   1.7684   1.7706   1.7723   1.7732   1.7751   1.7759
  1.7775   1.7791   1.7804   1.7818   1.7852   1.7861   1.7879   1.7885
  1.7902   1.7909   1.7945   1.7950   1.7973   1.7983   1.7995   1.8009
  1.8014   1.8053   1.8061   1.8073   1.8088   1.8099   1.8123   1.8147
  1.8153   1.8167   1.8198   1.8214   1.8235   1.8277   1.8282   1.8311
  1.8365   1.8395   1.8416   1.8434   1.8446   1.8470   1.8498   1.8524
  1.8543   1.8571   1.8587   1.8635   1.8651   1.8662   1.8674   1.8729
  1.8747   1.8767   1.8797   1.8809   1.8816   1.8822   1.8844   1.8857
  1.8869   1.8877   1.8881   1.8894   1.8904   1.8910   1.8918   1.8936
  1.8947   1.8959   1.8966   1.8984   1.9005   1.9009   1.9030   1.9046
  1.9056   1.9062   1.9066   1.9083   1.9094   1.9104   1.9118   1.9132
  1.9158   1.9161   1.9180   1.9189   1.9198   1.9208   1.9217   1.9242
  1.9248   1.9259   1.9278   1.9295   1.9303   1.9310   1.9316   1.9334
  1.9344   1.9358   1.9371   1.9398   1.9399   1.9422   1.9454   1.9462
  1.9479   1.9503   1.9536   1.9540   1.9554   1.9586   1.9598   1.9626
  1.9638   1.9656   1.9694   1.9745   1.9747   1.9824   1.9891   1.9905
  1.9927   1.9986   2.0051   2.0079   2.0091   2.0153   2.0162   2.0253
  2.0305   2.0416   2.0433   2.0448   2.0491   2.0502   2.0528   2.0545
  2.0576   2.0589   2.0595   2.0624   2.0656   2.0666   2.0682   2.0706
  2.0711   2.0725   2.0758   2.0767   2.0770   2.0783   2.0791   2.0802
  2.0815   2.0821   2.0824   2.0829   2.0849   2.0852   2.0862   2.0879
  2.0898   2.0906   2.0922   2.0925   2.0940   2.0966   2.0968   2.0985
  2.1021   2.1037   2.1046   2.1057   2.1063   2.1076   2.1081   2.1096
  2.1102   2.1128   2.1150   2.1163   2.1192   2.1200   2.1226   2.1234
  2.1267   2.1322   2.1343   2.1360   2.1407   2.1440   2.1462   2.1473
  2.1512   2.1568   2.1578   2.1621   2.1675   2.1708   2.1756   2.1806
  2.1859   2.1867   2.1898   2.1903   2.1914   2.1940   2.1962   2.1975
  2.2012   2.2014   2.2060   2.2123   2.2139   2.2158   2.2174   2.2181
  2.2202   2.2211   2.2220   2.2230   2.2231   2.2284   2.2295   2.2306
  2.2313   2.2325   2.2338   2.2357   2.2362   2.2379   2.2381   2.2404
  2.2406   2.2416   2.2427   2.2432   2.2441   2.2451   2.2463   2.2463
  2.2469   2.2484   2.2497   2.2504   2.2510   2.2526   2.2532   2.2538
  2.2546   2.2560   2.2577   2.2587   2.2597   2.2600   2.2605   2.2613
  2.2618   2.2629   2.2638   2.2648   2.2653   2.2662   2.2672   2.2676
  2.2692   2.2703   2.2704   2.2710   2.2715   2.2719   2.2723   2.2736
  2.2755   2.2759   2.2774   2.2785   2.2793   2.2805   2.2809   2.2832
  2.2844   2.2846   2.2860   2.2863   2.2871   2.2874   2.2881   2.2898
  2.2904   2.2914   2.2921   2.2934   2.2942   2.2958   2.2962   2.2972
  2.2975   2.2979   2.3013   2.3017   2.3027   2.3029   2.3036   2.3050
  2.3061   2.3068   2.3074   2.3096   2.3102   2.3123   2.3136   2.3160
  2.3163   2.3173   2.3184   2.3193   2.3200   2.3215   2.3220   2.3237
  2.3248   2.3267   2.3274   2.3288   2.3289   2.3305   2.3319   2.3330
  2.3336   2.3337   2.3349   2.3359   2.3376   2.3382   2.3399   2.3407
  2.3417   2.3446   2.3464   2.3465   2.3487   2.3493   2.3501   2.3513
  2.3517   2.3537   2.3556   2.3561   2.3607   2.3627   2.3637   2.3646
  2.3665   2.3685   2.3699   2.3717   2.3757   2.3776   2.3784   2.3794
  2.3805   2.3815   2.3858   2.3880   2.3894   2.3912   2.3939   2.3950
  2.4013   2.4035   2.4045   2.4132   2.4201   2.4243   2.4282   2.4299
  2.4539   2.4721   2.4802   2.5194   2.5452   2.5996   2.6983   2.7255
  2.7673   2.7861   2.8032   2.8152   2.8216   2.8246   2.8313   2.8333
  2.8349   2.8395   2.8431   2.8475   2.8488   2.8491   2.8506   2.8513
  2.8536   2.8572   2.8577   2.8598   2.8638   2.8643   2.8683   2.8705
  2.8753   2.8811   2.8830   2.8835   2.8860   2.8879   2.8936   2.8947
  2.8983   2.9025   2.9054   2.9474   3.0845   3.2762   3.9416   3.9495
  3.9531   3.9682   3.9694   3.9748   3.9757   3.9799   3.9813   3.9833
  3.9855   3.9870   3.9907   3.9924   3.9936   3.9965   3.9976   4.0030
  4.0068   4.0093   4.0126   4.0137   4.0186   4.0203   4.0236   4.0292
  4.0327   4.0407   4.0462   4.2051   4.2217   4.2240   4.2289   4.2328
  4.2378   4.2399   4.2451   4.2499   4.2518   4.2562   4.2582   4.2593
  4.2606   4.2687   4.2702   4.2729   4.2739   4.2753   4.2784   4.2802
  4.2832   4.2859   4.2883   4.2942   4.2971   4.2979   4.3006   4.3016
  4.3032   4.3052   4.3074   4.3096   4.3119   4.3153   4.3180   4.3201
  4.3210   4.3261   4.3265   4.3283   4.3339   4.3356   4.3376   4.3399
  4.3451   4.3468   4.3495   4.3518   4.3522   4.3554   4.3591   4.3621
  4.3642   4.3660   4.3685   4.3726   4.3746   4.3762   4.3765   4.3802
  4.3858   4.3890   4.3924   4.3951   4.4014   4.4035   4.4060   4.4120
  4.4153   4.4193   4.4225   4.4266   4.4398   4.4406   4.4458   4.4491
  4.4616   4.4745   4.4820   4.4836   4.4973   4.5059   4.5100   4.5218
  4.5343   4.5369   4.5712   4.5818   4.6025   4.6219   4.6684   4.7126
  4.7404   4.7737   4.9158
 --------------------------------------------------------------
 
          Ground-State Mulliken Net Atomic Charges

     Atom                 Charge (a.u.)
  ----------------------------------------
      1 C                    -0.037874
      2 C                    -0.369753
      3 C                     0.087884
      4 C                    -1.051097
      5 C                    -0.223386
      6 C                    -1.157969
      7 H                     0.273069
      8 H                     0.231078
      9 H                     0.231469
     10 H                     0.215570
     11 H                     0.211499
     12 H                     0.224355
     13 H                     0.195464
     14 H                     0.229895
     15 H                     0.210267
     16 H                     0.180451
     17 H                     0.207464
     18 N                     0.134578
     19 H                     0.521607
     20 C                    -0.188502
     21 H                     0.169937
     22 O                    -0.219027
     23 C                    -0.884932
     24 H                     0.236620
     25 H                     0.264121
     26 H                     0.244137
     27 S                     0.802493
     28 C                    -0.749077
     29 H                     0.242072
     30 H                     0.236918
     31 H                     0.261284
     32 O                    -0.658503
     33 C                    -0.834445
     34 H                     0.298164
     35 H                     0.267782
     36 H                     0.269969
     37 S                     0.665342
     38 C                    -0.923909
     39 H                     0.302788
     40 H                     0.258642
     41 H                     0.232282
     42 O                    -0.607919
     43 C                    -0.755040
     44 H                     0.237203
     45 H                     0.227392
     46 H                     0.291959
     47 S                     0.860608
     48 C                    -1.025305
     49 H                     0.320910
     50 H                     0.236206
     51 H                     0.280065
     52 O                    -0.676995
     53 C                    -0.921165
     54 H                     0.239271
     55 H                     0.266796
     56 H                     0.262719
     57 S                     1.076047
     58 C                    -0.904749
     59 H                     0.262992
     60 H                     0.226692
     61 H                     0.252854
     62 O                    -0.742396
     63 C                    -0.748053
     64 H                     0.239774
     65 H                     0.278168
     66 H                     0.237815
     67 S                     0.704091
     68 C                    -0.785308
     69 H                     0.231040
     70 H                     0.301577
     71 H                     0.270874
     72 O                    -0.688165
     73 C                    -1.075711
     74 H                     0.281432
     75 H                     0.247776
     76 H                     0.287294
     77 S                     0.991953
     78 C                    -0.832447
     79 H                     0.292385
     80 H                     0.249795
     81 H                     0.243958
     82 O                    -0.714728
     83 C                    -0.911556
     84 H                     0.279225
     85 H                     0.240866
     86 H                     0.277402
     87 S                     0.915116
     88 C                    -0.834807
     89 H                     0.279632
     90 H                     0.246108
     91 H                     0.238151
     92 O                    -0.717538
     93 C                    -0.877255
     94 H                     0.251076
     95 H                     0.252158
     96 H                     0.249714
     97 S                     0.845027
     98 C                    -0.665454
     99 H                     0.264418
    100 H                     0.278941
    101 H                     0.263421
    102 O                    -0.625151
    103 C                    -0.860432
    104 H                     0.299002
    105 H                     0.270340
    106 H                     0.240130
    107 S                     0.831895
    108 C                    -0.961271
    109 H                     0.268090
    110 H                     0.245330
    111 H                     0.264776
    112 O                    -0.691669
    113 C                    -0.891328
    114 H                     0.254373
    115 H                     0.237516
    116 H                     0.288179
    117 S                     0.991420
    118 C                    -0.902440
    119 H                     0.271238
    120 H                     0.272288
    121 H                     0.268860
    122 O                    -0.748165
    123 C                    -0.845335
    124 H                     0.244077
    125 H                     0.232797
    126 H                     0.276172
    127 S                     1.009652
    128 C                    -0.961969
    129 H                     0.257749
    130 H                     0.225270
    131 H                     0.250601
    132 O                    -0.685598
    133 C                    -0.899261
    134 H                     0.259608
    135 H                     0.253619
    136 H                     0.229386
    137 S                     0.982063
    138 C                    -0.977978
    139 H                     0.254468
    140 H                     0.291902
    141 H                     0.240327
    142 O                    -0.651341
    143 C                    -1.120167
    144 H                     0.270430
    145 H                     0.278627
    146 H                     0.251509
    147 S                     0.669925
    148 C                    -1.046323
    149 H                     0.274365
    150 H                     0.304608
    151 H                     0.261462
    152 O                    -0.504609
    153 C                    -0.818264
    154 H                     0.229193
    155 H                     0.289668
    156 H                     0.263457
    157 S                     1.039153
    158 C                    -0.940252
    159 H                     0.248453
    160 H                     0.266566
    161 H                     0.256953
    162 O                    -0.747211
    163 C                    -0.970778
    164 H                     0.279370
    165 H                     0.253778
    166 H                     0.273808
    167 S                     0.916967
    168 C                    -0.862829
    169 H                     0.247281
    170 H                     0.273138
    171 H                     0.264105
    172 O                    -0.732478
    173 C                    -0.816215
    174 H                     0.260666
    175 H                     0.270568
    176 H                     0.274434
    177 S                     0.653318
    178 C                    -0.790191
    179 H                     0.253448
    180 H                     0.309893
    181 H                     0.279671
    182 O                    -0.674315
    183 C                    -0.837126
    184 H                     0.243980
    185 H                     0.259339
    186 H                     0.234733
    187 S                     0.763676
    188 C                    -0.857360
    189 H                     0.261693
    190 H                     0.243802
    191 H                     0.284388
    192 O                    -0.593714
    193 C                    -1.170151
    194 H                     0.224317
    195 H                     0.296513
    196 H                     0.248284
    197 S                     1.250911
    198 C                    -0.867827
    199 H                     0.287740
    200 H                     0.239963
    201 H                     0.223723
    202 O                    -0.692813
    203 C                    -0.493042
    204 H                     0.284151
    205 H                     0.261613
    206 H                     0.283270
    207 S                     0.122572
    208 C                    -1.092070
    209 H                     0.275451
    210 H                     0.311070
    211 H                     0.290987
    212 O                    -0.455222
    213 C                    -0.712502
    214 H                     0.316233
    215 H                     0.245658
    216 H                     0.216717
    217 S                     0.701329
    218 C                    -0.805545
    219 H                     0.286809
    220 H                     0.248308
    221 H                     0.262577
    222 O                    -0.773824
    223 C                    -1.100786
    224 H                     0.258032
    225 H                     0.276591
    226 H                     0.295683
    227 S                     1.534241
    228 C                    -1.258766
    229 H                     0.290455
    230 H                     0.241139
    231 H                     0.248191
    232 O                    -0.687881
    233 C                    -0.881635
    234 H                     0.225214
    235 H                     0.299225
    236 H                     0.230876
    237 S                     0.981216
    238 C                    -0.827777
    239 H                     0.269628
    240 H                     0.239966
    241 H                     0.268321
    242 O                    -0.786450
    243 C                    -0.890162
    244 H                     0.241179
    245 H                     0.246035
    246 H                     0.263218
    247 S                     0.996231
    248 C                    -0.917101
    249 H                     0.236254
[...]
    1   0.0004837  -0.0244558  -0.0002600  -0.0541489   0.0090570  -0.0029443
    2   0.0115850   0.0196113  -0.0307948   0.0959605   0.0004278  -0.0177740
    3   0.0360851  -0.0034434   0.0168791  -0.0148575   0.0003513   0.0267012
          175         176         177         178         179         180
    1   0.0132656   0.0267542  -0.0312128  -0.0024912   0.0218706   0.0021372
    2  -0.0200232   0.0257319   0.0179040  -0.0104315   0.0004306  -0.0282431
    3  -0.0148783   0.0005168   0.0335679   0.0029121  -0.0232110   0.0208466
          181         182         183         184         185         186
    1  -0.0268182   0.0183098   0.0024633  -0.0079954  -0.0088385   0.0351615
    2  -0.0073341   0.0296717  -0.0040084   0.0002271  -0.0303111   0.0028748
    3   0.0027031  -0.1052313   0.0032887   0.0300072  -0.0029809  -0.0001100
          187         188         189         190         191         192
    1   0.0208813  -0.0011362  -0.0137017   0.0319644  -0.0134612  -0.1053243
    2   0.0026344   0.0070840   0.0067416   0.0155729   0.0300087  -0.0225881
    3  -0.0527370   0.0039826   0.0286770  -0.0006700  -0.0038901   0.0201635
          193         194         195         196         197         198
    1   0.0073235   0.0121358   0.0216133  -0.0012004  -0.0318228   0.0000700
    2  -0.0036308   0.0231383  -0.0191847  -0.0285407  -0.0363441  -0.0022345
    3   0.0000197  -0.0114551   0.0203399  -0.0138664   0.0334693  -0.0090750
          199         200         201         202         203         204
    1  -0.0240587  -0.0295740   0.0262930   0.0245614  -0.0108160  -0.0082559
    2  -0.0293483   0.0081026   0.0256469   0.1025186   0.0020666  -0.0051264
    3  -0.0152906   0.0044018  -0.0082980   0.0288999  -0.0014532   0.0324660
          205         206         207         208         209         210
    1  -0.0288606   0.0072736   0.0505277  -0.0050205  -0.0215320  -0.0074581
    2   0.0143314  -0.0242859  -0.0208362   0.0055566   0.0119918  -0.0002470
    3  -0.0102584  -0.0163551   0.0227659   0.0030712  -0.0175430   0.0326483
          211         212         213         214         215         216
    1   0.0176786  -0.0154834  -0.0063389  -0.0245623  -0.0140650   0.0101577
    2   0.0145268   0.0342934   0.0016037  -0.0127578   0.0294426   0.0028182
    3  -0.0174626  -0.1095779  -0.0013289   0.0018105   0.0031621  -0.0314025
          217         218         219         220         221         222
    1   0.0419381   0.0024583   0.0263508  -0.0289890   0.0293115  -0.0809002
    2   0.0279513  -0.0093864  -0.0285346  -0.0086356  -0.0054861  -0.0379642
    3   0.0107086  -0.0008319   0.0081949  -0.0141521  -0.0155395   0.0630176
          223         224         225         226         227         228
    1  -0.0031422   0.0125650   0.0201981  -0.0310910   0.0570531  -0.0068525
    2  -0.0045548   0.0251629  -0.0170398  -0.0141666  -0.0056960  -0.0068243
    3  -0.0043757  -0.0014170  -0.0291289   0.0013383  -0.0023903  -0.0026710
          229         230         231         232         233         234
    1  -0.0322611   0.0052522   0.0074592  -0.0494547  -0.0060556  -0.0214804
    2  -0.0013556  -0.0238304  -0.0061265   0.0561136  -0.0027105   0.0038162
    3  -0.0037654  -0.0272137   0.0311347   0.0804129  -0.0020613  -0.0360160
          235         236         237         238         239         240
    1  -0.0236882   0.0010008   0.0334813  -0.0064419  -0.0110843   0.0194797
    2  -0.0192878   0.0285123   0.0059787  -0.0064192  -0.0209785  -0.0216846
    3   0.0041803   0.0055514  -0.0303222   0.0017840  -0.0276567   0.0126289
          241         242         243         244         245         246
    1  -0.0094819  -0.0081449   0.0056114   0.0337907  -0.0247350   0.0012454
    2   0.0058599   0.0412326  -0.0012341  -0.0030875  -0.0043905   0.0281713
    3   0.0327921   0.1027797  -0.0057106  -0.0199026  -0.0233678   0.0020460
          247         248         249         250         251         252
    1  -0.0076288  -0.0077264  -0.0362421  -0.0028192  -0.0077408   0.0655135
    2  -0.0489164   0.0053312  -0.0138150   0.0078269   0.0207051   0.0648410
    3   0.0027381   0.0010955  -0.0032734   0.0299866  -0.0177994   0.0593553
          253         254         255         256         257         258
    1   0.0059304   0.0321520  -0.0027052   0.0048112   0.0030555  -0.0067928
    2   0.0067335  -0.0112258   0.0355529  -0.0140463   0.0003816   0.0038643
    3   0.0041490  -0.0053414  -0.0009286   0.0291255  -0.0523701   0.0057566
          259         260         261         262         263         264
    1  -0.0005696  -0.0283576   0.0073795   0.0010160  -0.0017576  -0.0048159
    2   0.0327542  -0.0101447   0.0059201  -0.0896942  -0.0106888   0.0043317
    3  -0.0030968  -0.0142649   0.0303010   0.0636497   0.0066430   0.0308346
          265         266         267         268         269         270
    1  -0.0324166   0.0258466  -0.0407218   0.0075518  -0.0248442   0.0121620
    2   0.0004822  -0.0258482   0.0362866  -0.0077747  -0.0124875   0.0191851
    3  -0.0035851  -0.0009093  -0.0177812  -0.0074727  -0.0206169  -0.0193369
          271         272         273         274         275         276
    1   0.0253854   0.0898364   0.0033815  -0.0117397   0.0303170   0.0157251
    2  -0.0208664   0.0256310   0.0065530   0.0233594   0.0039392   0.0031766
    3   0.0128809   0.0610128  -0.0070761   0.0179410   0.0093066  -0.0320481
          277         278         279         280         281         282
    1   0.0020518   0.0027145   0.0354561  -0.0103642   0.0162427  -0.0945972
    2  -0.0166338   0.0013195  -0.0097641  -0.0274725   0.0041805   0.0260762
    3   0.0558269  -0.0099646  -0.0025197   0.0026908  -0.0345157  -0.0485649
          283         284         285         286         287         288
    1   0.0039350   0.0253587  -0.0249586   0.0239407   0.0296160  -0.0075137
    2   0.0069388   0.0163671   0.0161363  -0.0232065  -0.0321279   0.0056347
    3   0.0047922  -0.0117470   0.0164280   0.0076073  -0.0363964  -0.0023122
          289         290         291         292         293         294
    1  -0.0170128  -0.0207546   0.0165314  -0.0690256   0.0064549  -0.0139203
    2  -0.0119063   0.0095694   0.0240318  -0.0379158  -0.0037642  -0.0173322
    3  -0.0243724   0.0220363  -0.0126938   0.0753820   0.0051729   0.0159377
          295         296         297         298         299         300
    1   0.0084535   0.0152837   0.0036357  -0.0034587  -0.0004501  -0.0150448
    2  -0.0242522   0.0136554   0.0508461  -0.0041671  -0.0217955  -0.0078569
    3  -0.0195508   0.0253160   0.0253238   0.0012378  -0.0209706   0.0296458
          301         302         303         304         305         306
    1  -0.0216999   0.0308925  -0.0001191  -0.0270062   0.0234737   0.0187841
    2   0.0126561  -0.0338245  -0.0037321   0.0198833   0.0185784  -0.0316111
    3  -0.0069993  -0.0967044  -0.0059126  -0.0168163  -0.0143874   0.0003633
          307         308         309         310         311         312
    1   0.0005334   0.0070838   0.0032312   0.0284355  -0.0046852  -0.0948940
    2   0.0577085  -0.0055326  -0.0332939   0.0179792  -0.0092865  -0.0567841
    3   0.0194887   0.0012101  -0.0121239   0.0164918   0.0274166  -0.0055813
  --- DONE ESP SUMMARY ---
Archival summary:
1\1\node006\SP\ProcedureUnspecified\6-31+G*\292958h22\ymao90\FriDec313:37:082021FriDec313:37:082021\0\\#,ProcedureUnspecified,6-31+G*,\\0,1\S\O,1,1.49661\C,1,1.80694,2,101.96\H,3,1.09276,1,103.235,2,-177.967,0\H,3,1.09315,1,111.687,2,68.0382,0\H,3,1.09339,1,114.261,2,-65.2871,0\C,1,1.8073,2,112.353,3,104.107,0\H,7,1.09293,1,121.375,2,65.0197,0\H,7,1.09305,1,101.679,2,-166.342,0\H,7,1.09323,1,104.56,2,-54.9573,0\Gh,2,1.92352,1,111.609,3,-54.2578,0\Gh,11,1.01232,2,171.617,1,-124.392,0\Gh,12,1.37887,11,126.201,2,67.9273,0\Gh,13,1.10525,12,113.527,11,0.178401,0\Gh,13,1.21821,12,129.89,11,176.035,0\Gh,12,1.46226,11,109.15,2,-112.163,0\Gh,16,1.09709,12,112.052,11,-179.362,0\Gh,16,1.5372,12,109.717,11,-60.4904,0\Gh,18,1.09663,16,112.622,12,62.4608,0\Gh,18,1.09692,16,107.629,12,-50.926,0\Gh,16,1.5377,12,113.022,11,65.1414,0\Gh,21,1.09703,16,106.862,12,57.5878,0\Gh,21,1.09725,16,105.355,12,-59.6619,0\Gh,21,1.53707,16,112.467,12,-177.246,0\Gh,24,1.09701,21,113.889,16,163.449,0\Gh,24,1.09752,21,111.697,16,-75.4408,0\Gh,24,1.53712,21,114.864,16,44.3766,0\Gh,27,1.09641,24,110.551,21,-161.922,0\Gh,27,1.09703,24,113.974,21,77.984,0\Gh,27,1.53757,24,113.258,21,-43.8754,0\Gh,30,1.09669,27,107.826,24,176.398,0\Gh,30,1.09688,27,106.617,24,-71.3544,0\H,5,2.03645,3,144.179,1,120.488,0\C,33,1.09274,5,146.765,3,27.0513,0\H,34,1.09259,33,107.48,5,-179.168,0\H,34,1.09305,33,112.066,5,-59.3725,0\S,34,1.80655,33,112.997,5,62.0746,0\O,37,1.49754,34,96.7733,33,29.5725,0\C,37,1.80708,34,94.6417,33,-76.1782,0\H,39,1.09284,37,114.013,34,-82.1276,0\H,39,1.09307,37,109.222,34,47.217,0\H,39,1.09322,37,100.79,34,163.622,0\H,14,2.06453,13,119.113,12,133.105,0\C,43,1.09302,14,134.806,13,-33.6039,0\H,44,1.09324,43,115.484,14,13.7636,0\H,44,1.09371,43,107.567,14,133.287,0\S,44,1.80613,43,105.787,14,-110.186,0\O,47,1.4968,44,107.973,43,-179.963,0\C,47,1.8073,44,94.6584,43,-77.2882,0\H,49,1.0925,47,106.217,44,65.7381,0\H,49,1.09253,47,104.439,44,-52.7908,0\H,49,1.09305,47,115.55,44,-174.544,0\H,32,2.16167,30,117.901,27,-148.17,0\C,53,1.09296,32,134.859,30,45.6858,0\H,54,1.09335,53,109.139,32,44.0326,0\H,54,1.0934,53,112.487,32,-80.3814,0\S,54,1.80674,53,110.699,32,163.916,0\O,57,1.49655,54,103.729,53,-156.404,0\C,57,1.80672,54,96.2276,53,-53.5025,0\H,59,1.09274,57,111.367,54,-49.0612,0\H,59,1.09291,57,107.312,54,56.7715,0\H,59,1.09341,57,113.112,54,-168.553,0\H,55,1.96708,54,130.699,53,-91.8067,0\C,63,1.09321,55,153.202,54,140.71,0\H,64,1.09246,63,110.805,55,-27.9406,0\H,64,1.09313,63,102.578,55,-145.569,0\S,64,1.80671,63,108.232,55,94.8946,0\O,67,1.49771,64,97.4396,63,62.7143,0\C,67,1.80643,64,90.3978,63,-41.1488,0\H,69,1.09254,67,110.225,64,-53.9829,0\H,69,1.09318,67,102.067,64,-175.587,0\H,69,1.09347,67,100.43,64,64.4355,0\H,70,2.06491,69,112.116,67,-83.0481,0\C,73,1.09325,70,145.79,69,165.361,0\H,74,1.09257,73,101.876,70,52.5016,0\H,74,1.09331,73,116.406,70,169.838,0\S,74,1.8062,73,109.252,70,-65.8277,0\O,77,1.49698,74,104.653,73,34.7857,0\C,77,1.80729,74,93.3821,73,-67.9407,0\H,79,1.09278,77,113.021,74,71.7232,0\H,79,1.09303,77,109.39,74,-154.616,0\H,79,1.09342,77,106.083,74,-44.4943,0\H,6,2.18987,3,123.98,1,47.6744,0\C,83,1.09282,6,111.531,3,-146.494,0\H,84,1.09307,83,110.792,6,-8.84021,0\H,84,1.09319,83,112.684,6,-128.501,0\S,84,1.80694,83,107.053,6,100.906,0\O,87,1.49648,84,111.924,83,173.37,0\C,87,1.80782,84,97.845,83,65.9847,0\H,89,1.09232,87,108.626,84,154.765,0\H,89,1.09251,87,105.656,84,-83.467,0\H,89,1.09309,87,106.739,84,38.0549,0\H,85,1.89819,84,144.783,83,160.115,0\C,93,1.09303,85,149.775,84,-104.178,0\H,94,1.09317,93,111.358,85,-105.446,0\H,94,1.09327,93,112.784,85,134.363,0\S,94,1.80611,93,109.052,85,21.0379,0\O,97,1.49793,94,107.318,93,-51.4995,0\C,97,1.8064,94,99.1357,93,-158.596,0\H,99,1.09307,97,108.802,94,41.5712,0\H,99,1.09316,97,114.304,94,160.793,0\H,99,1.09342,97,106.97,94,-75.3726,0\H,93,2.11052,85,107.578,84,62.0808,0\C,103,1.09221,93,115.907,85,-35.449,0\H,104,1.09307,103,117.17,93,63.716,0\H,104,1.09354,103,108.046,93,-59.5707,0\S,104,1.80716,103,111.714,93,-178.692,0\O,107,1.49715,104,104.675,103,47.8362,0\C,107,1.80694,104,96.2529,103,-62.808,0\H,109,1.09296,107,108.271,104,177.095,0\H,109,1.09302,107,110.825,104,-66.8356,0\H,109,1.09348,107,102.596,104,48.1638,0\H,60,2.24019,59,152.793,57,118.585,0\C,113,1.09283,60,145.023,59,-38.1899,0\H,114,1.09286,113,108.221,60,-170.236,0\H,114,1.09332,113,102.778,60,-51.361,0\S,114,1.80701,113,107.339,60,74.1469,0\O,117,1.49681,114,101.071,113,-43.9416,0\C,117,1.80684,114,98.9672,113,57.958,0\H,119,1.0929,117,118.192,114,50.3321,0\H,119,1.09308,117,103.733,114,-78.5503,0\H,119,1.09325,117,104.703,114,167.387,0\H,25,2.24479,24,126.066,21,178.704,0\C,123,1.09382,25,161.999,24,-113.548,0\H,124,1.09289,123,116.602,25,-156.114,0\H,124,1.09325,123,106.842,25,90.5741,0\S,124,1.80715,123,117.774,25,-36.9176,0\O,127,1.49646,124,98.8866,123,81.2083,0\C,127,1.80691,124,97.0595,123,-174.76,0\H,129,1.09246,127,106.751,124,101.825,0\H,129,1.09362,127,108.431,124,-22.7697,0\H,129,1.09366,127,106.67,124,-141.538,0\H,4,2.2527,3,126.775,1,29.7709,0\C,133,1.09251,4,137.85,3,-163.091,0\H,134,1.09249,133,112.235,4,-128.444,0\H,134,1.09374,133,110.653,4,100.41,0\S,134,1.80718,133,100.711,4,-21.4925,0\O,137,1.49761,134,107.803,133,45.9065,0\C,137,1.80661,134,93.8207,133,-58.7939,0\H,139,1.09249,137,109.093,134,-67.9175,0\H,139,1.09291,137,111.032,134,166.076,0\H,139,1.09305,137,104.828,134,54.4052,0\H,68,2.257,67,130.107,64,25.871,0\C,143,1.09282,68,124.175,67,63.9799,0\H,144,1.09261,143,112.765,68,-55.534,0\H,144,1.09372,143,109.457,68,75.6639,0\S,144,1.80777,143,103.885,68,-164.358,0\O,147,1.49716,144,101.317,143,174.497,0\C,147,1.80689,144,94.4714,143,72.7123,0\H,149,1.09259,147,101.767,144,-81.2199,0\H,149,1.09311,147,109.715,144,40.9483,0\H,149,1.09337,147,107.27,144,160.616,0\H,90,2.3447,89,114.319,87,74.8316,0\C,153,1.09261,90,118.655,89,162.548,0\H,154,1.09286,153,106.762,90,29.9923,0\H,154,1.09299,153,112.479,90,147.093,0\S,154,1.80721,153,111.712,90,-91.6988,0\O,157,1.49681,154,101.507,153,170.905,0\C,157,1.80637,154,96.8812,153,68.2711,0\H,159,1.09253,157,104.425,154,67.3314,0\H,159,1.09293,157,113.188,154,-50.7682,0\H,159,1.09365,157,111.417,154,-179.158,0\H,8,2.36387,7,146.697,1,86.0339,0\C,163,1.0925,8,112.297,7,176.742,0\H,164,1.09306,163,112.454,8,27.5574,0\H,164,1.09315,163,106.729,8,154.102,0\S,164,1.80742,163,108.06,8,-82.5855,0\O,167,1.49687,164,102.538,163,-152.623,0\C,167,1.80726,164,92.9069,163,-44.1011,0\H,169,1.09244,167,107.459,164,69.1096,0\H,169,1.0932,167,107.505,164,-169.322,0\H,169,1.09324,167,111.862,164,-56.0021,0\H,165,2.44738,164,131.33,163,49.9163,0\C,173,1.09307,165,178.181,164,33.2541,0\H,174,1.09215,173,116.969,165,48.2472,0\H,174,1.09306,173,107.489,165,-69.6597,0\S,174,1.80677,173,117.643,165,170.666,0\O,177,1.49763,174,100.186,173,-123.435,0\C,177,1.80648,174,95.6053,173,-24.2744,0\H,179,1.09233,177,109.478,174,41.6667,0\H,179,1.09272,177,102.471,174,-78.2986,0\H,179,1.09322,177,107.953,174,164.453,0\H,182,2.29656,179,143.075,177,67.5054,0\C,183,1.0927,182,112.306,179,27.4475,0\H,184,1.09267,183,107.294,182,-158.094,0\H,184,1.09278,183,113.307,182,-38.9037,0\S,184,1.80717,183,109.412,182,83.438,0\O,187,1.49688,184,105.199,183,-56.2024,0\C,187,1.80698,184,102.545,183,-170.794,0\H,189,1.09268,187,109.466,184,-167.353,0\H,189,1.09291,187,109.228,184,71.5538,0\H,189,1.09363,187,107.807,184,-45.644,0\H,180,2.39251,179,91.8295,177,-167.939,0\C,193,1.09277,180,117.378,179,177.146,0\H,194,1.09247,193,111.016,180,-60.0601,0\H,194,1.09273,193,108.523,180,-173.689,0\S,194,1.80765,193,115.108,180,60.4079,0\O,197,1.4974,194,103.429,193,-71.6077,0\C,197,1.80673,194,96.8937,193,-178.239,0\H,199,1.09268,197,110.918,194,-92.6268,0\H,199,1.09294,197,103.627,194,148.018,0\H,199,1.09303,197,116.307,194,28.2042,0\H,45,2.45433,44,118.313,43,90.1816,0\C,203,1.09297,45,113.354,44,-168.116,0\H,204,1.09249,203,105.203,45,95.0642,0\H,204,1.09363,203,102.246,45,-158.392,0\S,204,1.80792,203,119.755,45,-32.7149,0\O,207,1.49713,204,99.6359,203,-143.581,0\C,207,1.80722,204,91.929,203,-47.3023,0\H,209,1.09274,207,108.335,204,-66.9021,0\H,209,1.09296,207,101.505,204,171.742,0\H,209,1.09309,207,110.251,204,53.071,0\O,66,2.49268,64,130.252,63,153.746,0\S,213,1.4967,66,135.252,64,39.2345,0\C,214,1.80661,213,102.879,66,-141.187,0\H,215,1.09233,214,109.336,213,47.8559,0\H,215,1.09313,214,112.625,213,174.941,0\H,215,1.09343,214,101.026,213,-59.849,0\C,214,1.80762,213,95.7459,66,-45.7506,0\H,219,1.09211,214,111.897,213,-150.173,0\H,219,1.09324,214,103.021,213,90.8236,0\H,219,1.09334,214,105.908,213,-25.3055,0\H,217,2.3728,215,121.224,214,-151.068,0\C,223,1.09239,217,138.889,215,-58.4141,0\H,224,1.09255,223,109.854,217,56.8346,0\H,224,1.09343,223,117.878,217,-171.72,0\S,224,1.8075,223,105.572,217,-60.8668,0\O,227,1.49697,224,95.5306,223,42.2033,0\C,227,1.80614,224,98.56,223,139.803,0\H,229,1.09276,227,104.391,224,-61.9507,0\H,229,1.09333,227,111.042,224,48.5555,0\H,229,1.09352,227,105.739,224,175.17,0\O,225,2.38094,224,118.931,223,139.726,0\S,233,1.49676,225,169.939,224,-125.008,0\C,234,1.80658,233,101.536,225,104.453,0\H,235,1.0929,234,111.881,233,-36.875,0\H,235,1.09292,234,110.212,233,-171.377,0\H,235,1.09363,234,99.3392,233,80.113,0\C,234,1.80717,233,102.823,225,14.846,0\H,239,1.09278,234,111.981,233,85.6156,0\H,239,1.0929,234,113.58,233,-35.7508,0\H,239,1.09303,234,100.626,233,-154.349,0\H,128,2.4977,127,173.914,124,-21.9994,0\C,243,1.09341,128,164.005,127,-54.9514,0\H,244,1.09305,243,117.133,128,38.402,0\H,244,1.09316,243,103.785,128,-84.2552,0\S,244,1.80645,243,111.431,128,163.089,0\O,247,1.49707,244,107.633,243,179.924,0\C,247,1.80703,244,97.4872,243,73.9063,0\H,249,1.09222,247,109.716,244,-81.6976,0\H,249,1.09306,247,108.255,244,150.837,0\H,249,1.09319,247,110.756,244,45.6481,0\H,250,2.44174,249,138.027,247,-3.08815,0\C,253,1.09266,250,159.087,249,-103.393,0\H,254,1.09264,253,114.151,250,17.8944,0\H,254,1.0934,253,109.604,250,-106.721,0\S,254,1.80703,253,107.923,250,129.579,0\O,257,1.49682,254,104.688,253,-63.1331,0\C,257,1.80757,254,94.0848,253,-166.013,0\H,259,1.09237,257,110.022,254,174.366,0\H,259,1.09247,257,105.188,254,60.945,0\H,259,1.0931,257,109.332,254,-57.284,0\O,46,2.51433,44,157.667,43,27.8711,0\S,263,1.49728,46,129.49,44,-151.372,0\C,264,1.80667,263,94.889,46,122.234,0\H,265,1.09242,264,119.469,263,-165.238,0\H,265,1.09267,264,111.067,263,-51.1431,0\H,265,1.09364,264,110.275,263,63.5347,0\C,264,1.80686,263,112.134,46,22.4719,0\H,269,1.09273,264,108.455,263,35.7418,0\H,269,1.09284,264,106.257,263,-75.1644,0\H,269,1.09394,264,114.775,263,163.09,0\H,270,2.33126,269,165.849,264,50.7198,0\C,273,1.0925,270,119.557,269,59.873,0\H,274,1.09256,273,112.614,270,144.245,0\H,274,1.09308,273,101.692,270,-93.5749,0\S,274,1.80622,273,105.692,270,24.5476,0\O,277,1.49731,274,105.155,273,-87.669,0\C,277,1.80736,274,97.0945,273,169.748,0\H,279,1.09286,277,107.948,274,-70.628,0\H,279,1.09293,277,102.485,274,173.989,0\H,279,1.09325,277,106.337,274,49.3501,0\O,280,2.28629,279,149.659,277,102.308,0\S,283,1.49727,280,131.468,279,-141.068,0\C,284,1.80722,283,108.878,280,-65.4694,0\H,285,1.09247,284,107.156,283,-60.947,0\H,285,1.09289,284,112.101,283,48.5222,0\H,285,1.09408,284,109.535,283,174.421,0\C,284,1.80732,283,103.744,280,32.9502,0\H,289,1.09271,284,112.255,283,-42.6554,0\H,289,1.0928,284,113.008,283,-161.435,0\H,289,1.09306,284,102.97,283,80.3231,0\H,68,2.53801,67,138.551,64,-82.0672,0\C,293,1.09303,68,154.686,67,52.4199,0\H,294,1.09273,293,107.84,68,-67.6157,0\H,294,1.09274,293,108.435,68,164.094,0\S,294,1.80722,293,113.435,68,48.903,0\O,297,1.49641,294,95.7712,293,61.7618,0\C,297,1.80686,294,90.4417,293,168.938,0\H,299,1.09293,297,106.177,294,160.571,0\H,299,1.09298,297,111.449,294,-74.7053,0\H,299,1.0936,297,111.857,294,48.6181,0\O,176,2.70489,174,102.397,173,43.6271,0\S,303,1.4973,176,87.0364,174,130.365,0\C,304,1.807,303,107.358,176,76.8851,0\H,305,1.09271,304,107.802,303,-71.5557,0\H,305,1.09285,304,104.768,303,168.85,0\H,305,1.09347,304,108.268,303,52.0379,0\C,304,1.80734,303,105.246,176,176.707,0\H,309,1.09243,304,106.063,303,179.429,0\H,309,1.09257,304,107.386,303,65.2687,0\H,309,1.09355,304,110.04,303,-58.8321,0\\\@

 Total job time:  56.01s(wall), 187.13s(cpu) 
 Fri Dec  3 13:37:08 2021

        *************************************************************
        *                                                           *
        *  Thank you very much for using Q-Chem.  Have a nice day.  *
        *                                                           *
        *************************************************************


