                  Welcome to Q-Chem
     A Quantum Leap Into The Future Of Chemistry


 Q-Chem 5.2 (devel), Q-Chem, Inc., Pleasanton, CA (2019)

 Yihan Shao,  Zhengting Gan,  E. Epifanovsky,  A. T. B. Gilbert,  M. Wormit,  
 J. Kussmann,  A. W. Lange,  A. Behn,  Jia Deng,  Xintian Feng,  D. Ghosh,  
 M. Goldey,  P. R. Horn,  L. D. Jacobson,  I. Kaliman,  T. Kus,  A. Landau,  
 Jie Liu,  E. I. Proynov,  R. M. Richard,  R. P. Steele,  E. J. Sundstrom,  
 H. L. Woodcock III,  P. M. Zimmerman,  D. Zuev,  B. Alam,  B. Albrecht,  
 E. Alguire,  S. A. Baeppler,  D. Barton,  Z. Benda,  Y. A. Bernard,  
 E. J. Berquist,  K. B. Bravaya,  H. Burton,  K. Carter-Fenk,  D. Casanova,  
 Chun-Min Chang,  Yunqing Chen,  A. Chien,  K. D. Closser,  M. P. Coons,  
 S. Coriani,  S. Dasgupta,  A. L. Dempwolff,  M. Diedenhofen,  Hainam Do,  
 R. G. Edgar,  Po-Tung Fang,  S. Faraji,  S. Fatehi,  Qingguo Feng,  
 J. Fosso-Tande,  J. Gayvert,  Qinghui Ge,  A. Ghysels,  G. Gidofalvi,  
 J. Gomes,  J. Gonthier,  A. Gunina,  D. Hait,  M. W. D. Hanson-Heine,  
 P. H. P. Harbach,  A. W. Hauser,  M. F. Herbst,  J. E. Herr,  
 E. G. Hohenstein,  Z. C. Holden,  Kerwin Hui,  B. C. Huynh,  T.-C. Jagau,  
 Hyunjun Ji,  B. Kaduk,  K. Khistyaev,  Jaehoon Kim,  P. Klunzinger,  K. Koh,  
 D. Kosenkov,  L. Koulias,  T. Kowalczyk,  C. M. Krauter,  A. Kunitsa,  
 Ka Un Lao,  A. Laurent,  K. V. Lawler,  Joonho Lee,  D. Lefrancois,  
 S. Lehtola,  D. S. Levine,  Yi-Pei Li,  You-Sheng Lin,  Fenglai Liu,  
 Kuan-Yu Liu,  E. Livshits,  M. Loipersberger,  A. Luenser,  P. Manohar,  
 E. Mansoor,  S. F. Manzer,  Shan-Ping Mao,  Yuezhi Mao,  N. Mardirossian,  
 A. V. Marenich,  T. Markovich,  L. A. Martinez-Martinez,  S. A. Maurer,  
 N. J. Mayhall,  S. C. McKenzie,  J.-M. Mewes,  P. Morgante,  A. F. Morrison,  
 J. W. Mullinax,  K. Nanda,  T. S. Nguyen-Beck,  R. Olivares-Amaya,  
 J. A. Parkhill,  S. K. Paul,  F. Pavosevic,  Zheng Pei,  T. M. Perrine,  
 F. Plasser,  P. Pokhilko,  S. Prager,  A. Prociuk,  E. Ramos,  B. Rana,  
 D. R. Rehn,  F. Rob,  M. Scheurer,  M. Schneider,  N. Sergueev,  
 S. M. Sharada,  S. Sharma,  D. W. Small,  T. Stauch,  C. J. Stein,  
 T. Stein,  Yu-Chuan Su,  S. P. Veccham,  Zhen Tao,  A. J. W. Thom,  
 A. Tkatchenko,  T. Tsuchimochi,  N. M. Tubman,  L. Vogt,  M. L. Vidal,  
 O. Vydrov,  M. A. Watson,  J. Wenzel,  M. de Wergifosse,  T. A. Wesolowski,  
 A. White,  J. Witte,  A. Yamada,  Jun Yang,  K. Yao,  S. Yeganeh,  
 S. R. Yost,  Zhi-Qiang You,  A. Zech,  Igor Ying Zhang,  Xing Zhang,  
 Yan Zhao,  Ying Zhu,  B. R. Brooks,  G. K. L. Chan,  C. J. Cramer,  
 M. S. Gordon,  W. J. Hehre,  A. Klamt,  M. W. Schmidt,  C. D. Sherrill,  
 D. G. Truhlar,  A. Aspuru-Guzik,  R. Baer,  A. T. Bell,  N. A. Besley,  
 Jeng-Da Chai,  A. E. DePrince, III,  R. A. DiStasio Jr.,  A. Dreuw,  
 B. D. Dunietz,  T. R. Furlani,  Chao-Ping Hsu,  Yousung Jung,  Jing Kong,  
 D. S. Lambrecht,  WanZhen Liang,  C. Ochsenfeld,  V. A. Rassolov,  
 L. V. Slipchenko,  J. E. Subotnik,  T. Van Voorhis,  J. M. Herbert,  
 A. I. Krylov,  P. M. W. Gill,  M. Head-Gordon

 Contributors to earlier versions of Q-Chem not listed above: 
 R. D. Adamson,  B. Austin,  J. Baker,  G. J. O. Beran,  K. Brandhorst,  
 S. T. Brown,  E. F. C. Byrd,  A. K. Chakraborty,  C.-L. Cheng,  
 Siu Hung Chien,  D. M. Chipman,  D. L. Crittenden,  H. Dachsel,  
 R. J. Doerksen,  A. D. Dutoi,  L. Fusti-Molnar,  W. A. Goddard III,  
 A. Golubeva-Zadorozhnaya,  S. R. Gwaltney,  G. Hawkins,  A. Heyden,  
 S. Hirata,  G. Kedziora,  F. J. Keil,  C. Kelley,  Jihan Kim,  R. A. King,  
 R. Z. Khaliullin,  P. P. Korambath,  W. Kurlancheek,  A. M. Lee,  M. S. Lee,  
 S. V. Levchenko,  Ching Yeh Lin,  D. Liotard,  R. C. Lochan,  I. Lotan,  
 P. E. Maslen,  N. Nair,  D. P. O'Neill,  D. Neuhauser,  E. Neuscamman,  
 C. M. Oana,  R. Olson,  B. Peters,  R. Peverati,  P. A. Pieniazek,  
 Y. M. Rhee,  J. Ritchie,  M. A. Rohrdanz,  E. Rosta,  N. J. Russ,  
 H. F. Schaefer III,  N. E. Schultz,  N. Shenvi,  A. C. Simmonett,  A. Sodt,  
 D. Stuck,  K. S. Thanthiriwatte,  V. Vanovschi,  Tao Wang,  A. Warshel,  
 C. F. Williams,  Q. Wu,  X. Xu,  W. Zhang

 Please cite Q-Chem as follows:
 Y. Shao et al., Mol. Phys. 113, 184-215 (2015)
 DOI: 10.1080/00268976.2014.952696

 Q-Chem 5.2.2 for Intel X86 EM64T Linux

 Parts of Q-Chem use Armadillo 9.800.1 (Horizon Scraper).
 http://arma.sourceforge.net/

 Q-Chem begins on Fri Dec  3 16:36:27 2021  

Host: node029
0

     Scratch files written to /home/ymao90/scratch/r7.00_frame_0037_spade_B3LYP_dp20211203120848//

Checking the input file for inconsistencies... 	...done.

--------------------------------------------------------------
User input:
--------------------------------------------------------------
$molecule
0 1
--
0 1
C    22.68800   15.06600   27.35100  
C    22.52400   14.87800   28.86800  
C    23.64500   15.62300   29.61100  
C    23.78900   17.11500   29.26900  
C    23.92600   17.36700   27.75900  
C    22.92200   16.53100   26.94800  
H    23.59800   15.46900   30.69600  
H    21.61000   15.35000   29.24800  
H    23.52600   14.42300   27.05100  
H    21.80000   14.71900   26.80900  
H    22.92100   17.62000   29.71000  
H    24.65500   17.46700   29.84300  
H    23.99900   18.43000   27.49700  
H    24.98100   17.12400   27.58000  
H    21.99200   17.10900   27.02600  
H    23.06500   16.54300   25.86100  
H    24.52100   15.06700   29.25500  
N    22.61100   13.43800   29.10700  
H    23.35400   12.90500   28.67200  
C    21.79300   12.76700   29.99200  
H    21.97200   11.67600   29.98700  
O    21.04700   13.33100   30.77200  
--
0 1
C    16.04600   18.92200   32.86000  
H    16.06200   19.59500   33.72100  
H    16.09200   19.68900   32.08300  
H    15.16700   18.28500   32.73700  
S    17.51200   17.87300   32.99300  
C    17.01800   17.13000   34.56500  
H    17.80500   16.42500   34.84600  
H    16.86300   17.92300   35.30100  
H    16.06900   16.62100   34.37800  
O    18.61800   18.84600   33.26300  
C    21.07300   16.97600   21.81200  
H    20.17200   17.43800   22.22200  
H    20.87400   16.77400   20.75600  
H    21.18700   16.01700   22.32300  
S    22.59700   17.87000   22.18700  
C    23.72600   16.80300   21.26400  
H    23.33900   16.30500   20.37200  
H    24.54400   17.40800   20.86300  
H    24.16000   16.07100   21.95100  
O    22.74800   17.22000   23.52700  
C    26.10700   20.37400   31.08700  
H    26.03500   19.32300   31.37900  
H    27.17700   20.53600   30.93200  
H    25.81900   21.03700   31.90600  
S    25.08000   20.51100   29.60600  
C    25.37600   22.26900   29.31300  
H    25.09200   22.87600   30.17600  
H    26.39600   22.51600   29.00700  
H    24.72000   22.51400   28.47400  
O    23.70800   20.54600   30.20300  
C    29.39400   11.74300   24.03000  
H    28.35100   11.49300   24.23900  
H    29.35700   12.37800   23.14100  
H    30.06700   10.90800   23.82000  
S    30.18400   12.63000   25.39200  
C    30.16300   11.25200   26.56100  
H    30.79600   10.42100   26.23900  
H    30.45400   11.66700   27.52900  
H    29.13400   10.88700   26.61600  
O    29.04300   13.47700   25.86300  
C    29.64400   19.49300   31.71800  
H    28.79100   18.98400   32.17200  
H    29.43100   20.55600   31.85800  
H    29.65500   19.27900   30.64600  
S    31.20500   19.17100   32.57000  
C    31.05500   17.38100   32.37100  
H    31.29600   17.19100   31.32200  
H    31.78100   16.95000   33.06400  
H    30.04200   17.10800   32.68000  
O    30.91000   19.47500   34.00600  
C    21.94300   19.44700   34.41400  
H    21.58400   19.69700   33.41300  
H    21.55500   18.48000   34.74400  
H    21.69300   20.23200   35.13300  
S    23.74100   19.30700   34.30500  
C    23.87000   18.05300   33.01000  
H    23.44100   18.45000   32.08700  
H    24.87500   17.69100   32.78000  
H    23.29600   17.16700   33.29300  
O    24.04400   18.68700   35.63300  
C    23.37100   9.61200    32.68100  
H    23.17500   9.27600    31.66000  
H    24.16400   10.36400   32.72600  
H    23.70500   8.80400    33.33700  
S    21.96200   10.48600   33.40000  
C    22.49300   10.67700   35.11700  
H    21.91800   11.44800   35.63700  
H    22.25200   9.71400    35.57400  
H    23.57700   10.81000   35.14300  
O    20.85300   9.49400    33.56500  
C    20.77100   12.27000   25.73900  
H    20.82200   11.29400   26.22900  
H    21.71800   12.59900   25.30400  
H    20.39200   13.05500   26.39700  
S    19.54100   12.17300   24.42000  
C    19.66100   13.92400   23.98900  
H    19.01700   14.16200   23.13900  
H    19.33700   14.57900   24.80200  
H    20.67400   14.13300   23.63600  
O    18.31200   12.27100   25.26900  
C    20.59000   7.19900    30.97900  
H    20.33900   8.04600    30.33600  
H    20.19400   7.55100    31.93500  
H    21.65700   7.02000    31.13700  
S    19.84700   5.61300    30.53300  
C    18.14500   6.19800    30.69800  
H    17.46300   5.34500    30.65300  
H    17.99700   6.64000    31.68700  
H    17.83100   6.85400    29.88200  
O    20.07200   4.68800    31.68900  
C    29.13400   16.95000   26.96000  
H    28.05600   17.07900   26.83600  
H    29.72200   17.87100   26.96400  
H    29.39800   16.27000   26.14600  
S    29.33700   16.22600   28.60300  
C    28.15300   17.38800   29.32000  
H    27.15400   16.95500   29.41800  
H    28.60900   17.57500   30.29500  
H    28.10600   18.29800   28.71600  
O    30.70600   16.59600   29.08200  
C    18.08800   14.69100   30.70600  
H    17.61100   15.48600   31.28600  
H    17.73500   13.80500   31.23900  
H    19.15200   14.92700   30.61800  
S    17.26900   14.71500   29.09600  
C    18.65000   14.06900   28.12600  
H    19.30700   14.92900   27.97400  
H    19.15200   13.31600   28.73800  
H    18.24700   13.74500   27.16300  
O    17.30500   16.20200   28.92200  
C    20.82700   16.01900   33.13700  
H    20.37100   17.01000   33.06500  
H    21.68400   15.79100   32.49800  
H    20.05000   15.28400   32.91100  
S    21.19500   15.79100   34.89100  
C    21.43700   14.01300   34.67700  
H    22.20400   14.01400   33.89800  
H    21.89000   13.53000   35.54600  
H    20.45200   13.66300   34.35900  
O    19.87700   15.79900   35.59900  
C    27.54600   8.71200    31.33800  
H    27.73500   7.97400    32.12200  
H    27.25400   9.66200    31.79200  
H    26.72600   8.18300    30.84600  
S    28.99900   8.81300    30.26800  
C    30.13500   9.48800    31.50100  
H    30.42400   8.73900    32.24200  
H    31.05800   9.82400    31.02200  
H    29.63600   10.28900   32.05200  
O    28.71400   10.03900   29.45700  
C    18.93200   17.36400   26.34900  
H    19.82500   17.99400   26.35100  
H    18.56000   17.47000   27.37100  
H    19.09000   16.31000   26.10700  
S    17.75400   17.98100   25.12500  
C    16.66500   16.57600   25.44700  
H    16.19700   16.78800   26.41200  
H    15.93900   16.51000   24.63200  
H    17.27700   15.67100   25.46900  
O    18.33000   17.42400   23.86000  
C    18.43800   19.19300   29.30800  
H    17.97600   19.42800   28.34500  
H    18.39000   18.16300   29.67000  
H    18.03000   19.85100   30.08000  
S    20.21400   19.51100   29.21100  
C    20.45100   19.83500   30.97300  
H    21.46600   20.22700   31.08100  
H    19.78100   20.67900   31.15300  
H    20.27500   19.08800   31.75100  
O    20.24200   20.90800   28.67200  
C    27.82800   13.73000   33.25900  
H    28.06800   13.71600   34.32500  
H    27.20300   12.87000   33.00300  
H    28.79800   13.72300   32.75600  
S    26.89800   15.23700   32.89700  
C    25.47800   14.73800   33.89600  
H    25.17500   13.73000   33.60300  
H    25.76900   14.74000   34.95000  
H    24.64000   15.41900   33.73100  
O    26.64500   15.11200   31.42700  
C    29.47100   22.92800   27.44900  
H    30.40300   23.01300   28.01400  
H    29.65200   23.17900   26.40100  
H    28.64400   23.44900   27.93900  
S    29.16000   21.14800   27.46100  
C    27.67800   21.25900   26.43300  
H    26.89400   21.79200   26.97700  
H    27.94000   21.77100   25.50300  
H    27.42900   20.20200   26.31100  
O    28.55800   20.85900   28.80100  
C    29.71900   16.93800   22.11400  
H    29.94200   15.94900   21.70700  
H    29.30800   17.65900   21.40200  
H    30.64000   17.27400   22.59600  
S    28.44700   16.75600   23.38500  
C    27.15100   16.77300   22.12600  
H    27.22500   17.69800   21.54800  
H    27.27300   15.86000   21.53700  
H    26.21200   16.79100   22.68600  
O    28.39700   18.11700   24.00700  
C    18.37900   11.58400   34.53000  
H    17.64500   10.79500   34.71200  
H    18.95700   11.33800   33.63600  
H    19.08000   11.77300   35.34800  
S    17.45800   13.10300   34.20200  
C    16.54900   13.52600   35.70600  
H    16.60000   12.66200   36.37300  
H    16.89800   14.41500   36.23800  
H    15.50600   13.72900   35.45200  
O    16.42500   12.51300   33.29300  
C    24.13700   12.64000   24.04200  
H    23.32300   13.22100   23.60200  
H    24.20500   11.66700   23.54700  
H    24.02400   12.51500   25.12200  
S    25.66900   13.55000   23.74300  
C    25.16700   15.03500   24.64300  
H    24.81900   14.66900   25.61200  
H    26.00200   15.73800   24.70300  
H    24.38700   15.44200   23.99500  
O    25.57600   13.92500   22.29700  
C    25.15000   25.07700   23.20300  
H    24.19000   25.43200   23.58800  
H    25.80300   25.95300   23.18100  
H    25.04400   24.67100   22.19400  
S    25.84700   23.85700   24.34000  
C    25.64700   24.79900   25.86900  
H    26.28300   24.35800   26.64100  
H    25.87400   25.85100   25.67800  
H    24.63300   24.69200   26.26100  
O    27.31800   23.90100   24.07000  
C    17.92900   9.82500    30.78200  
H    17.73700   10.62100   31.50500  
H    17.09400   9.13300    30.64600  
H    18.89600   9.37000    31.01200  
S    18.14700   10.84600   29.30700  
C    17.28700   9.66900    28.24000  
H    16.22100   9.73000    28.47300  
H    17.48900   9.97400    27.21000  
H    17.54200   8.61300    28.36800  
O    19.61300   10.75300   29.01500  
C    29.45000   17.93800   36.43000  
H    30.47000   17.90700   36.04000  
H    29.05400   18.95300   36.34000  
H    29.30500   17.54600   37.44000  
S    28.36500   16.95900   35.36700  
C    26.85600   17.75800   35.95700  
H    27.04900   17.97800   37.01000  
H    26.57900   18.60000   35.31700  
H    25.98100   17.10300   35.96800  
O    28.21400   15.59600   35.96900  
C    23.09200   21.33300   26.43000  
H    22.03800   21.60400   26.52800  
H    23.43400   20.64000   27.20200  
H    23.63200   22.28300   26.40200  
S    23.13600   20.54900   24.80200  
C    24.88200   20.08300   24.79900  
H    25.38000   21.03200   25.01500  
H    25.02200   19.19900   25.42700  
H    25.14900   19.73700   23.79800  
O    23.09300   21.73600   23.89200  
C    21.37800   23.36700   29.77500  
H    20.55000   23.28000   29.06700  
H    22.01800   22.48700   29.67400  
H    20.98100   23.64200   30.75600  
S    22.20400   24.86500   29.19300  
C    20.85600   26.06800   29.23200  
H    20.29500   25.97400   28.29800  
H    20.31600   25.87800   30.16400  
H    21.31900   27.04600   29.07800  
O    22.48000   24.62800   27.74100  
C    19.17000   21.78300   25.25000  
H    19.41800   21.82100   26.31400  
H    18.08600   21.88000   25.14000  
H    19.37800   20.90200   24.63800  
S    20.12400   23.04000   24.37000  
C    19.42400   24.46900   25.22600  
H    19.78800   25.30900   24.62800  
H    18.33600   24.37200   25.24000  
H    19.81100   24.52900   26.24600  
O    19.40000   23.18400   23.06800  
C    25.91300   12.14000   30.18300  
H    25.52900   13.14900   30.35400  
H    25.24600   11.32100   30.46600  
H    26.90900   12.13900   30.63200  
S    26.14800   11.85000   28.41500  
C    26.92500   13.40300   27.91500  
H    27.96300   13.48900   28.24700  
H    26.99400   13.34100   26.82500  
H    26.26000   14.24100   28.13800  
O    24.74100   12.01800   27.93100  
C    25.57300   9.49600    23.69600  
H    25.82100   9.69400    22.65000  
H    24.55600   9.09900    23.75500  
H    25.73600   10.39400   24.29600  
S    26.82400   8.32100    24.26000  
C    26.41100   8.37100    26.01800  
H    25.40200   7.95400    26.07400  
H    27.17700   7.81600    26.56500  
H    26.33800   9.43200    26.27200  
O    28.12800   9.05600    24.22300  
C    20.75100   7.58900    27.04800  
H    20.20100   8.17200    27.79100  
H    20.69400   8.02300    26.04600  
H    20.29600   6.60000    26.94800  
S    22.43900   7.71700    27.68100  
C    22.60800   9.40400    27.05800  
H    22.38700   9.42300    25.98700  
H    21.94500   10.08200   27.60100  
H    23.65300   9.67400    27.23000  
O    23.20600   6.78800    26.79200  
$end

$rem
JOBTYPE  SP
METHOD  B3LYP
BASIS  6-31+G(D)
SYMMETRY  FALSE
SYM_IGNORE  TRUE
MEM_TOTAL  16000
MEM_STATIC  8000
MAX_SUB_FILE_NUM  16000
BASIS_LIN_DEP_THRESH  6
THRESH  14
SCF_CONVERGENCE  8
GEN_SCFMAN  TRUE
SCF_GUESS  SAD
FD_MAT_VEC_PROD  FALSE
XC_GRID  000075000302
NL_GRID  1
MAX_SCF_CYCLES  200
ENV_METHOD  B3LYP
GEN_SCFMAN_EMBED  TRUE
SPADE_PARTITION  TRUE
$end

$development
embedding_early_stop  1
$end

--------------------------------------------------------------
 ----------------------------------------------------------------
             Standard Nuclear Orientation (Angstroms)
    I     Atom           X                Y                Z
 ----------------------------------------------------------------
    1      C      22.6880000000    15.0660000000    27.3510000000
    2      C      22.5240000000    14.8780000000    28.8680000000
    3      C      23.6450000000    15.6230000000    29.6110000000
    4      C      23.7890000000    17.1150000000    29.2690000000
    5      C      23.9260000000    17.3670000000    27.7590000000
    6      C      22.9220000000    16.5310000000    26.9480000000
    7      H      23.5980000000    15.4690000000    30.6960000000
    8      H      21.6100000000    15.3500000000    29.2480000000
    9      H      23.5260000000    14.4230000000    27.0510000000
   10      H      21.8000000000    14.7190000000    26.8090000000
   11      H      22.9210000000    17.6200000000    29.7100000000
   12      H      24.6550000000    17.4670000000    29.8430000000
   13      H      23.9990000000    18.4300000000    27.4970000000
   14      H      24.9810000000    17.1240000000    27.5800000000
   15      H      21.9920000000    17.1090000000    27.0260000000
   16      H      23.0650000000    16.5430000000    25.8610000000
   17      H      24.5210000000    15.0670000000    29.2550000000
   18      N      22.6110000000    13.4380000000    29.1070000000
   19      H      23.3540000000    12.9050000000    28.6720000000
   20      C      21.7930000000    12.7670000000    29.9920000000
   21      H      21.9720000000    11.6760000000    29.9870000000
   22      O      21.0470000000    13.3310000000    30.7720000000
   23      C      16.0460000000    18.9220000000    32.8600000000
   24      H      16.0620000000    19.5950000000    33.7210000000
   25      H      16.0920000000    19.6890000000    32.0830000000
   26      H      15.1670000000    18.2850000000    32.7370000000
   27      S      17.5120000000    17.8730000000    32.9930000000
   28      C      17.0180000000    17.1300000000    34.5650000000
   29      H      17.8050000000    16.4250000000    34.8460000000
   30      H      16.8630000000    17.9230000000    35.3010000000
   31      H      16.0690000000    16.6210000000    34.3780000000
   32      O      18.6180000000    18.8460000000    33.2630000000
   33      C      21.0730000000    16.9760000000    21.8120000000
   34      H      20.1720000000    17.4380000000    22.2220000000
   35      H      20.8740000000    16.7740000000    20.7560000000
   36      H      21.1870000000    16.0170000000    22.3230000000
   37      S      22.5970000000    17.8700000000    22.1870000000
   38      C      23.7260000000    16.8030000000    21.2640000000
   39      H      23.3390000000    16.3050000000    20.3720000000
   40      H      24.5440000000    17.4080000000    20.8630000000
   41      H      24.1600000000    16.0710000000    21.9510000000
   42      O      22.7480000000    17.2200000000    23.5270000000
   43      C      26.1070000000    20.3740000000    31.0870000000
   44      H      26.0350000000    19.3230000000    31.3790000000
   45      H      27.1770000000    20.5360000000    30.9320000000
   46      H      25.8190000000    21.0370000000    31.9060000000
   47      S      25.0800000000    20.5110000000    29.6060000000
   48      C      25.3760000000    22.2690000000    29.3130000000
   49      H      25.0920000000    22.8760000000    30.1760000000
   50      H      26.3960000000    22.5160000000    29.0070000000
   51      H      24.7200000000    22.5140000000    28.4740000000
   52      O      23.7080000000    20.5460000000    30.2030000000
   53      C      29.3940000000    11.7430000000    24.0300000000
   54      H      28.3510000000    11.4930000000    24.2390000000
   55      H      29.3570000000    12.3780000000    23.1410000000
   56      H      30.0670000000    10.9080000000    23.8200000000
   57      S      30.1840000000    12.6300000000    25.3920000000
   58      C      30.1630000000    11.2520000000    26.5610000000
   59      H      30.7960000000    10.4210000000    26.2390000000
   60      H      30.4540000000    11.6670000000    27.5290000000
   61      H      29.1340000000    10.8870000000    26.6160000000
   62      O      29.0430000000    13.4770000000    25.8630000000
   63      C      29.6440000000    19.4930000000    31.7180000000
   64      H      28.7910000000    18.9840000000    32.1720000000
   65      H      29.4310000000    20.5560000000    31.8580000000
   66      H      29.6550000000    19.2790000000    30.6460000000
   67      S      31.2050000000    19.1710000000    32.5700000000
   68      C      31.0550000000    17.3810000000    32.3710000000
   69      H      31.2960000000    17.1910000000    31.3220000000
   70      H      31.7810000000    16.9500000000    33.0640000000
   71      H      30.0420000000    17.1080000000    32.6800000000
   72      O      30.9100000000    19.4750000000    34.0060000000
   73      C      21.9430000000    19.4470000000    34.4140000000
   74      H      21.5840000000    19.6970000000    33.4130000000
   75      H      21.5550000000    18.4800000000    34.7440000000
   76      H      21.6930000000    20.2320000000    35.1330000000
   77      S      23.7410000000    19.3070000000    34.3050000000
   78      C      23.8700000000    18.0530000000    33.0100000000
   79      H      23.4410000000    18.4500000000    32.0870000000
   80      H      24.8750000000    17.6910000000    32.7800000000
   81      H      23.2960000000    17.1670000000    33.2930000000
   82      O      24.0440000000    18.6870000000    35.6330000000
   83      C      23.3710000000     9.6120000000    32.6810000000
   84      H      23.1750000000     9.2760000000    31.6600000000
   85      H      24.1640000000    10.3640000000    32.7260000000
   86      H      23.7050000000     8.8040000000    33.3370000000
   87      S      21.9620000000    10.4860000000    33.4000000000
   88      C      22.4930000000    10.6770000000    35.1170000000
   89      H      21.9180000000    11.4480000000    35.6370000000
   90      H      22.2520000000     9.7140000000    35.5740000000
   91      H      23.5770000000    10.8100000000    35.1430000000
   92      O      20.8530000000     9.4940000000    33.5650000000
   93      C      20.7710000000    12.2700000000    25.7390000000
   94      H      20.8220000000    11.2940000000    26.2290000000
   95      H      21.7180000000    12.5990000000    25.3040000000
   96      H      20.3920000000    13.0550000000    26.3970000000
   97      S      19.5410000000    12.1730000000    24.4200000000
   98      C      19.6610000000    13.9240000000    23.9890000000
   99      H      19.0170000000    14.1620000000    23.1390000000
  100      H      19.3370000000    14.5790000000    24.8020000000
  101      H      20.6740000000    14.1330000000    23.6360000000
  102      O      18.3120000000    12.2710000000    25.2690000000
  103      C      20.5900000000     7.1990000000    30.9790000000
  104      H      20.3390000000     8.0460000000    30.3360000000
  105      H      20.1940000000     7.5510000000    31.9350000000
  106      H      21.6570000000     7.0200000000    31.1370000000
  107      S      19.8470000000     5.6130000000    30.5330000000
  108      C      18.1450000000     6.1980000000    30.6980000000
  109      H      17.4630000000     5.3450000000    30.6530000000
  110      H      17.9970000000     6.6400000000    31.6870000000
  111      H      17.8310000000     6.8540000000    29.8820000000
  112      O      20.0720000000     4.6880000000    31.6890000000
  113      C      29.1340000000    16.9500000000    26.9600000000
  114      H      28.0560000000    17.0790000000    26.8360000000
  115      H      29.7220000000    17.8710000000    26.9640000000
  116      H      29.3980000000    16.2700000000    26.1460000000
  117      S      29.3370000000    16.2260000000    28.6030000000
  118      C      28.1530000000    17.3880000000    29.3200000000
  119      H      27.1540000000    16.9550000000    29.4180000000
  120      H      28.6090000000    17.5750000000    30.2950000000
  121      H      28.1060000000    18.2980000000    28.7160000000
  122      O      30.7060000000    16.5960000000    29.0820000000
  123      C      18.0880000000    14.6910000000    30.7060000000
  124      H      17.6110000000    15.4860000000    31.2860000000
  125      H      17.7350000000    13.8050000000    31.2390000000
  126      H      19.1520000000    14.9270000000    30.6180000000
  127      S      17.2690000000    14.7150000000    29.0960000000
  128      C      18.6500000000    14.0690000000    28.1260000000
  129      H      19.3070000000    14.9290000000    27.9740000000
  130      H      19.1520000000    13.3160000000    28.7380000000
  131      H      18.2470000000    13.7450000000    27.1630000000
  132      O      17.3050000000    16.2020000000    28.9220000000
  133      C      20.8270000000    16.0190000000    33.1370000000
  134      H      20.3710000000    17.0100000000    33.0650000000
  135      H      21.6840000000    15.7910000000    32.4980000000
  136      H      20.0500000000    15.2840000000    32.9110000000
  137      S      21.1950000000    15.7910000000    34.8910000000
  138      C      21.4370000000    14.0130000000    34.6770000000
  139      H      22.2040000000    14.0140000000    33.8980000000
  140      H      21.8900000000    13.5300000000    35.5460000000
  141      H      20.4520000000    13.6630000000    34.3590000000
  142      O      19.8770000000    15.7990000000    35.5990000000
  143      C      27.5460000000     8.7120000000    31.3380000000
  144      H      27.7350000000     7.9740000000    32.1220000000
  145      H      27.2540000000     9.6620000000    31.7920000000
  146      H      26.7260000000     8.1830000000    30.8460000000
  147      S      28.9990000000     8.8130000000    30.2680000000
  148      C      30.1350000000     9.4880000000    31.5010000000
  149      H      30.4240000000     8.7390000000    32.2420000000
  150      H      31.0580000000     9.8240000000    31.0220000000
  151      H      29.6360000000    10.2890000000    32.0520000000
  152      O      28.7140000000    10.0390000000    29.4570000000
  153      C      18.9320000000    17.3640000000    26.3490000000
  154      H      19.8250000000    17.9940000000    26.3510000000
  155      H      18.5600000000    17.4700000000    27.3710000000
  156      H      19.0900000000    16.3100000000    26.1070000000
  157      S      17.7540000000    17.9810000000    25.1250000000
  158      C      16.6650000000    16.5760000000    25.4470000000
  159      H      16.1970000000    16.7880000000    26.4120000000
  160      H      15.9390000000    16.5100000000    24.6320000000
  161      H      17.2770000000    15.6710000000    25.4690000000
  162      O      18.3300000000    17.4240000000    23.8600000000
  163      C      18.4380000000    19.1930000000    29.3080000000
  164      H      17.9760000000    19.4280000000    28.3450000000
  165      H      18.3900000000    18.1630000000    29.6700000000
  166      H      18.0300000000    19.8510000000    30.0800000000
  167      S      20.2140000000    19.5110000000    29.2110000000
  168      C      20.4510000000    19.8350000000    30.9730000000
  169      H      21.4660000000    20.2270000000    31.0810000000
  170      H      19.7810000000    20.6790000000    31.1530000000
  171      H      20.2750000000    19.0880000000    31.7510000000
  172      O      20.2420000000    20.9080000000    28.6720000000
  173      C      27.8280000000    13.7300000000    33.2590000000
  174      H      28.0680000000    13.7160000000    34.3250000000
  175      H      27.2030000000    12.8700000000    33.0030000000
  176      H      28.7980000000    13.7230000000    32.7560000000
  177      S      26.8980000000    15.2370000000    32.8970000000
  178      C      25.4780000000    14.7380000000    33.8960000000
  179      H      25.1750000000    13.7300000000    33.6030000000
  180      H      25.7690000000    14.7400000000    34.9500000000
  181      H      24.6400000000    15.4190000000    33.7310000000
  182      O      26.6450000000    15.1120000000    31.4270000000
  183      C      29.4710000000    22.9280000000    27.4490000000
  184      H      30.4030000000    23.0130000000    28.0140000000
  185      H      29.6520000000    23.1790000000    26.4010000000
  186      H      28.6440000000    23.4490000000    27.9390000000
  187      S      29.1600000000    21.1480000000    27.4610000000
  188      C      27.6780000000    21.2590000000    26.4330000000
  189      H      26.8940000000    21.7920000000    26.9770000000
  190      H      27.9400000000    21.7710000000    25.5030000000
  191      H      27.4290000000    20.2020000000    26.3110000000
  192      O      28.5580000000    20.8590000000    28.8010000000
  193      C      29.7190000000    16.9380000000    22.1140000000
  194      H      29.9420000000    15.9490000000    21.7070000000
  195      H      29.3080000000    17.6590000000    21.4020000000
  196      H      30.6400000000    17.2740000000    22.5960000000
  197      S      28.4470000000    16.7560000000    23.3850000000
  198      C      27.1510000000    16.7730000000    22.1260000000
  199      H      27.2250000000    17.6980000000    21.5480000000
  200      H      27.2730000000    15.8600000000    21.5370000000
  201      H      26.2120000000    16.7910000000    22.6860000000
  202      O      28.3970000000    18.1170000000    24.0070000000
  203      C      18.3790000000    11.5840000000    34.5300000000
  204      H      17.6450000000    10.7950000000    34.7120000000
  205      H      18.9570000000    11.3380000000    33.6360000000
  206      H      19.0800000000    11.7730000000    35.3480000000
  207      S      17.4580000000    13.1030000000    34.2020000000
  208      C      16.5490000000    13.5260000000    35.7060000000
  209      H      16.6000000000    12.6620000000    36.3730000000
  210      H      16.8980000000    14.4150000000    36.2380000000
  211      H      15.5060000000    13.7290000000    35.4520000000
  212      O      16.4250000000    12.5130000000    33.2930000000
  213      C      24.1370000000    12.6400000000    24.0420000000
  214      H      23.3230000000    13.2210000000    23.6020000000
  215      H      24.2050000000    11.6670000000    23.5470000000
  216      H      24.0240000000    12.5150000000    25.1220000000
  217      S      25.6690000000    13.5500000000    23.7430000000
  218      C      25.1670000000    15.0350000000    24.6430000000
  219      H      24.8190000000    14.6690000000    25.6120000000
  220      H      26.0020000000    15.7380000000    24.7030000000
  221      H      24.3870000000    15.4420000000    23.9950000000
  222      O      25.5760000000    13.9250000000    22.2970000000
  223      C      25.1500000000    25.0770000000    23.2030000000
  224      H      24.1900000000    25.4320000000    23.5880000000
  225      H      25.8030000000    25.9530000000    23.1810000000
  226      H      25.0440000000    24.6710000000    22.1940000000
  227      S      25.8470000000    23.8570000000    24.3400000000
  228      C      25.6470000000    24.7990000000    25.8690000000
  229      H      26.2830000000    24.3580000000    26.6410000000
  230      H      25.8740000000    25.8510000000    25.6780000000
  231      H      24.6330000000    24.6920000000    26.2610000000
  232      O      27.3180000000    23.9010000000    24.0700000000
  233      C      17.9290000000     9.8250000000    30.7820000000
  234      H      17.7370000000    10.6210000000    31.5050000000
  235      H      17.0940000000     9.1330000000    30.6460000000
  236      H      18.8960000000     9.3700000000    31.0120000000
  237      S      18.1470000000    10.8460000000    29.3070000000
  238      C      17.2870000000     9.6690000000    28.2400000000
  239      H      16.2210000000     9.7300000000    28.4730000000
  240      H      17.4890000000     9.9740000000    27.2100000000
  241      H      17.5420000000     8.6130000000    28.3680000000
  242      O      19.6130000000    10.7530000000    29.0150000000
  243      C      29.4500000000    17.9380000000    36.4300000000
  244      H      30.4700000000    17.9070000000    36.0400000000
  245      H      29.0540000000    18.9530000000    36.3400000000
  246      H      29.3050000000    17.5460000000    37.4400000000
  247      S      28.3650000000    16.9590000000    35.3670000000
  248      C      26.8560000000    17.7580000000    35.9570000000
  249      H      27.0490000000    17.9780000000    37.0100000000
  250      H      26.5790000000    18.6000000000    35.3170000000
  251      H      25.9810000000    17.1030000000    35.9680000000
  252      O      28.2140000000    15.5960000000    35.9690000000
  253      C      23.0920000000    21.3330000000    26.4300000000
  254      H      22.0380000000    21.6040000000    26.5280000000
  255      H      23.4340000000    20.6400000000    27.2020000000
  256      H      23.6320000000    22.2830000000    26.4020000000
  257      S      23.1360000000    20.5490000000    24.8020000000
  258      C      24.8820000000    20.0830000000    24.7990000000
  259      H      25.3800000000    21.0320000000    25.0150000000
  260      H      25.0220000000    19.1990000000    25.4270000000
  261      H      25.1490000000    19.7370000000    23.7980000000
  262      O      23.0930000000    21.7360000000    23.8920000000
  263      C      21.3780000000    23.3670000000    29.7750000000
  264      H      20.5500000000    23.2800000000    29.0670000000
  265      H      22.0180000000    22.4870000000    29.6740000000
  266      H      20.9810000000    23.6420000000    30.7560000000
  267      S      22.2040000000    24.8650000000    29.1930000000
  268      C      20.8560000000    26.0680000000    29.2320000000
  269      H      20.2950000000    25.9740000000    28.2980000000
  270      H      20.3160000000    25.8780000000    30.1640000000
  271      H      21.3190000000    27.0460000000    29.0780000000
  272      O      22.4800000000    24.6280000000    27.7410000000
  273      C      19.1700000000    21.7830000000    25.2500000000
  274      H      19.4180000000    21.8210000000    26.3140000000
  275      H      18.0860000000    21.8800000000    25.1400000000
  276      H      19.3780000000    20.9020000000    24.6380000000
  277      S      20.1240000000    23.0400000000    24.3700000000
  278      C      19.4240000000    24.4690000000    25.2260000000
  279      H      19.7880000000    25.3090000000    24.6280000000
  280      H      18.3360000000    24.3720000000    25.2400000000
  281      H      19.8110000000    24.5290000000    26.2460000000
  282      O      19.4000000000    23.1840000000    23.0680000000
  283      C      25.9130000000    12.1400000000    30.1830000000
  284      H      25.5290000000    13.1490000000    30.3540000000
  285      H      25.2460000000    11.3210000000    30.4660000000
  286      H      26.9090000000    12.1390000000    30.6320000000
  287      S      26.1480000000    11.8500000000    28.4150000000
  288      C      26.9250000000    13.4030000000    27.9150000000
  289      H      27.9630000000    13.4890000000    28.2470000000
  290      H      26.9940000000    13.3410000000    26.8250000000
  291      H      26.2600000000    14.2410000000    28.1380000000
  292      O      24.7410000000    12.0180000000    27.9310000000
  293      C      25.5730000000     9.4960000000    23.6960000000
  294      H      25.8210000000     9.6940000000    22.6500000000
  295      H      24.5560000000     9.0990000000    23.7550000000
  296      H      25.7360000000    10.3940000000    24.2960000000
  297      S      26.8240000000     8.3210000000    24.2600000000
  298      C      26.4110000000     8.3710000000    26.0180000000
  299      H      25.4020000000     7.9540000000    26.0740000000
  300      H      27.1770000000     7.8160000000    26.5650000000
  301      H      26.3380000000     9.4320000000    26.2720000000
  302      O      28.1280000000     9.0560000000    24.2230000000
  303      C      20.7510000000     7.5890000000    27.0480000000
  304      H      20.2010000000     8.1720000000    27.7910000000
  305      H      20.6940000000     8.0230000000    26.0460000000
  306      H      20.2960000000     6.6000000000    26.9480000000
  307      S      22.4390000000     7.7170000000    27.6810000000
  308      C      22.6080000000     9.4040000000    27.0580000000
  309      H      22.3870000000     9.4230000000    25.9870000000
  310      H      21.9450000000    10.0820000000    27.6010000000
  311      H      23.6530000000     9.6740000000    27.2300000000
  312      O      23.2060000000     6.7880000000    26.7920000000
 ----------------------------------------------------------------
 Nuclear Repulsion Energy =       53813.94036214 hartrees
 There are      644 alpha and      644 beta electrons
 Requested basis set is 6-31+G(d)
 There are 1028 shells and 2865 basis functions

 Total QAlloc Memory Limit  16000 MB
 Mega-Array Size      7821 MB
 MEM_STATIC part      8000 MB
 A cutoff of  1.0D-14 yielded 195276 shell pairs
 There are   1693022 function pairs
 Smallest overlap matrix eigenvalue = 3.36E-07
 Linear dependence detected in AO basis
 Tighter screening thresholds may be required for diffuse basis sets
 Use S2THRESH > 14 and THRESH = 14 in case of SCF convergence issues
 Number of orthogonalized atomic orbitals = 2862
 Maximum deviation from orthogonality = 1.781E-10

 Scale SEOQF with 1.000000e-03/1.000000e-03/1.000000e-03

 Standard Electronic Orientation quadrupole field applied
 Nucleus-field energy     =    -0.0000006525 hartrees
 Guess from superposition of atomic densities
 Warning:  Energy on first SCF cycle will be non-variational
 SAD guess density has 1288.000002 electrons

 -----------------------------------------------------------------------
  General SCF calculation program by
  Eric Jon Sundstrom, Paul Horn, Yuezhi Mao, Dmitri Zuev, Alec White,
  David Stuck, Shaama M.S., Shane Yost, Joonho Lee, David Small,
  Daniel Levine, Susi Lehtola, Hugh Burton, Evgeny Epifanovsky,
  Bang C. Huynh
 -----------------------------------------------------------------------
=================================================
        Doing projection-based embedding         
      F. Manby et al. JCTC, 8, 2564 (2012)       
=================================================

****************************************************
   Low-level SCF calculation for the whole system   
****************************************************
----------------------------------------------
 Summary of the low-level theory: 
 Exchange:     0.2000 Hartree-Fock + 0.0800 Slater + 0.7200 B88
 Correlation:  0.1900 VWN1RPA + 0.8100 LYP
 Using Euler-Maclaurin-Lebedev (75,302) quadrature formula
----------------------------------------------
 using 16 threads for integral computing
 -------------------------------------------------------
 OpenMP Integral computing Module                
 Release: version 2.0, May 2017, Q-Chem Inc. Pleasanton 
 -------------------------------------------------------
 A restricted SCF calculation will be
 performed using DIIS
 SCF converges when DIIS error is below 1.0e-08
 ---------------------------------------
  Cycle       Energy         DIIS error
 ---------------------------------------
    1  -16467.6383847805      1.31e-02  
    2  -16441.9859887702      2.42e-03  
    3  -16427.9835971702      4.58e-03  
    4  -16446.0575649488      1.05e-03  
    5  -16447.1252768852      1.58e-04  
    6  -16447.1372999589      1.27e-04  
    7  -16447.1494124657      4.88e-05  
    8  -16447.1513724473      1.09e-05  
    9  -16447.1514671087      4.70e-06  
   10  -16447.1514838939      1.71e-06  
   11  -16447.1514861552      5.09e-07  
   12  -16447.1514863612      1.88e-07  
   13  -16447.1514863912      6.28e-08  
   14  -16447.1514863941      2.72e-08  
   15  -16447.1514863946      7.02e-09  Convergence criterion met
 ---------------------------------------
 SCF time:   CPU 223171.25s  wall 14109.00s 
 SCF   energy in the final basis set =   -16447.1514863946
 Total energy in the final basis set =   -16447.1514863946

****************************************************
             Start embedding calculation            
****************************************************
----------------------------------------------
 Summary of the high-level theory: 
 Exchange:     0.2000 Hartree-Fock + 0.0800 Slater + 0.7200 B88
 Correlation:  0.1900 VWN1RPA + 0.8100 LYP
 Using Euler-Maclaurin-Lebedev (75,302) quadrature formula
----------------------------------------------
Doing R-in-R Embedding Calculation
Number of fragments: 2
Embedded fragment(s): 1 
NOcc for each fragment
           35
          609
NBasis for each fragment
          197
         2668
Variational space of the embedded problem: 
NOcc (active)  = 35
NOcc (fixed)   = 609
NVir (total)   = 2218
Read converged orbitals from disk
=========================================================
       Doing SPADE partition for the orbital space       
     D. CLaudino and N. Mayhall JCTC 15, 1053 (2019)     
=========================================================
SPADE singular values:
 1.0000 1.0000 1.0000 1.0000 1.0000 1.0000 1.0000 1.0000 1.0000 0.9999
 0.9998 0.9998 0.9997 0.9995 0.9995 0.9993 0.9993 0.9989 0.9985 0.9971
 0.9969 0.9965 0.9961 0.9954 0.9950 0.9946 0.9943 0.9929 0.9925 0.9917
 0.9908 0.9892 0.9884 0.9870 0.9792 0.2296 0.1832 0.1806 0.1595 0.1546
 0.1396 0.1312 0.1243 0.1200 0.1110 0.1054 0.0934 0.0838 0.0758 0.0734
 0.0612 0.0581 0.0514 0.0492 0.0459 0.0413 0.0389 0.0358 0.0341 0.0330
 0.0296 0.0287 0.0270 0.0247 0.0222 0.0214 0.0210 0.0197 0.0186 0.0181
 0.0174 0.0162 0.0157 0.0148 0.0145 0.0129 0.0118 0.0114 0.0112 0.0104
 0.0102 0.0092 0.0089 0.0086 0.0079 0.0076 0.0075 0.0073 0.0070 0.0066
 0.0061 0.0059 0.0058 0.0055 0.0052 0.0050 0.0047 0.0045 0.0044 0.0042
 0.0038 0.0034 0.0032 0.0031 0.0029 0.0028 0.0026 0.0025 0.0025 0.0024
 0.0022 0.0022 0.0020 0.0019 0.0018 0.0018 0.0017 0.0017 0.0016 0.0015
 0.0015 0.0015 0.0014 0.0014 0.0013 0.0013 0.0013 0.0012 0.0012 0.0011
 0.0010 0.0010 0.0010 0.0009 0.0009 0.0009 0.0009 0.0008 0.0008 0.0007
 0.0007 0.0007 0.0006 0.0006 0.0006 0.0006 0.0005 0.0005 0.0005 0.0005
 0.0005 0.0004 0.0004 0.0004 0.0004 0.0004 0.0003 0.0003 0.0003 0.0003
 0.0003 0.0003 0.0003 0.0003 0.0003 0.0003 0.0002 0.0002 0.0002 0.0002
 0.0002 0.0002 0.0002 0.0002 0.0002 0.0002 0.0002 0.0002 0.0002 0.0002
 0.0001 0.0001 0.0001 0.0001 0.0001 0.0001 0.0001 0.0001 0.0001 0.0001
 0.0001 0.0001 0.0001 0.0001 0.0001 0.0001 0.0001
Early stop requested!
609 environment occs will be part of frozen-core in future post-HF calculations
 
 --------------------------------------------------------------
 
                    Orbital Energies (a.u.)
 --------------------------------------------------------------
 
 Alpha MOs
 -- Occupied --
 -0.5011  -0.5131  -0.5235  -0.4983  -0.5079  -0.4998  -0.4970  -0.5026
 -0.5021  -0.4081  -0.4189  -0.5062  -0.4873  -0.4453  -0.4860  -0.4984
 -0.4934  -0.4944  -0.5150  -0.4747  -0.4833  -0.6094  -0.5583  -0.5179
 -0.4969  -0.6029  -0.5888  -0.5989  -0.5916  -0.5917  -0.5643  -0.6272
 -0.5498  -0.5869  -0.5963  -0.6389  -0.5465  -0.5761  -0.6038  -0.5681
 -0.5331  -0.5777  -0.5569  -0.5255  -0.5266  -0.4900  -0.5486  -0.6102
 -0.6106  -0.5959  -0.6062  -0.5725  -0.5472  -0.5583  -0.5956  -0.5688
 -0.6354  -0.6790  -0.7427  -0.7097  -0.5757  -0.6577  -0.6842  -0.8143
 -0.6477  -0.7333  -0.9570  -0.8621  -0.7185  -0.7742  -0.8356  -1.1925
 -1.3335  -1.1561  -0.7729  -0.6719  -0.9417  -0.7398  -0.9245  -0.9350
 -0.9092  -0.9529  -1.0301  -0.6734  -1.5738  -0.7737  -0.8948  -0.8226
 -1.2309  -2.1829  -1.6789  -1.6098  -1.1147  -1.6939  -1.2349  -1.3198
 -0.9603  -1.4138  -0.9546  -1.5733  -1.0505  -3.8937  -0.9223  -1.8670
 -1.2748  -2.3213  -1.3198  -1.4380  -1.3323  -2.1890  -1.2193  -1.2997
 -1.1901  -1.6151  -0.9005  -1.0788  -0.9523  -1.2344  -1.2045  -1.4072
 -1.1406  -1.3071  -1.4028  -1.1533  -1.0705  -1.3484  -1.7829  -1.1519
 -1.7795  -1.5094  -1.0126  -1.0920  -1.2904  -1.4950  -1.4681  -1.0942
 -1.2597  -1.3668  -1.5077  -1.2869  -1.2474  -1.1944  -1.2993  -1.5971
 -1.8313  -1.4960  -1.5455  -1.9342  -1.8816  -1.1196  -1.5551  -1.4220
 -1.4380  -1.8840  -1.2901  -1.4077  -1.6953  -2.0945  -1.5367  -1.8207
 -1.9305  -1.5176  -6.0402  -5.9534  -6.0037  -5.8599  -5.9948  -6.0853
 -5.9738  -5.9703  -5.9954  -6.0810  -5.9762  -6.0010  -5.9736  -5.9975
 -6.0061  -6.0013  -5.9646  -5.9989  -6.0134  -5.9962  -5.9238  -6.0017
 -6.0041  -6.0465  -5.8900  -5.9958  -6.0433  -5.9956  -5.9985  -5.9902
 -5.9919  -5.9950  -5.9888  -6.0149  -5.9906  -6.0272  -5.9832  -5.9745
 -6.3886  -5.9703  -6.1110  -5.9736  -5.9687  -5.9670  -3.8961  -3.2572
-48.4895 -23.1955 -12.8568  -7.7035  -3.7992  -2.2347 -10.5324  -3.3325
 -2.2617  -5.2946  -7.6179  -1.7065  -4.4714  -1.2746  -1.3159  -1.7304
 -6.8365  -1.7591  -3.1454 -11.8694  -5.7817  -2.1673  -5.4855  -1.2941
 -3.5788  -1.4660  -6.5542  -1.1424 -75.3173  -3.7820 -80.5757  -1.3442
 -7.9114  -7.9176  -5.8686  -1.8006  -3.9777 -28.0027  -1.2763 -10.6237
 -5.0125  -1.6430  -2.3106 -18.3635 -16.0993  -1.6035  -4.8218 -16.4218
 -1.0954 -11.1758  -7.0224 -13.8232  -1.9324  -9.4236  -1.7132  -1.4014
 -7.0311  -9.6458  -3.8094  -1.5996  -1.1518 -75.4438 -76.0789  -3.0674
-10.3037  -9.3645  -4.0357  -1.5854 -11.2817 -10.6217  -6.2576  -4.1701
-14.1297  -6.9735 -10.0750 -11.4034  -1.3716  -2.4786  -2.7092 -18.4217
 -6.9876  -2.5709  -1.1556  -0.9512  -1.6220  -1.2028  -9.9376  -6.7615
 -7.5934  -1.2526  -2.2410 -64.2112  -4.8363  -7.2924  -4.6378  -7.7593
-51.6185  -3.7506 -20.0767  -1.7702 -20.1322 -14.5558 -20.1567  -8.0155
 -8.5267 -16.5744  -3.0074  -9.0781  -7.1289  -2.3128  -5.0726  -7.7525
 -8.0453  -3.0737  -1.4683  -2.3034  -2.4481  -0.9944  -9.5214 -58.2250
 -5.6116  -0.9029 -55.1719 -66.8517  -5.7026  -1.1933  -6.1633  -7.8196
 -4.6973  -9.0660  -1.9037  -7.8582 -14.8236  -7.2394  -6.4604 -14.2622
-28.0662  -6.6109  -9.9682 -15.6350  -8.3936  -8.8574  -8.6061  -7.3399
 -9.6477  -7.7017 -10.4382 -19.9372 -18.1587 -14.3439 -15.3996  -6.7794
-11.1491  -9.5411  -4.1473  -3.1738  -4.6802  -6.3069  -8.7291 -13.5487
-10.3821 -10.3253 -12.5401  -6.4941 -15.6959  -6.4090  -2.9001  -6.4870
 -3.3265  -3.2877  -2.4605  -3.5885  -4.6776  -7.1318  -6.4162 -12.2507
 -6.8269  -7.6538  -4.8703  -6.7093  -8.3153  -3.1999  -8.4811  -6.6536
 -4.9463  -5.0663  -5.6195  -3.5630  -7.0347  -5.8683  -4.7455  -6.2692
 -6.8228  -4.1159  -4.4167  -1.7366  -4.3149  -3.0124  -6.9232  -8.6661
-10.4400  -1.5141  -3.4956 -18.3878  -5.0358  -9.8680 -13.0471 -10.7221
 -3.1228  -4.6210 -19.8636  -6.6942  -6.8222  -1.1223  -9.8018  -1.5138
 -7.3454  -6.5537  -2.0516 -10.7276 -29.0380 -11.1905  -6.8108  -9.9550
 -9.1311  -8.7835  -4.8349  -5.0548 -22.3513  -4.9636  -8.2861  -9.9000
-12.4694  -5.0050  -3.3807  -8.5470  -3.0018 -18.8830 -16.5502 -24.5208
 -3.7403 -16.3770  -2.4905  -4.0547  -2.8019 -10.4210 -11.3803 -10.0069
-10.4242 -10.6140  -8.1028  -7.8564 -10.8209  -1.9261  -8.1939 -22.6417
 -7.9404  -8.0899 -11.3317 -15.4706  -4.9090  -2.4041  -6.0574 -11.2096
 -6.7736 -14.2083 -10.6638  -5.1688  -7.2868  -2.8440 -11.3618 -30.0910
 -4.4788  -2.7875  -7.1939  -3.1034  -7.7072  -7.7175  -8.9269  -8.3588
-28.0877  -4.5515  -4.3788  -5.0881  -9.5126  -1.7246  -4.0211  -0.9119
 -5.3646  -2.3493 -22.3329  -3.8047 -16.8498  -6.2841 -19.9765 -13.6400
 -8.8843  -8.8196 -12.2123 -23.7082  -9.2641 -18.7922  -4.9113  -6.5704
-26.1025  -2.5075  -5.5822  -4.5515  -6.7445  -9.5342 -17.8717 -12.4852
 -8.8788 -10.7457  -4.2874  -9.8786  -5.3020 -10.4861 -11.2068  -1.0642
 -6.6803  -3.2659 -47.9671 -16.9716  -4.9238  -2.9213 -26.7796 -12.3259
 -7.2487  -2.6999  -1.8371 -12.1677  -4.6940  -8.5080  -2.5896 -72.3517
 -6.2458 -75.9988  -9.5142 -71.7843 -78.8425  -7.3165  -6.5135 -16.8972
 -5.5646 -22.5813  -9.8624  -8.9855  -6.6400 -16.6587  -2.1700  -3.8247
-14.6887  -9.0214  -4.0496  -3.6629  -4.3472 -18.3616 -57.1812  -5.6844
 -5.2355  -9.0167  -5.7581  -2.8638 -10.0377  -4.4061  -3.2577 -15.4779
-14.4763  -1.5125 -10.1404 -10.5396 -23.0150 -24.8955 -17.4145 -33.7954
-16.3734 -30.3688  -9.3488 -29.3128  -9.4745  -6.1481 -17.9566  -2.0575
 -5.4431  -6.3344  -5.0206 -10.9145 -19.6261 -12.2667  -9.8511 -15.1427
 -9.2058  -7.7616  -4.6672  -4.4474  -2.3215  -6.2096  -8.4372  -9.5511
 -4.5344 -10.7890 -13.9052 -11.3849 -14.8482 -10.8137 -10.7930 -11.3078
-10.2024 -10.0985  -0.7718  -0.8352  -0.8449  -0.6571  -0.6763  -0.6460
 -0.7969  -0.7321  -0.4314  -0.4528  -0.3896  -0.4539  -0.4501  -0.4317
 -0.5385  -0.4207  -0.4100  -0.4596  -0.4166  -0.4330  -0.4301  -0.3902
 -0.4775  -0.5326  -0.5642  -0.5250
 -- Virtual --
 -0.0479  -0.0324  -0.0290  -0.0245  -0.0223  -0.0206  -0.0191  -0.0182
 -0.0172  -0.0169  -0.0153  -0.0133  -0.0128  -0.0120  -0.0104  -0.0087
 -0.0083  -0.0077  -0.0072  -0.0065  -0.0059  -0.0055  -0.0050  -0.0034
 -0.0033  -0.0028  -0.0020  -0.0013  -0.0009   0.0005   0.0009   0.0014
  0.0019   0.0024   0.0031   0.0045   0.0056   0.0066   0.0076   0.0080
  0.0085   0.0089   0.0099   0.0106   0.0109   0.0110   0.0115   0.0124
  0.0128   0.0133   0.0135   0.0144   0.0151   0.0151   0.0165   0.0168
  0.0174   0.0178   0.0185   0.0196   0.0197   0.0201   0.0206   0.0215
  0.0229   0.0235   0.0239   0.0243   0.0249   0.0252   0.0262   0.0268
  0.0271   0.0275   0.0280   0.0282   0.0283   0.0288   0.0306   0.0314
  0.0318   0.0323   0.0329   0.0329   0.0341   0.0350   0.0351   0.0359
  0.0368   0.0372   0.0374   0.0376   0.0386   0.0394   0.0399   0.0401
  0.0414   0.0415   0.0422   0.0429   0.0439   0.0442   0.0448   0.0454
  0.0462   0.0469   0.0474   0.0476   0.0483   0.0491   0.0493   0.0500
  0.0503   0.0514   0.0520   0.0522   0.0535   0.0536   0.0544   0.0546
  0.0555   0.0559   0.0562   0.0572   0.0578   0.0584   0.0589   0.0596
  0.0602   0.0606   0.0614   0.0624   0.0628   0.0638   0.0644   0.0647
  0.0651   0.0658   0.0660   0.0663   0.0674   0.0680   0.0690   0.0695
  0.0699   0.0700   0.0708   0.0711   0.0718   0.0724   0.0729   0.0739
  0.0748   0.0750   0.0753   0.0763   0.0770   0.0775   0.0780   0.0787
  0.0788   0.0802   0.0804   0.0814   0.0819   0.0829   0.0829   0.0838
  0.0845   0.0847   0.0858   0.0862   0.0867   0.0877   0.0881   0.0892
  0.0893   0.0897   0.0902   0.0911   0.0914   0.0923   0.0931   0.0936
  0.0939   0.0947   0.0949   0.0958   0.0967   0.0972   0.0974   0.0982
  0.0988   0.0994   0.0997   0.1007   0.1012   0.1018   0.1023   0.1027
  0.1033   0.1037   0.1046   0.1056   0.1058   0.1059   0.1067   0.1070
  0.1074   0.1082   0.1092   0.1096   0.1101   0.1105   0.1112   0.1115
  0.1121   0.1125   0.1128   0.1135   0.1150   0.1154   0.1164   0.1175
  0.1179   0.1181   0.1190   0.1193   0.1203   0.1212   0.1218   0.1226
  0.1227   0.1232   0.1233   0.1237   0.1246   0.1255   0.1258   0.1269
  0.1279   0.1280   0.1288   0.1294   0.1296   0.1298   0.1299   0.1306
  0.1313   0.1315   0.1328   0.1331   0.1338   0.1347   0.1354   0.1358
  0.1366   0.1370   0.1375   0.1382   0.1390   0.1395   0.1397   0.1406
  0.1412   0.1415   0.1417   0.1425   0.1428   0.1432   0.1438   0.1440
  0.1440   0.1449   0.1456   0.1457   0.1470   0.1472   0.1476   0.1481
  0.1493   0.1497   0.1504   0.1506   0.1512   0.1519   0.1531   0.1532
  0.1538   0.1543   0.1549   0.1554   0.1558   0.1565   0.1573   0.1579
  0.1584   0.1589   0.1593   0.1595   0.1600   0.1604   0.1611   0.1619
  0.1627   0.1635   0.1643   0.1646   0.1648   0.1653   0.1660   0.1664
  0.1673   0.1679   0.1684   0.1686   0.1692   0.1702   0.1706   0.1711
  0.1718   0.1721   0.1725   0.1732   0.1743   0.1750   0.1754   0.1761
  0.1767   0.1779   0.1783   0.1787   0.1793   0.1794   0.1809   0.1812
  0.1817   0.1824   0.1831   0.1832   0.1835   0.1842   0.1844   0.1851
  0.1856   0.1864   0.1877   0.1882   0.1887   0.1888   0.1893   0.1901
  0.1902   0.1907   0.1909   0.1918   0.1924   0.1929   0.1935   0.1940
  0.1945   0.1946   0.1949   0.1955   0.1966   0.1971   0.1975   0.1984
  0.1990   0.1994   0.1995   0.2000   0.2009   0.2013   0.2020   0.2024
  0.2034   0.2038   0.2045   0.2051   0.2055   0.2059   0.2064   0.2073
  0.2076   0.2082   0.2083   0.2087   0.2101   0.2105   0.2110   0.2111
  0.2121   0.2122   0.2130   0.2138   0.2142   0.2153   0.2166   0.2169
  0.2171   0.2177   0.2182   0.2187   0.2191   0.2194   0.2196   0.2209
  0.2215   0.2219   0.2222   0.2230   0.2239   0.2251   0.2252   0.2259
  0.2269   0.2278   0.2280   0.2284   0.2292   0.2293   0.2301   0.2309
  0.2312   0.2320   0.2324   0.2336   0.2338   0.2344   0.2348   0.2361
  0.2366   0.2371   0.2378   0.2384   0.2385   0.2391   0.2403   0.2407
  0.2414   0.2419   0.2431   0.2439   0.2442   0.2449   0.2455   0.2460
  0.2465   0.2472   0.2476   0.2482   0.2482   0.2486   0.2503   0.2509
  0.2512   0.2522   0.2530   0.2533   0.2540   0.2550   0.2555   0.2559
  0.2566   0.2573   0.2593   0.2600   0.2604   0.2608   0.2610   0.2622
  0.2627   0.2634   0.2640   0.2647   0.2657   0.2668   0.2679   0.2681
  0.2693   0.2694   0.2697   0.2711   0.2716   0.2719   0.2724   0.2727
  0.2735   0.2743   0.2746   0.2753   0.2762   0.2775   0.2779   0.2788
  0.2797   0.2809   0.2810   0.2818   0.2825   0.2833   0.2843   0.2850
  0.2856   0.2858   0.2869   0.2875   0.2877   0.2890   0.2896   0.2900
  0.2911   0.2912   0.2921   0.2928   0.2936   0.2944   0.2951   0.2961
  0.2967   0.2972   0.2979   0.2986   0.2994   0.3005   0.3013   0.3017
  0.3026   0.3029   0.3040   0.3043   0.3061   0.3065   0.3067   0.3085
  0.3087   0.3096   0.3107   0.3114   0.3123   0.3124   0.3139   0.3141
  0.3152   0.3164   0.3170   0.3178   0.3183   0.3191   0.3205   0.3206
  0.3211   0.3223   0.3229   0.3237   0.3243   0.3247   0.3252   0.3264
  0.3271   0.3282   0.3286   0.3293   0.3300   0.3307   0.3316   0.3323
  0.3334   0.3339   0.3340   0.3355   0.3359   0.3368   0.3388   0.3394
  0.3400   0.3408   0.3410   0.3416   0.3429   0.3431   0.3440   0.3448
  0.3451   0.3460   0.3469   0.3475   0.3476   0.3492   0.3498   0.3512
  0.3520   0.3526   0.3531   0.3532   0.3535   0.3543   0.3561   0.3567
  0.3574   0.3579   0.3594   0.3603   0.3609   0.3615   0.3622   0.3630
  0.3635   0.3645   0.3654   0.3661   0.3669   0.3685   0.3687   0.3692
  0.3708   0.3710   0.3719   0.3723   0.3725   0.3733   0.3742   0.3759
  0.3765   0.3775   0.3780   0.3783   0.3793   0.3801   0.3807   0.3813
  0.3828   0.3835   0.3841   0.3846   0.3852   0.3865   0.3867   0.3877
  0.3880   0.3885   0.3904   0.3910   0.3921   0.3931   0.3938   0.3947
  0.3951   0.3965   0.3969   0.3972   0.3982   0.3997   0.4006   0.4011
  0.4012   0.4029   0.4035   0.4038   0.4050   0.4055   0.4061   0.4071
  0.4082   0.4091   0.4096   0.4101   0.4108   0.4121   0.4125   0.4133
  0.4138   0.4153   0.4165   0.4176   0.4180   0.4197   0.4202   0.4207
  0.4216   0.4234   0.4243   0.4253   0.4262   0.4270   0.4281   0.4285
  0.4286   0.4295   0.4300   0.4315   0.4333   0.4337   0.4348   0.4351
  0.4361   0.4371   0.4382   0.4408   0.4410   0.4418   0.4426   0.4428
  0.4446   0.4454   0.4461   0.4466   0.4491   0.4500   0.4513   0.4524
  0.4526   0.4545   0.4560   0.4569   0.4581   0.4590   0.4598   0.4600
  0.4629   0.4633   0.4641   0.4646   0.4662   0.4676   0.4708   0.4716
  0.4727   0.4741   0.4750   0.4771   0.4784   0.4791   0.4804   0.4813
  0.4822   0.4841   0.4864   0.4875   0.4880   0.4899   0.4920   0.4923
  0.4946   0.4955   0.4960   0.4980   0.5001   0.5010   0.5024   0.5040
  0.5048   0.5053   0.5057   0.5081   0.5097   0.5113   0.5134   0.5162
  0.5163   0.5167   0.5181   0.5194   0.5224   0.5241   0.5248   0.5259
  0.5286   0.5303   0.5312   0.5318   0.5333   0.5350   0.5378   0.5399
  0.5403   0.5409   0.5415   0.5446   0.5457   0.5482   0.5503   0.5510
  0.5525   0.5540   0.5544   0.5555   0.5568   0.5574   0.5597   0.5606
  0.5615   0.5636   0.5641   0.5654   0.5673   0.5686   0.5692   0.5704
  0.5716   0.5734   0.5745   0.5757   0.5776   0.5781   0.5805   0.5809
  0.5828   0.5836   0.5851   0.5868   0.5883   0.5887   0.5889   0.5902
  0.5912   0.5925   0.5940   0.5962   0.5975   0.5987   0.5992   0.6020
  0.6038   0.6047   0.6058   0.6073   0.6078   0.6088   0.6101   0.6103
  0.6122   0.6139   0.6151   0.6163   0.6173   0.6186   0.6191   0.6200
  0.6215   0.6224   0.6227   0.6249   0.6251   0.6266   0.6272   0.6285
  0.6299   0.6306   0.6312   0.6324   0.6328   0.6345   0.6354   0.6375
  0.6385   0.6412   0.6418   0.6434   0.6447   0.6453   0.6466   0.6473
  0.6489   0.6500   0.6518   0.6520   0.6531   0.6548   0.6557   0.6562
  0.6570   0.6578   0.6599   0.6601   0.6608   0.6618   0.6622   0.6642
  0.6647   0.6652   0.6657   0.6673   0.6682   0.6688   0.6693   0.6706
  0.6716   0.6731   0.6745   0.6755   0.6771   0.6775   0.6781   0.6798
  0.6804   0.6815   0.6823   0.6829   0.6850   0.6858   0.6861   0.6872
  0.6886   0.6892   0.6899   0.6917   0.6936   0.6942   0.6947   0.6961
  0.6973   0.6976   0.6991   0.6994   0.7010   0.7018   0.7025   0.7037
  0.7062   0.7074   0.7087   0.7101   0.7114   0.7123   0.7131   0.7140
  0.7142   0.7154   0.7167   0.7179   0.7193   0.7196   0.7203   0.7222
  0.7233   0.7240   0.7247   0.7266   0.7272   0.7289   0.7304   0.7328
  0.7349   0.7356   0.7361   0.7379   0.7383   0.7392   0.7411   0.7418
  0.7436   0.7442   0.7454   0.7458   0.7478   0.7483   0.7491   0.7507
  0.7518   0.7534   0.7556   0.7564   0.7569   0.7595   0.7617   0.7629
  0.7634   0.7650   0.7674   0.7678   0.7691   0.7700   0.7713   0.7732
  0.7749   0.7775   0.7788   0.7810   0.7822   0.7833   0.7841   0.7863
  0.7878   0.7894   0.7900   0.7903   0.7924   0.7938   0.7952   0.7972
  0.7979   0.8001   0.8012   0.8016   0.8030   0.8055   0.8070   0.8076
  0.8083   0.8091   0.8100   0.8118   0.8132   0.8141   0.8163   0.8185
  0.8201   0.8214   0.8232   0.8235   0.8250   0.8261   0.8282   0.8291
  0.8306   0.8309   0.8324   0.8338   0.8344   0.8363   0.8369   0.8380
  0.8390   0.8398   0.8412   0.8430   0.8437   0.8453   0.8471   0.8493
  0.8499   0.8506   0.8522   0.8533   0.8542   0.8573   0.8579   0.8591
  0.8598   0.8608   0.8618   0.8621   0.8632   0.8654   0.8673   0.8689
  0.8693   0.8707   0.8712   0.8726   0.8751   0.8759   0.8771   0.8787
  0.8797   0.8808   0.8817   0.8825   0.8835   0.8845   0.8859   0.8875
  0.8881   0.8899   0.8908   0.8912   0.8928   0.8948   0.8953   0.8959
  0.8974   0.8982   0.9001   0.9008   0.9022   0.9047   0.9059   0.9067
  0.9071   0.9077   0.9089   0.9101   0.9108   0.9119   0.9122   0.9142
  0.9146   0.9153   0.9168   0.9177   0.9191   0.9191   0.9219   0.9224
  0.9230   0.9250   0.9264   0.9266   0.9286   0.9296   0.9301   0.9318
  0.9333   0.9343   0.9350   0.9360   0.9377   0.9382   0.9386   0.9405
  0.9417   0.9419   0.9429   0.9445   0.9448   0.9457   0.9462   0.9491
  0.9502   0.9508   0.9514   0.9524   0.9530   0.9543   0.9562   0.9564
  0.9572   0.9592   0.9614   0.9618   0.9623   0.9630   0.9640   0.9651
  0.9658   0.9668   0.9675   0.9686   0.9696   0.9702   0.9710   0.9720
  0.9733   0.9749   0.9759   0.9763   0.9769   0.9785   0.9790   0.9796
  0.9810   0.9818   0.9835   0.9839   0.9851   0.9863   0.9870   0.9892
  0.9897   0.9909   0.9918   0.9935   0.9944   0.9949   0.9962   0.9970
  0.9978   0.9996   0.9996   1.0014   1.0018   1.0028   1.0030   1.0039
  1.0054   1.0061   1.0088   1.0090   1.0104   1.0122   1.0128   1.0143
  1.0150   1.0159   1.0173   1.0185   1.0195   1.0212   1.0217   1.0221
  1.0233   1.0247   1.0254   1.0264   1.0274   1.0287   1.0299   1.0302
  1.0314   1.0332   1.0341   1.0356   1.0365   1.0374   1.0391   1.0393
  1.0414   1.0418   1.0424   1.0425   1.0442   1.0450   1.0472   1.0478
  1.0510   1.0516   1.0524   1.0535   1.0543   1.0565   1.0574   1.0578
  1.0602   1.0606   1.0613   1.0627   1.0644   1.0656   1.0662   1.0680
  1.0689   1.0700   1.0707   1.0713   1.0725   1.0735   1.0762   1.0766
  1.0778   1.0787   1.0797   1.0818   1.0822   1.0839   1.0850   1.0862
  1.0877   1.0899   1.0910   1.0913   1.0923   1.0932   1.0942   1.0964
  1.0978   1.0985   1.1003   1.1015   1.1027   1.1051   1.1061   1.1075
  1.1093   1.1111   1.1124   1.1126   1.1143   1.1148   1.1154   1.1158
  1.1170   1.1190   1.1207   1.1217   1.1222   1.1237   1.1249   1.1255
  1.1263   1.1278   1.1295   1.1301   1.1308   1.1323   1.1343   1.1356
  1.1375   1.1382   1.1391   1.1411   1.1417   1.1434   1.1437   1.1453
  1.1471   1.1477   1.1492   1.1500   1.1509   1.1519   1.1536   1.1538
  1.1560   1.1563   1.1584   1.1594   1.1603   1.1607   1.1613   1.1628
  1.1649   1.1670   1.1676   1.1690   1.1706   1.1711   1.1723   1.1737
  1.1752   1.1772   1.1775   1.1783   1.1802   1.1830   1.1845   1.1853
  1.1867   1.1883   1.1904   1.1925   1.1933   1.1948   1.1965   1.1970
  1.1974   1.1982   1.2003   1.2013   1.2025   1.2042   1.2055   1.2067
  1.2100   1.2114   1.2129   1.2141   1.2163   1.2166   1.2183   1.2203
  1.2233   1.2250   1.2263   1.2272   1.2289   1.2304   1.2349   1.2358
  1.2370   1.2385   1.2405   1.2415   1.2445   1.2453   1.2477   1.2489
  1.2503   1.2531   1.2544   1.2566   1.2580   1.2611   1.2623   1.2660
  1.2668   1.2671   1.2689   1.2731   1.2736   1.2759   1.2778   1.2822
  1.2840   1.2852   1.2867   1.2882   1.2902   1.2915   1.2940   1.2979
  1.2982   1.3005   1.3031   1.3042   1.3066   1.3079   1.3085   1.3119
  1.3146   1.3157   1.3181   1.3187   1.3211   1.3222   1.3251   1.3273
  1.3286   1.3305   1.3323   1.3334   1.3345   1.3378   1.3385   1.3402
  1.3415   1.3419   1.3433   1.3461   1.3483   1.3489   1.3506   1.3528
  1.3552   1.3556   1.3580   1.3587   1.3604   1.3618   1.3634   1.3642
  1.3657   1.3668   1.3682   1.3695   1.3714   1.3731   1.3754   1.3755
  1.3768   1.3789   1.3797   1.3802   1.3816   1.3829   1.3837   1.3872
  1.3891   1.3912   1.3932   1.3934   1.3946   1.3972   1.3977   1.4005
  1.4019   1.4032   1.4044   1.4053   1.4069   1.4080   1.4088   1.4099
  1.4115   1.4124   1.4133   1.4154   1.4161   1.4169   1.4188   1.4210
  1.4226   1.4233   1.4242   1.4253   1.4262   1.4280   1.4303   1.4310
  1.4322   1.4347   1.4356   1.4366   1.4400   1.4402   1.4418   1.4426
  1.4441   1.4452   1.4465   1.4494   1.4497   1.4525   1.4548   1.4550
  1.4559   1.4577   1.4605   1.4617   1.4640   1.4654   1.4661   1.4687
  1.4698   1.4715   1.4723   1.4757   1.4770   1.4784   1.4791   1.4800
  1.4817   1.4824   1.4851   1.4870   1.4885   1.4909   1.4916   1.4936
  1.4949   1.4970   1.4982   1.4985   1.5023   1.5036   1.5044   1.5091
  1.5104   1.5134   1.5153   1.5176   1.5182   1.5192   1.5204   1.5223
  1.5266   1.5275   1.5279   1.5309   1.5322   1.5379   1.5394   1.5420
  1.5448   1.5473   1.5514   1.5524   1.5556   1.5575   1.5604   1.5630
  1.5643   1.5657   1.5698   1.5714   1.5740   1.5773   1.5783   1.5839
  1.5859   1.5916   1.5935   1.5960   1.5966   1.5982   1.6022   1.6107
  1.6132   1.6157   1.6202   1.6237   1.6264   1.6331   1.6344   1.6365
  1.6407   1.6413   1.6451   1.6460   1.6469   1.6483   1.6519   1.6523
  1.6561   1.6609   1.6630   1.6632   1.6654   1.6667   1.6684   1.6697
  1.6719   1.6727   1.6732   1.6743   1.6754   1.6781   1.6787   1.6794
  1.6808   1.6817   1.6828   1.6838   1.6850   1.6867   1.6876   1.6877
  1.6901   1.6914   1.6919   1.6925   1.6942   1.6954   1.6960   1.6975
  1.6992   1.7023   1.7030   1.7039   1.7047   1.7072   1.7082   1.7107
  1.7119   1.7144   1.7150   1.7165   1.7172   1.7178   1.7184   1.7215
  1.7220   1.7235   1.7251   1.7259   1.7261   1.7285   1.7294   1.7298
  1.7327   1.7337   1.7349   1.7354   1.7374   1.7389   1.7406   1.7419
  1.7428   1.7451   1.7457   1.7469   1.7485   1.7489   1.7504   1.7513
  1.7536   1.7547   1.7558   1.7565   1.7571   1.7602   1.7611   1.7628
  1.7636   1.7642   1.7650   1.7671   1.7682   1.7690   1.7709   1.7710
  1.7740   1.7758   1.7763   1.7765   1.7789   1.7821   1.7834   1.7850
  1.7860   1.7885   1.7895   1.7899   1.7925   1.7934   1.7949   1.7976
  1.7995   1.8004   1.8010   1.8018   1.8055   1.8069   1.8086   1.8116
  1.8132   1.8144   1.8162   1.8211   1.8226   1.8254   1.8284   1.8313
  1.8322   1.8352   1.8361   1.8377   1.8414   1.8474   1.8499   1.8549
  1.8562   1.8570   1.8584   1.8628   1.8638   1.8659   1.8682   1.8693
  1.8701   1.8707   1.8739   1.8755   1.8772   1.8786   1.8794   1.8802
  1.8818   1.8837   1.8851   1.8864   1.8868   1.8886   1.8901   1.8910
  1.8926   1.8926   1.8934   1.8953   1.8962   1.8969   1.8983   1.8998
  1.9004   1.9019   1.9023   1.9032   1.9040   1.9054   1.9073   1.9091
  1.9103   1.9110   1.9126   1.9130   1.9144   1.9174   1.9176   1.9186
  1.9202   1.9209   1.9225   1.9232   1.9247   1.9289   1.9292   1.9314
  1.9324   1.9343   1.9349   1.9385   1.9395   1.9407   1.9411   1.9421
  1.9448   1.9480   1.9492   1.9512   1.9519   1.9547   1.9571   1.9590
  1.9600   1.9650   1.9671   1.9734   1.9749   1.9767   1.9825   1.9869
  1.9907   1.9975   2.0075   2.0142   2.0189   2.0266   2.0341   2.0412
  2.0438   2.0462   2.0483   2.0529   2.0538   2.0546   2.0559   2.0574
  2.0579   2.0594   2.0603   2.0611   2.0621   2.0634   2.0639   2.0649
  2.0653   2.0677   2.0699   2.0708   2.0717   2.0722   2.0731   2.0735
  2.0756   2.0766   2.0772   2.0787   2.0798   2.0818   2.0823   2.0835
  2.0843   2.0873   2.0918   2.0925   2.0936   2.0946   2.0948   2.0964
  2.0973   2.0988   2.1015   2.1035   2.1048   2.1051   2.1065   2.1075
  2.1088   2.1116   2.1120   2.1137   2.1142   2.1167   2.1226   2.1233
  2.1253   2.1287   2.1297   2.1304   2.1380   2.1419   2.1472   2.1496
  2.1534   2.1601   2.1627   2.1731   2.1736   2.1741   2.1807   2.1821
  2.1837   2.1849   2.1870   2.1881   2.1924   2.1966   2.1999   2.2037
  2.2039   2.2061   2.2075   2.2088   2.2105   2.2120   2.2126   2.2138
  2.2157   2.2188   2.2191   2.2238   2.2245   2.2250   2.2255   2.2261
  2.2272   2.2282   2.2293   2.2303   2.2315   2.2323   2.2332   2.2342
  2.2353   2.2375   2.2391   2.2407   2.2415   2.2420   2.2428   2.2443
  2.2456   2.2463   2.2495   2.2501   2.2507   2.2513   2.2521   2.2527
  2.2537   2.2545   2.2553   2.2565   2.2572   2.2572   2.2583   2.2584
  2.2601   2.2606   2.2614   2.2621   2.2639   2.2645   2.2652   2.2654
  2.2663   2.2673   2.2685   2.2699   2.2701   2.2712   2.2727   2.2729
  2.2736   2.2752   2.2754   2.2759   2.2766   2.2774   2.2791   2.2799
  2.2808   2.2814   2.2822   2.2831   2.2845   2.2851   2.2855   2.2864
  2.2868   2.2878   2.2882   2.2898   2.2906   2.2911   2.2918   2.2930
  2.2934   2.2943   2.2953   2.2958   2.2973   2.2981   2.2990   2.2999
  2.3001   2.3006   2.3031   2.3040   2.3046   2.3055   2.3067   2.3078
  2.3082   2.3090   2.3102   2.3114   2.3129   2.3136   2.3155   2.3182
  2.3201   2.3217   2.3233   2.3250   2.3255   2.3271   2.3287   2.3303
  2.3306   2.3321   2.3327   2.3357   2.3365   2.3379   2.3402   2.3405
  2.3427   2.3436   2.3446   2.3460   2.3468   2.3478   2.3500   2.3502
  2.3515   2.3542   2.3548   2.3571   2.3580   2.3594   2.3603   2.3626
  2.3642   2.3659   2.3677   2.3692   2.3720   2.3733   2.3769   2.3777
  2.3800   2.3837   2.3855   2.3878   2.3890   2.3914   2.3939   2.3945
  2.3984   2.3996   2.4036   2.4076   2.4150   2.4242   2.4313   2.4435
  2.4673   2.4846   2.5211   2.5583   2.6013   2.6753   2.7242   2.7688
  2.7746   2.8197   2.8208   2.8274   2.8317   2.8323   2.8339   2.8367
  2.8372   2.8402   2.8433   2.8439   2.8451   2.8468   2.8488   2.8506
  2.8520   2.8541   2.8550   2.8568   2.8580   2.8607   2.8629   2.8656
  2.8665   2.8678   2.8698   2.8711   2.8743   2.8820   2.8873   2.8903
  2.8910   2.9064   2.9500   3.0914   3.2362   3.9459   3.9494   3.9541
  3.9621   3.9663   3.9689   3.9692   3.9695   3.9737   3.9746   3.9759
  3.9786   3.9821   3.9857   3.9862   3.9877   3.9921   3.9939   3.9949
  4.0008   4.0022   4.0106   4.0108   4.0130   4.0153   4.0228   4.0257
  4.0337   4.0488   4.1734   4.2266   4.2303   4.2366   4.2373   4.2379
  4.2433   4.2435   4.2471   4.2506   4.2510   4.2516   4.2533   4.2536
  4.2553   4.2597   4.2623   4.2643   4.2697   4.2710   4.2724   4.2748
  4.2788   4.2795   4.2847   4.2892   4.2934   4.2959   4.2983   4.3019
  4.3028   4.3042   4.3052   4.3086   4.3101   4.3108   4.3150   4.3165
  4.3202   4.3213   4.3239   4.3247   4.3271   4.3282   4.3307   4.3339
  4.3351   4.3370   4.3397   4.3404   4.3425   4.3480   4.3515   4.3542
  4.3548   4.3563   4.3574   4.3608   4.3635   4.3680   4.3740   4.3755
  4.3774   4.3838   4.3873   4.3915   4.3952   4.4008   4.4026   4.4045
  4.4079   4.4129   4.4170   4.4242   4.4346   4.4386   4.4505   4.4525
  4.4618   4.4640   4.4712   4.4774   4.4939   4.5210   4.5289   4.5431
  4.5604   4.5962   4.5983   4.6169   4.6473   4.7070   4.7245   4.7485
  4.7766   4.9196
 --------------------------------------------------------------
 
          Ground-State Mulliken Net Atomic Charges

     Atom                 Charge (a.u.)
  ----------------------------------------
      1 C                    -0.106576
      2 C                    -0.676298
      3 C                    -0.310639
      4 C                    -0.856268
      5 C                    -0.415274
      6 C                    -0.390610
      7 H                     0.203065
      8 H                     0.222784
      9 H                     0.196483
     10 H                     0.213154
     11 H                     0.229992
     12 H                     0.217575
     13 H                     0.200935
     14 H                     0.202370
     15 H                     0.222653
     16 H                     0.273296
     17 H                     0.223398
     18 N                     0.152698
     19 H                     0.541776
     20 C                    -0.185675
     21 H                     0.150326
     22 O                    -0.195468
     23 C                    -0.910935
     24 H                     0.255486
     25 H                     0.259445
     26 H                     0.236729
     27 S                     1.105957
     28 C                    -0.886791
     29 H                     0.311983
     30 H                     0.254611
     31 H                     0.232418
     32 O                    -0.669004
     33 C                    -0.916862
     34 H                     0.321949
     35 H                     0.220735
     36 H                     0.243719
     37 S                     1.339260
     38 C                    -0.978499
     39 H                     0.240914
     40 H                     0.238582
     41 H                     0.298673
     42 O                    -0.865348
     43 C                    -1.153559
     44 H                     0.238679
     45 H                     0.304590
     46 H                     0.272461
     47 S                     1.525032
     48 C                    -1.422667
     49 H                     0.268560
     50 H                     0.267524
     51 H                     0.276825
     52 O                    -0.583600
     53 C                    -0.960430
     54 H                     0.281274
     55 H                     0.239171
     56 H                     0.247506
     57 S                     1.040504
     58 C                    -0.826365
     59 H                     0.239462
     60 H                     0.258494
     61 H                     0.290925
     62 O                    -0.764110
     63 C                    -0.924755
     64 H                     0.249495
     65 H                     0.252753
     66 H                     0.301096
     67 S                     0.829595
     68 C                    -0.866171
     69 H                     0.309887
     70 H                     0.243405
     71 H                     0.240144
     72 O                    -0.706526
     73 C                    -0.793349
     74 H                     0.241301
     75 H                     0.264318
     76 H                     0.259261
     77 S                     0.833714
     78 C                    -1.085149
     79 H                     0.311994
     80 H                     0.271767
     81 H                     0.232557
     82 O                    -0.634361
     83 C                    -0.883077
     84 H                     0.272872
     85 H                     0.234066
     86 H                     0.266516
     87 S                     0.855433
     88 C                    -0.857238
     89 H                     0.247953
     90 H                     0.284072
     91 H                     0.236389
     92 O                    -0.603913
     93 C                    -0.850821
     94 H                     0.255286
     95 H                     0.236864
     96 H                     0.271088
     97 S                     1.026386
     98 C                    -0.819220
     99 H                     0.271441
    100 H                     0.252672
    101 H                     0.221390
    102 O                    -0.765902
    103 C                    -0.885386
    104 H                     0.248143
    105 H                     0.300175
    106 H                     0.247610
    107 S                     0.932521
    108 C                    -0.857372
    109 H                     0.257576
    110 H                     0.260351
    111 H                     0.213116
    112 O                    -0.697268
    113 C                    -0.899382
    114 H                     0.246702
    115 H                     0.276122
    116 H                     0.280571
    117 S                     1.053811
    118 C                    -1.124601
    119 H                     0.283483
    120 H                     0.235177
    121 H                     0.287668
    122 O                    -0.673655
    123 C                    -0.877124
    124 H                     0.263585
    125 H                     0.264141
    126 H                     0.290710
    127 S                     0.964897
    128 C                    -1.218990
    129 H                     0.283445
    130 H                     0.294579
    131 H                     0.319534
    132 O                    -0.723934
    133 C                    -1.286923
    134 H                     0.295782
    135 H                     0.271663
    136 H                     0.290188
    137 S                     0.869355
    138 C                    -0.708174
    139 H                     0.236460
    140 H                     0.237410
    141 H                     0.266975
    142 O                    -0.669665
    143 C                    -0.768332
    144 H                     0.237791
    145 H                     0.251819
    146 H                     0.259893
    147 S                     0.870544
    148 C                    -0.810254
    149 H                     0.237794
    150 H                     0.261029
    151 H                     0.239324
    152 O                    -0.724107
    153 C                    -0.767391
    154 H                     0.258542
    155 H                     0.301624
    156 H                     0.208752
    157 S                     0.919896
    158 C                    -0.845870
    159 H                     0.258681
    160 H                     0.249341
    161 H                     0.234730
    162 O                    -0.740777
    163 C                    -0.963793
    164 H                     0.265388
    165 H                     0.296719
    166 H                     0.232785
    167 S                     1.139925
    168 C                    -1.289503
    169 H                     0.306985
    170 H                     0.263924
    171 H                     0.277736
    172 O                    -0.630604
    173 C                    -0.946682
    174 H                     0.309966
    175 H                     0.222669
    176 H                     0.263965
    177 S                     0.668417
    178 C                    -0.807900
    179 H                     0.233403
    180 H                     0.303096
    181 H                     0.252517
    182 O                    -0.514216
    183 C                    -0.843569
    184 H                     0.245928
    185 H                     0.265541
    186 H                     0.239800
    187 S                     0.966190
    188 C                    -0.947516
    189 H                     0.247653
    190 H                     0.293824
    191 H                     0.282058
    192 O                    -0.775687
    193 C                    -0.912915
    194 H                     0.242070
    195 H                     0.234754
    196 H                     0.257413
    197 S                     0.842882
    198 C                    -0.852078
    199 H                     0.248084
    200 H                     0.284485
    201 H                     0.258537
    202 O                    -0.660241
    203 C                    -0.899096
    204 H                     0.266657
    205 H                     0.300763
    206 H                     0.222870
    207 S                     1.091534
    208 C                    -1.053324
    209 H                     0.245073
    210 H                     0.266274
    211 H                     0.280003
    212 O                    -0.744550
    213 C                    -0.945712
    214 H                     0.258033
    215 H                     0.256631
    216 H                     0.276442
    217 S                     0.881949
    218 C                    -0.984473
    219 H                     0.230931
    220 H                     0.260836
    221 H                     0.307818
    222 O                    -0.637093
    223 C                    -1.047041
    224 H                     0.250499
    225 H                     0.253412
    226 H                     0.259717
    227 S                     1.164379
    228 C                    -0.933886
    229 H                     0.242831
    230 H                     0.238992
    231 H                     0.300165
    232 O                    -0.682510
    233 C                    -0.917783
    234 H                     0.283820
    235 H                     0.244492
    236 H                     0.269732
    237 S                     1.026491
    238 C                    -0.972156
    239 H                     0.256030
    240 H                     0.288284
    241 H                     0.239531
    242 O                    -0.710116
    243 C                    -1.039906
    244 H                     0.278618
    245 H                     0.264848
    246 H                     0.251901
    247 S                     1.166062
    248 C                    -0.949594
    249 H                     0.246510
    250 H                     0.246431
    251 H                     0.284074
    252 O                    -0.735734
    253 C                    -0.808206
[...]
    2   0.0107140   0.0249640  -0.0238563   0.1008229  -0.0067797   0.0028364
    3  -0.0042757   0.0092685   0.0152536  -0.0398774   0.0059195   0.0347388
          175         176         177         178         179         180
    1  -0.0128178   0.0236436   0.0291681  -0.0044759  -0.0098415   0.0121241
    2  -0.0255598   0.0014082   0.0487823  -0.0030730  -0.0298252   0.0024087
    3  -0.0128792  -0.0225871   0.0245575   0.0042392  -0.0095185   0.0307014
          181         182         183         184         185         186
    1  -0.0192659  -0.0135636   0.0025751   0.0256780   0.0024423  -0.0207400
    2   0.0206986  -0.0064847   0.0049786   0.0153417   0.0209078   0.0176366
    3  -0.0028097  -0.1087416   0.0000028   0.0173236  -0.0292722   0.0116694
          187         188         189         190         191         192
    1   0.0381632  -0.0049379  -0.0203413  -0.0019962  -0.0175581  -0.0421234
    2  -0.0261087  -0.0012790   0.0118214   0.0105080  -0.0259379  -0.0225848
    3  -0.0279061  -0.0070898   0.0151537  -0.0343533  -0.0169176   0.0972636
          193         194         195         196         197         198
    1   0.0051882   0.0052930   0.0012830   0.0245693   0.0012487  -0.0068952
    2   0.0017938  -0.0274429   0.0208243   0.0169329  -0.0480515  -0.0005509
    3  -0.0032308  -0.0214876  -0.0232649   0.0128151   0.0258563  -0.0031567
          199         200         201         202         203         204
    1   0.0014922  -0.0110348  -0.0290982  -0.0026082   0.0013632  -0.0199748
    2   0.0261019  -0.0267778  -0.0036990   0.0989430  -0.0094678  -0.0257362
    3  -0.0159938  -0.0195516   0.0063156   0.0470826   0.0040722   0.0080405
          205         206         207         208         209         210
    1   0.0129299   0.0196980   0.0349170  -0.0067957  -0.0061108   0.0198810
    2  -0.0127317  -0.0073645   0.0429046   0.0008007  -0.0235120   0.0242768
    3  -0.0222571   0.0306345  -0.0182182   0.0102067   0.0253983   0.0138309
          211         212         213         214         215         216
    1  -0.0306787  -0.0789564  -0.0057280  -0.0228105  -0.0006673  -0.0070682
    2  -0.0021151  -0.0443681  -0.0018704   0.0171634  -0.0226780  -0.0081028
    3  -0.0144147  -0.0662183   0.0031253  -0.0126282  -0.0132832   0.0368272
          217         218         219         220         221         222
    1   0.0456094  -0.0078239  -0.0135659   0.0208621  -0.0315588  -0.0051197
    2  -0.0260612   0.0065436   0.0022632   0.0170796   0.0231177   0.0255648
    3   0.0268903   0.0016943   0.0339403   0.0090134  -0.0037647  -0.1057061
          223         224         225         226         227         228
    1  -0.0028650  -0.0334622   0.0262608  -0.0042175  -0.0317739  -0.0045325
    2   0.0076632   0.0055098   0.0217464  -0.0147593  -0.0528506   0.0046560
    3  -0.0048169   0.0059726  -0.0028511  -0.0263863   0.0012407   0.0058827
          229         230         231         232         233         234
    1   0.0247703   0.0109207  -0.0360314   0.1077966   0.0011047  -0.0160433
    2  -0.0076756   0.0302002   0.0025438   0.0016228  -0.0028376   0.0055391
    3   0.0171932   0.0004099   0.0107839  -0.0217551   0.0076580   0.0368551
          235         236         237         238         239         240
    1  -0.0225078   0.0240990  -0.0316930  -0.0024567  -0.0347300   0.0003639
    2  -0.0203901  -0.0146851   0.0447244  -0.0041266   0.0059502   0.0084183
    3   0.0060159   0.0057382   0.0025064  -0.0094810  -0.0017402  -0.0332726
          241         242         243         244         245         246
    1   0.0176606   0.1105579   0.0060741   0.0297593   0.0008006   0.0031553
    2  -0.0281795  -0.0045396   0.0045414   0.0040499   0.0345201  -0.0114012
    3   0.0031766  -0.0227997   0.0039105  -0.0082314   0.0010241   0.0308559
          247         248         249         250         251         252
    1   0.0100962  -0.0088986  -0.0032335  -0.0086778  -0.0211755  -0.0105047
    2   0.0129538   0.0028649   0.0165518   0.0307079  -0.0198504  -0.0989286
    3  -0.0560953   0.0030356   0.0293758  -0.0062459  -0.0037469   0.0441337
          253         254         255         256         257         258
    1  -0.0022009  -0.0276540   0.0030352   0.0155176  -0.0353749   0.0052597
    2   0.0040868   0.0056473  -0.0189604   0.0255475  -0.0463430  -0.0004077
    3   0.0040942   0.0184331   0.0278099  -0.0038740  -0.0024237  -0.0010969
          259         260         261         262         263         264
    1   0.0239327   0.0108012   0.0078022  -0.0059348  -0.0064728  -0.0256858
    2   0.0177682  -0.0204968  -0.0040248   0.0860729  -0.0085860  -0.0201508
    3   0.0061304   0.0262255  -0.0306060  -0.0678473  -0.0038956  -0.0167346
          265         266         267         268         269         270
    1   0.0159722  -0.0108821   0.0432537  -0.0044045  -0.0243816  -0.0246779
    2  -0.0259046  -0.0088869   0.0140255   0.0024533  -0.0136127   0.0098213
    3   0.0026016   0.0342385   0.0387653  -0.0047453  -0.0230043   0.0233304
          271         272         273         274         275         276
    1   0.0128262   0.0214826  -0.0043458   0.0120615  -0.0308138   0.0113830
    2   0.0317142  -0.0169451  -0.0033513  -0.0168645   0.0152787  -0.0364187
    3   0.0105954  -0.1065152   0.0020364   0.0324221  -0.0083911  -0.0041160
          277         278         279         280         281         282
    1   0.0554840  -0.0014208   0.0024439  -0.0311042   0.0149427  -0.0514516
    2  -0.0056280   0.0032177   0.0281780   0.0011308   0.0054603   0.0109195
    3   0.0075902   0.0028653  -0.0141198  -0.0071001   0.0302944  -0.0972451
          283         284         285         286         287         288
    1  -0.0025011  -0.0168401  -0.0204699   0.0258503   0.0318488   0.0022416
    2   0.0075993   0.0255581  -0.0174880  -0.0067636  -0.0425217   0.0079417
    3   0.0013099  -0.0019983   0.0117683   0.0160029  -0.0093438  -0.0063609
          289         290         291         292         293         294
    1   0.0258273   0.0081250  -0.0203280  -0.1188030  -0.0023365   0.0052835
    2   0.0082793  -0.0010330   0.0217903   0.0211872   0.0064530   0.0104898
    3   0.0099337  -0.0295675   0.0151839  -0.0278070  -0.0006070  -0.0295264
          295         296         297         298         299         300
    1  -0.0295955   0.0009192  -0.0077044  -0.0060854  -0.0290958   0.0179003
    2  -0.0109839   0.0284113  -0.0536253   0.0022930  -0.0215917  -0.0121834
    3   0.0052280   0.0154124  -0.0197695   0.0061581   0.0165936   0.0187623
          301         302         303         304         305         306
    1   0.0061366   0.0969752  -0.0071787  -0.0278910  -0.0010908  -0.0002242
    2   0.0299203   0.0515217   0.0013099   0.0223615   0.0153042  -0.0340434
    3   0.0182965  -0.0029562  -0.0028057   0.0118627  -0.0271689   0.0055568
          307         308         309         310         311         312
    1   0.0011780   0.0045707  -0.0017250  -0.0143706   0.0277269   0.0553794
    2  -0.0002926   0.0109554   0.0020848   0.0241232   0.0245503  -0.0712280
    3   0.0549435  -0.0009165  -0.0297664   0.0201764   0.0053999  -0.0622903
  --- DONE ESP SUMMARY ---
Archival summary:
1\1\node029\SP\ProcedureUnspecified\6-31+G*\292958h22\ymao90\FriDec320:44:562021FriDec320:44:562021\0\\#,ProcedureUnspecified,6-31+G*,\\0,1\S\O,1,1.49737\Gh,2,1.80544,1,130.115\Gh,3,1.0126,2,176.975,1,33.2166,0\Gh,4,1.37934,3,117.046,2,-123.371,0\Gh,5,1.1056,4,112.403,3,-8.92063,0\Gh,5,1.21779,4,123.294,3,164.918,0\Gh,4,1.46229,3,119.458,2,51.3876,0\Gh,8,1.09662,4,114.633,3,171.123,0\Gh,8,1.53738,4,105.983,3,46.7806,0\Gh,10,1.09668,8,111.26,4,71.6215,0\Gh,10,1.09804,8,106.224,4,-44.8555,0\Gh,10,1.53733,8,113.044,4,-167.732,0\Gh,13,1.09643,10,106.868,8,177.736,0\Gh,13,1.09776,10,110.743,8,-74.1706,0\Gh,8,1.53744,4,110.782,3,-72.3496,0\Gh,16,1.09688,8,112.257,4,-60.0662,0\Gh,16,1.09693,8,100.36,4,52.6926,0\Gh,16,1.53745,8,115.533,4,171.109,0\Gh,19,1.09678,16,106.455,8,71.0024,0\Gh,19,1.09697,16,105.601,8,-177.213,0\Gh,19,1.537,16,112.706,8,-53.364,0\Gh,22,1.09724,19,113.538,16,178.244,0\Gh,22,1.09732,19,102.102,16,-79.1695,0\C,1,1.80697,2,100.14,3,22.843,0\H,25,1.09253,1,106.463,2,-174.498,0\H,25,1.09306,1,110.298,2,-61.2426,0\H,25,1.0935,1,102.26,2,62.5885,0\C,1,1.80708,2,102.601,3,-80.8326,0\H,29,1.09279,1,109.932,2,43.431,0\H,29,1.09319,1,113.069,2,176.36,0\H,29,1.09394,1,104.721,2,-70.7055,0\H,12,1.95015,10,129.327,8,-149.082,0\C,33,1.09271,12,155.197,10,-28.1592,0\H,34,1.09268,33,115.044,12,-11.0713,0\H,34,1.09318,33,114.204,12,117.2,0\S,34,1.80755,33,104.762,12,-122.274,0\O,37,1.49673,34,104.948,33,156.248,0\C,37,1.8068,34,95.5029,33,50.6794,0\H,39,1.09259,37,107.292,34,60.2385,0\H,39,1.09307,37,107.985,34,-61.1844,0\H,39,1.09379,37,108.689,34,178.795,0\H,42,2.12732,39,114.691,37,63.4705,0\C,43,1.09223,42,101.021,39,177.321,0\H,44,1.09308,43,110.053,42,67.854,0\H,44,1.09333,43,114.061,42,-55.2325,0\S,44,1.80658,43,105.064,42,-179.548,0\O,47,1.49733,44,106.026,43,-50.3897,0\C,47,1.80655,44,97.3248,43,54.4874,0\H,49,1.0927,47,108.229,44,-171.695,0\H,49,1.09321,47,104.495,44,64.9257,0\H,49,1.09342,47,105.556,44,-48.0277,0\H,35,2.15061,34,138.411,33,-169.12,0\C,53,1.09369,35,146.58,34,-140.186,0\H,54,1.09245,53,110.387,35,-138.95,0\H,54,1.09359,53,107.685,35,109.806,0\S,54,1.80695,53,108.802,35,-8.37147,0\O,57,1.49696,54,97.9217,53,-1.34146,0\C,57,1.80622,54,97.4038,53,-95.6506,0\H,59,1.0924,57,114.121,54,-177.373,0\H,59,1.09261,57,104.436,54,66.9048,0\H,59,1.09341,57,116.456,54,-52.0389,0\H,11,2.21836,10,147.464,8,-55.7817,0\C,63,1.09217,11,115.517,10,-75.8096,0\H,64,1.09283,63,108.913,11,-9.69607,0\H,64,1.09329,63,112.818,11,117.938,0\S,64,1.80612,63,104.02,11,-125.127,0\O,67,1.49695,64,98.1296,63,-42.5191,0\C,67,1.80725,64,94.411,63,55.4722,0\H,69,1.09265,67,110.942,64,177.538,0\H,69,1.09291,67,108.896,64,62.8451,0\H,69,1.09315,67,112.55,64,-64.0479,0\H,66,2.14766,64,144.538,63,-77.7258,0\C,73,1.09275,66,110.484,64,-97.8732,0\H,74,1.09294,73,110.404,66,112.718,0\H,74,1.09373,73,110.684,66,-9.39743,0\S,74,1.80628,73,110.568,66,-131.012,0\O,77,1.49721,74,109.074,73,171.908,0\C,77,1.80732,74,91.8756,73,67.3614,0\H,79,1.0929,77,101.194,74,-76.8531,0\H,79,1.09323,77,119.001,74,163.112,0\H,79,1.09344,77,109.97,74,42.4555,0\H,72,2.18183,69,162.51,67,155.59,0\C,83,1.09291,72,156.055,69,44.973,0\H,84,1.09275,83,110.479,72,159.079,0\H,84,1.09286,83,115.99,72,-84.5637,0\S,84,1.80736,83,105.873,72,37.3357,0\O,87,1.49741,84,101.211,83,-46.0715,0\C,87,1.80655,84,90.3831,83,49.4545,0\H,89,1.09273,87,108.065,84,-45.7414,0\H,89,1.09325,87,105.341,84,74.7078,0\H,89,1.09346,87,108.32,84,-164.509,0\H,85,2.26351,84,125.043,83,-176.997,0\C,93,1.09364,85,94.8205,84,-138.459,0\H,94,1.09282,93,118.402,85,-36.8494,0\H,94,1.09335,93,109.559,85,-161.914,0\S,94,1.80685,93,109.277,85,80.6877,0\O,97,1.49764,94,101.646,93,51.4537,0\C,97,1.80715,94,96.2068,93,153.49,0\H,99,1.09254,97,102.634,94,-59.0213,0\H,99,1.09283,97,123.398,94,63.0359,0\H,99,1.09341,97,106.399,94,-170.174,0\H,101,2.2015,99,104.632,97,153.77,0\C,103,1.09242,101,145.473,99,-177.136,0\H,104,1.09295,103,111.253,101,4.63562,0\H,104,1.09347,103,111.29,101,-119.483,0\S,104,1.80673,103,106.828,101,121.844,0\O,107,1.49659,104,100.373,103,-168.4,0\C,107,1.80726,104,99.6733,103,-56.3402,0\H,109,1.09251,107,108.978,104,63.0414,0\H,109,1.09269,107,116.51,104,-174.923,0\H,109,1.09296,107,109.844,104,-54.9519,0\H,112,2.24804,109,111.518,107,-111.315,0\C,113,1.09235,112,166.614,109,2.09632,0\H,114,1.09258,113,108.778,112,-148.136,0\H,114,1.09344,113,110.403,112,91.6745,0\S,114,1.80649,113,110.321,112,-28.7005,0\O,117,1.49684,114,112.778,113,-65.3654,0\C,117,1.80748,114,93.6342,113,-170.392,0\H,119,1.09268,117,111.71,114,179.397,0\H,119,1.09277,117,108.606,114,-65.6095,0\H,119,1.09351,117,108.346,114,53.9841,0\O,101,2.25618,99,131.966,97,-105.873,0\S,123,1.49762,101,119.422,99,99.4376,0\C,124,1.80755,123,103.602,101,-115.807,0\H,125,1.09249,124,108.811,123,-175.722,0\H,125,1.09276,124,115.183,123,58.5451,0\H,125,1.09293,124,106.71,123,-48.1967,0\C,124,1.80756,123,108.186,101,144.574,0\H,129,1.09296,124,109.036,123,48.9449,0\H,129,1.093,124,106.255,123,166.602,0\H,129,1.09332,124,106.969,123,-74.0257,0\H,112,2.26361,109,140.881,107,127.253,0\C,133,1.09305,112,103.075,109,-110.828,0\H,134,1.09317,133,107.228,112,-171.638,0\H,134,1.09325,133,118.529,112,66.6707,0\S,134,1.80663,133,112.429,112,-56.6007,0\O,137,1.49615,134,106.219,133,-166.183,0\C,137,1.80711,134,92.0903,133,-64.7955,0\H,139,1.09255,137,113.347,134,168.166,0\H,139,1.09263,137,103.233,134,-63.4966,0\H,139,1.09322,137,100.221,134,55.61,0\H,140,2.08418,139,118.811,137,168.567,0\C,143,1.09337,140,133.687,139,73.367,0\H,144,1.09244,143,115.129,140,52.2758,0\H,144,1.09284,143,107.85,140,173.468,0\S,144,1.80735,143,111.828,140,-72.962,0\O,147,1.49705,144,100.542,143,-87.3142,0\C,147,1.80724,144,101.537,143,162.173,0\H,149,1.09259,147,112.373,144,171.826,0\H,149,1.09305,147,110.913,144,44.4642,0\H,149,1.09379,147,102.497,144,-67.3732,0\O,32,2.26767,29,118.443,1,-120.874,0\S,153,1.49704,32,142.019,29,91.9286,0\C,154,1.80718,153,102.653,32,-33.0505,0\H,155,1.09267,154,106.282,153,-67.9215,0\H,155,1.09313,154,112.482,153,167.555,0\H,155,1.0932,154,107.342,153,49.1143,0\C,154,1.80718,153,100.465,32,65.8206,0\H,159,1.09272,154,112.668,153,-36.6265,0\H,159,1.09282,154,104.515,153,-164.333,0\H,159,1.09312,154,110.036,153,79.975,0\H,36,2.28499,34,108.548,33,-165.189,0\C,163,1.09346,36,121.561,34,-123.916,0\H,164,1.09325,163,108.359,36,-149.662,0\H,164,1.09333,163,112.673,36,82.6348,0\S,164,1.80693,163,105.025,36,-33.1319,0\O,167,1.49723,164,104.889,163,-69.753,0\C,167,1.80736,164,90.7935,163,-173.38,0\H,169,1.09246,167,108.302,164,162.392,0\H,169,1.09247,167,108.33,164,-83.4051,0\H,169,1.09348,167,105.056,164,40.6062,0\H,23,2.30008,22,160.932,19,-67.2541,0\C,173,1.09234,23,140.998,22,-97.8435,0\H,174,1.09269,173,113.326,23,105.664,0\H,174,1.09311,173,114.507,23,-133.562,0\S,174,1.80748,173,110.718,23,-8.52444,0\O,177,1.4963,174,101.712,173,-161.848,0\C,177,1.80712,174,97.8666,173,-56.3549,0\H,179,1.09225,177,108.626,174,-170.232,0\H,179,1.09328,177,102.471,174,-53.6762,0\H,179,1.09336,177,109.345,174,77.0873,0\H,83,2.33237,72,89.9136,69,-135.514,0\C,183,1.09286,83,121.422,72,-56.3958,0\H,184,1.0925,183,110.124,83,153.957,0\H,184,1.09305,183,109.413,83,23.6381,0\S,184,1.80704,183,104.642,83,-91.05,0\O,187,1.49758,184,105.916,183,18.7044,0\C,187,1.8065,184,97.3065,183,-79.7791,0\H,189,1.09256,187,107.402,184,-101.016,0\H,189,1.09341,187,111.505,184,34.9564,0\H,189,1.0936,187,105.383,184,151.971,0\H,176,2.35166,174,106.939,173,-18.3694,0\C,193,1.09283,176,158.769,174,56.8279,0\H,194,1.09265,193,109.014,176,-162.502,0\H,194,1.09318,193,107.13,176,78.7861,0\S,194,1.80666,193,104.141,176,-43.1424,0\O,197,1.49667,194,101.077,193,-71.864,0\C,197,1.80745,194,96.5199,193,-174.761,0\H,199,1.09237,197,114.741,194,58.3616,0\H,199,1.09318,197,104.733,194,-179.108,0\H,199,1.09324,197,115.386,194,-65.2193,0\H,196,2.21203,194,113.141,193,-45.8773,0\C,203,1.09301,196,141.063,194,-132.809,0\H,204,1.09276,203,111.334,196,98.3255,0\H,204,1.09348,203,111.52,196,-132.617,0\S,204,1.80705,203,109.577,196,-12.5599,0\O,207,1.49717,204,101.026,203,40.4424,0\C,207,1.807,204,94.4083,203,-66.1825,0\H,209,1.09273,207,105.138,204,-62.5319,0\H,209,1.09319,207,102.703,204,-177.267,0\H,209,1.09338,207,109.647,204,63.3971,0\H,98,2.42431,97,148.916,94,103.197,0\C,213,1.09289,98,106.242,97,39.1758,0\H,214,1.0928,213,108.646,98,25.9497,0\H,214,1.09343,213,109.036,98,-106.311,0\S,214,1.80693,213,101.751,98,143.93,0\O,217,1.49688,214,105.394,213,-53.9582,0\C,217,1.80716,214,101.767,213,55.7311,0\H,219,1.09296,217,106.06,214,169.307,0\H,219,1.09358,217,107.879,214,-84.2539,0\H,219,1.09377,217,105.725,214,42.0791,0\H,202,2.43688,199,148.499,197,-175.755,0\C,223,1.09313,202,97.0989,199,85.5091,0\H,224,1.09216,223,104.346,202,-51.4683,0\H,224,1.09321,223,108.536,202,64.5566,0\S,224,1.80729,223,106.331,202,-171.496,0\O,227,1.49718,224,104.229,223,62.6199,0\C,227,1.80726,224,93.0306,223,170.884,0\H,229,1.09228,227,105.414,224,-164.896,0\H,229,1.09297,227,105.044,224,75.2976,0\H,229,1.0937,227,107.037,224,-48.0848,0\H,226,2.03001,224,109.189,223,-135.031,0\C,233,1.09249,226,120.868,224,155.186,0\H,234,1.0932,233,111.668,226,-138.605,0\H,234,1.09322,233,111.626,226,-15.1696,0\S,234,1.80726,233,100.992,226,101.841,0\O,237,1.49683,234,108.258,233,-34.3788,0\C,237,1.80689,234,91.6915,233,-143.053,0\H,239,1.0927,237,105.899,234,78.0573,0\H,239,1.09275,237,105.148,234,-44.7771,0\H,239,1.09302,237,113.626,234,-156.823,0\O,121,2.50169,119,130.109,117,-22.3344,0\S,243,1.49766,121,115.192,119,-18.6175,0\C,244,1.80654,243,100.779,121,118.096,0\H,245,1.09291,244,104.844,243,75.7219,0\H,245,1.09306,244,114.011,243,-38.0935,0\H,245,1.09329,244,111.166,243,-156.98,0\C,244,1.80711,243,108.489,121,-143.938,0\H,249,1.09246,244,109.586,243,96.7811,0\H,249,1.09306,244,105.64,243,-29.2695,0\H,249,1.09323,244,103.714,243,-146.282,0\H,141,2.53626,139,127.798,137,-128.067,0\C,253,1.09373,141,100.594,139,-161.868,0\H,254,1.09263,253,108.167,141,58.0111,0\H,254,1.09289,253,115.51,141,-179.288,0\S,254,1.80643,253,108.498,141,-59.0112,0\O,257,1.49715,254,97.507,253,-169.008,0\C,257,1.80755,254,107.584,253,-61.1456,0\H,259,1.09251,257,109.277,254,-130.59,0\H,259,1.0927,257,107.421,254,-11.9095,0\H,259,1.09323,257,115.764,254,110.55,0\H,80,2.55185,79,128.643,77,-47.5095,0\C,263,1.09264,80,129.613,79,-28.8133,0\H,264,1.093,263,100.477,80,-162.104,0\H,264,1.09339,263,115.857,80,83.9473,0\S,264,1.80731,263,116.142,80,-42.9794,0\O,267,1.49753,264,106.845,263,-167.848,0\C,267,1.80728,264,94.6217,263,-59.8785,0\H,269,1.09305,267,109.344,264,-169.524,0\H,269,1.09306,267,113.368,264,73.7333,0\H,269,1.09334,267,109.933,264,-54.073,0\H,263,2.07176,80,104.844,79,-176.127,0\C,273,1.09317,263,144.436,80,30.0518,0\H,274,1.09234,273,108.634,263,-170.883,0\H,274,1.09297,273,116.005,263,58.9299,0\S,274,1.80709,273,107.469,263,-65.1133,0\O,277,1.49769,274,104.013,273,-3.87486,0\C,277,1.80649,274,93.2422,273,105.67,0\H,279,1.09287,277,107.582,274,73.0649,0\H,279,1.09304,277,106.666,274,-167.253,0\H,279,1.09387,277,116.673,274,-44.3272,0\H,221,2.55597,219,146.244,217,16.2634,0\C,283,1.0926,221,147.952,219,-161.156,0\H,284,1.09241,283,110.224,221,-82.5576,0\H,284,1.09348,283,110.515,221,44.3611,0\S,284,1.80687,283,110.394,221,157.262,0\O,287,1.4967,284,98.5473,283,178.057,0\C,287,1.80681,284,96.599,283,73.1751,0\H,289,1.09269,287,100.814,284,168.218,0\H,289,1.09318,287,109.274,284,-62.1097,0\H,289,1.09388,287,114.366,284,59.8999,0\H,176,2.6125,174,172.77,173,-143.188,0\C,293,1.09239,176,117.733,174,-144.976,0\H,294,1.09303,293,110.472,176,168.91,0\H,294,1.09314,293,104.307,176,-69.3699,0\S,294,1.80699,293,110.813,176,47.5927,0\O,297,1.49622,294,104.252,293,-170.201,0\C,297,1.80748,294,97.9164,293,82.8624,0\H,299,1.09277,297,111.559,294,-172.661,0\H,299,1.09283,297,108.862,294,66.1332,0\H,299,1.09355,297,109.644,294,-49.1127,0\H,26,2.75684,25,106.728,1,-100.645,0\C,303,1.09265,26,129.777,25,81.3658,0\H,304,1.09284,303,114.042,26,-81.0603,0\H,304,1.09317,303,109.583,26,171.186,0\S,304,1.80729,303,114.347,26,48.6611,0\O,307,1.49734,304,102.322,303,-45.3354,0\C,307,1.80732,304,97.0248,303,57.1392,0\H,309,1.09252,307,111.897,304,72.7679,0\H,309,1.0928,307,109.313,304,-44.7567,0\H,309,1.09282,307,110.284,304,-168.832,0\\\@

 Total job time:  67.82s(wall), 219.57s(cpu) 
 Fri Dec  3 20:44:56 2021

        *************************************************************
        *                                                           *
        *  Thank you very much for using Q-Chem.  Have a nice day.  *
        *                                                           *
        *************************************************************


