                  Welcome to Q-Chem
     A Quantum Leap Into The Future Of Chemistry


 Q-Chem 6.0 (devel), Q-Chem, Inc., Pleasanton, CA (2022)

 E. Epifanovsky,  A. T. B. Gilbert,  Xintian Feng,  Joonho Lee,  Yuezhi Mao,  
 N. Mardirossian,  P. Pokhilko,  A. White,  M. Wormit,  M. P. Coons,  
 A. L. Dempwolff,  Zhengting Gan,  D. Hait,  P. R. Horn,  L. D. Jacobson,  
 I. Kaliman,  J. Kussmann,  A. W. Lange,  Ka Un Lao,  D. S. Levine,  Jie Liu,  
 S. C. McKenzie,  A. F. Morrison,  K. Nanda,  F. Plasser,  D. R. Rehn,  
 M. L. Vidal,  Zhi-Qiang You,  Ying Zhu,  B. Alam,  B. Albrecht,  
 A. Aldossary,  E. Alguire,  J. H. Andersen,  V. Athavale,  D. Barton,  
 K. Begam,  A. Behn,  N. Bellonzi,  Y. A. Bernard,  E. J. Berquist,  
 H. Burton,  A. Carreras,  K. Carter-Fenk,  Romit Chakraborty,  
 Chandrima Chakravarty,  Junhan Chen,  A. D. Chien,  K. D. Closser,  
 V. Cofer-Shabica,  L. Cunha,  S. Dasgupta,  Jia Deng,  M. de Wergifosse,  
 M. Diedenhofen,  Hainam Do,  S. Ehlert,  Po-Tung Fang,  S. Fatehi,  
 Qingguo Feng,  T. Friedhoff,  B. Ganoe,  J. Gayvert,  Qinghui Ge,  
 G. Gidofalvi,  M. Goldey,  J. Gomes,  C. Gonzalez-Espinoza,  S. Gulania,  
 A. Gunina,  J. A. Gyamfi,  M. W. D. Hanson-Heine,  P. H. P. Harbach,  
 A. W. Hauser,  M. F. Herbst,  M. Hernandez Vera,  M. Hodecker,  
 Z. C. Holden,  S. Houck,  Xunkun Huang,  Kerwin Hui,  B. C. Huynh,  
 K. Ikeda,  M. Ivanov,  Hyunjun Ji,  Zuxin Jin,  Hanjie Jiang,  B. Kaduk,  
 S. Kaehler,  R. Kang,  K. Khistyaev,  Jaehoon Kim,  Yongbin Kim,  
 P. Klunzinger,  Z. Koczor-Benda,  Joong Hoon Koh,  D. Kosenkov,  
 Saikiran Kotaru,  L. Koulias,  T. Kowalczyk,  C. M. Krauter,  K. Kue,  
 A. Kunitsa,  T. Kus,  A. Landau,  K. V. Lawler,  D. Lefrancois,  S. Lehtola,  
 Rain Li,  Shaozhi Li,  Yi-Pei Li,  Jiashu Liang,  M. Liebenthal,  
 Hung-Hsuan Lin,  You-Sheng Lin,  Fenglai Liu,  Kuan-Yu Liu,  
 M. Loipersberger,  A. Luenser,  C. Malbon,  A. Manjanath,  P. Manohar,  
 E. Mansoor,  S. F. Manzer,  Shan-Ping Mao,  A. V. Marenich,  T. Markovich,  
 S. Mason,  F. Matz,  S. A. Maurer,  P. F. McLaughlin,  M. F. S. J. Menger,  
 J.-M. Mewes,  S. A. Mewes,  P. Morgante,  Mohammad Mostafanejad,  
 J. W. Mullinax,  K. J. Oosterbaan,  G. Paran,  V. Parravicini,  
 Alexander C. Paul,  Suranjan K. Paul,  F. Pavosevic,  Zheng Pei,  S. Prager,  
 E. I. Proynov,  E. Ramos,  B. Rana,  A. E. Rask,  A. Rettig,  R. M. Richard,  
 F. Rob,  E. Rossomme,  T. Scheele,  M. Scheurer,  M. Schneider,  
 P. E. Schneider,  N. Sergueev,  S. M. Sharada,  Hengyuan Shen,  
 W. Skomorowski,  D. W. Small,  C. J. Stein,  Yingli Su,  Yu-Chuan Su,  
 E. J. Sundstrom,  Zhen Tao,  J. Thirman,  Hung-Yi Tsai,  T. Tsuchimochi,  
 N. M. Tubman,  C. Utku,  S. P. Veccham,  O. Vydrov,  J. Wenzel,  
 Jonathan Wong,  J. Witte,  A. Yamada,  Chou-Hsun Yang,  Kun Yao,  
 S. Yeganeh,  S. R. Yost,  A. Zech,  F. Zeller,  Igor Ying Zhang,  
 Xing Zhang,  Yu Zhang,  D. Zuev,  A. Aspuru-Guzik,  A. T. Bell,  
 N. A. Besley,  K. B. Bravaya,  B. R. Brooks,  D. Casanova,  Jeng-Da Chai,  
 Hsing-Ta Chen,  S. Coriani,  C. J. Cramer,  A. E. DePrince, III,  
 R. A. DiStasio Jr.,  A. Dreuw,  B. D. Dunietz,  T. R. Furlani,  
 W. A. Goddard III,  S. Grimme,  S. Hammes-Schiffer,  T. Head-Gordon,  
 W. J. Hehre,  Chao-Ping Hsu,  T.-C. Jagau,  Yousung Jung,  A. Klamt,  
 Jing Kong,  D. S. Lambrecht,  Xiangyuan Li,  WanZhen Liang,  N. J. Mayhall,  
 C. W. McCurdy,  J. B. Neaton,  T. Neudecker,  C. Ochsenfeld,  
 J. A. Parkhill,  R. Peverati,  V. A. Rassolov,  Haisheng Ren,  Yihan Shao,  
 L. V. Slipchenko,  R. P. Steele,  J. E. Subotnik,  A. J. W. Thom,  
 A. Tkatchenko,  D. G. Truhlar,  T. Van Voorhis,  Fan Wang,  
 T. A. Wesolowski,  K. B. Whaley,  H. L. Woodcock III,  P. M. Zimmerman,  
 S. Faraji,  P. M. W. Gill,  M. Head-Gordon,  J. M. Herbert,  A. I. Krylov

 Contributors to earlier versions of Q-Chem not listed above: 
 R. D. Adamson,  B. Austin,  R. Baer,  J. Baker,  G. J. O. Beran,  
 K. Brandhorst,  S. T. Brown,  E. F. C. Byrd,  Arup K. Chakraborty,  
 G. K. L. Chan,  Chun-Min Chang,  Yunqing Chen,  C.-L. Cheng,  
 Siu Hung Chien,  D. M. Chipman,  D. L. Crittenden,  H. Dachsel,  
 R. J. Doerksen,  A. D. Dutoi,  R. G. Edgar,  J. Fosso-Tande,  
 L. Fusti-Molnar,  D. Ghosh,  A. Ghysels,  A. Golubeva-Zadorozhnaya,  
 J. Gonthier,  M. S. Gordon,  S. R. Gwaltney,  G. Hawkins,  J. E. Herr,  
 A. Heyden,  S. Hirata,  E. G. Hohenstein,  G. Kedziora,  F. J. Keil,  
 C. Kelley,  Jihan Kim,  R. A. King,  R. Z. Khaliullin,  P. P. Korambath,  
 W. Kurlancheek,  A. Laurent,  A. M. Lee,  M. S. Lee,  S. V. Levchenko,  
 Ching Yeh Lin,  D. Liotard,  E. Livshits,  R. C. Lochan,  I. Lotan,  
 L. A. Martinez-Martinez,  P. E. Maslen,  N. Nair,  D. P. O'Neill,  
 D. Neuhauser,  E. Neuscamman,  C. M. Oana,  R. Olivares-Amaya,  R. Olson,  
 T. M. Perrine,  B. Peters,  P. A. Pieniazek,  A. Prociuk,  Y. M. Rhee,  
 J. Ritchie,  M. A. Rohrdanz,  E. Rosta,  N. J. Russ,  H. F. Schaefer III,  
 M. W. Schmidt,  N. E. Schultz,  S. Sharma,  N. Shenvi,  C. D. Sherrill,  
 A. C. Simmonett,  A. Sodt,  T. Stein,  D. Stuck,  K. S. Thanthiriwatte,  
 V. Vanovschi,  L. Vogt,  Tao Wang,  A. Warshel,  M. A. Watson,  
 C. F. Williams,  Q. Wu,  X. Xu,  Jun Yang,  W. Zhang,  Yan Zhao

   Please cite Q-Chem as follows:
  "Software for the frontiers of quantum chemistry:
   An overview of developments in the Q-Chem 5 package"
   J. Chem. Phys. 155, 084801 (2021)
   https://doi.org/10.1063/5.0055522 (open access)

 Q-Chem 6.0.0 for Intel X86 EM64T Linux

 Parts of Q-Chem use Armadillo 9.900.5 (Nocturnal Misbehaviour).
 http://arma.sourceforge.net/

 Q-Chem begins on Thu Jul 21 03:17:44 2022  

 Host: nid00563
0

     Scratch files written to /global/cscratch1/sd/ymao90/r7.00_frame_0098_spade_B3LYP_dp20220721031335//
 Processing $rem in /global/homes/y/ymao90/my_qchem/qchem_embedding_5p4/config/preferences:
 Processing $rem in /global/homes/y/ymao90/.qchemrc:
 No nuclear gradient supported for projection-based embedding or EMFT. Set max ideriv = 0.

 Checking the input file for inconsistencies... 	...done.

--------------------------------------------------------------
User input:
--------------------------------------------------------------
$molecule
0 1
--
0 1
C    23.03700   30.34900   26.05700  
C    24.43800   29.72700   26.17600  
C    24.46200   28.25400   25.73700  
C    23.90900   28.10200   24.31000  
C    22.46700   28.63300   24.24400  
C    22.37400   30.10000   24.69300  
H    25.37400   27.65900   25.60500  
H    25.14900   30.23300   25.51100  
H    22.41900   30.04900   26.91200  
H    23.13200   31.42700   26.23300  
H    24.51200   28.67300   23.59400  
H    23.88300   27.07400   23.92900  
H    22.01400   28.54700   23.24800  
H    21.84200   27.92500   24.80100  
H    22.93600   30.72400   23.98700  
H    21.30600   30.34100   24.62200  
H    23.79800   27.68800   26.40200  
N    24.94000   29.77800   27.54900  
H    24.27000   29.49900   28.25600  
C    26.02300   30.46500   28.05400  
H    26.04900   30.42500   29.15800  
O    26.90700   30.96200   27.37800  
--
0 1
C    21.63400   24.16200   20.60400  
H    22.42600   24.43700   19.90200  
H    21.77000   23.23000   21.15800  
H    20.83300   23.76000   19.97800  
S    20.97800   25.66000   21.37300  
C    19.99000   26.38700   20.04600  
H    18.93900   26.13400   20.20900  
H    20.12200   27.47100   20.08300  
H    20.27400   25.98800   19.06900  
O    22.19300   26.53400   21.35500  
C    14.42600   32.17500   21.49200  
H    15.03200   32.65200   20.71800  
H    13.45400   31.87900   21.09000  
H    14.42900   32.84900   22.35300  
S    15.27400   30.65800   21.98900  
C    14.10800   30.26000   23.31100  
H    14.22000   29.18700   23.48800  
H    14.18300   30.85600   24.22500  
H    13.09900   30.46000   22.94200  
O    16.59900   31.10700   22.52100  
C    30.10600   30.26400   28.08800  
H    30.30000   29.60300   28.93600  
H    29.59100   31.15600   28.45400  
H    29.56700   29.73500   27.29800  
S    31.72100   30.85700   27.53500  
C    32.23400   31.64000   29.08100  
H    32.53600   30.87000   29.79600  
H    32.92200   32.47900   28.94900  
H    31.41200   32.21100   29.51800  
O    31.30000   32.08300   26.78700  
C    26.41900   28.34100   18.60200  
H    26.49400   28.96000   19.50000  
H    26.28200   27.27500   18.80000  
H    27.35000   28.53600   18.06500  
S    24.97400   28.94000   17.69800  
C    23.62200   28.74300   18.88000  
H    24.03500   29.27900   19.73900  
H    22.66600   29.12700   18.51500  
H    23.53700   27.67700   19.10600  
O    24.60600   28.01600   16.57900  
C    25.55200   33.86400   26.98300  
H    24.63500   33.58300   26.46000  
H    25.65900   33.31300   27.92000  
H    25.40900   34.93600   27.14700  
S    26.87300   33.69100   25.76200  
C    28.25400   34.10900   26.85100  
H    29.17700   33.99500   26.27700  
H    28.04800   35.09000   27.28900  
H    28.23400   33.29800   27.58400  
O    26.76400   34.88400   24.86500  
C    24.70700   33.13200   19.72800  
H    24.00000   33.91300   20.01900  
H    25.48300   33.45800   19.03100  
H    24.10100   32.36200   19.24400  
S    25.18900   32.29800   21.25700  
C    26.43900   33.46100   21.85100  
H    26.95900   33.80000   20.95100  
H    26.10800   34.25600   22.52300  
H    27.13400   32.86500   22.44800  
O    25.96800   31.18100   20.63600  
C    27.31500   29.76300   23.34300  
H    27.97100   30.04400   22.51500  
H    26.51500   29.16300   22.90100  
H    26.90900   30.68300   23.77200  
S    28.08800   28.95200   24.76000  
C    29.81800   29.40800   24.51100  
H    30.43500   28.59900   24.91000  
H    29.96300   29.63400   23.45100  
H    30.07900   30.33900   25.02000  
O    28.08400   27.49000   24.43800  
C    26.47800   25.38200   29.38400  
H    26.21700   25.13900   30.41700  
H    27.55100   25.21100   29.27200  
H    26.13400   26.39400   29.15700  
S    25.68800   24.15000   28.32400  
C    25.80200   25.14600   26.82100  
H    26.68800   25.75300   26.61900  
H    25.64200   24.38900   26.04900  
H    24.94900   25.82000   26.93700  
O    24.23200   24.12900   28.67200  
C    23.07900   23.54900   23.73600  
H    23.79300   23.92500   22.99900  
H    22.17600   23.22600   23.21100  
H    22.84900   24.36300   24.42700  
S    23.61900   22.05600   24.59900  
C    22.74700   22.44300   26.13300  
H    23.27700   23.26600   26.62000  
H    21.72200   22.72700   25.88200  
H    22.87800   21.51700   26.69800  
O    25.02200   22.43100   24.96300  
C    27.17200   24.18800   22.31100  
H    26.77300   24.35900   23.31400  
H    26.61600   23.57300   21.59800  
H    28.20600   23.90200   22.51700  
S    27.18400   25.89400   21.71700  
C    25.39900   26.11600   21.54700  
H    25.22000   27.16700   21.30600  
H    24.99400   25.39700   20.83000  
H    24.97800   25.93600   22.54000  
O    27.82100   25.88600   20.36200  
C    22.62300   36.25500   22.89400  
H    22.45400   35.77900   21.92400  
H    21.98100   37.13400   23.00200  
H    23.67400   36.55300   22.92000  
S    22.27000   35.08700   24.22700  
C    23.22300   33.62100   23.77300  
H    24.18000   33.94500   23.35700  
H    23.20500   32.98500   24.66200  
H    22.50800   33.15200   23.09200  
O    20.90700   34.61600   23.82500  
C    24.24700   26.91000   34.91600  
H    23.96100   27.74700   34.27400  
H    23.42800   26.22100   34.69600  
H    24.24900   27.20700   35.96800  
S    25.78900   26.08800   34.45700  
C    26.77000   27.59300   34.64500  
H    26.64400   27.94100   35.67300  
H    27.80800   27.42600   34.34500  
H    26.42500   28.44700   34.05600  
O    25.64700   25.84600   32.98600  
C    19.08800   33.05600   25.79300  
H    18.66400   33.73700   25.05100  
H    18.88000   33.45900   26.78800  
H    20.15000   32.79700   25.79900  
S    18.24100   31.46300   25.68700  
C    16.64600   32.12500   26.21900  
H    16.70600   32.59600   27.20400  
H    16.23100   32.83300   25.49800  
H    15.93900   31.30500   26.37000  
O    18.68000   30.58100   26.81400  
C    17.61400   24.95300   25.15700  
H    16.63500   25.43900   25.16200  
H    17.98700   24.86300   24.13300  
H    17.50700   24.02100   25.71800  
S    18.82600   25.89200   26.11300  
C    18.68700   27.38200   25.10000  
H    18.52100   27.06200   24.06800  
H    17.93200   28.11300   25.40000  
H    19.65600   27.88500   25.15000  
O    20.08100   25.31100   25.54000  
C    20.86500   31.41900   29.89300  
H    20.43900   30.65700   29.23500  
H    20.97100   32.29600   29.24900  
H    21.84200   31.07600   30.24400  
S    19.81900   31.64100   31.35000  
C    18.36900   31.91800   30.30800  
H    17.91400   30.92700   30.23000  
H    17.64400   32.56600   30.80600  
H    18.62000   32.33900   29.33100  
O    20.19100   32.91800   32.03700  
C    23.60300   32.51000   32.75900  
H    24.22600   33.11100   32.09100  
H    22.64800   32.20400   32.32400  
H    23.39500   33.15300   33.61800  
S    24.56600   31.13800   33.43400  
C    24.55600   30.09400   31.95900  
H    25.18700   30.64300   31.25600  
H    24.99700   29.15400   32.30100  
H    23.50000   30.11200   31.67700  
O    23.62900   30.51800   34.42400  
C    21.94200   26.49300   28.40800  
H    22.23400   25.44100   28.36300  
H    20.95900   26.72600   28.82500  
H    21.93900   26.88900   27.38900  
S    23.23500   27.44200   29.24200  
C    23.33500   26.64100   30.85900  
H    23.89200   25.70800   30.74200  
H    23.82700   27.23900   31.63000  
H    22.27800   26.43000   31.04400  
O    22.64500   28.79400   29.49500  
C    16.29900   26.70900   22.24800  
H    17.03200   25.95900   21.93800  
H    16.66500   27.56000   22.82700  
H    15.58100   26.19900   22.89600  
S    15.37200   27.34900   20.83600  
C    14.72800   25.75400   20.27900  
H    14.12300   25.79500   19.37000  
H    15.58300   25.13600   19.99400  
H    14.01700   25.31900   20.98500  
O    16.53200   27.53100   19.90700  
C    30.36700   26.76200   28.03100  
H    29.38400   26.70200   27.55500  
H    30.40800   27.50500   28.83200  
H    30.96700   27.07900   27.17400  
S    31.15600   25.21900   28.54300  
C    32.51800   25.88500   29.52600  
H    32.92800   26.72900   28.96600  
H    32.14500   26.23300   30.49200  
H    33.16900   25.02900   29.72400  
O    31.65100   24.62200   27.26300  
C    23.42400   39.13600   27.82500  
H    22.48100   38.97400   28.35200  
H    24.20500   39.04300   28.58300  
H    23.45200   40.14200   27.39900  
S    23.53400   38.00900   26.41700  
C    24.75200   38.73300   25.29700  
H    25.71400   38.30500   25.59200  
H    24.42200   38.38200   24.31600  
H    24.83200   39.81900   25.38900  
O    22.24400   38.14800   25.66900  
C    19.23300   23.06900   27.72700  
H    20.13400   23.45500   27.24300  
H    18.70500   22.40700   27.03600  
H    18.50300   23.80400   28.07200  
S    19.75100   22.21500   29.23300  
C    20.86300   23.51200   29.82400  
H    20.94800   23.51400   30.91300  
H    21.84500   23.25900   29.41700  
H    20.47500   24.48500   29.51000  
O    20.78900   21.27000   28.71400  
C    22.61200   35.09200   29.53900  
H    21.86300   34.35500   29.84100  
H    23.62200   34.68100   29.60800  
H    22.51200   36.05200   30.05300  
S    22.30900   35.19600   27.76100  
C    20.54000   35.56300   27.78600  
H    20.08500   35.25200   26.84200  
H    20.02200   35.00400   28.56900  
H    20.55300   36.63600   27.99600  
O    22.32500   33.73600   27.42800  
C    19.69000   29.66300   21.84800  
H    19.99700   28.64500   22.09900  
H    19.01200   29.99400   22.64000  
H    19.15300   29.60600   20.89800  
S    20.98000   30.92000   21.70800  
C    19.91100   32.32800   22.08300  
H    19.72700   32.34400   23.16000  
H    20.35700   33.23700   21.67100  
H    18.98500   32.12000   21.54100  
O    21.25900   30.89600   20.23700  
C    17.07200   26.79800   31.94500  
H    17.47700   27.41100   32.75400  
H    16.25000   27.35500   31.48800  
H    16.61600   25.87000   32.30100  
S    18.51300   26.40500   30.92900  
C    18.75800   28.11500   30.40100  
H    19.60400   28.33900   29.74600  
H    17.83400   28.39200   29.88500  
H    18.95200   28.71600   31.29200  
O    17.95700   25.78900   29.68300  
C    29.21100   23.00400   25.62800  
H    28.28400   23.08900   25.05600  
H    29.23200   22.00300   26.06700  
H    29.21000   23.85700   26.31100  
S    30.58000   23.22200   24.46900  
C    30.15400   24.95000   24.15700  
H    29.07400   25.06800   24.27900  
H    30.80600   25.53100   24.81300  
H    30.43200   25.20800   23.13200  
O    29.93000   22.41600   23.38800  
C    28.17300   28.19200   30.56200  
H    27.16600   28.14900   30.98500  
H    28.31200   28.93700   29.77500  
H    28.48100   27.20800   30.19800  
S    29.33100   28.73000   31.84100  
C    28.48200   30.29500   32.14800  
H    27.46900   30.14100   32.53000  
H    29.05500   30.92800   32.83100  
H    28.47800   30.73700   31.14900  
O    30.52700   29.19800   31.07200  
C    26.57200   35.32400   30.95100  
H    25.61000   35.37900   31.46800  
H    27.21000   36.18400   31.16900  
H    26.49300   34.96600   29.92200  
S    27.49300   34.01500   31.78900  
C    29.06500   34.18600   30.91400  
H    28.87900   34.52000   29.89100  
H    29.59900   34.82600   31.62100  
H    29.54400   33.21300   31.05000  
O    26.88500   32.88800   31.01300  
$end

$rem
JOBTYPE  SP
METHOD  B3LYP
BASIS  6-31+G(D)
SYMMETRY  FALSE
SYM_IGNORE  TRUE
MEM_TOTAL  12000
MEM_STATIC  4000
BASIS_LIN_DEP_THRESH  6
THRESH  14
SCF_CONVERGENCE  8
FD_MAT_VEC_PROD  FALSE
XC_GRID  000075000302
NL_GRID  1
MAX_SCF_CYCLES  200
ENV_METHOD  B3LYP
GEN_SCFMAN_EMBED  TRUE
SPADE_PARTITION  TRUE
EMBEDDING_EARLY_STOP  TRUE
$end

--------------------------------------------------------------
 ----------------------------------------------------------------
             Standard Nuclear Orientation (Angstroms)
    I     Atom           X                Y                Z
 ----------------------------------------------------------------
    1      C      23.0370000000    30.3490000000    26.0570000000
    2      C      24.4380000000    29.7270000000    26.1760000000
    3      C      24.4620000000    28.2540000000    25.7370000000
    4      C      23.9090000000    28.1020000000    24.3100000000
    5      C      22.4670000000    28.6330000000    24.2440000000
    6      C      22.3740000000    30.1000000000    24.6930000000
    7      H      25.3740000000    27.6590000000    25.6050000000
    8      H      25.1490000000    30.2330000000    25.5110000000
    9      H      22.4190000000    30.0490000000    26.9120000000
   10      H      23.1320000000    31.4270000000    26.2330000000
   11      H      24.5120000000    28.6730000000    23.5940000000
   12      H      23.8830000000    27.0740000000    23.9290000000
   13      H      22.0140000000    28.5470000000    23.2480000000
   14      H      21.8420000000    27.9250000000    24.8010000000
   15      H      22.9360000000    30.7240000000    23.9870000000
   16      H      21.3060000000    30.3410000000    24.6220000000
   17      H      23.7980000000    27.6880000000    26.4020000000
   18      N      24.9400000000    29.7780000000    27.5490000000
   19      H      24.2700000000    29.4990000000    28.2560000000
   20      C      26.0230000000    30.4650000000    28.0540000000
   21      H      26.0490000000    30.4250000000    29.1580000000
   22      O      26.9070000000    30.9620000000    27.3780000000
   23      C      21.6340000000    24.1620000000    20.6040000000
   24      H      22.4260000000    24.4370000000    19.9020000000
   25      H      21.7700000000    23.2300000000    21.1580000000
   26      H      20.8330000000    23.7600000000    19.9780000000
   27      S      20.9780000000    25.6600000000    21.3730000000
   28      C      19.9900000000    26.3870000000    20.0460000000
   29      H      18.9390000000    26.1340000000    20.2090000000
   30      H      20.1220000000    27.4710000000    20.0830000000
   31      H      20.2740000000    25.9880000000    19.0690000000
   32      O      22.1930000000    26.5340000000    21.3550000000
   33      C      14.4260000000    32.1750000000    21.4920000000
   34      H      15.0320000000    32.6520000000    20.7180000000
   35      H      13.4540000000    31.8790000000    21.0900000000
   36      H      14.4290000000    32.8490000000    22.3530000000
   37      S      15.2740000000    30.6580000000    21.9890000000
   38      C      14.1080000000    30.2600000000    23.3110000000
   39      H      14.2200000000    29.1870000000    23.4880000000
   40      H      14.1830000000    30.8560000000    24.2250000000
   41      H      13.0990000000    30.4600000000    22.9420000000
   42      O      16.5990000000    31.1070000000    22.5210000000
   43      C      30.1060000000    30.2640000000    28.0880000000
   44      H      30.3000000000    29.6030000000    28.9360000000
   45      H      29.5910000000    31.1560000000    28.4540000000
   46      H      29.5670000000    29.7350000000    27.2980000000
   47      S      31.7210000000    30.8570000000    27.5350000000
   48      C      32.2340000000    31.6400000000    29.0810000000
   49      H      32.5360000000    30.8700000000    29.7960000000
   50      H      32.9220000000    32.4790000000    28.9490000000
   51      H      31.4120000000    32.2110000000    29.5180000000
   52      O      31.3000000000    32.0830000000    26.7870000000
   53      C      26.4190000000    28.3410000000    18.6020000000
   54      H      26.4940000000    28.9600000000    19.5000000000
   55      H      26.2820000000    27.2750000000    18.8000000000
   56      H      27.3500000000    28.5360000000    18.0650000000
   57      S      24.9740000000    28.9400000000    17.6980000000
   58      C      23.6220000000    28.7430000000    18.8800000000
   59      H      24.0350000000    29.2790000000    19.7390000000
   60      H      22.6660000000    29.1270000000    18.5150000000
   61      H      23.5370000000    27.6770000000    19.1060000000
   62      O      24.6060000000    28.0160000000    16.5790000000
   63      C      25.5520000000    33.8640000000    26.9830000000
   64      H      24.6350000000    33.5830000000    26.4600000000
   65      H      25.6590000000    33.3130000000    27.9200000000
   66      H      25.4090000000    34.9360000000    27.1470000000
   67      S      26.8730000000    33.6910000000    25.7620000000
   68      C      28.2540000000    34.1090000000    26.8510000000
   69      H      29.1770000000    33.9950000000    26.2770000000
   70      H      28.0480000000    35.0900000000    27.2890000000
   71      H      28.2340000000    33.2980000000    27.5840000000
   72      O      26.7640000000    34.8840000000    24.8650000000
   73      C      24.7070000000    33.1320000000    19.7280000000
   74      H      24.0000000000    33.9130000000    20.0190000000
   75      H      25.4830000000    33.4580000000    19.0310000000
   76      H      24.1010000000    32.3620000000    19.2440000000
   77      S      25.1890000000    32.2980000000    21.2570000000
   78      C      26.4390000000    33.4610000000    21.8510000000
   79      H      26.9590000000    33.8000000000    20.9510000000
   80      H      26.1080000000    34.2560000000    22.5230000000
   81      H      27.1340000000    32.8650000000    22.4480000000
   82      O      25.9680000000    31.1810000000    20.6360000000
   83      C      27.3150000000    29.7630000000    23.3430000000
   84      H      27.9710000000    30.0440000000    22.5150000000
   85      H      26.5150000000    29.1630000000    22.9010000000
   86      H      26.9090000000    30.6830000000    23.7720000000
   87      S      28.0880000000    28.9520000000    24.7600000000
   88      C      29.8180000000    29.4080000000    24.5110000000
   89      H      30.4350000000    28.5990000000    24.9100000000
   90      H      29.9630000000    29.6340000000    23.4510000000
   91      H      30.0790000000    30.3390000000    25.0200000000
   92      O      28.0840000000    27.4900000000    24.4380000000
   93      C      26.4780000000    25.3820000000    29.3840000000
   94      H      26.2170000000    25.1390000000    30.4170000000
   95      H      27.5510000000    25.2110000000    29.2720000000
   96      H      26.1340000000    26.3940000000    29.1570000000
   97      S      25.6880000000    24.1500000000    28.3240000000
   98      C      25.8020000000    25.1460000000    26.8210000000
   99      H      26.6880000000    25.7530000000    26.6190000000
  100      H      25.6420000000    24.3890000000    26.0490000000
  101      H      24.9490000000    25.8200000000    26.9370000000
  102      O      24.2320000000    24.1290000000    28.6720000000
  103      C      23.0790000000    23.5490000000    23.7360000000
  104      H      23.7930000000    23.9250000000    22.9990000000
  105      H      22.1760000000    23.2260000000    23.2110000000
  106      H      22.8490000000    24.3630000000    24.4270000000
  107      S      23.6190000000    22.0560000000    24.5990000000
  108      C      22.7470000000    22.4430000000    26.1330000000
  109      H      23.2770000000    23.2660000000    26.6200000000
  110      H      21.7220000000    22.7270000000    25.8820000000
  111      H      22.8780000000    21.5170000000    26.6980000000
  112      O      25.0220000000    22.4310000000    24.9630000000
  113      C      27.1720000000    24.1880000000    22.3110000000
  114      H      26.7730000000    24.3590000000    23.3140000000
  115      H      26.6160000000    23.5730000000    21.5980000000
  116      H      28.2060000000    23.9020000000    22.5170000000
  117      S      27.1840000000    25.8940000000    21.7170000000
  118      C      25.3990000000    26.1160000000    21.5470000000
  119      H      25.2200000000    27.1670000000    21.3060000000
  120      H      24.9940000000    25.3970000000    20.8300000000
  121      H      24.9780000000    25.9360000000    22.5400000000
  122      O      27.8210000000    25.8860000000    20.3620000000
  123      C      22.6230000000    36.2550000000    22.8940000000
  124      H      22.4540000000    35.7790000000    21.9240000000
  125      H      21.9810000000    37.1340000000    23.0020000000
  126      H      23.6740000000    36.5530000000    22.9200000000
  127      S      22.2700000000    35.0870000000    24.2270000000
  128      C      23.2230000000    33.6210000000    23.7730000000
  129      H      24.1800000000    33.9450000000    23.3570000000
  130      H      23.2050000000    32.9850000000    24.6620000000
  131      H      22.5080000000    33.1520000000    23.0920000000
  132      O      20.9070000000    34.6160000000    23.8250000000
  133      C      24.2470000000    26.9100000000    34.9160000000
  134      H      23.9610000000    27.7470000000    34.2740000000
  135      H      23.4280000000    26.2210000000    34.6960000000
  136      H      24.2490000000    27.2070000000    35.9680000000
  137      S      25.7890000000    26.0880000000    34.4570000000
  138      C      26.7700000000    27.5930000000    34.6450000000
  139      H      26.6440000000    27.9410000000    35.6730000000
  140      H      27.8080000000    27.4260000000    34.3450000000
  141      H      26.4250000000    28.4470000000    34.0560000000
  142      O      25.6470000000    25.8460000000    32.9860000000
  143      C      19.0880000000    33.0560000000    25.7930000000
  144      H      18.6640000000    33.7370000000    25.0510000000
  145      H      18.8800000000    33.4590000000    26.7880000000
  146      H      20.1500000000    32.7970000000    25.7990000000
  147      S      18.2410000000    31.4630000000    25.6870000000
  148      C      16.6460000000    32.1250000000    26.2190000000
  149      H      16.7060000000    32.5960000000    27.2040000000
  150      H      16.2310000000    32.8330000000    25.4980000000
  151      H      15.9390000000    31.3050000000    26.3700000000
  152      O      18.6800000000    30.5810000000    26.8140000000
  153      C      17.6140000000    24.9530000000    25.1570000000
  154      H      16.6350000000    25.4390000000    25.1620000000
  155      H      17.9870000000    24.8630000000    24.1330000000
  156      H      17.5070000000    24.0210000000    25.7180000000
  157      S      18.8260000000    25.8920000000    26.1130000000
  158      C      18.6870000000    27.3820000000    25.1000000000
  159      H      18.5210000000    27.0620000000    24.0680000000
  160      H      17.9320000000    28.1130000000    25.4000000000
  161      H      19.6560000000    27.8850000000    25.1500000000
  162      O      20.0810000000    25.3110000000    25.5400000000
  163      C      20.8650000000    31.4190000000    29.8930000000
  164      H      20.4390000000    30.6570000000    29.2350000000
  165      H      20.9710000000    32.2960000000    29.2490000000
  166      H      21.8420000000    31.0760000000    30.2440000000
  167      S      19.8190000000    31.6410000000    31.3500000000
  168      C      18.3690000000    31.9180000000    30.3080000000
  169      H      17.9140000000    30.9270000000    30.2300000000
  170      H      17.6440000000    32.5660000000    30.8060000000
  171      H      18.6200000000    32.3390000000    29.3310000000
  172      O      20.1910000000    32.9180000000    32.0370000000
  173      C      23.6030000000    32.5100000000    32.7590000000
  174      H      24.2260000000    33.1110000000    32.0910000000
  175      H      22.6480000000    32.2040000000    32.3240000000
  176      H      23.3950000000    33.1530000000    33.6180000000
  177      S      24.5660000000    31.1380000000    33.4340000000
  178      C      24.5560000000    30.0940000000    31.9590000000
  179      H      25.1870000000    30.6430000000    31.2560000000
  180      H      24.9970000000    29.1540000000    32.3010000000
  181      H      23.5000000000    30.1120000000    31.6770000000
  182      O      23.6290000000    30.5180000000    34.4240000000
  183      C      21.9420000000    26.4930000000    28.4080000000
  184      H      22.2340000000    25.4410000000    28.3630000000
  185      H      20.9590000000    26.7260000000    28.8250000000
  186      H      21.9390000000    26.8890000000    27.3890000000
  187      S      23.2350000000    27.4420000000    29.2420000000
  188      C      23.3350000000    26.6410000000    30.8590000000
  189      H      23.8920000000    25.7080000000    30.7420000000
  190      H      23.8270000000    27.2390000000    31.6300000000
  191      H      22.2780000000    26.4300000000    31.0440000000
  192      O      22.6450000000    28.7940000000    29.4950000000
  193      C      16.2990000000    26.7090000000    22.2480000000
  194      H      17.0320000000    25.9590000000    21.9380000000
  195      H      16.6650000000    27.5600000000    22.8270000000
  196      H      15.5810000000    26.1990000000    22.8960000000
  197      S      15.3720000000    27.3490000000    20.8360000000
  198      C      14.7280000000    25.7540000000    20.2790000000
  199      H      14.1230000000    25.7950000000    19.3700000000
  200      H      15.5830000000    25.1360000000    19.9940000000
  201      H      14.0170000000    25.3190000000    20.9850000000
  202      O      16.5320000000    27.5310000000    19.9070000000
  203      C      30.3670000000    26.7620000000    28.0310000000
  204      H      29.3840000000    26.7020000000    27.5550000000
  205      H      30.4080000000    27.5050000000    28.8320000000
  206      H      30.9670000000    27.0790000000    27.1740000000
  207      S      31.1560000000    25.2190000000    28.5430000000
  208      C      32.5180000000    25.8850000000    29.5260000000
  209      H      32.9280000000    26.7290000000    28.9660000000
  210      H      32.1450000000    26.2330000000    30.4920000000
  211      H      33.1690000000    25.0290000000    29.7240000000
  212      O      31.6510000000    24.6220000000    27.2630000000
  213      C      23.4240000000    39.1360000000    27.8250000000
  214      H      22.4810000000    38.9740000000    28.3520000000
  215      H      24.2050000000    39.0430000000    28.5830000000
  216      H      23.4520000000    40.1420000000    27.3990000000
  217      S      23.5340000000    38.0090000000    26.4170000000
  218      C      24.7520000000    38.7330000000    25.2970000000
  219      H      25.7140000000    38.3050000000    25.5920000000
  220      H      24.4220000000    38.3820000000    24.3160000000
  221      H      24.8320000000    39.8190000000    25.3890000000
  222      O      22.2440000000    38.1480000000    25.6690000000
  223      C      19.2330000000    23.0690000000    27.7270000000
  224      H      20.1340000000    23.4550000000    27.2430000000
  225      H      18.7050000000    22.4070000000    27.0360000000
  226      H      18.5030000000    23.8040000000    28.0720000000
  227      S      19.7510000000    22.2150000000    29.2330000000
  228      C      20.8630000000    23.5120000000    29.8240000000
  229      H      20.9480000000    23.5140000000    30.9130000000
  230      H      21.8450000000    23.2590000000    29.4170000000
  231      H      20.4750000000    24.4850000000    29.5100000000
  232      O      20.7890000000    21.2700000000    28.7140000000
  233      C      22.6120000000    35.0920000000    29.5390000000
  234      H      21.8630000000    34.3550000000    29.8410000000
  235      H      23.6220000000    34.6810000000    29.6080000000
  236      H      22.5120000000    36.0520000000    30.0530000000
  237      S      22.3090000000    35.1960000000    27.7610000000
  238      C      20.5400000000    35.5630000000    27.7860000000
  239      H      20.0850000000    35.2520000000    26.8420000000
  240      H      20.0220000000    35.0040000000    28.5690000000
  241      H      20.5530000000    36.6360000000    27.9960000000
  242      O      22.3250000000    33.7360000000    27.4280000000
  243      C      19.6900000000    29.6630000000    21.8480000000
  244      H      19.9970000000    28.6450000000    22.0990000000
  245      H      19.0120000000    29.9940000000    22.6400000000
  246      H      19.1530000000    29.6060000000    20.8980000000
  247      S      20.9800000000    30.9200000000    21.7080000000
  248      C      19.9110000000    32.3280000000    22.0830000000
  249      H      19.7270000000    32.3440000000    23.1600000000
  250      H      20.3570000000    33.2370000000    21.6710000000
  251      H      18.9850000000    32.1200000000    21.5410000000
  252      O      21.2590000000    30.8960000000    20.2370000000
  253      C      17.0720000000    26.7980000000    31.9450000000
  254      H      17.4770000000    27.4110000000    32.7540000000
  255      H      16.2500000000    27.3550000000    31.4880000000
  256      H      16.6160000000    25.8700000000    32.3010000000
  257      S      18.5130000000    26.4050000000    30.9290000000
  258      C      18.7580000000    28.1150000000    30.4010000000
  259      H      19.6040000000    28.3390000000    29.7460000000
  260      H      17.8340000000    28.3920000000    29.8850000000
  261      H      18.9520000000    28.7160000000    31.2920000000
  262      O      17.9570000000    25.7890000000    29.6830000000
  263      C      29.2110000000    23.0040000000    25.6280000000
  264      H      28.2840000000    23.0890000000    25.0560000000
  265      H      29.2320000000    22.0030000000    26.0670000000
  266      H      29.2100000000    23.8570000000    26.3110000000
  267      S      30.5800000000    23.2220000000    24.4690000000
  268      C      30.1540000000    24.9500000000    24.1570000000
  269      H      29.0740000000    25.0680000000    24.2790000000
  270      H      30.8060000000    25.5310000000    24.8130000000
  271      H      30.4320000000    25.2080000000    23.1320000000
  272      O      29.9300000000    22.4160000000    23.3880000000
  273      C      28.1730000000    28.1920000000    30.5620000000
  274      H      27.1660000000    28.1490000000    30.9850000000
  275      H      28.3120000000    28.9370000000    29.7750000000
  276      H      28.4810000000    27.2080000000    30.1980000000
  277      S      29.3310000000    28.7300000000    31.8410000000
  278      C      28.4820000000    30.2950000000    32.1480000000
  279      H      27.4690000000    30.1410000000    32.5300000000
  280      H      29.0550000000    30.9280000000    32.8310000000
  281      H      28.4780000000    30.7370000000    31.1490000000
  282      O      30.5270000000    29.1980000000    31.0720000000
  283      C      26.5720000000    35.3240000000    30.9510000000
  284      H      25.6100000000    35.3790000000    31.4680000000
  285      H      27.2100000000    36.1840000000    31.1690000000
  286      H      26.4930000000    34.9660000000    29.9220000000
  287      S      27.4930000000    34.0150000000    31.7890000000
  288      C      29.0650000000    34.1860000000    30.9140000000
  289      H      28.8790000000    34.5200000000    29.8910000000
  290      H      29.5990000000    34.8260000000    31.6210000000
  291      H      29.5440000000    33.2130000000    31.0500000000
  292      O      26.8850000000    32.8880000000    31.0130000000
 ----------------------------------------------------------------
 Nuclear Repulsion Energy =       48359.27006207 hartrees
 There are      602 alpha and      602 beta electrons
 Requested basis set is 6-31+G(d)
 There are 962 shells and 2681 basis functions

 Total QAlloc Memory Limit  12000 MB
 Mega-Array Size      3911 MB
 MEM_STATIC part      4000 MB

 A cutoff of  1.0D-14 yielded 179561 shell pairs
 There are   1552741 function pairs
 Smallest overlap matrix eigenvalue = 2.92E-07
 Linear dependence detected in AO basis
 Tighter screening thresholds may be required for diffuse basis sets
 Use S2THRESH > 14 and THRESH = 14 in case of SCF convergence issues
 Number of orthogonalized atomic orbitals = 2679
 Maximum deviation from orthogonality = 1.195E-10

 Scale SEOQF with 1.000000e-03/1.000000e-03/1.000000e-03

 Standard Electronic Orientation quadrupole field applied
 Nucleus-field energy     =     0.0000000819 hartrees
 Guess from superposition of atomic densities
 Warning:  Energy on first SCF cycle will be non-variational
 SAD guess density has 1204.000002 electrons

 -----------------------------------------------------------------------
  General SCF calculation program by
  Eric Jon Sundstrom, Paul Horn, Yuezhi Mao, Dmitri Zuev, Alec White,
  David Stuck, Shaama M.S., Shane Yost, Joonho Lee, David Small,
  Daniel Levine, Susi Lehtola, Hugh Burton, Evgeny Epifanovsky,
  Bang C. Huynh
 -----------------------------------------------------------------------
=================================================
        Doing projection-based embedding         
      F. Manby et al. JCTC, 8, 2564 (2012)       
=================================================

****************************************************
   Low-level SCF calculation for the whole system   
****************************************************
----------------------------------------------
 Summary of the low-level theory: 
 Exchange:     0.2000 Hartree-Fock + 0.0800 Slater + 0.7200 B88
 Correlation:  0.1900 VWN1RPA + 0.8100 LYP
 Using Euler-Maclaurin-Lebedev (75,302) quadrature formula
----------------------------------------------
 using 16 threads for integral computing
 -------------------------------------------------------
 OpenMP Integral computing Module                
 Release: version 1.0, May 2013, Q-Chem Inc. Pittsburgh 
 -------------------------------------------------------
 A restricted SCF calculation will be
 performed using DIIS
 SCF converges when DIIS error is below 1.0e-08
 ---------------------------------------
  Cycle       Energy         DIIS error
 ---------------------------------------
    1  -15359.8792976947      1.35e-02  
    2  -15335.8287221188      2.51e-03  
    3  -15306.4503331533      5.44e-03  
    4  -15272.7874162227      4.68e-03  
    5  -15339.3858908993      1.25e-03  
    6  -15340.6129337976      2.93e-04  
    7  -15340.6537559810      2.18e-04  
    8  -15340.6898882411      9.22e-05  
    9  -15340.6968580557      4.61e-05  
   10  -15340.6985538523      2.28e-05  
   11  -15340.6988778927      9.80e-06  
   12  -15340.6989478870      2.54e-06  
   13  -15340.6989528076      9.32e-07  
   14  -15340.6989533619      4.14e-07  
   15  -15340.6989534846      1.21e-07  
   16  -15340.6989534947      4.05e-08  
   17  -15340.6989534956      1.49e-08  
   18  -15340.6989534959      5.33e-09  Convergence criterion met
 ---------------------------------------
 SCF time:   CPU 326161.05s  wall 23471.00s 
 SCF   energy in the final basis set =   -15340.6989534959
 Total energy in the final basis set =   -15340.6989534959

****************************************************
             Start embedding calculation            
****************************************************
----------------------------------------------
 Summary of the high-level theory: 
 Exchange:     0.2000 Hartree-Fock + 0.0800 Slater + 0.7200 B88
 Correlation:  0.1900 VWN1RPA + 0.8100 LYP
 Using Euler-Maclaurin-Lebedev (75,302) quadrature formula
----------------------------------------------
Doing R-in-R Embedding Calculation
Number of fragments: 2
Embedded fragment(s): 1 
NOcc for each fragment
           35
          567
NBasis for each fragment
          197
         2484
Variational space of the embedded problem: 
NOcc (active)  = 35
NOcc (fixed)   = 567
NVir (total)   = 2077
Read converged orbitals from disk
=========================================================
       Doing SPADE partition for the orbital space       
     D. Claudino and N. Mayhall JCTC 15, 1053 (2019)     
=========================================================
SPADE singular values:
 1.0000 1.0000 1.0000 1.0000 1.0000 1.0000 1.0000 1.0000 1.0000 0.9999
 0.9998 0.9997 0.9996 0.9995 0.9994 0.9993 0.9989 0.9986 0.9984 0.9982
 0.9969 0.9967 0.9959 0.9951 0.9950 0.9947 0.9938 0.9925 0.9921 0.9918
 0.9907 0.9899 0.9861 0.9843 0.9774 0.2168 0.1978 0.1835 0.1585 0.1557
 0.1496 0.1445 0.1278 0.1228 0.1130 0.1000 0.0886 0.0840 0.0838 0.0795
 0.0666 0.0593 0.0542 0.0494 0.0458 0.0438 0.0422 0.0376 0.0370 0.0339
 0.0320 0.0306 0.0295 0.0264 0.0262 0.0252 0.0249 0.0219 0.0216 0.0204
 0.0188 0.0182 0.0175 0.0164 0.0158 0.0140 0.0129 0.0127 0.0123 0.0114
 0.0106 0.0100 0.0092 0.0088 0.0083 0.0079 0.0077 0.0075 0.0070 0.0068
 0.0066 0.0061 0.0059 0.0057 0.0055 0.0052 0.0050 0.0048 0.0043 0.0040
 0.0039 0.0037 0.0035 0.0033 0.0032 0.0031 0.0030 0.0029 0.0026 0.0025
 0.0025 0.0024 0.0023 0.0021 0.0021 0.0020 0.0019 0.0019 0.0018 0.0017
 0.0017 0.0016 0.0015 0.0014 0.0014 0.0013 0.0013 0.0012 0.0012 0.0012
 0.0011 0.0010 0.0010 0.0010 0.0009 0.0009 0.0009 0.0009 0.0008 0.0008
 0.0008 0.0007 0.0007 0.0007 0.0006 0.0006 0.0006 0.0005 0.0005 0.0005
 0.0005 0.0005 0.0004 0.0004 0.0004 0.0004 0.0004 0.0004 0.0003 0.0003
 0.0003 0.0003 0.0003 0.0003 0.0003 0.0003 0.0002 0.0002 0.0002 0.0002
 0.0002 0.0002 0.0002 0.0002 0.0002 0.0002 0.0002 0.0002 0.0002 0.0002
 0.0002 0.0001 0.0001 0.0001 0.0001 0.0001 0.0001 0.0001 0.0001 0.0001
 0.0001 0.0001 0.0001 0.0001 0.0001 0.0001 0.0001
Early stop requested; no embedded SCF will be performed

 567 environment occs will be part of frozen-core in future post-HF calculations

 --------------------------------------------------------------

                    Orbital Energies (a.u.)
 --------------------------------------------------------------

 Alpha MOs
 -- Occupied --
-89.0343 -89.0249 -89.0239 -89.0239 -89.0239 -89.0215 -89.0147 -89.0133
-89.0085 -89.0073 -89.0060 -89.0033 -89.0022 -89.0017 -88.9997 -88.9961
-88.9954 -88.9950 -88.9896 -88.9886 -88.9814 -88.9810 -88.9764 -88.9738
-88.9498 -88.9380 -88.9311 -19.1451 -19.1416 -19.1392 -19.1368 -19.1324
-19.1323 -19.1317 -19.1292 -19.1282 -19.1267 -19.1258 -19.1213 -19.1181
-19.1172 -19.1165 -19.1151 -19.1064 -19.1055 -19.0988 -19.0983 -19.0935
-19.0923 -19.0854 -19.0835 -19.0615 -19.0572 -19.0508 -10.2587 -10.2553
-10.2503 -10.2463 -10.2432 -10.2429 -10.2407 -10.2392 -10.2385 -10.2382
-10.2379 -10.2373 -10.2368 -10.2325 -10.2314 -10.2314 -10.2293 -10.2291
-10.2269 -10.2257 -10.2250 -10.2211 -10.2199 -10.2191 -10.2171 -10.2170
-10.2169 -10.2158 -10.2157 -10.2145 -10.2127 -10.2122 -10.2111 -10.2105
-10.2095 -10.2086 -10.2046 -10.2031 -10.2011 -10.2009 -10.1975 -10.1962
-10.1949 -10.1935 -10.1929 -10.1918 -10.1912 -10.1814 -10.1732 -10.1682
-10.1674 -10.1627 -10.1570 -10.1556  -8.0815  -8.0707  -8.0700  -8.0699
 -8.0692  -8.0672  -8.0612  -8.0593  -8.0537  -8.0528  -8.0515  -8.0494
 -8.0480  -8.0477  -8.0455  -8.0413  -8.0412  -8.0402  -8.0350  -8.0342
 -8.0273  -8.0268  -8.0218  -8.0201  -7.9962  -7.9843  -7.9777  -6.0457
 -6.0444  -6.0390  -6.0347  -6.0344  -6.0343  -6.0339  -6.0336  -6.0331
 -6.0330  -6.0323  -6.0316  -6.0303  -6.0284  -6.0275  -6.0270  -6.0268
 -6.0255  -6.0246  -6.0246  -6.0237  -6.0224  -6.0183  -6.0180  -6.0170
 -6.0168  -6.0166  -6.0160  -6.0160  -6.0145  -6.0137  -6.0127  -6.0126
 -6.0120  -6.0110  -6.0110  -6.0107  -6.0104  -6.0099  -6.0090  -6.0089
 -6.0068  -6.0058  -6.0056  -6.0052  -6.0051  -6.0046  -6.0044  -6.0044
 -6.0035  -6.0026  -5.9993  -5.9986  -5.9986  -5.9985  -5.9983  -5.9975
 -5.9972  -5.9925  -5.9915  -5.9914  -5.9913  -5.9904  -5.9901  -5.9863
 -5.9850  -5.9848  -5.9845  -5.9840  -5.9830  -5.9792  -5.9777  -5.9603
 -5.9591  -5.9538  -5.9488  -5.9475  -5.9423  -5.9413  -5.9409  -5.9346
 -1.0591  -1.0526  -1.0493  -1.0438  -1.0429  -1.0411  -1.0411  -1.0401
 -1.0373  -1.0363  -1.0316  -1.0312  -1.0286  -1.0238  -1.0235  -1.0224
 -1.0212  -1.0209  -1.0127  -1.0115  -1.0043  -1.0010  -0.9998  -0.9969
 -0.9731  -0.9662  -0.9564  -0.8365  -0.8342  -0.8272  -0.8218  -0.8204
 -0.8190  -0.8185  -0.8154  -0.8141  -0.8122  -0.8107  -0.8069  -0.8045
 -0.8033  -0.7975  -0.7942  -0.7939  -0.7932  -0.7882  -0.7833  -0.7812
 -0.7806  -0.7788  -0.7730  -0.7719  -0.7585  -0.7564  -0.7549  -0.7532
 -0.7511  -0.7507  -0.7485  -0.7448  -0.7430  -0.7391  -0.7379  -0.7373
 -0.7369  -0.7348  -0.7335  -0.7320  -0.7272  -0.7261  -0.7259  -0.7253
 -0.7181  -0.7162  -0.7140  -0.7112  -0.7041  -0.6991  -0.6812  -0.6763
 -0.6700  -0.6431  -0.6413  -0.6378  -0.6365  -0.6357  -0.6355  -0.6329
 -0.6277  -0.6213  -0.6206  -0.6179  -0.6159  -0.6134  -0.6129  -0.6104
 -0.6092  -0.6083  -0.6070  -0.6012  -0.5996  -0.5953  -0.5951  -0.5896
 -0.5847  -0.5652  -0.5517  -0.5427  -0.5286  -0.5144  -0.5109  -0.5076
 -0.5055  -0.5030  -0.5028  -0.5002  -0.4987  -0.4981  -0.4958  -0.4952
 -0.4946  -0.4927  -0.4925  -0.4909  -0.4905  -0.4890  -0.4887  -0.4877
 -0.4874  -0.4867  -0.4859  -0.4856  -0.4846  -0.4834  -0.4824  -0.4820
 -0.4812  -0.4811  -0.4803  -0.4799  -0.4789  -0.4786  -0.4780  -0.4772
 -0.4767  -0.4764  -0.4751  -0.4727  -0.4723  -0.4722  -0.4700  -0.4695
 -0.4685  -0.4664  -0.4660  -0.4655  -0.4647  -0.4642  -0.4633  -0.4629
 -0.4625  -0.4619  -0.4616  -0.4607  -0.4603  -0.4599  -0.4593  -0.4576
 -0.4574  -0.4556  -0.4546  -0.4537  -0.4534  -0.4525  -0.4519  -0.4517
 -0.4501  -0.4497  -0.4482  -0.4465  -0.4446  -0.4440  -0.4437  -0.4434
 -0.4427  -0.4414  -0.4409  -0.4401  -0.4392  -0.4385  -0.4374  -0.4370
 -0.4366  -0.4354  -0.4353  -0.4351  -0.4335  -0.4334  -0.4325  -0.4319
 -0.4317  -0.4309  -0.4296  -0.4290  -0.4281  -0.4274  -0.4266  -0.4256
 -0.4253  -0.4253  -0.4236  -0.4233  -0.4232  -0.4223  -0.4219  -0.4205
 -0.4202  -0.4198  -0.4196  -0.4187  -0.4175  -0.4158  -0.4148  -0.4144
 -0.4139  -0.4128  -0.4124  -0.4113  -0.4110  -0.4108  -0.4088  -0.4084
 -0.4082  -0.4077  -0.4070  -0.4058  -0.4046  -0.4040  -0.4033  -0.4026
 -0.4020  -0.4012  -0.4002  -0.3982  -0.3980  -0.3969  -0.3968  -0.3964
 -0.3954  -0.3939  -0.3933  -0.3921  -0.3918  -0.3905  -0.3888  -0.3879
 -0.3873  -0.3867  -0.3854  -0.3847  -0.3833  -0.3825  -0.3817  -0.3808
 -0.3798  -0.3796  -0.3771  -0.3761  -0.3744  -0.3730  -0.3720  -0.3712
 -0.3699  -0.3683  -0.3683  -0.3670  -0.3634  -0.3620  -0.3616  -0.3606
 -0.3573  -0.3560  -0.3547  -0.3542  -0.3540  -0.3526  -0.3516  -0.3509
 -0.3443  -0.3429  -0.3413  -0.3386  -0.3369  -0.3351  -0.3132  -0.3104
 -0.3059  -0.3038  -0.2977  -0.2973  -0.2969  -0.2965  -0.2930  -0.2924
 -0.2915  -0.2885  -0.2861  -0.2856  -0.2814  -0.2814  -0.2782  -0.2772
 -0.2753  -0.2747  -0.2701  -0.2695  -0.2677  -0.2635  -0.2633  -0.2628
 -0.2626  -0.2615  -0.2610  -0.2568  -0.2561  -0.2535  -0.2521  -0.2495
 -0.2486  -0.2481  -0.2453  -0.2439  -0.2432  -0.2413  -0.2393  -0.2375
 -0.2351  -0.2344  -0.2335  -0.2262  -0.2260  -0.2231  -0.2186  -0.2184
 -0.2157  -0.2151  -0.2142  -0.2119  -0.1892  -0.1770  -0.1654 -13.3599
-11.5133 -13.5575 -11.9017 -10.0927 -10.5889 -12.5863 -10.3623 -10.0727
 -0.7454  -0.7091  -0.8302  -0.6648  -0.6119  -0.7716  -0.6704  -0.8067
 -0.4416  -0.4848  -0.4171  -0.4678  -0.4679  -0.5097  -0.3789  -0.4451
 -0.4439  -0.4092  -0.4071  -0.3969  -0.3972  -0.3962  -0.4995  -0.5371
 -0.5638  -0.5389
 -- Virtual --
 -0.0476  -0.0421  -0.0349  -0.0332  -0.0309  -0.0279  -0.0259  -0.0240
 -0.0230  -0.0207  -0.0191  -0.0187  -0.0178  -0.0157  -0.0148  -0.0133
 -0.0130  -0.0112  -0.0107  -0.0094  -0.0086  -0.0084  -0.0071  -0.0053
 -0.0050  -0.0044  -0.0031  -0.0027  -0.0005   0.0004   0.0015   0.0021
  0.0027   0.0028   0.0045   0.0053   0.0059   0.0069   0.0075   0.0077
  0.0085   0.0095   0.0103   0.0112   0.0120   0.0121   0.0134   0.0138
  0.0147   0.0150   0.0160   0.0163   0.0172   0.0182   0.0191   0.0194
  0.0203   0.0212   0.0223   0.0227   0.0238   0.0245   0.0251   0.0255
  0.0259   0.0269   0.0274   0.0286   0.0291   0.0293   0.0301   0.0305
  0.0308   0.0311   0.0321   0.0334   0.0338   0.0340   0.0345   0.0359
  0.0359   0.0368   0.0379   0.0386   0.0386   0.0396   0.0404   0.0408
  0.0408   0.0416   0.0427   0.0435   0.0439   0.0445   0.0453   0.0456
  0.0465   0.0473   0.0476   0.0480   0.0489   0.0499   0.0503   0.0519
  0.0522   0.0527   0.0529   0.0536   0.0541   0.0545   0.0551   0.0567
  0.0569   0.0576   0.0581   0.0592   0.0594   0.0604   0.0610   0.0618
  0.0625   0.0635   0.0642   0.0651   0.0658   0.0659   0.0662   0.0672
  0.0677   0.0683   0.0688   0.0690   0.0707   0.0708   0.0714   0.0720
  0.0722   0.0732   0.0735   0.0738   0.0753   0.0756   0.0767   0.0770
  0.0778   0.0784   0.0789   0.0790   0.0799   0.0810   0.0813   0.0821
  0.0832   0.0838   0.0841   0.0847   0.0854   0.0862   0.0867   0.0874
  0.0881   0.0890   0.0894   0.0908   0.0910   0.0918   0.0927   0.0932
  0.0935   0.0942   0.0948   0.0953   0.0961   0.0967   0.0970   0.0981
  0.0990   0.0992   0.0995   0.1002   0.1007   0.1015   0.1023   0.1035
  0.1040   0.1043   0.1046   0.1048   0.1056   0.1063   0.1070   0.1076
  0.1084   0.1088   0.1093   0.1101   0.1112   0.1117   0.1123   0.1129
  0.1132   0.1135   0.1140   0.1149   0.1156   0.1158   0.1174   0.1180
  0.1183   0.1185   0.1193   0.1202   0.1207   0.1211   0.1217   0.1220
  0.1225   0.1234   0.1241   0.1253   0.1256   0.1264   0.1267   0.1272
  0.1282   0.1288   0.1292   0.1297   0.1304   0.1310   0.1311   0.1322
  0.1326   0.1331   0.1332   0.1342   0.1345   0.1359   0.1369   0.1372
  0.1383   0.1387   0.1390   0.1395   0.1403   0.1411   0.1412   0.1420
  0.1423   0.1431   0.1436   0.1442   0.1448   0.1456   0.1460   0.1463
  0.1471   0.1477   0.1486   0.1490   0.1495   0.1500   0.1503   0.1512
  0.1521   0.1528   0.1534   0.1539   0.1539   0.1549   0.1559   0.1565
  0.1571   0.1576   0.1580   0.1587   0.1591   0.1597   0.1604   0.1607
  0.1612   0.1620   0.1625   0.1638   0.1646   0.1648   0.1654   0.1660
  0.1664   0.1670   0.1678   0.1682   0.1689   0.1695   0.1701   0.1706
  0.1712   0.1716   0.1727   0.1731   0.1737   0.1742   0.1746   0.1753
  0.1759   0.1764   0.1771   0.1779   0.1783   0.1788   0.1794   0.1800
  0.1802   0.1816   0.1822   0.1825   0.1840   0.1843   0.1850   0.1851
  0.1857   0.1865   0.1867   0.1880   0.1881   0.1883   0.1887   0.1889
  0.1905   0.1906   0.1913   0.1923   0.1931   0.1940   0.1947   0.1952
  0.1960   0.1966   0.1967   0.1974   0.1979   0.1985   0.1991   0.1991
  0.2002   0.2010   0.2017   0.2023   0.2027   0.2032   0.2033   0.2044
  0.2051   0.2056   0.2065   0.2073   0.2078   0.2082   0.2089   0.2092
  0.2099   0.2107   0.2109   0.2118   0.2128   0.2131   0.2139   0.2140
  0.2146   0.2153   0.2166   0.2172   0.2174   0.2183   0.2192   0.2202
  0.2210   0.2215   0.2222   0.2227   0.2232   0.2237   0.2246   0.2251
  0.2266   0.2270   0.2274   0.2283   0.2286   0.2293   0.2300   0.2307
  0.2315   0.2319   0.2321   0.2335   0.2337   0.2347   0.2361   0.2366
  0.2371   0.2378   0.2381   0.2387   0.2390   0.2403   0.2407   0.2413
  0.2422   0.2429   0.2435   0.2443   0.2451   0.2458   0.2467   0.2469
  0.2479   0.2485   0.2489   0.2496   0.2502   0.2507   0.2518   0.2520
  0.2522   0.2535   0.2538   0.2541   0.2553   0.2566   0.2571   0.2572
  0.2580   0.2594   0.2605   0.2607   0.2613   0.2622   0.2627   0.2642
  0.2645   0.2654   0.2661   0.2662   0.2677   0.2680   0.2687   0.2690
  0.2704   0.2709   0.2717   0.2725   0.2732   0.2741   0.2749   0.2761
  0.2764   0.2768   0.2777   0.2786   0.2794   0.2797   0.2809   0.2818
  0.2825   0.2835   0.2839   0.2841   0.2862   0.2870   0.2872   0.2879
  0.2882   0.2888   0.2899   0.2905   0.2930   0.2934   0.2944   0.2945
  0.2947   0.2958   0.2965   0.2973   0.2981   0.2996   0.3002   0.3003
  0.3017   0.3033   0.3041   0.3046   0.3059   0.3059   0.3070   0.3074
  0.3085   0.3089   0.3097   0.3109   0.3117   0.3128   0.3131   0.3138
  0.3144   0.3151   0.3163   0.3171   0.3178   0.3180   0.3184   0.3196
  0.3212   0.3215   0.3226   0.3228   0.3244   0.3255   0.3258   0.3266
  0.3270   0.3279   0.3287   0.3293   0.3299   0.3306   0.3317   0.3332
  0.3342   0.3347   0.3352   0.3359   0.3365   0.3377   0.3391   0.3393
  0.3404   0.3411   0.3426   0.3431   0.3439   0.3448   0.3453   0.3460
  0.3471   0.3479   0.3485   0.3496   0.3497   0.3505   0.3518   0.3528
  0.3542   0.3550   0.3555   0.3561   0.3578   0.3579   0.3588   0.3589
  0.3598   0.3601   0.3615   0.3617   0.3638   0.3643   0.3644   0.3654
  0.3672   0.3680   0.3688   0.3694   0.3706   0.3708   0.3722   0.3727
  0.3731   0.3737   0.3758   0.3768   0.3769   0.3781   0.3797   0.3802
  0.3809   0.3815   0.3822   0.3831   0.3843   0.3845   0.3849   0.3858
  0.3867   0.3877   0.3896   0.3904   0.3918   0.3924   0.3933   0.3936
  0.3942   0.3946   0.3963   0.3968   0.3976   0.3983   0.3985   0.3994
  0.3997   0.4011   0.4018   0.4023   0.4031   0.4038   0.4061   0.4067
  0.4067   0.4079   0.4082   0.4094   0.4099   0.4115   0.4121   0.4130
  0.4149   0.4151   0.4169   0.4175   0.4188   0.4193   0.4207   0.4209
  0.4223   0.4234   0.4243   0.4250   0.4260   0.4269   0.4276   0.4289
  0.4304   0.4312   0.4321   0.4330   0.4343   0.4348   0.4363   0.4368
  0.4381   0.4389   0.4399   0.4416   0.4432   0.4444   0.4453   0.4461
  0.4466   0.4478   0.4493   0.4494   0.4508   0.4521   0.4534   0.4538
  0.4543   0.4559   0.4573   0.4579   0.4598   0.4605   0.4612   0.4635
  0.4643   0.4650   0.4662   0.4666   0.4686   0.4698   0.4714   0.4728
  0.4734   0.4746   0.4761   0.4771   0.4793   0.4810   0.4814   0.4838
  0.4851   0.4862   0.4874   0.4883   0.4900   0.4906   0.4911   0.4940
  0.4959   0.4963   0.4979   0.5000   0.5021   0.5028   0.5035   0.5066
  0.5083   0.5087   0.5110   0.5116   0.5126   0.5153   0.5168   0.5175
  0.5202   0.5213   0.5219   0.5245   0.5256   0.5272   0.5277   0.5291
  0.5328   0.5331   0.5341   0.5346   0.5355   0.5380   0.5390   0.5396
  0.5415   0.5440   0.5461   0.5476   0.5481   0.5493   0.5509   0.5528
  0.5533   0.5540   0.5563   0.5598   0.5608   0.5617   0.5626   0.5643
  0.5653   0.5671   0.5688   0.5706   0.5713   0.5733   0.5748   0.5759
  0.5774   0.5802   0.5811   0.5821   0.5825   0.5850   0.5852   0.5861
  0.5882   0.5898   0.5913   0.5933   0.5954   0.5961   0.5973   0.5984
  0.6002   0.6013   0.6033   0.6048   0.6067   0.6080   0.6090   0.6107
  0.6117   0.6129   0.6136   0.6161   0.6166   0.6180   0.6201   0.6205
  0.6215   0.6232   0.6238   0.6247   0.6258   0.6279   0.6285   0.6294
  0.6307   0.6319   0.6341   0.6346   0.6369   0.6383   0.6391   0.6402
  0.6411   0.6423   0.6429   0.6440   0.6443   0.6463   0.6469   0.6483
  0.6498   0.6507   0.6513   0.6522   0.6544   0.6552   0.6569   0.6581
  0.6587   0.6608   0.6615   0.6616   0.6626   0.6635   0.6639   0.6653
  0.6667   0.6678   0.6687   0.6692   0.6706   0.6717   0.6727   0.6743
  0.6753   0.6763   0.6770   0.6778   0.6790   0.6801   0.6815   0.6827
  0.6835   0.6847   0.6855   0.6874   0.6886   0.6896   0.6898   0.6909
  0.6919   0.6934   0.6956   0.6965   0.6968   0.6983   0.6986   0.6998
  0.7014   0.7039   0.7044   0.7057   0.7070   0.7075   0.7080   0.7099
  0.7112   0.7131   0.7133   0.7140   0.7149   0.7162   0.7176   0.7197
  0.7206   0.7216   0.7243   0.7246   0.7253   0.7262   0.7283   0.7293
  0.7304   0.7311   0.7321   0.7335   0.7346   0.7368   0.7389   0.7407
  0.7418   0.7427   0.7443   0.7457   0.7497   0.7505   0.7521   0.7525
  0.7557   0.7582   0.7586   0.7597   0.7611   0.7620   0.7635   0.7651
  0.7666   0.7667   0.7679   0.7685   0.7697   0.7730   0.7744   0.7757
  0.7769   0.7781   0.7801   0.7821   0.7848   0.7851   0.7870   0.7899
  0.7919   0.7929   0.7942   0.7952   0.7958   0.7982   0.7991   0.8013
  0.8034   0.8044   0.8069   0.8076   0.8088   0.8099   0.8122   0.8128
  0.8152   0.8154   0.8181   0.8196   0.8213   0.8225   0.8241   0.8249
  0.8273   0.8277   0.8299   0.8306   0.8321   0.8338   0.8355   0.8360
  0.8369   0.8375   0.8386   0.8403   0.8415   0.8428   0.8434   0.8456
  0.8459   0.8469   0.8490   0.8497   0.8510   0.8522   0.8538   0.8545
  0.8551   0.8562   0.8569   0.8585   0.8593   0.8607   0.8621   0.8634
  0.8649   0.8650   0.8682   0.8698   0.8712   0.8719   0.8733   0.8743
  0.8755   0.8771   0.8774   0.8794   0.8804   0.8812   0.8819   0.8833
  0.8851   0.8856   0.8867   0.8877   0.8886   0.8902   0.8924   0.8929
  0.8946   0.8948   0.8970   0.8984   0.9005   0.9016   0.9026   0.9039
  0.9049   0.9058   0.9074   0.9099   0.9112   0.9124   0.9139   0.9141
  0.9147   0.9156   0.9159   0.9168   0.9181   0.9188   0.9206   0.9217
  0.9233   0.9245   0.9247   0.9253   0.9271   0.9281   0.9289   0.9305
  0.9320   0.9327   0.9340   0.9344   0.9371   0.9374   0.9386   0.9398
  0.9398   0.9406   0.9414   0.9428   0.9443   0.9467   0.9471   0.9483
  0.9484   0.9495   0.9506   0.9520   0.9529   0.9544   0.9557   0.9565
  0.9578   0.9594   0.9608   0.9618   0.9632   0.9637   0.9643   0.9656
  0.9659   0.9669   0.9684   0.9688   0.9694   0.9714   0.9728   0.9742
  0.9756   0.9762   0.9769   0.9775   0.9777   0.9788   0.9805   0.9817
  0.9826   0.9837   0.9857   0.9865   0.9867   0.9879   0.9896   0.9906
  0.9911   0.9915   0.9932   0.9954   0.9963   0.9974   0.9979   0.9995
  1.0010   1.0021   1.0030   1.0056   1.0060   1.0074   1.0079   1.0091
  1.0099   1.0113   1.0128   1.0139   1.0147   1.0168   1.0177   1.0195
  1.0202   1.0215   1.0228   1.0237   1.0256   1.0270   1.0271   1.0282
  1.0297   1.0308   1.0319   1.0337   1.0346   1.0363   1.0368   1.0373
  1.0383   1.0393   1.0411   1.0428   1.0433   1.0451   1.0470   1.0486
  1.0504   1.0512   1.0516   1.0523   1.0541   1.0550   1.0570   1.0595
  1.0605   1.0614   1.0615   1.0637   1.0646   1.0673   1.0682   1.0690
  1.0708   1.0733   1.0735   1.0747   1.0771   1.0778   1.0787   1.0810
  1.0822   1.0831   1.0847   1.0851   1.0873   1.0894   1.0905   1.0923
  1.0934   1.0947   1.0956   1.0978   1.0982   1.0995   1.1002   1.1021
  1.1037   1.1049   1.1051   1.1065   1.1086   1.1097   1.1101   1.1118
  1.1129   1.1141   1.1156   1.1172   1.1188   1.1191   1.1207   1.1214
  1.1222   1.1233   1.1240   1.1261   1.1285   1.1302   1.1314   1.1319
  1.1335   1.1366   1.1377   1.1381   1.1394   1.1403   1.1423   1.1436
  1.1442   1.1445   1.1462   1.1476   1.1491   1.1509   1.1539   1.1545
  1.1554   1.1567   1.1579   1.1593   1.1607   1.1616   1.1627   1.1631
  1.1660   1.1669   1.1683   1.1686   1.1707   1.1716   1.1724   1.1736
  1.1744   1.1766   1.1785   1.1803   1.1815   1.1824   1.1848   1.1866
  1.1873   1.1888   1.1900   1.1915   1.1923   1.1935   1.1957   1.1964
  1.1992   1.2000   1.2011   1.2026   1.2046   1.2068   1.2081   1.2091
  1.2108   1.2128   1.2137   1.2154   1.2177   1.2191   1.2204   1.2223
  1.2264   1.2275   1.2284   1.2292   1.2297   1.2333   1.2340   1.2355
  1.2369   1.2388   1.2400   1.2426   1.2460   1.2475   1.2480   1.2505
  1.2523   1.2553   1.2562   1.2572   1.2607   1.2618   1.2652   1.2659
  1.2688   1.2715   1.2728   1.2758   1.2782   1.2790   1.2817   1.2824
  1.2853   1.2859   1.2895   1.2907   1.2938   1.2958   1.2967   1.3003
  1.3038   1.3055   1.3084   1.3097   1.3126   1.3159   1.3179   1.3204
  1.3217   1.3224   1.3263   1.3271   1.3278   1.3305   1.3316   1.3342
  1.3350   1.3367   1.3382   1.3400   1.3403   1.3423   1.3441   1.3445
  1.3473   1.3502   1.3510   1.3530   1.3559   1.3565   1.3589   1.3600
  1.3630   1.3655   1.3660   1.3672   1.3675   1.3694   1.3709   1.3734
  1.3737   1.3762   1.3780   1.3791   1.3799   1.3826   1.3845   1.3848
  1.3857   1.3863   1.3895   1.3901   1.3916   1.3960   1.3964   1.3984
  1.3989   1.4002   1.4005   1.4020   1.4044   1.4070   1.4081   1.4101
  1.4113   1.4118   1.4128   1.4135   1.4155   1.4164   1.4186   1.4195
  1.4205   1.4224   1.4227   1.4248   1.4272   1.4273   1.4292   1.4313
  1.4324   1.4339   1.4367   1.4371   1.4386   1.4408   1.4422   1.4449
  1.4455   1.4482   1.4489   1.4511   1.4539   1.4558   1.4572   1.4579
  1.4601   1.4621   1.4633   1.4648   1.4668   1.4678   1.4701   1.4728
  1.4747   1.4757   1.4766   1.4795   1.4812   1.4821   1.4843   1.4859
  1.4886   1.4888   1.4924   1.4930   1.4951   1.4960   1.4983   1.5000
  1.5005   1.5041   1.5076   1.5088   1.5099   1.5113   1.5118   1.5167
  1.5216   1.5236   1.5248   1.5262   1.5267   1.5306   1.5325   1.5340
  1.5355   1.5384   1.5416   1.5446   1.5451   1.5493   1.5508   1.5538
  1.5557   1.5575   1.5626   1.5650   1.5677   1.5692   1.5718   1.5757
  1.5778   1.5818   1.5826   1.5859   1.5902   1.5928   1.5944   1.5970
  1.5996   1.6027   1.6064   1.6070   1.6170   1.6202   1.6217   1.6263
  1.6285   1.6346   1.6350   1.6365   1.6394   1.6434   1.6457   1.6496
  1.6510   1.6531   1.6547   1.6569   1.6582   1.6605   1.6618   1.6632
  1.6658   1.6671   1.6691   1.6704   1.6742   1.6753   1.6806   1.6812
  1.6830   1.6837   1.6849   1.6862   1.6884   1.6890   1.6907   1.6910
  1.6927   1.6949   1.6973   1.6976   1.7001   1.7016   1.7024   1.7050
  1.7054   1.7065   1.7072   1.7092   1.7095   1.7101   1.7113   1.7144
  1.7156   1.7164   1.7169   1.7185   1.7191   1.7201   1.7219   1.7226
  1.7252   1.7258   1.7276   1.7283   1.7304   1.7309   1.7318   1.7332
  1.7369   1.7390   1.7400   1.7412   1.7430   1.7440   1.7457   1.7464
  1.7467   1.7487   1.7491   1.7518   1.7534   1.7553   1.7558   1.7576
  1.7591   1.7602   1.7621   1.7628   1.7664   1.7674   1.7688   1.7697
  1.7724   1.7735   1.7760   1.7772   1.7785   1.7794   1.7811   1.7832
  1.7844   1.7874   1.7881   1.7904   1.7907   1.7925   1.7970   1.7977
  1.8001   1.8015   1.8033   1.8052   1.8076   1.8103   1.8113   1.8147
  1.8155   1.8195   1.8235   1.8255   1.8265   1.8292   1.8318   1.8338
  1.8347   1.8389   1.8410   1.8417   1.8437   1.8456   1.8460   1.8481
  1.8526   1.8534   1.8561   1.8586   1.8588   1.8622   1.8663   1.8670
  1.8700   1.8716   1.8726   1.8759   1.8775   1.8793   1.8803   1.8827
  1.8830   1.8844   1.8857   1.8875   1.8882   1.8895   1.8923   1.8934
  1.8948   1.8956   1.8982   1.8992   1.9008   1.9038   1.9064   1.9072
  1.9076   1.9086   1.9100   1.9112   1.9134   1.9141   1.9148   1.9159
  1.9181   1.9207   1.9217   1.9242   1.9260   1.9268   1.9287   1.9300
  1.9314   1.9326   1.9330   1.9345   1.9356   1.9363   1.9373   1.9388
  1.9415   1.9440   1.9448   1.9463   1.9492   1.9512   1.9514   1.9543
  1.9570   1.9575   1.9593   1.9637   1.9647   1.9682   1.9734   1.9801
  1.9813   1.9855   1.9871   1.9887   1.9979   2.0061   2.0119   2.0142
  2.0257   2.0343   2.0356   2.0365   2.0368   2.0390   2.0427   2.0464
  2.0478   2.0531   2.0539   2.0556   2.0564   2.0577   2.0593   2.0608
  2.0613   2.0626   2.0656   2.0664   2.0681   2.0703   2.0718   2.0726
  2.0746   2.0751   2.0760   2.0772   2.0797   2.0819   2.0820   2.0828
  2.0832   2.0857   2.0878   2.0912   2.0931   2.0957   2.0967   2.0995
  2.1007   2.1022   2.1040   2.1047   2.1056   2.1078   2.1104   2.1114
  2.1116   2.1149   2.1195   2.1207   2.1210   2.1247   2.1262   2.1280
  2.1298   2.1336   2.1346   2.1369   2.1379   2.1412   2.1428   2.1465
  2.1471   2.1508   2.1551   2.1554   2.1603   2.1649   2.1651   2.1720
  2.1743   2.1763   2.1807   2.1838   2.1854   2.1899   2.1932   2.1935
  2.1945   2.1982   2.2032   2.2037   2.2063   2.2072   2.2096   2.2106
  2.2125   2.2153   2.2156   2.2159   2.2185   2.2206   2.2214   2.2228
  2.2236   2.2242   2.2251   2.2271   2.2284   2.2292   2.2297   2.2324
  2.2335   2.2337   2.2354   2.2365   2.2376   2.2401   2.2418   2.2443
  2.2449   2.2464   2.2483   2.2487   2.2492   2.2507   2.2514   2.2529
  2.2532   2.2541   2.2549   2.2561   2.2572   2.2572   2.2591   2.2605
  2.2615   2.2622   2.2626   2.2648   2.2652   2.2663   2.2686   2.2699
  2.2703   2.2721   2.2731   2.2739   2.2753   2.2762   2.2776   2.2783
  2.2793   2.2795   2.2808   2.2819   2.2830   2.2835   2.2850   2.2858
  2.2865   2.2905   2.2911   2.2921   2.2928   2.2931   2.2936   2.2949
  2.2979   2.2995   2.3006   2.3016   2.3022   2.3038   2.3053   2.3066
  2.3075   2.3082   2.3090   2.3106   2.3117   2.3126   2.3150   2.3164
  2.3174   2.3180   2.3193   2.3200   2.3214   2.3226   2.3245   2.3251
  2.3265   2.3274   2.3293   2.3304   2.3317   2.3324   2.3331   2.3340
  2.3355   2.3357   2.3387   2.3411   2.3424   2.3433   2.3445   2.3462
  2.3479   2.3497   2.3507   2.3520   2.3534   2.3538   2.3570   2.3578
  2.3603   2.3615   2.3625   2.3642   2.3652   2.3664   2.3683   2.3710
  2.3720   2.3733   2.3752   2.3773   2.3788   2.3792   2.3818   2.3851
  2.3886   2.3894   2.3909   2.3937   2.4001   2.4024   2.4070   2.4079
  2.4113   2.4196   2.4345   2.4573   2.4709   2.4857   2.5205   2.5261
  2.5582   2.6106   2.6865   2.7415   2.7550   2.7975   2.8122   2.8174
  2.8188   2.8215   2.8226   2.8247   2.8277   2.8383   2.8395   2.8428
  2.8439   2.8458   2.8486   2.8553   2.8629   2.8647   2.8673   2.8696
  2.8736   2.8744   2.8752   2.8765   2.8829   2.8835   2.8845   2.8941
  2.8957   2.8988   2.9094   2.9131   2.9162   2.9219   3.0948   3.2614
  3.9366   3.9477   3.9518   3.9542   3.9581   3.9590   3.9656   3.9729
  3.9779   3.9809   3.9839   3.9862   3.9892   3.9939   3.9956   3.9999
  4.0042   4.0064   4.0076   4.0124   4.0153   4.0234   4.0290   4.0331
  4.0388   4.0426   4.0536   4.2102   4.2161   4.2248   4.2283   4.2303
  4.2342   4.2361   4.2390   4.2418   4.2440   4.2475   4.2491   4.2510
  4.2545   4.2575   4.2601   4.2642   4.2655   4.2659   4.2707   4.2749
  4.2806   4.2832   4.2852   4.2896   4.2937   4.2963   4.2982   4.3007
  4.3037   4.3041   4.3065   4.3091   4.3102   4.3153   4.3170   4.3219
  4.3247   4.3257   4.3286   4.3307   4.3324   4.3360   4.3401   4.3451
  4.3454   4.3480   4.3512   4.3516   4.3558   4.3579   4.3610   4.3659
  4.3689   4.3713   4.3740   4.3746   4.3822   4.3835   4.3879   4.3928
  4.3978   4.4023   4.4043   4.4115   4.4156   4.4232   4.4255   4.4336
  4.4359   4.4569   4.4612   4.4678   4.4779   4.4836   4.5044   4.5210
  4.5291   4.5332   4.5414   4.5645   4.5755   4.5900   4.6417   4.6799
  4.7111   4.7340   4.7513   4.7986   4.8872
 --------------------------------------------------------------

          Ground-State Mulliken Net Atomic Charges

     Atom                 Charge (a.u.)
  ----------------------------------------
      1 C                    -0.478718
      2 C                    -1.143355
      3 C                    -0.148432
      4 C                    -0.585435
      5 C                    -0.392420
      6 C                    -0.140862
      7 H                     0.257079
      8 H                     0.233482
      9 H                     0.248747
     10 H                     0.225904
     11 H                     0.204618
     12 H                     0.216972
     13 H                     0.233112
     14 H                     0.210717
     15 H                     0.238597
     16 H                     0.197916
     17 H                     0.180784
     18 N                     0.357014
     19 H                     0.438511
     20 C                    -0.072539
     21 H                     0.146925
     22 O                    -0.279932
     23 C                    -0.961114
     24 H                     0.290951
     25 H                     0.240462
     26 H                     0.233869
     27 S                     1.211280
     28 C                    -0.949556
     29 H                     0.246455
     30 H                     0.297812
     31 H                     0.263625
     32 O                    -0.662230
     33 C                    -0.790729
     34 H                     0.267229
     35 H                     0.229021
     36 H                     0.251715
     37 S                     0.704729
     38 C                    -0.801078
     39 H                     0.244028
     40 H                     0.257959
     41 H                     0.241736
     42 O                    -0.601178
     43 C                    -0.872576
     44 H                     0.258310
     45 H                     0.268347
     46 H                     0.283121
     47 S                     0.882861
     48 C                    -0.871534
     49 H                     0.253744
     50 H                     0.262491
     51 H                     0.236028
     52 O                    -0.724556
     53 C                    -0.754241
     54 H                     0.265457
     55 H                     0.277300
     56 H                     0.248384
     57 S                     0.683821
     58 C                    -0.763166
     59 H                     0.234685
     60 H                     0.267833
     61 H                     0.260183
     62 O                    -0.700923
     63 C                    -1.112692
     64 H                     0.303603
     65 H                     0.273470
     66 H                     0.253595
     67 S                     1.025561
     68 C                    -1.014558
     69 H                     0.294168
     70 H                     0.223125
     71 H                     0.262456
     72 O                    -0.642547
     73 C                    -0.922606
     74 H                     0.220565
     75 H                     0.254921
     76 H                     0.302704
     77 S                     1.246265
     78 C                    -1.007209
     79 H                     0.244049
     80 H                     0.271595
     81 H                     0.264356
     82 O                    -0.665197
     83 C                    -0.934918
     84 H                     0.279860
     85 H                     0.303107
     86 H                     0.248654
     87 S                     0.536034
     88 C                    -0.898915
     89 H                     0.266414
     90 H                     0.259764
     91 H                     0.277472
     92 O                    -0.496289
     93 C                    -1.055555
     94 H                     0.307121
     95 H                     0.247639
     96 H                     0.269037
     97 S                     1.048499
     98 C                    -0.940516
     99 H                     0.276206
    100 H                     0.329109
    101 H                     0.271293
    102 O                    -0.738448
    103 C                    -0.996186
    104 H                     0.282138
    105 H                     0.205392
    106 H                     0.286723
    107 S                     0.908952
    108 C                    -0.849341
    109 H                     0.288278
    110 H                     0.239127
    111 H                     0.276837
    112 O                    -0.756657
    113 C                    -0.764776
    114 H                     0.234816
    115 H                     0.235395
    116 H                     0.317083
    117 S                     0.796072
    118 C                    -0.980824
    119 H                     0.280300
    120 H                     0.251993
    121 H                     0.236952
    122 O                    -0.628109
    123 C                    -1.101826
    124 H                     0.252911
    125 H                     0.291075
    126 H                     0.232883
    127 S                     0.720223
    128 C                    -0.942437
    129 H                     0.228772
    130 H                     0.278631
    131 H                     0.294120
    132 O                    -0.643577
    133 C                    -0.910898
    134 H                     0.297029
    135 H                     0.256497
    136 H                     0.242589
    137 S                     1.008502
    138 C                    -0.885985
    139 H                     0.249645
    140 H                     0.256505
    141 H                     0.243067
    142 O                    -0.746638
    143 C                    -0.797643
    144 H                     0.291947
    145 H                     0.225866
    146 H                     0.324005
    147 S                     0.650572
    148 C                    -0.955532
    149 H                     0.252517
    150 H                     0.249915
    151 H                     0.242576
    152 O                    -0.545256
    153 C                    -0.792128
    154 H                     0.232260
    155 H                     0.258967
    156 H                     0.244938
    157 S                     0.917943
    158 C                    -0.753087
    159 H                     0.231580
    160 H                     0.254801
    161 H                     0.284957
    162 O                    -0.612375
    163 C                    -1.026176
    164 H                     0.299449
    165 H                     0.299367
    166 H                     0.256885
    167 S                     1.034611
    168 C                    -0.860992
    169 H                     0.245905
    170 H                     0.251278
    171 H                     0.261970
    172 O                    -0.645569
    173 C                    -0.951044
    174 H                     0.231909
    175 H                     0.262540
    176 H                     0.260895
    177 S                     0.846407
    178 C                    -1.017353
    179 H                     0.276226
    180 H                     0.236793
    181 H                     0.270265
    182 O                    -0.646356
    183 C                    -0.621973
    184 H                     0.322810
    185 H                     0.248496
    186 H                     0.278213
    187 S                     0.100603
    188 C                    -0.763534
    189 H                     0.311030
    190 H                     0.262299
    191 H                     0.232227
    192 O                    -0.455224
    193 C                    -0.887140
    194 H                     0.263465
    195 H                     0.266352
    196 H                     0.229626
    197 S                     0.919823
    198 C                    -0.887316
    199 H                     0.262903
    200 H                     0.257314
    201 H                     0.225175
    202 O                    -0.709683
    203 C                    -1.018966
    204 H                     0.291766
    205 H                     0.249604
    206 H                     0.276324
    207 S                     0.986574
    208 C                    -0.866780
    209 H                     0.250751
    210 H                     0.255151
    211 H                     0.259363
    212 O                    -0.707555
    213 C                    -0.983420
    214 H                     0.261620
    215 H                     0.241106
    216 H                     0.247947
    217 S                     1.152352
    218 C                    -0.907981
    219 H                     0.257680
    220 H                     0.260829
    221 H                     0.236584
    222 O                    -0.693522
    223 C                    -0.917970
    224 H                     0.290579
    225 H                     0.241951
    226 H                     0.268315
    227 S                     0.858894
    228 C                    -0.852997
    229 H                     0.237597
    230 H                     0.339210
    231 H                     0.236187
    232 O                    -0.772117
    233 C                    -0.798321
    234 H                     0.279173
    235 H                     0.252895
    236 H                     0.226994
    237 S                     1.011073
    238 C                    -0.813662
    239 H                     0.296776
    240 H                     0.254148
    241 H                     0.242486
    242 O                    -0.646663
    243 C                    -1.110384
    244 H                     0.245202
    245 H                     0.281212
    246 H                     0.290088
    247 S                     1.028924
    248 C                    -0.891608
    249 H                     0.268777
    250 H                     0.272421
    251 H                     0.275661
    252 O                    -0.680139
    253 C                    -0.919103
    254 H                     0.233294
    255 H                     0.258303
    256 H                     0.255699
    257 S                     0.986975
    258 C                    -0.913942
    259 H                     0.287831
    260 H                     0.258603
    261 H                     0.244277
    262 O                    -0.735868
    263 C                    -0.922185
    264 H                     0.288605
    265 H                     0.243381
    266 H                     0.214682
    267 S                     0.984411
    268 C                    -0.899320
    269 H                     0.279501
    270 H                     0.243976
    271 H                     0.273838
    272 O                    -0.726193
    273 C                    -0.922676
    274 H                     0.269519
    275 H                     0.279908
    276 H                     0.270172
    277 S                     0.671672
    278 C                    -0.699637
    279 H                     0.244470
    280 H                     0.251785
    281 H                     0.278377
    282 O                    -0.681562
    283 C                    -0.815633
    284 H                     0.251975
    285 H                     0.223681
    286 H                     0.277586
    287 S                     0.994293
    288 C                    -0.808076
    289 H                     0.262145
    290 H                     0.237478
    291 H                     0.268710
    292 O                    -0.780065
  ----------------------------------------
  Sum of atomic charges =     0.000000

 -----------------------------------------------------------------
                    Cartesian Multipole Moments
 -----------------------------------------------------------------
    Charge (ESU x 10^10)
                -0.0000
    Dipole Moment (Debye)
         X     -22.6038      Y      24.5883      Z      26.1087
       Tot      42.3931
    Quadrupole Moments (Debye-Ang)
        XX   -1852.1597     XY      40.2623     YY     466.8674
        XZ     189.7800     YZ    1408.0331     ZZ     301.1618
    Octopole Moments (Debye-Ang^2)
[...]
          205         206         207         208         209         210
    1   1.8901762   3.0420029   1.6053395   3.2882530   3.7850302   2.0627935
    2   0.6567388   0.4830802  -1.5526878  -0.5464097   0.9478094  -0.3013582
    3   1.5598975  -1.5296391   1.4196608   1.6557508   0.0667842   3.1115928
          211         212         213         214         215         216
    1   3.6822752   3.0147912  -0.0107176  -1.9665045   1.5464339  -0.0059031
    2  -2.2584184  -2.1750892   3.3441154   2.6905137   2.6043609   4.5980028
    3   1.5706391  -1.2514846   1.6842807   2.1859729   2.4451896   0.2348879
          217         218         219         220         221         222
    1   0.6712925   1.6151502   3.0162787   0.5913763   1.0993895  -2.4542304
    2   2.2803130   3.0760957   2.0373220   2.3377130   4.4468213   3.0461043
    3   0.4226902  -1.2377510  -0.1931700  -2.9013411  -0.6010297  -1.2965890
          223         224         225         226         227         228
    1  -2.0459062   0.0068327  -2.7325191  -3.3521858  -1.9664212  -0.1230020
    2  -1.8438517  -1.5241335  -3.3376064  -0.8439994  -2.3775755  -1.2514405
    3  -0.5054113  -0.8779753  -1.3578682   0.8152542   1.6125800   2.0807727
          229         230         231         232         233         234
    1  -0.3281106   1.3510597  -1.2195480   0.6081057  -0.1491876  -1.6942565
    2  -1.7301948  -2.2492519  -0.0823910  -4.1102461   2.0268228   0.7657470
    3   3.8728947   1.0913045   1.1545265   0.1835849   2.6969801   2.6206377
          235         236         237         238         239         240
    1   1.6238580  -0.5527676  -0.2583861  -2.7582263  -2.9743398  -3.0209509
    2   1.2049549   3.7026596   2.4949888   2.4784192   1.9177526   1.3680631
    3   2.0192600   2.9110931   0.7360853   0.8382777  -0.9103640   2.2656084
          241         242         243         244         245         246
    1  -2.1774508  -0.3251111  -1.6646399  -0.6430241  -2.3418328  -2.2858513
    2   4.1732186  -0.9023184  -0.6567502  -1.7102339   0.2536400  -0.1652785
    3   1.2604927   0.1151940  -1.2783148  -0.7052819   0.1470218  -3.4122881
          247         248         249         250         251         252
    1  -0.2008137  -1.7629586  -1.6877673  -0.7826495  -3.0113262  -0.2554859
    2   0.5207686   2.1647377   1.4441341   3.2710691   1.5789874   0.7221450
    3  -0.8562973  -1.4212865   0.3518024  -2.6183270  -2.6402472  -4.2014262
          253         254         255         256         257         258
    1  -2.9344076  -1.5382283  -3.9624869  -3.0013584  -1.1561117  -1.6178066
    2  -0.3455680   0.7051949   0.6457931  -2.1922256  -0.9544381   0.8488262
    3   2.5603612   3.7600452   1.0694006   2.6006103   2.3986920   1.2103606
          259         260         261         262         263         264
    1  -0.3655632  -3.6665401  -1.3532827  -2.9257375   0.5213423  -0.7281230
    2   0.4699682   0.9268891   1.0920411  -1.8374850  -2.4324293  -2.2135665
    3   0.1789872   0.2004480   3.2372343  -0.3713364   0.8275722  -0.7221519
          265         266         267         268         269         270
    1   0.9603789   0.9171496   2.7750289   2.0177950   0.0966122   3.3467872
    2  -4.1325702  -0.8114245  -1.7176069   0.1073806  -0.5029890   0.6189289
    3   1.2106162   1.4747383  -0.3155690  -1.1731299  -0.6050930  -0.0669388
          271         272         273         274         275         276
    1   2.7982688   0.8631723   0.4032430  -0.7864223   0.7700501   1.4529969
    2   0.0444730  -3.2443321  -0.8413986  -0.6132783   0.8881390  -2.4057461
    3  -3.0296052  -2.5581698   0.4589490   1.5659086  -0.8036890   0.5110059
          277         278         279         280         281         282
    1   1.5741483   0.9802626  -0.3288597   2.4163805   1.1515221   3.8351211
    2  -0.7767960   1.3452322   0.4287063   1.9070290   1.6954143   0.5340099
    3   2.5582827   2.2914878   2.7418722   3.4550696  -0.0117389   0.7877241
          283         284         285         286         287         288
    1   0.1115764  -1.3716749   1.6103730   0.4097259   1.2863542   2.8380556
    2   3.1756811   2.7078075   4.1579992   2.0877703   1.9826519   1.9053373
    3   0.9213655   2.3166664   1.4515985  -0.7821894   2.5989007   0.7066370
          289         290         291         292
    1   1.9855507   3.1029551   3.1472410   0.0764009
    2   2.5177046   2.8560227   0.0689815  -0.2578831
    3  -0.9367168   2.2769854   1.3639172   0.3410129
 EField
            1           2           3           4           5           6
    1  -0.0035516  -0.0056075  -0.0022721  -0.0038683   0.0018192   0.0011006
    2  -0.0021726  -0.0025006  -0.0004208  -0.0023701  -0.0037975  -0.0033185
    3   0.0057817   0.0027621  -0.0017414  -0.0044827  -0.0054254  -0.0005896
            7           8           9          10          11          12
    1   0.0006938  -0.0070828  -0.0006704  -0.0069586  -0.0083901  -0.0071682
    2  -0.0018212  -0.0049766  -0.0005522  -0.0020110  -0.0041190   0.0024303
    3  -0.0054362   0.0016130   0.0097938   0.0115487  -0.0018135  -0.0057020
           13          14          15          16          17          18
    1   0.0081281   0.0057193  -0.0021117   0.0056585   0.0013785  -0.0116799
    2  -0.0093633  -0.0042522  -0.0071354  -0.0042798   0.0057072  -0.0028149
    3  -0.0073703  -0.0059007  -0.0045366   0.0030266  -0.0044682   0.0044450
           19          20          21          22          23          24
    1  -0.0222566  -0.0099453  -0.0090536  -0.0078484   0.0031880   0.0290006
    2   0.0014090  -0.0048191   0.0004176  -0.0100969  -0.0056730   0.0096626
    3   0.0112483   0.0006429  -0.0016295   0.0001679  -0.0084818  -0.0105806
           25          26          27          28          29          30
    1   0.0212166  -0.0265167  -0.0297888  -0.0052275  -0.0342233   0.0075092
    2  -0.0133501  -0.0062112  -0.0064449   0.0042888   0.0009047   0.0282583
    3   0.0318804  -0.0316500   0.0490524  -0.0072212   0.0001720  -0.0001837
           31          32          33          34          35          36
    1   0.0120576   0.0897304  -0.0003561   0.0162335  -0.0317323  -0.0066421
    2  -0.0044258   0.0654007   0.0070472   0.0130233   0.0022940   0.0219984
    3  -0.0300398   0.0002098  -0.0021276  -0.0244120  -0.0119721   0.0234481
           37          38          39          40          41          42
    1  -0.0045730  -0.0038212  -0.0007159   0.0133360  -0.0318901   0.0997700
    2  -0.0417521  -0.0009229  -0.0288673   0.0155275  -0.0005605   0.0310169
    3  -0.0448371   0.0062959   0.0139298   0.0268199  -0.0113879   0.0352070
           43          44          45          46          47          48
    1  -0.0008970   0.0031023  -0.0121402  -0.0096951   0.0338466   0.0024165
    2  -0.0056524  -0.0199034   0.0217668  -0.0133149  -0.0372946   0.0023924
    3   0.0101097   0.0328815   0.0075892  -0.0212458  -0.0178410   0.0102412
           49          50          51          52          53          54
    1   0.0148783   0.0348026  -0.0331217  -0.0263054   0.0045910   0.0017984
    2  -0.0176016   0.0118720   0.0077108   0.0913557  -0.0073781   0.0144427
    3   0.0274761  -0.0156576   0.0114621  -0.0559666   0.0074431   0.0317661
           55          56          57          58          59          60
    1   0.0084134   0.0228111   0.0053762  -0.0034227  -0.0069104  -0.0224221
    2  -0.0320013  -0.0000682   0.0605141  -0.0039160   0.0170861   0.0171023
    3   0.0099416  -0.0228024  -0.0117113   0.0085975   0.0356422  -0.0084467
           61          62          63          64          65          66
    1  -0.0074646  -0.0284396  -0.0148895  -0.0360679  -0.0038653  -0.0023115
    2  -0.0305145  -0.0655968   0.0056644  -0.0146563  -0.0170429   0.0357632
    3   0.0114876  -0.0841776   0.0033018  -0.0054508   0.0269128   0.0060609
           67          68          69          70          71          72
    1   0.0036961   0.0074949   0.0323502   0.0013322   0.0113733  -0.0061419
    2  -0.0502498   0.0046729   0.0071964   0.0349433  -0.0100877   0.0880687
    3  -0.0231329   0.0022266  -0.0141009   0.0079167   0.0280339  -0.0689974
           73          74          75          76          77          78
    1  -0.0067823  -0.0216826   0.0279104  -0.0177595  -0.0451629   0.0069041
    2   0.0005524   0.0300960   0.0062023  -0.0214605  -0.0068139   0.0049276
    3  -0.0071427  -0.0023306  -0.0136881  -0.0191548   0.0328286   0.0009227
           79          80          81          82          83          84
    1   0.0199334  -0.0079315   0.0217152   0.0541769  -0.0061825   0.0187678
    2   0.0149613   0.0277198  -0.0158627  -0.0828154   0.0026097   0.0030172
    3  -0.0207571   0.0164543   0.0125414  -0.0478018  -0.0117948  -0.0272385
           85          86          87          88          89          90
    1  -0.0248857  -0.0222446  -0.0247230   0.0090927   0.0179065   0.0135264
    2  -0.0204747   0.0265510   0.0156815   0.0024112  -0.0277193  -0.0070585
    3  -0.0076269   0.0016811   0.0469109  -0.0060138   0.0006712  -0.0334154
           91          92          93          94          95          96
    1   0.0100529  -0.0029008  -0.0014348  -0.0071215   0.0320215  -0.0096914
    2   0.0286175  -0.1091366   0.0029612  -0.0047231   0.0003589   0.0287289
    3   0.0143129  -0.0265407   0.0070680   0.0329739  -0.0030777  -0.0080172
           97          98          99         100         101         102
    1   0.0382582  -0.0058829   0.0282846  -0.0080550  -0.0268371  -0.1043622
    2  -0.0486703   0.0028533   0.0123396  -0.0148496   0.0184536  -0.0070101
    3  -0.0041277  -0.0123383  -0.0059301  -0.0339006  -0.0058642   0.0255227
          103         104         105         106         107         108
    1  -0.0024401   0.0238933  -0.0306285  -0.0089688  -0.0167615  -0.0015428
    2   0.0079089   0.0039147   0.0035034   0.0236660  -0.0407394   0.0028072
    3  -0.0029602  -0.0181049  -0.0145673   0.0203788  -0.0209932   0.0085602
          109         110         111         112         113         114
    1   0.0146284  -0.0331578  -0.0119158   0.1033278   0.0035432  -0.0259527
    2   0.0204126   0.0043106  -0.0187312   0.0248512  -0.0047891  -0.0164610
    3   0.0166258   0.0032272   0.0316638   0.0246245   0.0030022   0.0311554
          115         116         117         118         119         120
    1  -0.0122285   0.0281276   0.0210047  -0.0067783  -0.0138622  -0.0163181
    2  -0.0264708  -0.0220984   0.0360348   0.0000105   0.0246497  -0.0131401
    3  -0.0130614  -0.0086081   0.0470413  -0.0001174  -0.0123760  -0.0239695
          121         122         123         124         125         126
    1  -0.0214863   0.0496664   0.0003913  -0.0122190  -0.0192504   0.0316247
    2  -0.0025453   0.0004712   0.0042978  -0.0150191   0.0217425   0.0129005
    3   0.0275429  -0.0977254  -0.0071095  -0.0269586   0.0085246  -0.0000409
          127         128         129         130         131         132
    1   0.0135787  -0.0022010   0.0285425   0.0086658  -0.0101267  -0.0994252
    2   0.0202431  -0.0075211  -0.0049271  -0.0193398  -0.0171350  -0.0349683
    3   0.0531802  -0.0050597  -0.0073224   0.0259900  -0.0271671  -0.0295025
          133         134         135         136         137         138
    1  -0.0106085   0.0022847  -0.0234948  -0.0060501   0.0136840   0.0035509
    2   0.0059541   0.0333821  -0.0266161   0.0104759  -0.0381145   0.0075511
    3  -0.0003087  -0.0147329   0.0024250   0.0295848   0.0378457  -0.0001504
          139         140         141         142         143         144
    1   0.0070964   0.0307490  -0.0190860  -0.0109761   0.0069156   0.0062722
    2   0.0093669  -0.0083060   0.0182040  -0.0217299   0.0049327   0.0208779
    3   0.0335621  -0.0004428  -0.0216105  -0.1071711   0.0029715  -0.0282744
          145         146         147         148         149         150
    1  -0.0048781   0.0331596  -0.0004053  -0.0057921   0.0088239  -0.0112556
    2   0.0105550   0.0074619  -0.0177857   0.0020004   0.0149189   0.0196932
    3   0.0298166  -0.0105079  -0.0594931   0.0041669   0.0283670  -0.0230474
          151         152         153         154         155         156
    1  -0.0182330   0.0336592  -0.0028716  -0.0302137   0.0165798  -0.0031239
    2  -0.0269095  -0.0681403  -0.0031494   0.0148712  -0.0097191  -0.0324514
    3  -0.0005685   0.0794320  -0.0022659   0.0002957  -0.0240789   0.0037712
          157         158         159         160         161         162
    1  -0.0119321   0.0029323   0.0021776  -0.0208273   0.0282556   0.0925623
    2   0.0077200   0.0086087  -0.0060948   0.0213293   0.0140927  -0.0417869
    3   0.0536935  -0.0049105  -0.0295589   0.0143747   0.0020384  -0.0417686
          163         164         165         166         167         168
    1   0.0101868  -0.0046508   0.0073350   0.0302716  -0.0045128  -0.0057681
    2  -0.0035776  -0.0275880   0.0264118  -0.0163731  -0.0525928   0.0016619
    3  -0.0106508  -0.0202986  -0.0149545  -0.0040892   0.0251683  -0.0048145
          169         170         171         172         173         174
    1  -0.0162774  -0.0176231   0.0073662   0.0263238  -0.0071086   0.0152978
    2  -0.0262285   0.0202939   0.0058491   0.0904635   0.0050859   0.0112147
    3  -0.0142274   0.0181973  -0.0283088   0.0543847  -0.0035893  -0.0273435
          175         176         177         178         179         180
    1  -0.0284544  -0.0138061   0.0526871  -0.0051029   0.0162567   0.0034269
    2  -0.0062715   0.0157884   0.0161918  -0.0005820   0.0082266  -0.0318233
    3  -0.0099096   0.0250121   0.0112238  -0.0092720  -0.0332340  -0.0045404
          181         182         183         184         185         186
    1  -0.0254525  -0.0681643  -0.0041403   0.0073133  -0.0258914  -0.0005442
    2  -0.0210284  -0.0433756  -0.0043953  -0.0286691   0.0034958   0.0093263
    3  -0.0236868   0.0745880  -0.0059686  -0.0009857   0.0135887  -0.0317099
          187         188         189         190         191         192
    1   0.0552172  -0.0000615   0.0111386   0.0106585  -0.0264203  -0.0331562
    2  -0.0016868  -0.0062139  -0.0283654   0.0188016  -0.0083049   0.1037778
    3  -0.0340436   0.0064373  -0.0019181   0.0156872   0.0224870   0.0090394
          193         194         195         196         197         198
    1   0.0018487   0.0254923   0.0219457  -0.0188474  -0.0333867  -0.0011428
    2  -0.0036263  -0.0114079   0.0221981  -0.0188563   0.0358069  -0.0083612
    3   0.0059301  -0.0137175   0.0110887   0.0252442   0.0118805  -0.0037188
          199         200         201         202         203         204
    1  -0.0131353   0.0257391  -0.0137222   0.0863859   0.0008020  -0.0317330
    2   0.0150313  -0.0203297  -0.0210564   0.0149114   0.0076172  -0.0152566
    3  -0.0312364  -0.0021572   0.0277458  -0.0690831  -0.0042197  -0.0044923
          205         206         207         208         209         210
    1   0.0008003   0.0252637  -0.0389299   0.0063212   0.0272249  -0.0122222
    2   0.0206370   0.0118475  -0.0350301   0.0032592   0.0196934   0.0130433
    3   0.0209063  -0.0223457   0.0375901   0.0028799  -0.0123941   0.0289896
          211         212         213         214         215         216
    1   0.0276930   0.0344962  -0.0016207  -0.0317840   0.0289421  -0.0061713
    2  -0.0188368  -0.0485439   0.0086939  -0.0032303  -0.0052339   0.0341843
    3   0.0000257  -0.0935052   0.0037977   0.0077484   0.0180603  -0.0049328
          217         218         219         220         221         222
    1   0.0209794   0.0056106   0.0313258  -0.0052053  -0.0026484  -0.0954327
    2  -0.0596649   0.0035063  -0.0146973  -0.0037734   0.0340475   0.0078467
    3   0.0163694  -0.0040797  -0.0022462  -0.0292845  -0.0060257  -0.0560497
          223         224         225         226         227         228
    1   0.0004221   0.0199138  -0.0089973  -0.0165711  -0.0386714   0.0086228
    2   0.0064049   0.0171240  -0.0272567   0.0344449  -0.0128704   0.0057805
    3  -0.0050112  -0.0162547  -0.0162334   0.0074349   0.0313968  -0.0012223
          229         230         231         232         233         234
    1   0.0017894   0.0274178  -0.0066889   0.0772053  -0.0037402  -0.0151081
    2  -0.0029588  -0.0064591   0.0282724  -0.0696430  -0.0052856  -0.0215803
    3   0.0325594  -0.0163042  -0.0092080  -0.0373466   0.0064792   0.0230547
          235         236         237         238         239         240
    1   0.0251118  -0.0045803   0.0281389  -0.0073828  -0.0055932  -0.0120568
    2  -0.0149290   0.0249605   0.0406196   0.0004742   0.0029637  -0.0155825
    3   0.0087017   0.0204589  -0.0277693   0.0000542  -0.0315304   0.0271369
          241         242         243         244         245         246
    1  -0.0207572   0.0007412  -0.0084941   0.0250459  -0.0278740  -0.0147282
    2   0.0338631  -0.1086162  -0.0044293  -0.0248710   0.0061227   0.0053841
    3  -0.0023515  -0.0246239   0.0012598   0.0085689   0.0188056  -0.0280251
          247         248         249         250         251         252
    1   0.0437867  -0.0072620  -0.0034803   0.0118539  -0.0323083   0.0220317
    2  -0.0076951   0.0052385   0.0113998   0.0273904  -0.0001376  -0.0049678
    3   0.0420887  -0.0010846   0.0278692  -0.0007978  -0.0115546  -0.1068326
          253         254         255         256         257         258
    1  -0.0067622   0.0033247  -0.0175511  -0.0079783   0.0410652   0.0013904
    2   0.0018750   0.0143824   0.0169863  -0.0271083  -0.0196858   0.0100661
    3   0.0045543   0.0338546  -0.0256740   0.0146938   0.0277174  -0.0039140
          259         260         261         262         263         264
    1   0.0266309  -0.0232332   0.0028505  -0.0399636  -0.0079100  -0.0232623
    2  -0.0044085   0.0099896   0.0247623  -0.0451295   0.0011400  -0.0056665
    3  -0.0220918  -0.0169648   0.0255902  -0.0919892   0.0027597  -0.0239808
          265         266         267         268         269         270
    1   0.0021679   0.0023270   0.0472492  -0.0028807  -0.0256248   0.0097424
    2  -0.0249000   0.0145903  -0.0081316   0.0059828   0.0175535   0.0211553
    3   0.0169368   0.0328733   0.0195691  -0.0028014   0.0049780   0.0240845
          271         272         273         274         275         276
    1   0.0052553  -0.0473468  -0.0062728  -0.0343006  -0.0083168   0.0032742
    2   0.0054535  -0.0624468  -0.0018437  -0.0041669   0.0153984  -0.0274498
    3  -0.0318982  -0.0783958  -0.0057485   0.0051097  -0.0234616  -0.0083271
          277         278         279         280         281         282
    1  -0.0013360  -0.0061039  -0.0309990   0.0165674  -0.0107459   0.0894240
    2  -0.0356337   0.0072370   0.0032131   0.0145169   0.0234379   0.0331580
    3   0.0465592  -0.0020286   0.0094074   0.0209677  -0.0204332  -0.0511608
          283         284         285         286         287         288
    1  -0.0021518  -0.0297860   0.0049493  -0.0051199   0.0023672   0.0052198
    2   0.0031555   0.0072821   0.0433293  -0.0038428   0.0043665   0.0009581
    3  -0.0016492   0.0097219  -0.0075768  -0.0275508   0.0498106   0.0015751
          289         290         291         292
    1   0.0060052   0.0317924   0.0138730  -0.0465060
    2   0.0087932   0.0313887  -0.0284901  -0.0827468
    3  -0.0275783   0.0052895  -0.0071560  -0.0552939
  --- DONE ESP SUMMARY ---
 Total job time:  29.60s(wall), 73.74s(cpu) 
 Thu Jul 21 09:53:30 2022

        *************************************************************
        *                                                           *
        *  Thank you very much for using Q-Chem.  Have a nice day.  *
        *                                                           *
        *************************************************************


