                  Welcome to Q-Chem
     A Quantum Leap Into The Future Of Chemistry


 Q-Chem 6.0 (devel), Q-Chem, Inc., Pleasanton, CA (2022)

 E. Epifanovsky,  A. T. B. Gilbert,  Xintian Feng,  Joonho Lee,  Yuezhi Mao,  
 N. Mardirossian,  P. Pokhilko,  A. White,  M. Wormit,  M. P. Coons,  
 A. L. Dempwolff,  Zhengting Gan,  D. Hait,  P. R. Horn,  L. D. Jacobson,  
 I. Kaliman,  J. Kussmann,  A. W. Lange,  Ka Un Lao,  D. S. Levine,  Jie Liu,  
 S. C. McKenzie,  A. F. Morrison,  K. Nanda,  F. Plasser,  D. R. Rehn,  
 M. L. Vidal,  Zhi-Qiang You,  Ying Zhu,  B. Alam,  B. Albrecht,  
 A. Aldossary,  E. Alguire,  J. H. Andersen,  V. Athavale,  D. Barton,  
 K. Begam,  A. Behn,  N. Bellonzi,  Y. A. Bernard,  E. J. Berquist,  
 H. Burton,  A. Carreras,  K. Carter-Fenk,  Romit Chakraborty,  
 Chandrima Chakravarty,  Junhan Chen,  A. D. Chien,  K. D. Closser,  
 V. Cofer-Shabica,  L. Cunha,  S. Dasgupta,  Jia Deng,  M. de Wergifosse,  
 M. Diedenhofen,  Hainam Do,  S. Ehlert,  Po-Tung Fang,  S. Fatehi,  
 Qingguo Feng,  T. Friedhoff,  B. Ganoe,  J. Gayvert,  Qinghui Ge,  
 G. Gidofalvi,  M. Goldey,  J. Gomes,  C. Gonzalez-Espinoza,  S. Gulania,  
 A. Gunina,  J. A. Gyamfi,  M. W. D. Hanson-Heine,  P. H. P. Harbach,  
 A. W. Hauser,  M. F. Herbst,  M. Hernandez Vera,  M. Hodecker,  
 Z. C. Holden,  S. Houck,  Xunkun Huang,  Kerwin Hui,  B. C. Huynh,  
 K. Ikeda,  M. Ivanov,  Hyunjun Ji,  Zuxin Jin,  Hanjie Jiang,  B. Kaduk,  
 S. Kaehler,  R. Kang,  K. Khistyaev,  Jaehoon Kim,  Yongbin Kim,  
 P. Klunzinger,  Z. Koczor-Benda,  Joong Hoon Koh,  D. Kosenkov,  
 Saikiran Kotaru,  L. Koulias,  T. Kowalczyk,  C. M. Krauter,  K. Kue,  
 A. Kunitsa,  T. Kus,  A. Landau,  K. V. Lawler,  D. Lefrancois,  S. Lehtola,  
 Rain Li,  Shaozhi Li,  Yi-Pei Li,  Jiashu Liang,  M. Liebenthal,  
 Hung-Hsuan Lin,  You-Sheng Lin,  Fenglai Liu,  Kuan-Yu Liu,  
 M. Loipersberger,  A. Luenser,  C. Malbon,  A. Manjanath,  P. Manohar,  
 E. Mansoor,  S. F. Manzer,  Shan-Ping Mao,  A. V. Marenich,  T. Markovich,  
 S. Mason,  F. Matz,  S. A. Maurer,  P. F. McLaughlin,  M. F. S. J. Menger,  
 J.-M. Mewes,  S. A. Mewes,  P. Morgante,  Mohammad Mostafanejad,  
 J. W. Mullinax,  K. J. Oosterbaan,  G. Paran,  V. Parravicini,  
 Alexander C. Paul,  Suranjan K. Paul,  F. Pavosevic,  Zheng Pei,  S. Prager,  
 E. I. Proynov,  E. Ramos,  B. Rana,  A. E. Rask,  A. Rettig,  R. M. Richard,  
 F. Rob,  E. Rossomme,  T. Scheele,  M. Scheurer,  M. Schneider,  
 P. E. Schneider,  N. Sergueev,  S. M. Sharada,  Hengyuan Shen,  
 W. Skomorowski,  D. W. Small,  C. J. Stein,  Yingli Su,  Yu-Chuan Su,  
 E. J. Sundstrom,  Zhen Tao,  J. Thirman,  Hung-Yi Tsai,  T. Tsuchimochi,  
 N. M. Tubman,  C. Utku,  S. P. Veccham,  O. Vydrov,  J. Wenzel,  
 Jonathan Wong,  J. Witte,  A. Yamada,  Chou-Hsun Yang,  Kun Yao,  
 S. Yeganeh,  S. R. Yost,  A. Zech,  F. Zeller,  Igor Ying Zhang,  
 Xing Zhang,  Yu Zhang,  D. Zuev,  A. Aspuru-Guzik,  A. T. Bell,  
 N. A. Besley,  K. B. Bravaya,  B. R. Brooks,  D. Casanova,  Jeng-Da Chai,  
 Hsing-Ta Chen,  S. Coriani,  C. J. Cramer,  A. E. DePrince, III,  
 R. A. DiStasio Jr.,  A. Dreuw,  B. D. Dunietz,  T. R. Furlani,  
 W. A. Goddard III,  S. Grimme,  S. Hammes-Schiffer,  T. Head-Gordon,  
 W. J. Hehre,  Chao-Ping Hsu,  T.-C. Jagau,  Yousung Jung,  A. Klamt,  
 Jing Kong,  D. S. Lambrecht,  Xiangyuan Li,  WanZhen Liang,  N. J. Mayhall,  
 C. W. McCurdy,  J. B. Neaton,  T. Neudecker,  C. Ochsenfeld,  
 J. A. Parkhill,  R. Peverati,  V. A. Rassolov,  Haisheng Ren,  Yihan Shao,  
 L. V. Slipchenko,  R. P. Steele,  J. E. Subotnik,  A. J. W. Thom,  
 A. Tkatchenko,  D. G. Truhlar,  T. Van Voorhis,  Fan Wang,  
 T. A. Wesolowski,  K. B. Whaley,  H. L. Woodcock III,  P. M. Zimmerman,  
 S. Faraji,  P. M. W. Gill,  M. Head-Gordon,  J. M. Herbert,  A. I. Krylov

 Contributors to earlier versions of Q-Chem not listed above: 
 R. D. Adamson,  B. Austin,  R. Baer,  J. Baker,  G. J. O. Beran,  
 K. Brandhorst,  S. T. Brown,  E. F. C. Byrd,  Arup K. Chakraborty,  
 G. K. L. Chan,  Chun-Min Chang,  Yunqing Chen,  C.-L. Cheng,  
 Siu Hung Chien,  D. M. Chipman,  D. L. Crittenden,  H. Dachsel,  
 R. J. Doerksen,  A. D. Dutoi,  R. G. Edgar,  J. Fosso-Tande,  
 L. Fusti-Molnar,  D. Ghosh,  A. Ghysels,  A. Golubeva-Zadorozhnaya,  
 J. Gonthier,  M. S. Gordon,  S. R. Gwaltney,  G. Hawkins,  J. E. Herr,  
 A. Heyden,  S. Hirata,  E. G. Hohenstein,  G. Kedziora,  F. J. Keil,  
 C. Kelley,  Jihan Kim,  R. A. King,  R. Z. Khaliullin,  P. P. Korambath,  
 W. Kurlancheek,  A. Laurent,  A. M. Lee,  M. S. Lee,  S. V. Levchenko,  
 Ching Yeh Lin,  D. Liotard,  E. Livshits,  R. C. Lochan,  I. Lotan,  
 L. A. Martinez-Martinez,  P. E. Maslen,  N. Nair,  D. P. O'Neill,  
 D. Neuhauser,  E. Neuscamman,  C. M. Oana,  R. Olivares-Amaya,  R. Olson,  
 T. M. Perrine,  B. Peters,  P. A. Pieniazek,  A. Prociuk,  Y. M. Rhee,  
 J. Ritchie,  M. A. Rohrdanz,  E. Rosta,  N. J. Russ,  H. F. Schaefer III,  
 M. W. Schmidt,  N. E. Schultz,  S. Sharma,  N. Shenvi,  C. D. Sherrill,  
 A. C. Simmonett,  A. Sodt,  T. Stein,  D. Stuck,  K. S. Thanthiriwatte,  
 V. Vanovschi,  L. Vogt,  Tao Wang,  A. Warshel,  M. A. Watson,  
 C. F. Williams,  Q. Wu,  X. Xu,  Jun Yang,  W. Zhang,  Yan Zhao

   Please cite Q-Chem as follows:
  "Software for the frontiers of quantum chemistry:
   An overview of developments in the Q-Chem 5 package"
   J. Chem. Phys. 155, 084801 (2021)
   https://doi.org/10.1063/5.0055522 (open access)

 Q-Chem 6.0.0 for Intel X86 EM64T Linux

 Parts of Q-Chem use Armadillo 9.900.5 (Nocturnal Misbehaviour).
 http://arma.sourceforge.net/

 Q-Chem begins on Thu Jul 21 03:14:54 2022  

 Host: nid00540
0

     Scratch files written to /global/cscratch1/sd/ymao90/r7.00_frame_0096_spade_B3LYP_dp20220721031332//
 Processing $rem in /global/homes/y/ymao90/my_qchem/qchem_embedding_5p4/config/preferences:
 Processing $rem in /global/homes/y/ymao90/.qchemrc:
 No nuclear gradient supported for projection-based embedding or EMFT. Set max ideriv = 0.

 Checking the input file for inconsistencies... 	...done.

--------------------------------------------------------------
User input:
--------------------------------------------------------------
$molecule
0 1
--
0 1
C    26.14500   30.46300   26.04900  
C    26.90900   29.63300   27.09300  
C    26.65800   28.11700   27.04000  
C    26.75600   27.57600   25.60400  
C    26.00300   28.39800   24.54500  
C    26.38700   29.88400   24.64500  
H    27.45600   27.67300   27.64800  
H    27.95500   29.68100   26.76800  
H    25.06000   30.58500   26.15600  
H    26.69000   31.41300   25.99800  
H    27.83200   27.64500   25.40300  
H    26.48000   26.51400   25.59400  
H    26.16700   27.94100   23.56200  
H    24.93000   28.27600   24.73800  
H    27.41400   29.99800   24.27700  
H    25.82200   30.49400   23.93000  
H    25.73500   27.82400   27.55400  
N    26.67600   30.10400   28.45800  
H    26.17900   29.43900   29.03900  
C    27.15800   31.27300   29.00600  
H    26.85100   31.41500   30.05900  
O    27.74300   32.13100   28.36900  
--
0 1
C    22.37300   25.88300   20.87800  
H    22.77000   24.91900   21.20300  
H    21.30200   26.04200   21.02800  
H    22.60900   26.12000   19.83700  
S    23.12900   27.34100   21.63200  
C    22.36600   28.65400   20.65300  
H    22.97500   28.91500   19.78400  
H    21.38300   28.33100   20.30200  
H    22.23400   29.59100   21.20100  
O    24.51900   27.25300   21.08300  
C    34.03500   24.79900   24.16300  
H    33.62400   24.37100   23.24500  
H    34.92100   24.21500   24.42500  
H    33.34300   24.70400   25.00400  
S    34.46600   26.48300   23.67000  
C    34.70600   27.11000   25.34800  
H    35.54500   26.67500   25.89700  
H    34.86900   28.18200   25.21600  
H    33.82500   26.93400   25.97000  
O    33.06100   26.93300   23.41400  
C    28.53300   22.74900   30.19000  
H    27.79000   22.18700   30.76300  
H    28.21700   23.79400   30.23000  
H    28.63000   22.46200   29.14000  
S    30.18900   22.83000   30.90900  
C    30.17600   21.09700   31.42300  
H    31.08900   21.00400   32.01700  
H    29.28700   21.01700   32.05400  
H    30.22900   20.39100   30.59100  
O    30.15400   23.66700   32.14900  
C    30.61400   30.51100   29.03500  
H    29.93800   29.97000   29.70200  
H    30.11300   31.17300   28.32400  
H    31.22900   29.78400   28.49800  
S    31.59700   31.63400   30.05400  
C    30.25500   32.75300   30.51500  
H    29.50800   32.23700   31.12400  
H    30.58400   33.59100   31.13400  
H    29.72100   33.17400   29.65900  
O    32.30000   32.39400   28.97300  
C    25.17200   27.70600   16.76200  
H    24.80700   28.37600   15.98000  
H    24.75500   26.70100   16.66100  
H    24.93000   28.21500   17.69900  
S    26.96300   27.53200   16.92300  
C    26.75000   26.54900   18.42400  
H    26.41600   25.55100   18.12700  
H    27.72200   26.45300   18.91500  
H    26.03100   26.99400   19.11600  
O    27.46500   28.85800   17.40300  
C    28.18600   34.18300   25.32400  
H    27.92200   33.75700   26.29600  
H    28.54600   33.39300   24.66100  
H    28.94300   34.96000   25.45900  
S    26.69300   34.80600   24.52000  
C    27.19900   35.18800   22.82700  
H    27.56500   34.22000   22.47600  
H    26.35300   35.49700   22.20700  
H    27.92600   35.98700   22.66600  
O    26.46800   36.15500   25.12800  
C    25.11600   30.66800   19.59300  
H    24.64700   31.43000   18.96500  
H    25.24500   29.72200   19.06200  
H    24.60300   30.51300   20.54600  
S    26.76300   31.15300   20.15800  
C    27.24400   29.58300   20.91400  
H    26.55600   29.42600   21.74900  
H    27.02300   28.81400   20.17000  
H    28.25500   29.77600   21.28100  
O    26.50700   31.88500   21.43900  
C    31.21500   28.83700   25.07900  
H    31.20500   28.02600   24.34700  
H    31.91900   28.59800   25.88100  
H    30.22200   29.02800   25.49400  
S    31.75300   30.23600   24.07100  
C    31.24300   31.45300   25.30600  
H    31.79800   31.37000   26.24300  
H    31.45500   32.44400   24.89400  
H    30.20500   31.26100   25.59000  
O    30.66300   30.29200   23.04600  
C    25.89000   24.80300   30.94000  
H    26.83000   24.98200   31.46700  
H    25.04400   25.07900   31.57500  
H    25.78000   23.73600   30.72700  
S    25.72900   25.74700   29.40800  
C    24.07500   25.11200   29.05600  
H    23.92100   25.69800   28.14600  
H    24.08700   24.04300   28.83000  
H    23.31700   25.34300   29.80900  
O    26.64500   24.86600   28.61700  
C    24.84300   24.65000   24.64100  
H    25.78900   24.81500   24.11900  
H    24.00900   25.24400   24.25900  
H    25.03300   24.92600   25.68100  
S    24.37400   22.90500   24.67800  
C    23.20600   23.01200   26.05300  
H    23.01000   21.99900   26.41400  
H    23.67700   23.67400   26.78400  
H    22.24600   23.39500   25.69700  
O    25.67500   22.27300   25.06300  
C    31.00300   35.70500   35.48300  
H    30.90000   34.89800   36.21300  
H    31.80500   36.43000   35.65100  
H    30.07200   36.27700   35.46700  
S    31.13100   34.95800   33.84300  
C    31.69900   36.49100   33.07400  
H    31.17300   37.38500   33.42000  
H    32.73200   36.42200   33.42600  
H    31.76000   36.46100   31.98300  
O    29.72300   34.73200   33.38700  
C    31.75000   27.52000   20.81800  
H    31.83100   28.24900   21.62800  
H    32.10000   26.49900   20.99200  
H    32.10200   27.97700   19.88900  
S    29.99700   27.25200   20.47300  
C    29.64600   27.17700   22.24400  
H    28.63800   26.80100   22.43700  
H    30.35100   26.49200   22.72000  
H    29.71300   28.15500   22.72800  
O    29.88700   25.80400   20.10700  
C    23.59300   35.19500   20.56400  
H    23.39000   36.26300   20.45400  
H    24.64900   34.93200   20.46200  
H    23.07300   34.54900   19.85200  
S    23.15000   34.83400   22.27800  
C    23.77400   33.15300   22.05700  
H    23.31200   32.53800   22.83400  
H    23.58100   32.67500   21.09300  
H    24.85100   33.20600   22.23200  
O    21.65500   34.74600   22.29100  
C    17.39500   31.68900   27.88800  
H    16.61600   31.32300   27.21400  
H    16.99300   31.93200   28.87500  
H    17.86200   32.53700   27.37900  
S    18.61500   30.35900   27.98300  
C    17.76800   29.56900   29.37000  
H    18.04800   30.10200   30.28200  
H    16.68000   29.65800   29.30400  
H    18.11700   28.53400   29.38500  
O    19.79500   31.00900   28.63700  
C    29.63800   37.73200   30.40700  
H    28.90500   38.43100   29.99400  
H    29.12300   36.94800   30.96800  
H    30.35700   38.22800   31.06300  
S    30.58200   36.88300   29.12200  
C    29.21300   36.06300   28.27400  
H    28.80500   35.42200   29.06100  
H    28.41400   36.74800   27.97800  
H    29.53400   35.45900   27.42200  
O    31.26700   35.85200   29.96400  
C    20.82300   28.18000   25.85400  
H    21.41500   28.67700   25.08100  
H    20.16700   27.41100   25.43900  
H    20.25700   28.88800   26.46500  
S    21.93600   27.38700   27.03600  
C    22.81700   28.94300   27.29700  
H    23.65000   28.81000   27.99200  
H    23.12100   29.22500   26.28600  
H    22.06700   29.66800   27.62400  
O    22.80100   26.61600   26.08800  
C    29.99200   30.28800   35.62200  
H    29.29200   30.12300   36.44500  
H    30.70000   31.11100   35.74100  
H    29.60900   30.48700   34.61700  
S    31.01500   28.80200   35.52500  
C    32.22000   29.48900   34.36700  
H    33.06300   28.79200   34.35400  
H    31.63800   29.52800   33.44300  
H    32.66000   30.46700   34.57500  
O    30.16900   27.89200   34.69000  
C    23.08300   28.41200   32.80200  
H    24.06000   27.94700   32.95700  
H    22.70600   28.95000   33.67600  
H    22.27900   27.76500   32.44300  
S    23.32100   29.59000   31.45200  
C    21.59700   30.03900   31.15200  
H    21.18800   30.73400   31.89000  
H    21.62300   30.45500   30.14200  
H    21.03000   29.12100   30.97800  
O    23.78700   28.58700   30.44300  
C    28.32600   23.32700   22.55500  
H    29.14500   22.60300   22.55500  
H    28.68600   24.33800   22.75800  
H    27.46700   22.87900   23.06400  
S    27.79100   23.73900   20.87900  
C    26.19500   24.44500   21.34800  
H    25.71900   23.78800   22.08000  
H    26.35600   25.43600   21.78000  
H    25.54900   24.59700   20.47900  
O    27.51700   22.32200   20.48000  
C    29.15300   26.41700   29.82600  
H    29.00800   26.26100   28.75400  
H    28.49300   25.81300   30.45400  
H    29.04700   27.46800   30.10900  
S    30.92200   26.05600   29.88800  
C    31.30100   26.65300   31.55100  
H    31.39600   27.74000   31.61300  
H    30.53000   26.37600   32.27400  
H    32.21000   26.25400   32.00700  
O    31.70100   26.85600   28.89100  
C    30.26500   34.23000   21.48000  
H    30.69300   34.32400   20.47900  
H    30.09400   33.21100   21.83600  
H    29.45200   34.92600   21.70500  
S    31.71700   34.70800   22.44300  
C    32.60900   33.16000   22.17600  
H    32.88700   33.26400   21.12400  
H    33.42200   32.98400   22.88500  
H    31.92100   32.31500   22.26400  
O    31.14800   34.52600   23.81600  
C    20.29900   24.71500   30.76400  
H    21.12400   24.20000   31.26200  
H    20.00300   25.71600   31.08900  
H    19.42100   24.09700   30.97000  
S    20.36800   24.62700   28.96000  
C    18.73200   25.34500   28.68900  
H    17.94600   24.67900   29.05200  
H    18.72700   26.32200   29.18000  
H    18.66900   25.47800   27.60600  
O    19.93700   23.23600   28.61400  
C    24.16700   34.59800   26.80700  
H    24.16600   35.26800   27.67000  
H    25.08800   34.01400   26.73000  
H    24.23000   35.08300   25.82900  
S    22.59900   33.70400   26.87400  
C    23.03200   32.58300   28.22400  
H    22.16400   31.94500   28.40600  
H    23.95100   32.00300   28.10500  
H    23.07300   33.18100   29.13800  
O    22.55300   32.86200   25.63700  
C    18.55700   32.51100   23.43600  
H    19.12100   33.38800   23.10700  
H    18.48900   31.80200   22.60800  
H    17.54100   32.66200   23.81200  
S    19.42600   31.55600   24.70000  
C    20.74600   31.19200   23.52100  
H    20.29400   30.65800   22.68200  
H    21.31300   32.05500   23.16400  
H    21.34500   30.50500   24.12600  
O    18.56100   30.34300   24.84500  
C    28.11700   33.78100   35.72700  
H    28.14600   34.84000   35.46100  
H    28.49300   33.73900   36.75200  
H    28.80700   33.20500   35.10400  
S    26.48800   33.05800   35.42800  
C    25.97400   33.74700   37.01700  
H    25.91000   34.83300   36.91500  
H    24.94200   33.42000   37.16900  
H    26.53600   33.40200   37.88900  
O    26.77100   31.65000   35.85200  
C    29.30800   22.73300   26.52000  
H    29.40600   22.61700   25.43700  
H    29.47000   21.73700   26.94000  
H    28.29300   22.93500   26.87400  
S    30.52600   23.96100   27.04200  
C    29.87100   25.22800   25.93300  
H    28.81100   25.45300   26.07500  
H    30.42100   26.16800   26.01900  
H    30.09800   24.90400   24.91400  
O    31.86700   23.55300   26.51700  
C    27.29400   27.68300   32.75100  
H    26.61700   27.51100   33.59200  
H    26.71100   27.75300   31.83000  
H    28.08000   26.93400   32.62600  
S    27.90100   29.37900   32.89600  
C    26.28300   30.16100   33.08200  
H    25.62400   29.52000   33.67400  
H    26.62000   31.14500   33.41900  
H    25.81800   30.35700   32.11200  
O    28.20200   29.58500   31.44400  
C    24.19200   34.87500   32.36400  
H    23.57600   35.27000   31.55200  
H    23.58300   34.35600   33.10800  
H    24.65800   35.75500   32.81500  
S    25.64300   33.87300   31.97000  
C    26.04100   34.77200   30.45400  
H    26.69000   35.64500   30.56900  
H    26.69100   34.02800   29.98600  
H    25.13100   35.01600   29.90100  
O    24.98000   32.62900   31.46600  
$end

$rem
JOBTYPE  SP
METHOD  B3LYP
BASIS  6-31+G(D)
SYMMETRY  FALSE
SYM_IGNORE  TRUE
MEM_TOTAL  12000
MEM_STATIC  4000
BASIS_LIN_DEP_THRESH  6
THRESH  14
SCF_CONVERGENCE  8
FD_MAT_VEC_PROD  FALSE
XC_GRID  000075000302
NL_GRID  1
MAX_SCF_CYCLES  200
ENV_METHOD  B3LYP
GEN_SCFMAN_EMBED  TRUE
SPADE_PARTITION  TRUE
EMBEDDING_EARLY_STOP  TRUE
$end

--------------------------------------------------------------
 ----------------------------------------------------------------
             Standard Nuclear Orientation (Angstroms)
    I     Atom           X                Y                Z
 ----------------------------------------------------------------
    1      C      26.1450000000    30.4630000000    26.0490000000
    2      C      26.9090000000    29.6330000000    27.0930000000
    3      C      26.6580000000    28.1170000000    27.0400000000
    4      C      26.7560000000    27.5760000000    25.6040000000
    5      C      26.0030000000    28.3980000000    24.5450000000
    6      C      26.3870000000    29.8840000000    24.6450000000
    7      H      27.4560000000    27.6730000000    27.6480000000
    8      H      27.9550000000    29.6810000000    26.7680000000
    9      H      25.0600000000    30.5850000000    26.1560000000
   10      H      26.6900000000    31.4130000000    25.9980000000
   11      H      27.8320000000    27.6450000000    25.4030000000
   12      H      26.4800000000    26.5140000000    25.5940000000
   13      H      26.1670000000    27.9410000000    23.5620000000
   14      H      24.9300000000    28.2760000000    24.7380000000
   15      H      27.4140000000    29.9980000000    24.2770000000
   16      H      25.8220000000    30.4940000000    23.9300000000
   17      H      25.7350000000    27.8240000000    27.5540000000
   18      N      26.6760000000    30.1040000000    28.4580000000
   19      H      26.1790000000    29.4390000000    29.0390000000
   20      C      27.1580000000    31.2730000000    29.0060000000
   21      H      26.8510000000    31.4150000000    30.0590000000
   22      O      27.7430000000    32.1310000000    28.3690000000
   23      C      22.3730000000    25.8830000000    20.8780000000
   24      H      22.7700000000    24.9190000000    21.2030000000
   25      H      21.3020000000    26.0420000000    21.0280000000
   26      H      22.6090000000    26.1200000000    19.8370000000
   27      S      23.1290000000    27.3410000000    21.6320000000
   28      C      22.3660000000    28.6540000000    20.6530000000
   29      H      22.9750000000    28.9150000000    19.7840000000
   30      H      21.3830000000    28.3310000000    20.3020000000
   31      H      22.2340000000    29.5910000000    21.2010000000
   32      O      24.5190000000    27.2530000000    21.0830000000
   33      C      34.0350000000    24.7990000000    24.1630000000
   34      H      33.6240000000    24.3710000000    23.2450000000
   35      H      34.9210000000    24.2150000000    24.4250000000
   36      H      33.3430000000    24.7040000000    25.0040000000
   37      S      34.4660000000    26.4830000000    23.6700000000
   38      C      34.7060000000    27.1100000000    25.3480000000
   39      H      35.5450000000    26.6750000000    25.8970000000
   40      H      34.8690000000    28.1820000000    25.2160000000
   41      H      33.8250000000    26.9340000000    25.9700000000
   42      O      33.0610000000    26.9330000000    23.4140000000
   43      C      28.5330000000    22.7490000000    30.1900000000
   44      H      27.7900000000    22.1870000000    30.7630000000
   45      H      28.2170000000    23.7940000000    30.2300000000
   46      H      28.6300000000    22.4620000000    29.1400000000
   47      S      30.1890000000    22.8300000000    30.9090000000
   48      C      30.1760000000    21.0970000000    31.4230000000
   49      H      31.0890000000    21.0040000000    32.0170000000
   50      H      29.2870000000    21.0170000000    32.0540000000
   51      H      30.2290000000    20.3910000000    30.5910000000
   52      O      30.1540000000    23.6670000000    32.1490000000
   53      C      30.6140000000    30.5110000000    29.0350000000
   54      H      29.9380000000    29.9700000000    29.7020000000
   55      H      30.1130000000    31.1730000000    28.3240000000
   56      H      31.2290000000    29.7840000000    28.4980000000
   57      S      31.5970000000    31.6340000000    30.0540000000
   58      C      30.2550000000    32.7530000000    30.5150000000
   59      H      29.5080000000    32.2370000000    31.1240000000
   60      H      30.5840000000    33.5910000000    31.1340000000
   61      H      29.7210000000    33.1740000000    29.6590000000
   62      O      32.3000000000    32.3940000000    28.9730000000
   63      C      25.1720000000    27.7060000000    16.7620000000
   64      H      24.8070000000    28.3760000000    15.9800000000
   65      H      24.7550000000    26.7010000000    16.6610000000
   66      H      24.9300000000    28.2150000000    17.6990000000
   67      S      26.9630000000    27.5320000000    16.9230000000
   68      C      26.7500000000    26.5490000000    18.4240000000
   69      H      26.4160000000    25.5510000000    18.1270000000
   70      H      27.7220000000    26.4530000000    18.9150000000
   71      H      26.0310000000    26.9940000000    19.1160000000
   72      O      27.4650000000    28.8580000000    17.4030000000
   73      C      28.1860000000    34.1830000000    25.3240000000
   74      H      27.9220000000    33.7570000000    26.2960000000
   75      H      28.5460000000    33.3930000000    24.6610000000
   76      H      28.9430000000    34.9600000000    25.4590000000
   77      S      26.6930000000    34.8060000000    24.5200000000
   78      C      27.1990000000    35.1880000000    22.8270000000
   79      H      27.5650000000    34.2200000000    22.4760000000
   80      H      26.3530000000    35.4970000000    22.2070000000
   81      H      27.9260000000    35.9870000000    22.6660000000
   82      O      26.4680000000    36.1550000000    25.1280000000
   83      C      25.1160000000    30.6680000000    19.5930000000
   84      H      24.6470000000    31.4300000000    18.9650000000
   85      H      25.2450000000    29.7220000000    19.0620000000
   86      H      24.6030000000    30.5130000000    20.5460000000
   87      S      26.7630000000    31.1530000000    20.1580000000
   88      C      27.2440000000    29.5830000000    20.9140000000
   89      H      26.5560000000    29.4260000000    21.7490000000
   90      H      27.0230000000    28.8140000000    20.1700000000
   91      H      28.2550000000    29.7760000000    21.2810000000
   92      O      26.5070000000    31.8850000000    21.4390000000
   93      C      31.2150000000    28.8370000000    25.0790000000
   94      H      31.2050000000    28.0260000000    24.3470000000
   95      H      31.9190000000    28.5980000000    25.8810000000
   96      H      30.2220000000    29.0280000000    25.4940000000
   97      S      31.7530000000    30.2360000000    24.0710000000
   98      C      31.2430000000    31.4530000000    25.3060000000
   99      H      31.7980000000    31.3700000000    26.2430000000
  100      H      31.4550000000    32.4440000000    24.8940000000
  101      H      30.2050000000    31.2610000000    25.5900000000
  102      O      30.6630000000    30.2920000000    23.0460000000
  103      C      25.8900000000    24.8030000000    30.9400000000
  104      H      26.8300000000    24.9820000000    31.4670000000
  105      H      25.0440000000    25.0790000000    31.5750000000
  106      H      25.7800000000    23.7360000000    30.7270000000
  107      S      25.7290000000    25.7470000000    29.4080000000
  108      C      24.0750000000    25.1120000000    29.0560000000
  109      H      23.9210000000    25.6980000000    28.1460000000
  110      H      24.0870000000    24.0430000000    28.8300000000
  111      H      23.3170000000    25.3430000000    29.8090000000
  112      O      26.6450000000    24.8660000000    28.6170000000
  113      C      24.8430000000    24.6500000000    24.6410000000
  114      H      25.7890000000    24.8150000000    24.1190000000
  115      H      24.0090000000    25.2440000000    24.2590000000
  116      H      25.0330000000    24.9260000000    25.6810000000
  117      S      24.3740000000    22.9050000000    24.6780000000
  118      C      23.2060000000    23.0120000000    26.0530000000
  119      H      23.0100000000    21.9990000000    26.4140000000
  120      H      23.6770000000    23.6740000000    26.7840000000
  121      H      22.2460000000    23.3950000000    25.6970000000
  122      O      25.6750000000    22.2730000000    25.0630000000
  123      C      31.0030000000    35.7050000000    35.4830000000
  124      H      30.9000000000    34.8980000000    36.2130000000
  125      H      31.8050000000    36.4300000000    35.6510000000
  126      H      30.0720000000    36.2770000000    35.4670000000
  127      S      31.1310000000    34.9580000000    33.8430000000
  128      C      31.6990000000    36.4910000000    33.0740000000
  129      H      31.1730000000    37.3850000000    33.4200000000
  130      H      32.7320000000    36.4220000000    33.4260000000
  131      H      31.7600000000    36.4610000000    31.9830000000
  132      O      29.7230000000    34.7320000000    33.3870000000
  133      C      31.7500000000    27.5200000000    20.8180000000
  134      H      31.8310000000    28.2490000000    21.6280000000
  135      H      32.1000000000    26.4990000000    20.9920000000
  136      H      32.1020000000    27.9770000000    19.8890000000
  137      S      29.9970000000    27.2520000000    20.4730000000
  138      C      29.6460000000    27.1770000000    22.2440000000
  139      H      28.6380000000    26.8010000000    22.4370000000
  140      H      30.3510000000    26.4920000000    22.7200000000
  141      H      29.7130000000    28.1550000000    22.7280000000
  142      O      29.8870000000    25.8040000000    20.1070000000
  143      C      23.5930000000    35.1950000000    20.5640000000
  144      H      23.3900000000    36.2630000000    20.4540000000
  145      H      24.6490000000    34.9320000000    20.4620000000
  146      H      23.0730000000    34.5490000000    19.8520000000
  147      S      23.1500000000    34.8340000000    22.2780000000
  148      C      23.7740000000    33.1530000000    22.0570000000
  149      H      23.3120000000    32.5380000000    22.8340000000
  150      H      23.5810000000    32.6750000000    21.0930000000
  151      H      24.8510000000    33.2060000000    22.2320000000
  152      O      21.6550000000    34.7460000000    22.2910000000
  153      C      17.3950000000    31.6890000000    27.8880000000
  154      H      16.6160000000    31.3230000000    27.2140000000
  155      H      16.9930000000    31.9320000000    28.8750000000
  156      H      17.8620000000    32.5370000000    27.3790000000
  157      S      18.6150000000    30.3590000000    27.9830000000
  158      C      17.7680000000    29.5690000000    29.3700000000
  159      H      18.0480000000    30.1020000000    30.2820000000
  160      H      16.6800000000    29.6580000000    29.3040000000
  161      H      18.1170000000    28.5340000000    29.3850000000
  162      O      19.7950000000    31.0090000000    28.6370000000
  163      C      29.6380000000    37.7320000000    30.4070000000
  164      H      28.9050000000    38.4310000000    29.9940000000
  165      H      29.1230000000    36.9480000000    30.9680000000
  166      H      30.3570000000    38.2280000000    31.0630000000
  167      S      30.5820000000    36.8830000000    29.1220000000
  168      C      29.2130000000    36.0630000000    28.2740000000
  169      H      28.8050000000    35.4220000000    29.0610000000
  170      H      28.4140000000    36.7480000000    27.9780000000
  171      H      29.5340000000    35.4590000000    27.4220000000
  172      O      31.2670000000    35.8520000000    29.9640000000
  173      C      20.8230000000    28.1800000000    25.8540000000
  174      H      21.4150000000    28.6770000000    25.0810000000
  175      H      20.1670000000    27.4110000000    25.4390000000
  176      H      20.2570000000    28.8880000000    26.4650000000
  177      S      21.9360000000    27.3870000000    27.0360000000
  178      C      22.8170000000    28.9430000000    27.2970000000
  179      H      23.6500000000    28.8100000000    27.9920000000
  180      H      23.1210000000    29.2250000000    26.2860000000
  181      H      22.0670000000    29.6680000000    27.6240000000
  182      O      22.8010000000    26.6160000000    26.0880000000
  183      C      29.9920000000    30.2880000000    35.6220000000
  184      H      29.2920000000    30.1230000000    36.4450000000
  185      H      30.7000000000    31.1110000000    35.7410000000
  186      H      29.6090000000    30.4870000000    34.6170000000
  187      S      31.0150000000    28.8020000000    35.5250000000
  188      C      32.2200000000    29.4890000000    34.3670000000
  189      H      33.0630000000    28.7920000000    34.3540000000
  190      H      31.6380000000    29.5280000000    33.4430000000
  191      H      32.6600000000    30.4670000000    34.5750000000
  192      O      30.1690000000    27.8920000000    34.6900000000
  193      C      23.0830000000    28.4120000000    32.8020000000
  194      H      24.0600000000    27.9470000000    32.9570000000
  195      H      22.7060000000    28.9500000000    33.6760000000
  196      H      22.2790000000    27.7650000000    32.4430000000
  197      S      23.3210000000    29.5900000000    31.4520000000
  198      C      21.5970000000    30.0390000000    31.1520000000
  199      H      21.1880000000    30.7340000000    31.8900000000
  200      H      21.6230000000    30.4550000000    30.1420000000
  201      H      21.0300000000    29.1210000000    30.9780000000
  202      O      23.7870000000    28.5870000000    30.4430000000
  203      C      28.3260000000    23.3270000000    22.5550000000
  204      H      29.1450000000    22.6030000000    22.5550000000
  205      H      28.6860000000    24.3380000000    22.7580000000
  206      H      27.4670000000    22.8790000000    23.0640000000
  207      S      27.7910000000    23.7390000000    20.8790000000
  208      C      26.1950000000    24.4450000000    21.3480000000
  209      H      25.7190000000    23.7880000000    22.0800000000
  210      H      26.3560000000    25.4360000000    21.7800000000
  211      H      25.5490000000    24.5970000000    20.4790000000
  212      O      27.5170000000    22.3220000000    20.4800000000
  213      C      29.1530000000    26.4170000000    29.8260000000
  214      H      29.0080000000    26.2610000000    28.7540000000
  215      H      28.4930000000    25.8130000000    30.4540000000
  216      H      29.0470000000    27.4680000000    30.1090000000
  217      S      30.9220000000    26.0560000000    29.8880000000
  218      C      31.3010000000    26.6530000000    31.5510000000
  219      H      31.3960000000    27.7400000000    31.6130000000
  220      H      30.5300000000    26.3760000000    32.2740000000
  221      H      32.2100000000    26.2540000000    32.0070000000
  222      O      31.7010000000    26.8560000000    28.8910000000
  223      C      30.2650000000    34.2300000000    21.4800000000
  224      H      30.6930000000    34.3240000000    20.4790000000
  225      H      30.0940000000    33.2110000000    21.8360000000
  226      H      29.4520000000    34.9260000000    21.7050000000
  227      S      31.7170000000    34.7080000000    22.4430000000
  228      C      32.6090000000    33.1600000000    22.1760000000
  229      H      32.8870000000    33.2640000000    21.1240000000
  230      H      33.4220000000    32.9840000000    22.8850000000
  231      H      31.9210000000    32.3150000000    22.2640000000
  232      O      31.1480000000    34.5260000000    23.8160000000
  233      C      20.2990000000    24.7150000000    30.7640000000
  234      H      21.1240000000    24.2000000000    31.2620000000
  235      H      20.0030000000    25.7160000000    31.0890000000
  236      H      19.4210000000    24.0970000000    30.9700000000
  237      S      20.3680000000    24.6270000000    28.9600000000
  238      C      18.7320000000    25.3450000000    28.6890000000
  239      H      17.9460000000    24.6790000000    29.0520000000
  240      H      18.7270000000    26.3220000000    29.1800000000
  241      H      18.6690000000    25.4780000000    27.6060000000
  242      O      19.9370000000    23.2360000000    28.6140000000
  243      C      24.1670000000    34.5980000000    26.8070000000
  244      H      24.1660000000    35.2680000000    27.6700000000
  245      H      25.0880000000    34.0140000000    26.7300000000
  246      H      24.2300000000    35.0830000000    25.8290000000
  247      S      22.5990000000    33.7040000000    26.8740000000
  248      C      23.0320000000    32.5830000000    28.2240000000
  249      H      22.1640000000    31.9450000000    28.4060000000
  250      H      23.9510000000    32.0030000000    28.1050000000
  251      H      23.0730000000    33.1810000000    29.1380000000
  252      O      22.5530000000    32.8620000000    25.6370000000
  253      C      18.5570000000    32.5110000000    23.4360000000
  254      H      19.1210000000    33.3880000000    23.1070000000
  255      H      18.4890000000    31.8020000000    22.6080000000
  256      H      17.5410000000    32.6620000000    23.8120000000
  257      S      19.4260000000    31.5560000000    24.7000000000
  258      C      20.7460000000    31.1920000000    23.5210000000
  259      H      20.2940000000    30.6580000000    22.6820000000
  260      H      21.3130000000    32.0550000000    23.1640000000
  261      H      21.3450000000    30.5050000000    24.1260000000
  262      O      18.5610000000    30.3430000000    24.8450000000
  263      C      28.1170000000    33.7810000000    35.7270000000
  264      H      28.1460000000    34.8400000000    35.4610000000
  265      H      28.4930000000    33.7390000000    36.7520000000
  266      H      28.8070000000    33.2050000000    35.1040000000
  267      S      26.4880000000    33.0580000000    35.4280000000
  268      C      25.9740000000    33.7470000000    37.0170000000
  269      H      25.9100000000    34.8330000000    36.9150000000
  270      H      24.9420000000    33.4200000000    37.1690000000
  271      H      26.5360000000    33.4020000000    37.8890000000
  272      O      26.7710000000    31.6500000000    35.8520000000
  273      C      29.3080000000    22.7330000000    26.5200000000
  274      H      29.4060000000    22.6170000000    25.4370000000
  275      H      29.4700000000    21.7370000000    26.9400000000
  276      H      28.2930000000    22.9350000000    26.8740000000
  277      S      30.5260000000    23.9610000000    27.0420000000
  278      C      29.8710000000    25.2280000000    25.9330000000
  279      H      28.8110000000    25.4530000000    26.0750000000
  280      H      30.4210000000    26.1680000000    26.0190000000
  281      H      30.0980000000    24.9040000000    24.9140000000
  282      O      31.8670000000    23.5530000000    26.5170000000
  283      C      27.2940000000    27.6830000000    32.7510000000
  284      H      26.6170000000    27.5110000000    33.5920000000
  285      H      26.7110000000    27.7530000000    31.8300000000
  286      H      28.0800000000    26.9340000000    32.6260000000
  287      S      27.9010000000    29.3790000000    32.8960000000
  288      C      26.2830000000    30.1610000000    33.0820000000
  289      H      25.6240000000    29.5200000000    33.6740000000
  290      H      26.6200000000    31.1450000000    33.4190000000
  291      H      25.8180000000    30.3570000000    32.1120000000
  292      O      28.2020000000    29.5850000000    31.4440000000
  293      C      24.1920000000    34.8750000000    32.3640000000
  294      H      23.5760000000    35.2700000000    31.5520000000
  295      H      23.5830000000    34.3560000000    33.1080000000
  296      H      24.6580000000    35.7550000000    32.8150000000
  297      S      25.6430000000    33.8730000000    31.9700000000
  298      C      26.0410000000    34.7720000000    30.4540000000
  299      H      26.6900000000    35.6450000000    30.5690000000
  300      H      26.6910000000    34.0280000000    29.9860000000
  301      H      25.1310000000    35.0160000000    29.9010000000
  302      O      24.9800000000    32.6290000000    31.4660000000
 ----------------------------------------------------------------
 Nuclear Repulsion Energy =       50924.08804073 hartrees
 There are      623 alpha and      623 beta electrons
 Requested basis set is 6-31+G(d)
 There are 995 shells and 2773 basis functions

 Total QAlloc Memory Limit  12000 MB
 Mega-Array Size      3911 MB
 MEM_STATIC part      4000 MB

 A cutoff of  1.0D-14 yielded 185508 shell pairs
 There are   1613478 function pairs
 Smallest overlap matrix eigenvalue = 5.21E-07
 Linear dependence detected in AO basis
 Tighter screening thresholds may be required for diffuse basis sets
 Use S2THRESH > 14 and THRESH = 14 in case of SCF convergence issues
 Number of orthogonalized atomic orbitals = 2771
 Maximum deviation from orthogonality = 2.114E-10

 Scale SEOQF with 1.000000e-03/1.000000e-03/1.000000e-03

 Standard Electronic Orientation quadrupole field applied
 Nucleus-field energy     =     0.0000001121 hartrees
 Guess from superposition of atomic densities
 Warning:  Energy on first SCF cycle will be non-variational
 SAD guess density has 1246.000002 electrons

 -----------------------------------------------------------------------
  General SCF calculation program by
  Eric Jon Sundstrom, Paul Horn, Yuezhi Mao, Dmitri Zuev, Alec White,
  David Stuck, Shaama M.S., Shane Yost, Joonho Lee, David Small,
  Daniel Levine, Susi Lehtola, Hugh Burton, Evgeny Epifanovsky,
  Bang C. Huynh
 -----------------------------------------------------------------------
=================================================
        Doing projection-based embedding         
      F. Manby et al. JCTC, 8, 2564 (2012)       
=================================================

****************************************************
   Low-level SCF calculation for the whole system   
****************************************************
----------------------------------------------
 Summary of the low-level theory: 
 Exchange:     0.2000 Hartree-Fock + 0.0800 Slater + 0.7200 B88
 Correlation:  0.1900 VWN1RPA + 0.8100 LYP
 Using Euler-Maclaurin-Lebedev (75,302) quadrature formula
----------------------------------------------
 using 16 threads for integral computing
 -------------------------------------------------------
 OpenMP Integral computing Module                
 Release: version 1.0, May 2013, Q-Chem Inc. Pittsburgh 
 -------------------------------------------------------
 A restricted SCF calculation will be
 performed using DIIS
 SCF converges when DIIS error is below 1.0e-08
 ---------------------------------------
  Cycle       Energy         DIIS error
 ---------------------------------------
    1  -15913.8765841213      1.33e-02  
    2  -15888.8155028015      2.47e-03  
    3  -15871.8589000424      4.92e-03  
    4  -15892.4782096118      1.21e-03  
    5  -15893.8273003675      1.78e-04  
    6  -15893.8420643931      1.58e-04  
    7  -15893.8597146036      6.06e-05  
    8  -15893.8625716638      1.56e-05  
    9  -15893.8627650563      5.54e-06  
   10  -15893.8627864416      2.29e-06  
   11  -15893.8627902097      6.19e-07  
   12  -15893.8627905037      2.24e-07  
   13  -15893.8627905450      7.57e-08  
   14  -15893.8627905488      3.34e-08  
   15  -15893.8627905496      8.15e-09  Convergence criterion met
 ---------------------------------------
 SCF time:   CPU 313133.20s  wall 22467.00s 
 SCF   energy in the final basis set =   -15893.8627905496
 Total energy in the final basis set =   -15893.8627905496

****************************************************
             Start embedding calculation            
****************************************************
----------------------------------------------
 Summary of the high-level theory: 
 Exchange:     0.2000 Hartree-Fock + 0.0800 Slater + 0.7200 B88
 Correlation:  0.1900 VWN1RPA + 0.8100 LYP
 Using Euler-Maclaurin-Lebedev (75,302) quadrature formula
----------------------------------------------
Doing R-in-R Embedding Calculation
Number of fragments: 2
Embedded fragment(s): 1 
NOcc for each fragment
           35
          588
NBasis for each fragment
          197
         2576
Variational space of the embedded problem: 
NOcc (active)  = 35
NOcc (fixed)   = 588
NVir (total)   = 2148
Read converged orbitals from disk
=========================================================
       Doing SPADE partition for the orbital space       
     D. Claudino and N. Mayhall JCTC 15, 1053 (2019)     
=========================================================
SPADE singular values:
 1.0000 1.0000 1.0000 1.0000 1.0000 1.0000 1.0000 1.0000 1.0000 0.9999
 0.9999 0.9998 0.9997 0.9996 0.9995 0.9995 0.9993 0.9990 0.9985 0.9981
 0.9978 0.9972 0.9965 0.9961 0.9954 0.9950 0.9945 0.9941 0.9937 0.9931
 0.9925 0.9909 0.9900 0.9848 0.9812 0.2072 0.1782 0.1622 0.1569 0.1470
 0.1452 0.1357 0.1159 0.1104 0.1029 0.0897 0.0878 0.0775 0.0699 0.0661
 0.0603 0.0515 0.0482 0.0462 0.0432 0.0393 0.0363 0.0342 0.0330 0.0311
 0.0309 0.0289 0.0278 0.0259 0.0240 0.0212 0.0211 0.0202 0.0188 0.0174
 0.0169 0.0154 0.0147 0.0143 0.0134 0.0124 0.0117 0.0107 0.0104 0.0099
 0.0089 0.0086 0.0083 0.0077 0.0074 0.0070 0.0070 0.0068 0.0063 0.0062
 0.0060 0.0058 0.0054 0.0053 0.0051 0.0046 0.0041 0.0040 0.0038 0.0038
 0.0036 0.0034 0.0033 0.0031 0.0031 0.0028 0.0026 0.0026 0.0025 0.0022
 0.0021 0.0020 0.0020 0.0020 0.0019 0.0018 0.0017 0.0017 0.0016 0.0016
 0.0015 0.0015 0.0013 0.0013 0.0013 0.0012 0.0011 0.0011 0.0011 0.0010
 0.0010 0.0009 0.0009 0.0008 0.0008 0.0008 0.0007 0.0007 0.0007 0.0007
 0.0006 0.0006 0.0006 0.0006 0.0006 0.0005 0.0005 0.0005 0.0004 0.0004
 0.0004 0.0004 0.0004 0.0004 0.0004 0.0003 0.0003 0.0003 0.0003 0.0003
 0.0003 0.0003 0.0003 0.0002 0.0002 0.0002 0.0002 0.0002 0.0002 0.0002
 0.0002 0.0002 0.0002 0.0002 0.0002 0.0002 0.0001 0.0001 0.0001 0.0001
 0.0001 0.0001 0.0001 0.0001 0.0001 0.0001 0.0001 0.0001 0.0001 0.0001
 0.0001 0.0001 0.0001 0.0001 0.0001 0.0001 0.0001
Early stop requested; no embedded SCF will be performed

 588 environment occs will be part of frozen-core in future post-HF calculations

 --------------------------------------------------------------

                    Orbital Energies (a.u.)
 --------------------------------------------------------------

 Alpha MOs
 -- Occupied --
-89.0207 -89.0183 -89.0172 -89.0142 -89.0138 -89.0109 -89.0108 -89.0042
-89.0002 -88.9952 -88.9931 -88.9928 -88.9915 -88.9892 -88.9888 -88.9871
-88.9864 -88.9859 -88.9824 -88.9820 -88.9795 -88.9775 -88.9752 -88.9736
-88.9629 -88.9626 -88.9590 -88.9499 -19.1353 -19.1337 -19.1270 -19.1257
-19.1249 -19.1229 -19.1219 -19.1201 -19.1153 -19.1105 -19.1092 -19.1079
-19.1068 -19.1066 -19.1063 -19.1060 -19.1004 -19.0988 -19.0959 -19.0959
-19.0945 -19.0944 -19.0942 -19.0924 -19.0919 -19.0820 -19.0643 -19.0571
-10.2390 -10.2370 -10.2364 -10.2362 -10.2351 -10.2346 -10.2342 -10.2339
-10.2321 -10.2320 -10.2315 -10.2269 -10.2198 -10.2195 -10.2173 -10.2161
-10.2155 -10.2154 -10.2145 -10.2128 -10.2116 -10.2109 -10.2103 -10.2101
-10.2084 -10.2081 -10.2081 -10.2076 -10.2069 -10.2051 -10.2050 -10.2030
-10.2025 -10.2008 -10.2004 -10.2004 -10.1991 -10.1969 -10.1934 -10.1931
-10.1918 -10.1904 -10.1898 -10.1896 -10.1875 -10.1864 -10.1858 -10.1857
-10.1805 -10.1778 -10.1767 -10.1756 -10.1746 -10.1736 -10.1664 -10.1646
 -8.0664  -8.0636  -8.0631  -8.0604  -8.0594  -8.0568  -8.0567  -8.0491
 -8.0461  -8.0411  -8.0395  -8.0389  -8.0365  -8.0348  -8.0348  -8.0342
 -8.0326  -8.0321  -8.0283  -8.0279  -8.0255  -8.0234  -8.0211  -8.0183
 -8.0089  -8.0084  -8.0041  -7.9963  -6.0306  -6.0292  -6.0278  -6.0274
 -6.0267  -6.0261  -6.0245  -6.0245  -6.0239  -6.0237  -6.0227  -6.0212
 -6.0212  -6.0211  -6.0204  -6.0199  -6.0198  -6.0180  -6.0166  -6.0142
 -6.0138  -6.0133  -6.0124  -6.0105  -6.0089  -6.0068  -6.0055  -6.0040
 -6.0040  -6.0037  -6.0031  -6.0027  -6.0021  -6.0010  -5.9997  -5.9992
 -5.9992  -5.9987  -5.9985  -5.9977  -5.9977  -5.9970  -5.9970  -5.9969
 -5.9963  -5.9961  -5.9957  -5.9951  -5.9939  -5.9927  -5.9926  -5.9925
 -5.9923  -5.9916  -5.9912  -5.9912  -5.9900  -5.9898  -5.9898  -5.9886
 -5.9878  -5.9863  -5.9856  -5.9856  -5.9851  -5.9844  -5.9828  -5.9827
 -5.9816  -5.9811  -5.9784  -5.9757  -5.9732  -5.9729  -5.9718  -5.9718
 -5.9684  -5.9673  -5.9666  -5.9652  -5.9619  -5.9606  -5.9594  -5.9535
 -1.0448  -1.0428  -1.0400  -1.0397  -1.0362  -1.0351  -1.0343  -1.0281
 -1.0272  -1.0266  -1.0187  -1.0169  -1.0154  -1.0135  -1.0131  -1.0122
 -1.0108  -1.0106  -1.0101  -1.0092  -1.0080  -1.0029  -1.0002  -0.9983
 -0.9939  -0.9920  -0.9767  -0.9723  -0.8223  -0.8188  -0.8160  -0.8156
 -0.8153  -0.8151  -0.8138  -0.8047  -0.8020  -0.7999  -0.7976  -0.7966
 -0.7960  -0.7942  -0.7937  -0.7908  -0.7885  -0.7877  -0.7848  -0.7815
 -0.7782  -0.7758  -0.7738  -0.7729  -0.7709  -0.7667  -0.7585  -0.7490
 -0.7480  -0.7476  -0.7464  -0.7448  -0.7438  -0.7389  -0.7325  -0.7302
 -0.7262  -0.7233  -0.7203  -0.7188  -0.7175  -0.7171  -0.7157  -0.7141
 -0.7138  -0.7133  -0.7108  -0.7083  -0.7063  -0.7046  -0.6986  -0.6968
 -0.6936  -0.6899  -0.6856  -0.6795  -0.6351  -0.6333  -0.6301  -0.6292
 -0.6279  -0.6246  -0.6224  -0.6172  -0.6113  -0.6077  -0.6074  -0.6072
 -0.6032  -0.6021  -0.6019  -0.6007  -0.6002  -0.5969  -0.5941  -0.5928
 -0.5911  -0.5887  -0.5878  -0.5866  -0.5796  -0.5749  -0.5683  -0.5678
 -0.5057  -0.5025  -0.4977  -0.4975  -0.4969  -0.4955  -0.4907  -0.4905
 -0.4897  -0.4890  -0.4878  -0.4874  -0.4860  -0.4852  -0.4838  -0.4822
 -0.4821  -0.4817  -0.4801  -0.4789  -0.4783  -0.4779  -0.4775  -0.4763
 -0.4759  -0.4749  -0.4746  -0.4737  -0.4735  -0.4722  -0.4718  -0.4711
 -0.4703  -0.4697  -0.4687  -0.4676  -0.4675  -0.4645  -0.4641  -0.4639
 -0.4630  -0.4627  -0.4624  -0.4604  -0.4598  -0.4583  -0.4580  -0.4578
 -0.4568  -0.4564  -0.4561  -0.4551  -0.4544  -0.4537  -0.4534  -0.4529
 -0.4525  -0.4520  -0.4508  -0.4504  -0.4496  -0.4489  -0.4483  -0.4475
 -0.4473  -0.4469  -0.4464  -0.4462  -0.4453  -0.4444  -0.4431  -0.4430
 -0.4427  -0.4416  -0.4411  -0.4394  -0.4388  -0.4379  -0.4370  -0.4359
 -0.4353  -0.4341  -0.4340  -0.4336  -0.4327  -0.4317  -0.4303  -0.4301
 -0.4298  -0.4293  -0.4290  -0.4273  -0.4266  -0.4243  -0.4241  -0.4236
 -0.4229  -0.4222  -0.4221  -0.4218  -0.4213  -0.4209  -0.4199  -0.4197
 -0.4185  -0.4174  -0.4170  -0.4156  -0.4152  -0.4141  -0.4139  -0.4135
 -0.4129  -0.4116  -0.4114  -0.4109  -0.4099  -0.4087  -0.4077  -0.4069
 -0.4054  -0.4045  -0.4043  -0.4029  -0.4014  -0.4009  -0.4001  -0.3996
 -0.3993  -0.3988  -0.3980  -0.3968  -0.3964  -0.3959  -0.3954  -0.3949
 -0.3938  -0.3937  -0.3930  -0.3919  -0.3909  -0.3900  -0.3887  -0.3875
 -0.3869  -0.3858  -0.3858  -0.3855  -0.3843  -0.3840  -0.3834  -0.3829
 -0.3816  -0.3806  -0.3796  -0.3794  -0.3788  -0.3786  -0.3769  -0.3751
 -0.3741  -0.3728  -0.3724  -0.3718  -0.3706  -0.3704  -0.3673  -0.3652
 -0.3643  -0.3638  -0.3623  -0.3611  -0.3581  -0.3570  -0.3560  -0.3555
 -0.3543  -0.3541  -0.3540  -0.3537  -0.3530  -0.3524  -0.3515  -0.3509
 -0.3492  -0.3457  -0.3439  -0.3430  -0.3421  -0.3404  -0.3397  -0.3386
 -0.3293  -0.3262  -0.3184  -0.3136  -0.2970  -0.2919  -0.2881  -0.2876
 -0.2863  -0.2818  -0.2798  -0.2776  -0.2729  -0.2708  -0.2703  -0.2686
 -0.2683  -0.2673  -0.2671  -0.2657  -0.2647  -0.2635  -0.2593  -0.2587
 -0.2573  -0.2570  -0.2559  -0.2559  -0.2545  -0.2543  -0.2536  -0.2532
 -0.2532  -0.2529  -0.2525  -0.2492  -0.2446  -0.2432  -0.2424  -0.2410
 -0.2402  -0.2351  -0.2329  -0.2309  -0.2305  -0.2288  -0.2270  -0.2262
 -0.2262  -0.2259  -0.2238  -0.2234  -0.2165  -0.2162  -0.2134  -0.2121
 -0.2103  -0.1974  -0.1949  -0.1838 -13.4831 -10.3548 -11.0765 -10.2802
-15.7626 -10.9227 -10.1467 -10.4037 -11.6004  -0.6694  -0.6303  -0.7373
 -0.5818  -0.8319  -0.7473  -0.8589  -0.7679  -0.4027  -0.4213  -0.4505
 -0.5149  -0.4628  -0.3908  -0.4348  -0.4098  -0.4159  -0.4003  -0.3487
 -0.3763  -0.4213  -0.4773  -0.4745  -0.4132  -0.4884  -0.5053
 -- Virtual --
 -0.0392  -0.0365  -0.0294  -0.0287  -0.0227  -0.0212  -0.0195  -0.0180
 -0.0174  -0.0151  -0.0133  -0.0117  -0.0111  -0.0093  -0.0084  -0.0073
 -0.0059  -0.0046  -0.0035  -0.0023  -0.0014  -0.0004   0.0007   0.0017
  0.0036   0.0054   0.0060   0.0067   0.0068   0.0075   0.0080   0.0086
  0.0100   0.0107   0.0110   0.0122   0.0125   0.0128   0.0146   0.0151
  0.0153   0.0161   0.0170   0.0176   0.0179   0.0185   0.0189   0.0195
  0.0199   0.0203   0.0211   0.0218   0.0228   0.0239   0.0242   0.0246
  0.0251   0.0262   0.0269   0.0272   0.0284   0.0288   0.0294   0.0303
  0.0311   0.0312   0.0319   0.0328   0.0329   0.0337   0.0341   0.0345
  0.0351   0.0357   0.0366   0.0370   0.0378   0.0382   0.0389   0.0391
  0.0399   0.0412   0.0413   0.0419   0.0433   0.0441   0.0442   0.0451
  0.0456   0.0460   0.0462   0.0471   0.0475   0.0481   0.0485   0.0495
  0.0501   0.0510   0.0512   0.0516   0.0522   0.0531   0.0534   0.0546
  0.0549   0.0554   0.0559   0.0562   0.0572   0.0577   0.0580   0.0588
  0.0590   0.0606   0.0606   0.0611   0.0616   0.0623   0.0638   0.0643
  0.0650   0.0655   0.0661   0.0662   0.0677   0.0682   0.0686   0.0696
  0.0699   0.0705   0.0713   0.0721   0.0727   0.0727   0.0734   0.0740
  0.0745   0.0754   0.0757   0.0765   0.0771   0.0779   0.0789   0.0791
  0.0799   0.0802   0.0806   0.0815   0.0825   0.0827   0.0829   0.0839
  0.0848   0.0854   0.0856   0.0862   0.0878   0.0880   0.0884   0.0891
  0.0896   0.0904   0.0906   0.0911   0.0926   0.0930   0.0937   0.0941
  0.0949   0.0955   0.0957   0.0961   0.0972   0.0978   0.0986   0.0987
  0.0995   0.1001   0.1008   0.1018   0.1027   0.1030   0.1036   0.1041
  0.1048   0.1053   0.1064   0.1065   0.1072   0.1080   0.1084   0.1090
  0.1094   0.1102   0.1106   0.1110   0.1125   0.1130   0.1138   0.1143
  0.1148   0.1154   0.1163   0.1165   0.1169   0.1175   0.1177   0.1184
  0.1198   0.1201   0.1207   0.1213   0.1222   0.1224   0.1229   0.1236
  0.1237   0.1246   0.1250   0.1256   0.1266   0.1270   0.1277   0.1278
  0.1280   0.1294   0.1301   0.1304   0.1309   0.1315   0.1320   0.1338
  0.1343   0.1349   0.1352   0.1358   0.1369   0.1372   0.1376   0.1386
  0.1389   0.1394   0.1403   0.1409   0.1413   0.1417   0.1423   0.1430
  0.1436   0.1444   0.1453   0.1456   0.1458   0.1464   0.1471   0.1474
  0.1481   0.1486   0.1496   0.1507   0.1512   0.1513   0.1517   0.1521
  0.1531   0.1535   0.1542   0.1544   0.1552   0.1557   0.1563   0.1569
  0.1583   0.1585   0.1588   0.1599   0.1602   0.1604   0.1608   0.1612
  0.1621   0.1625   0.1631   0.1634   0.1639   0.1647   0.1654   0.1662
  0.1669   0.1672   0.1685   0.1692   0.1694   0.1700   0.1712   0.1714
  0.1720   0.1723   0.1729   0.1735   0.1742   0.1752   0.1759   0.1768
  0.1770   0.1777   0.1787   0.1794   0.1800   0.1807   0.1810   0.1814
  0.1818   0.1820   0.1835   0.1837   0.1844   0.1852   0.1859   0.1863
  0.1866   0.1874   0.1878   0.1887   0.1892   0.1897   0.1902   0.1911
  0.1917   0.1924   0.1926   0.1929   0.1932   0.1936   0.1938   0.1956
  0.1960   0.1964   0.1976   0.1979   0.1982   0.1986   0.1992   0.1999
  0.2004   0.2009   0.2015   0.2020   0.2032   0.2033   0.2038   0.2044
  0.2048   0.2051   0.2060   0.2063   0.2070   0.2081   0.2082   0.2086
  0.2092   0.2099   0.2110   0.2111   0.2118   0.2127   0.2132   0.2135
  0.2146   0.2148   0.2154   0.2157   0.2169   0.2171   0.2174   0.2180
  0.2187   0.2197   0.2203   0.2204   0.2214   0.2225   0.2227   0.2231
  0.2243   0.2246   0.2248   0.2253   0.2260   0.2271   0.2279   0.2287
  0.2289   0.2294   0.2299   0.2303   0.2310   0.2318   0.2326   0.2328
  0.2338   0.2350   0.2351   0.2357   0.2368   0.2370   0.2373   0.2378
  0.2385   0.2397   0.2408   0.2410   0.2415   0.2421   0.2431   0.2436
  0.2438   0.2451   0.2457   0.2458   0.2467   0.2470   0.2486   0.2491
  0.2496   0.2501   0.2502   0.2504   0.2510   0.2520   0.2526   0.2534
  0.2541   0.2550   0.2553   0.2562   0.2564   0.2574   0.2581   0.2587
  0.2593   0.2599   0.2610   0.2614   0.2619   0.2627   0.2633   0.2636
  0.2643   0.2645   0.2652   0.2658   0.2667   0.2675   0.2683   0.2688
  0.2699   0.2705   0.2706   0.2717   0.2723   0.2728   0.2737   0.2741
  0.2743   0.2752   0.2761   0.2767   0.2771   0.2773   0.2789   0.2796
  0.2797   0.2814   0.2822   0.2826   0.2838   0.2841   0.2849   0.2856
  0.2871   0.2884   0.2885   0.2891   0.2904   0.2907   0.2910   0.2916
  0.2919   0.2926   0.2933   0.2942   0.2949   0.2962   0.2965   0.2972
  0.2987   0.2994   0.2997   0.3001   0.3003   0.3019   0.3031   0.3035
  0.3037   0.3051   0.3057   0.3070   0.3082   0.3086   0.3095   0.3099
  0.3107   0.3115   0.3121   0.3131   0.3137   0.3146   0.3153   0.3156
  0.3177   0.3178   0.3189   0.3202   0.3202   0.3218   0.3222   0.3230
  0.3238   0.3247   0.3258   0.3265   0.3268   0.3277   0.3288   0.3301
  0.3313   0.3315   0.3322   0.3326   0.3339   0.3346   0.3353   0.3359
  0.3372   0.3377   0.3382   0.3395   0.3405   0.3413   0.3418   0.3428
  0.3434   0.3444   0.3448   0.3458   0.3472   0.3479   0.3485   0.3499
  0.3503   0.3514   0.3523   0.3525   0.3540   0.3543   0.3550   0.3557
  0.3563   0.3570   0.3576   0.3585   0.3588   0.3595   0.3610   0.3625
  0.3628   0.3635   0.3650   0.3651   0.3661   0.3666   0.3672   0.3687
  0.3700   0.3704   0.3713   0.3724   0.3729   0.3743   0.3749   0.3752
  0.3765   0.3776   0.3779   0.3789   0.3794   0.3807   0.3809   0.3821
  0.3829   0.3839   0.3847   0.3851   0.3859   0.3862   0.3878   0.3891
  0.3896   0.3904   0.3908   0.3923   0.3927   0.3933   0.3938   0.3950
  0.3957   0.3964   0.3975   0.3980   0.3985   0.3994   0.4011   0.4013
  0.4026   0.4038   0.4044   0.4062   0.4073   0.4075   0.4086   0.4093
  0.4095   0.4111   0.4115   0.4126   0.4132   0.4141   0.4156   0.4164
  0.4170   0.4181   0.4193   0.4201   0.4204   0.4211   0.4215   0.4235
  0.4247   0.4252   0.4257   0.4271   0.4277   0.4282   0.4286   0.4312
  0.4316   0.4334   0.4335   0.4352   0.4359   0.4378   0.4386   0.4400
  0.4404   0.4422   0.4428   0.4432   0.4439   0.4447   0.4456   0.4474
  0.4492   0.4501   0.4508   0.4519   0.4527   0.4535   0.4548   0.4557
  0.4569   0.4585   0.4588   0.4604   0.4622   0.4641   0.4648   0.4653
  0.4659   0.4667   0.4682   0.4699   0.4711   0.4722   0.4728   0.4740
  0.4744   0.4759   0.4774   0.4790   0.4796   0.4815   0.4836   0.4843
  0.4843   0.4857   0.4870   0.4892   0.4900   0.4913   0.4935   0.4944
  0.4948   0.4965   0.4988   0.5002   0.5007   0.5028   0.5042   0.5049
  0.5069   0.5086   0.5093   0.5108   0.5127   0.5144   0.5160   0.5168
  0.5185   0.5198   0.5206   0.5215   0.5229   0.5250   0.5262   0.5289
  0.5291   0.5301   0.5305   0.5323   0.5329   0.5334   0.5366   0.5371
  0.5381   0.5395   0.5405   0.5422   0.5441   0.5450   0.5461   0.5473
  0.5490   0.5508   0.5518   0.5531   0.5550   0.5554   0.5582   0.5602
  0.5608   0.5623   0.5660   0.5665   0.5670   0.5681   0.5693   0.5706
  0.5739   0.5756   0.5759   0.5763   0.5782   0.5786   0.5817   0.5834
  0.5838   0.5855   0.5864   0.5881   0.5883   0.5895   0.5909   0.5910
  0.5933   0.5939   0.5957   0.5971   0.5979   0.6003   0.6010   0.6015
  0.6033   0.6054   0.6066   0.6077   0.6089   0.6101   0.6121   0.6130
  0.6140   0.6149   0.6155   0.6170   0.6171   0.6203   0.6214   0.6218
  0.6230   0.6240   0.6263   0.6269   0.6278   0.6305   0.6315   0.6327
  0.6329   0.6353   0.6367   0.6373   0.6377   0.6384   0.6398   0.6420
  0.6433   0.6439   0.6451   0.6460   0.6464   0.6469   0.6480   0.6508
  0.6518   0.6526   0.6530   0.6549   0.6559   0.6564   0.6583   0.6592
  0.6598   0.6600   0.6616   0.6628   0.6634   0.6655   0.6662   0.6671
  0.6678   0.6694   0.6701   0.6710   0.6716   0.6724   0.6727   0.6739
  0.6755   0.6761   0.6788   0.6796   0.6803   0.6812   0.6821   0.6836
  0.6839   0.6851   0.6854   0.6873   0.6880   0.6887   0.6904   0.6904
  0.6911   0.6919   0.6937   0.6948   0.6956   0.6964   0.6981   0.6990
  0.7003   0.7015   0.7028   0.7034   0.7039   0.7048   0.7058   0.7082
  0.7091   0.7093   0.7115   0.7121   0.7147   0.7176   0.7179   0.7185
  0.7204   0.7216   0.7232   0.7239   0.7251   0.7260   0.7284   0.7296
  0.7299   0.7321   0.7325   0.7340   0.7346   0.7363   0.7376   0.7382
  0.7388   0.7418   0.7427   0.7447   0.7450   0.7454   0.7475   0.7492
  0.7501   0.7516   0.7531   0.7548   0.7562   0.7568   0.7577   0.7599
  0.7610   0.7619   0.7630   0.7652   0.7665   0.7666   0.7681   0.7699
  0.7709   0.7716   0.7729   0.7737   0.7774   0.7782   0.7811   0.7828
  0.7836   0.7852   0.7863   0.7873   0.7901   0.7919   0.7921   0.7931
  0.7953   0.7973   0.7977   0.7992   0.8015   0.8036   0.8041   0.8058
  0.8068   0.8085   0.8109   0.8121   0.8136   0.8142   0.8154   0.8163
  0.8178   0.8197   0.8205   0.8219   0.8230   0.8251   0.8263   0.8283
  0.8288   0.8295   0.8310   0.8327   0.8333   0.8348   0.8351   0.8362
  0.8375   0.8383   0.8389   0.8403   0.8415   0.8418   0.8447   0.8451
  0.8464   0.8468   0.8487   0.8491   0.8515   0.8524   0.8540   0.8553
  0.8560   0.8567   0.8573   0.8578   0.8602   0.8610   0.8630   0.8643
  0.8652   0.8666   0.8673   0.8680   0.8701   0.8713   0.8723   0.8737
  0.8738   0.8770   0.8779   0.8792   0.8807   0.8815   0.8831   0.8852
  0.8858   0.8870   0.8886   0.8891   0.8904   0.8927   0.8933   0.8943
  0.8950   0.8963   0.8975   0.8987   0.8995   0.9015   0.9016   0.9027
  0.9030   0.9054   0.9063   0.9079   0.9098   0.9110   0.9114   0.9126
  0.9133   0.9154   0.9166   0.9170   0.9192   0.9195   0.9226   0.9234
  0.9250   0.9254   0.9264   0.9277   0.9297   0.9308   0.9313   0.9323
  0.9344   0.9357   0.9368   0.9383   0.9390   0.9397   0.9412   0.9420
  0.9436   0.9442   0.9450   0.9460   0.9468   0.9486   0.9499   0.9516
  0.9527   0.9534   0.9541   0.9557   0.9564   0.9575   0.9592   0.9594
  0.9608   0.9622   0.9630   0.9633   0.9652   0.9659   0.9671   0.9683
  0.9700   0.9708   0.9717   0.9730   0.9744   0.9749   0.9752   0.9773
  0.9782   0.9791   0.9807   0.9823   0.9829   0.9838   0.9850   0.9860
  0.9873   0.9882   0.9893   0.9900   0.9908   0.9924   0.9933   0.9939
  0.9948   0.9960   0.9979   1.0000   1.0006   1.0017   1.0020   1.0029
  1.0045   1.0055   1.0060   1.0071   1.0080   1.0087   1.0097   1.0105
  1.0121   1.0127   1.0141   1.0151   1.0164   1.0167   1.0188   1.0207
  1.0212   1.0224   1.0243   1.0248   1.0250   1.0274   1.0281   1.0289
  1.0300   1.0311   1.0312   1.0326   1.0344   1.0347   1.0359   1.0362
  1.0376   1.0390   1.0392   1.0412   1.0418   1.0437   1.0444   1.0457
  1.0472   1.0473   1.0486   1.0496   1.0499   1.0520   1.0532   1.0545
  1.0555   1.0558   1.0566   1.0583   1.0589   1.0604   1.0615   1.0625
  1.0640   1.0653   1.0663   1.0673   1.0678   1.0692   1.0697   1.0723
  1.0733   1.0751   1.0757   1.0772   1.0783   1.0804   1.0808   1.0819
  1.0827   1.0835   1.0851   1.0866   1.0877   1.0887   1.0901   1.0925
  1.0930   1.0951   1.0961   1.0977   1.0988   1.0992   1.1012   1.1020
  1.1032   1.1051   1.1055   1.1066   1.1086   1.1110   1.1124   1.1134
  1.1151   1.1158   1.1168   1.1180   1.1196   1.1222   1.1229   1.1237
  1.1259   1.1272   1.1296   1.1303   1.1313   1.1317   1.1329   1.1340
  1.1350   1.1364   1.1380   1.1396   1.1412   1.1419   1.1432   1.1442
  1.1450   1.1461   1.1481   1.1488   1.1505   1.1514   1.1519   1.1546
  1.1550   1.1570   1.1573   1.1578   1.1602   1.1614   1.1632   1.1641
  1.1668   1.1686   1.1695   1.1700   1.1713   1.1726   1.1739   1.1755
  1.1762   1.1776   1.1787   1.1793   1.1814   1.1822   1.1839   1.1849
  1.1858   1.1867   1.1873   1.1896   1.1897   1.1936   1.1938   1.1955
  1.1962   1.1994   1.2001   1.2013   1.2030   1.2033   1.2054   1.2072
  1.2087   1.2090   1.2117   1.2145   1.2161   1.2167   1.2195   1.2216
  1.2234   1.2244   1.2263   1.2289   1.2307   1.2341   1.2356   1.2363
  1.2371   1.2406   1.2426   1.2431   1.2443   1.2477   1.2481   1.2509
  1.2542   1.2558   1.2578   1.2589   1.2594   1.2632   1.2635   1.2655
  1.2688   1.2709   1.2718   1.2741   1.2744   1.2770   1.2788   1.2807
  1.2838   1.2854   1.2869   1.2896   1.2918   1.2932   1.2951   1.2963
  1.2982   1.3001   1.3021   1.3034   1.3040   1.3084   1.3123   1.3137
  1.3148   1.3160   1.3190   1.3199   1.3230   1.3286   1.3294   1.3305
  1.3325   1.3341   1.3352   1.3377   1.3410   1.3419   1.3425   1.3468
  1.3477   1.3502   1.3512   1.3523   1.3531   1.3561   1.3575   1.3581
  1.3615   1.3620   1.3630   1.3646   1.3658   1.3686   1.3703   1.3707
  1.3722   1.3729   1.3751   1.3779   1.3806   1.3815   1.3828   1.3843
  1.3860   1.3866   1.3868   1.3897   1.3925   1.3943   1.3959   1.3979
  1.3989   1.4019   1.4058   1.4061   1.4064   1.4079   1.4088   1.4115
  1.4133   1.4149   1.4162   1.4173   1.4184   1.4206   1.4214   1.4226
  1.4247   1.4249   1.4268   1.4281   1.4298   1.4314   1.4329   1.4341
  1.4359   1.4371   1.4392   1.4405   1.4421   1.4429   1.4447   1.4458
  1.4464   1.4474   1.4500   1.4508   1.4524   1.4537   1.4553   1.4571
  1.4588   1.4614   1.4632   1.4636   1.4651   1.4663   1.4671   1.4692
  1.4701   1.4724   1.4735   1.4744   1.4784   1.4798   1.4806   1.4817
  1.4833   1.4844   1.4870   1.4879   1.4888   1.4910   1.4918   1.4944
  1.4947   1.4985   1.5011   1.5026   1.5056   1.5064   1.5076   1.5100
  1.5111   1.5129   1.5130   1.5158   1.5171   1.5193   1.5205   1.5223
  1.5254   1.5265   1.5295   1.5318   1.5344   1.5351   1.5399   1.5420
  1.5438   1.5452   1.5475   1.5482   1.5511   1.5567   1.5584   1.5596
  1.5611   1.5620   1.5651   1.5682   1.5715   1.5737   1.5766   1.5802
  1.5832   1.5858   1.5875   1.5920   1.5939   1.5968   1.6015   1.6040
  1.6078   1.6120   1.6145   1.6201   1.6262   1.6276   1.6295   1.6328
  1.6340   1.6374   1.6387   1.6411   1.6469   1.6524   1.6543   1.6564
  1.6601   1.6612   1.6627   1.6636   1.6673   1.6711   1.6737   1.6744
  1.6764   1.6774   1.6794   1.6824   1.6845   1.6854   1.6869   1.6887
  1.6894   1.6905   1.6914   1.6924   1.6935   1.6952   1.6958   1.6965
  1.6977   1.6998   1.7001   1.7020   1.7031   1.7043   1.7062   1.7070
  1.7089   1.7095   1.7100   1.7116   1.7117   1.7131   1.7136   1.7159
  1.7172   1.7188   1.7201   1.7216   1.7232   1.7251   1.7260   1.7274
  1.7287   1.7323   1.7326   1.7344   1.7361   1.7368   1.7378   1.7387
  1.7390   1.7408   1.7426   1.7432   1.7443   1.7450   1.7463   1.7478
  1.7496   1.7507   1.7517   1.7532   1.7546   1.7554   1.7572   1.7576
  1.7584   1.7597   1.7621   1.7629   1.7639   1.7662   1.7668   1.7689
  1.7705   1.7716   1.7735   1.7755   1.7756   1.7772   1.7795   1.7810
  1.7822   1.7836   1.7852   1.7859   1.7883   1.7892   1.7906   1.7926
  1.7932   1.7947   1.7957   1.7980   1.7995   1.8001   1.8027   1.8054
  1.8079   1.8088   1.8121   1.8155   1.8199   1.8221   1.8239   1.8251
  1.8282   1.8288   1.8328   1.8346   1.8365   1.8382   1.8442   1.8465
  1.8477   1.8510   1.8529   1.8568   1.8573   1.8612   1.8620   1.8628
  1.8651   1.8661   1.8671   1.8697   1.8711   1.8725   1.8747   1.8764
  1.8790   1.8812   1.8826   1.8853   1.8858   1.8872   1.8895   1.8904
  1.8921   1.8930   1.8936   1.8962   1.8972   1.8988   1.8994   1.9025
  1.9029   1.9045   1.9069   1.9081   1.9083   1.9095   1.9118   1.9129
  1.9144   1.9154   1.9161   1.9165   1.9185   1.9212   1.9214   1.9230
  1.9239   1.9244   1.9260   1.9278   1.9287   1.9294   1.9313   1.9342
  1.9346   1.9363   1.9367   1.9386   1.9407   1.9421   1.9435   1.9454
  1.9465   1.9474   1.9500   1.9516   1.9525   1.9533   1.9584   1.9598
  1.9615   1.9626   1.9654   1.9687   1.9700   1.9741   1.9761   1.9769
  1.9809   1.9856   1.9879   1.9903   1.9972   1.9998   2.0101   2.0126
  2.0181   2.0254   2.0273   2.0322   2.0420   2.0461   2.0525   2.0533
  2.0555   2.0586   2.0591   2.0595   2.0603   2.0643   2.0649   2.0685
  2.0698   2.0713   2.0726   2.0735   2.0794   2.0807   2.0824   2.0826
  2.0833   2.0850   2.0853   2.0862   2.0881   2.0887   2.0893   2.0909
  2.0911   2.0930   2.0945   2.0952   2.0976   2.0989   2.1003   2.1014
  2.1019   2.1037   2.1054   2.1059   2.1067   2.1093   2.1102   2.1111
  2.1120   2.1135   2.1151   2.1156   2.1215   2.1229   2.1252   2.1281
  2.1296   2.1314   2.1336   2.1373   2.1391   2.1423   2.1450   2.1465
  2.1523   2.1536   2.1567   2.1633   2.1680   2.1715   2.1721   2.1725
  2.1738   2.1794   2.1810   2.1830   2.1882   2.1893   2.1909   2.1911
  2.1925   2.1957   2.1982   2.1992   2.2012   2.2032   2.2045   2.2120
  2.2175   2.2201   2.2209   2.2216   2.2227   2.2233   2.2251   2.2268
  2.2273   2.2282   2.2296   2.2305   2.2309   2.2321   2.2337   2.2344
  2.2357   2.2379   2.2384   2.2392   2.2406   2.2430   2.2442   2.2453
  2.2466   2.2474   2.2480   2.2495   2.2506   2.2517   2.2542   2.2548
  2.2557   2.2564   2.2581   2.2589   2.2594   2.2608   2.2613   2.2624
  2.2635   2.2643   2.2650   2.2662   2.2667   2.2682   2.2687   2.2689
  2.2699   2.2712   2.2717   2.2727   2.2735   2.2743   2.2753   2.2775
  2.2785   2.2792   2.2797   2.2806   2.2820   2.2830   2.2837   2.2843
  2.2863   2.2881   2.2890   2.2894   2.2905   2.2909   2.2919   2.2927
  2.2930   2.2944   2.2951   2.2964   2.2973   2.2975   2.2987   2.2996
  2.3005   2.3021   2.3035   2.3045   2.3052   2.3062   2.3076   2.3092
  2.3101   2.3115   2.3132   2.3135   2.3145   2.3154   2.3168   2.3172
  2.3199   2.3210   2.3216   2.3224   2.3263   2.3276   2.3282   2.3294
  2.3301   2.3321   2.3327   2.3357   2.3360   2.3379   2.3386   2.3405
  2.3422   2.3429   2.3445   2.3474   2.3480   2.3488   2.3495   2.3498
  2.3521   2.3535   2.3555   2.3575   2.3584   2.3591   2.3629   2.3642
  2.3653   2.3670   2.3689   2.3706   2.3729   2.3751   2.3770   2.3783
  2.3792   2.3815   2.3834   2.3846   2.3870   2.3877   2.3898   2.3913
  2.3960   2.3994   2.4016   2.4062   2.4079   2.4096   2.4136   2.4193
  2.4193   2.4252   2.4305   2.4317   2.4365   2.4501   2.4844   2.4872
  2.5024   2.5469   2.5623   2.5914   2.6856   2.7556   2.7662   2.7939
  2.8251   2.8328   2.8392   2.8411   2.8422   2.8459   2.8467   2.8475
  2.8479   2.8493   2.8528   2.8541   2.8570   2.8583   2.8594   2.8607
  2.8630   2.8671   2.8704   2.8728   2.8758   2.8803   2.8828   2.8835
  2.8865   2.8918   2.8937   2.8992   2.9021   2.9060   2.9104   2.9200
  2.9719   3.1196   3.2783   3.9479   3.9537   3.9623   3.9656   3.9761
  3.9779   3.9802   3.9845   3.9875   3.9893   3.9902   3.9917   3.9942
  3.9958   4.0040   4.0052   4.0062   4.0124   4.0155   4.0166   4.0196
  4.0204   4.0243   4.0297   4.0324   4.0355   4.0440   4.0475   4.2071
  4.2229   4.2287   4.2366   4.2379   4.2458   4.2520   4.2554   4.2569
  4.2623   4.2628   4.2647   4.2676   4.2695   4.2711   4.2758   4.2802
  4.2820   4.2843   4.2882   4.2896   4.2928   4.2950   4.2956   4.2996
  4.3000   4.3016   4.3030   4.3048   4.3078   4.3094   4.3119   4.3188
  4.3200   4.3215   4.3244   4.3273   4.3295   4.3340   4.3347   4.3359
  4.3372   4.3404   4.3448   4.3467   4.3499   4.3536   4.3553   4.3577
  4.3625   4.3666   4.3692   4.3741   4.3751   4.3772   4.3813   4.3834
  4.3866   4.3904   4.3925   4.3963   4.3982   4.4033   4.4048   4.4083
  4.4102   4.4158   4.4221   4.4255   4.4319   4.4389   4.4411   4.4442
  4.4610   4.4650   4.4684   4.4872   4.4961   4.5077   4.5155   4.5181
  4.5574   4.5659   4.5807   4.5926   4.6212   4.6509   4.6822   4.7250
  4.7445   4.7613   4.8070   4.9342
 --------------------------------------------------------------

          Ground-State Mulliken Net Atomic Charges

     Atom                 Charge (a.u.)
  ----------------------------------------
      1 C                    -0.525227
      2 C                    -0.286547
      3 C                    -0.851677
      4 C                     0.216976
      5 C                    -0.050732
      6 C                    -0.987836
      7 H                     0.248425
      8 H                     0.211843
      9 H                     0.213896
     10 H                     0.230439
     11 H                     0.219931
     12 H                     0.199370
     13 H                     0.220222
     14 H                     0.227039
     15 H                     0.244719
     16 H                     0.241070
     17 H                     0.194714
     18 N                     0.234714
     19 H                     0.454376
     20 C                    -0.544414
     21 H                     0.196216
     22 O                    -0.220581
     23 C                    -0.779090
     24 H                     0.277675
     25 H                     0.235873
     26 H                     0.257494
     27 S                     0.947322
     28 C                    -0.975560
     29 H                     0.278551
     30 H                     0.243226
     31 H                     0.266619
     32 O                    -0.669964
     33 C                    -0.841475
     34 H                     0.242571
     35 H                     0.226540
     36 H                     0.317758
     37 S                     0.954742
     38 C                    -0.810151
     39 H                     0.237407
     40 H                     0.241114
     41 H                     0.287655
     42 O                    -0.781588
     43 C                    -0.789498
     44 H                     0.229521
     45 H                     0.252197
     46 H                     0.253371
     47 S                     1.070524
     48 C                    -1.030153
     49 H                     0.248063
     50 H                     0.238081
     51 H                     0.240368
     52 O                    -0.635954
     53 C                    -0.751099
     54 H                     0.281999
     55 H                     0.276974
     56 H                     0.282076
     57 S                     0.616389
     58 C                    -0.824155
     59 H                     0.246902
     60 H                     0.283708
     61 H                     0.274876
     62 O                    -0.676770
     63 C                    -0.768896
     64 H                     0.245299
     65 H                     0.232024
     66 H                     0.220249
     67 S                     0.824886
     68 C                    -0.939213
     69 H                     0.241610
     70 H                     0.305422
     71 H                     0.291747
     72 O                    -0.711296
     73 C                    -0.899525
     74 H                     0.300088
     75 H                     0.260747
     76 H                     0.280841
     77 S                     0.977352
     78 C                    -0.997820
     79 H                     0.265934
     80 H                     0.240371
     81 H                     0.245636
     82 O                    -0.694722
     83 C                    -1.048447
     84 H                     0.244439
     85 H                     0.246326
     86 H                     0.259452
     87 S                     1.260223
     88 C                    -0.969588
     89 H                     0.292640
     90 H                     0.269714
     91 H                     0.285037
     92 O                    -0.743442
     93 C                    -0.939860
     94 H                     0.309106
     95 H                     0.272152
     96 H                     0.246010
     97 S                     0.650685
     98 C                    -0.805887
     99 H                     0.297674
    100 H                     0.307452
    101 H                     0.246935
    102 O                    -0.610353
    103 C                    -1.066212
    104 H                     0.267079
    105 H                     0.229576
    106 H                     0.278528
    107 S                     0.807120
    108 C                    -0.841154
    109 H                     0.269028
    110 H                     0.268465
    111 H                     0.243866
    112 O                    -0.517065
    113 C                    -1.127031
    114 H                     0.274096
    115 H                     0.272155
    116 H                     0.274898
    117 S                     0.813017
    118 C                    -0.724104
    119 H                     0.256751
    120 H                     0.229702
    121 H                     0.256126
    122 O                    -0.616753
    123 C                    -0.860082
    124 H                     0.246624
    125 H                     0.244944
    126 H                     0.260910
    127 S                     1.064968
    128 C                    -0.967930
    129 H                     0.235106
    130 H                     0.228161
    131 H                     0.335491
    132 O                    -0.709834
    133 C                    -1.070069
    134 H                     0.292355
    135 H                     0.275901
    136 H                     0.223451
    137 S                     1.361093
    138 C                    -1.331173
    139 H                     0.252302
    140 H                     0.288526
    141 H                     0.305564
    142 O                    -0.670160
    143 C                    -0.915078
    144 H                     0.237951
    145 H                     0.246712
    146 H                     0.259269
    147 S                     1.056726
    148 C                    -1.013023
    149 H                     0.253684
    150 H                     0.229508
    151 H                     0.319203
    152 O                    -0.729802
    153 C                    -0.994232
    154 H                     0.263707
    155 H                     0.240378
    156 H                     0.274950
    157 S                     1.138716
    158 C                    -1.003029
    159 H                     0.273072
    160 H                     0.248860
    161 H                     0.226077
    162 O                    -0.699299
    163 C                    -0.842928
    164 H                     0.230537
    165 H                     0.264598
    166 H                     0.242064
    167 S                     0.744285
    168 C                    -0.719564
    169 H                     0.245143
    170 H                     0.263903
    171 H                     0.271076
    172 O                    -0.687205
    173 C                    -0.702160
    174 H                     0.243731
    175 H                     0.249563
    176 H                     0.247206
    177 S                     0.172738
    178 C                    -0.632315
    179 H                     0.308098
    180 H                     0.255940
    181 H                     0.270137
    182 O                    -0.479973
    183 C                    -0.712579
    184 H                     0.270852
    185 H                     0.215386
    186 H                     0.264981
    187 S                     0.688856
    188 C                    -0.765461
    189 H                     0.247556
    190 H                     0.272667
    191 H                     0.233733
    192 O                    -0.703003
    193 C                    -0.733414
    194 H                     0.262748
    195 H                     0.242063
    196 H                     0.240616
    197 S                     0.536825
    198 C                    -0.784897
    199 H                     0.239286
    200 H                     0.301766
    201 H                     0.237111
    202 O                    -0.534783
    203 C                    -0.737122
    204 H                     0.262075
    205 H                     0.209082
    206 H                     0.282054
    207 S                     0.876710
    208 C                    -0.888411
    209 H                     0.242988
    210 H                     0.271755
    211 H                     0.247141
    212 O                    -0.745512
    213 C                    -0.965064
    214 H                     0.272109
    215 H                     0.210991
    216 H                     0.305859
    217 S                     0.934621
    218 C                    -1.123638
    219 H                     0.250915
    220 H                     0.296963
    221 H                     0.258489
    222 O                    -0.522232
    223 C                    -0.722418
    224 H                     0.216436
    225 H                     0.277049
    226 H                     0.233860
    227 S                     0.798108
    228 C                    -0.839369
    229 H                     0.220038
    230 H                     0.264445
    231 H                     0.273806
    232 O                    -0.779896
    233 C                    -0.857770
    234 H                     0.253020
    235 H                     0.229789
    236 H                     0.265214
    237 S                     0.907423
    238 C                    -0.812847
    239 H                     0.272050
    240 H                     0.195649
    241 H                     0.256402
    242 O                    -0.685318
    243 C                    -0.763186
    244 H                     0.210224
    245 H                     0.270179
    246 H                     0.285719
    247 S                     0.764619
    248 C                    -0.823597
    249 H                     0.279256
    250 H                     0.286026
    251 H                     0.245818
    252 O                    -0.672178
    253 C                    -0.965632
    254 H                     0.290336
    255 H                     0.232663
    256 H                     0.235825
    257 S                     1.010385
    258 C                    -0.872665
    259 H                     0.228342
    260 H                     0.297523
    261 H                     0.235410
    262 O                    -0.681251
    263 C                    -0.939368
    264 H                     0.254419
[...]
    2   1.4298540   1.5938508  -0.4121335   2.9590304   2.4594253   0.3026132
    3  -2.6322399  -4.0843621  -1.6658028  -1.8663298  -1.7133861  -1.6727082
          229         230         231         232         233         234
    1   2.7983826   4.0345787   1.2899204   0.9342089  -1.5909673  -0.1027487
    2   0.7842928   0.5970543  -0.4533300   1.8309302  -1.3407924  -2.4587973
    3  -3.5326068  -0.0559626  -1.7827650   1.1692421   2.7863595   2.9424157
          235         236         237         238         239         240
    1  -2.3027745  -3.2045007  -1.2356445  -3.5309514  -4.1740780  -2.9625500
    2   0.5049185  -2.4644699  -1.1536564  -0.6614554  -2.0350927   0.7491641
    3   2.7495332   2.5240869   0.5589281   0.2281684   0.9957458   1.4762325
          241         242         243         244         245         246
    1  -3.1336410  -2.2328167   0.0182266  -0.6085805   1.1745209  -0.7205644
    2  -0.8414380  -4.0169136   2.6875933   3.7506808   0.7628678   3.3180663
    3  -1.9292813  -0.1445588   0.2810560   1.6847319   0.2369128  -1.3383537
          247         248         249         250         251         252
    1  -1.7675651  -0.8123041  -2.4242647   0.9655448  -1.2837597  -1.1611140
    2   2.3979522   0.6862922   0.1625256  -0.1916571   2.3002772   0.2545670
    3   0.6240297   1.3496511   1.2657449   0.3629779   2.4295382  -1.8171976
          253         254         255         256         257         258
    1  -2.9846688  -1.6860773  -2.8304233  -4.3350173  -1.8925584  -0.8816453
    2   1.8189592   3.0017614  -0.1635298   1.6392320   1.3438260   0.1840948
    3  -1.9426792  -1.9339207  -3.3456157  -0.6849664  -0.4528603  -2.0983781
          259         260         261         262         263         264
    1  -2.2815211  -0.6425240  -0.0965723  -3.7932461   1.1021944   0.1818268
    2  -0.8078780   1.7299467  -0.9453252  -1.6012127   1.6645400   3.4905415
    3  -3.3542195  -2.1489821  -0.6444587  -0.8430710   2.4967434   1.8708145
          265         266         267         268         269         270
    1   1.3647849   1.8792549  -1.0721183  -1.1808233  -1.0260910  -2.9257958
    2   1.0987979   0.1138550   1.3956673   1.5102600   3.3532434   0.4780032
    3   4.2642251   1.4033888   1.6919630   3.4468615   2.4359668   2.9834469
          271         272         273         274         275         276
    1   0.2609710  -0.2497031  -0.0875071   0.6142005   0.6769284  -1.4645884
    2   0.3914771  -1.7197200  -3.3489968  -3.1633513  -4.6929179  -2.5119542
    3   4.3954242   3.1954277  -0.5658246  -2.3105889   0.3422373   0.2439060
          277         278         279         280         281         282
    1   1.0218539   0.3930062  -1.3190750   1.6401687   1.1260912   3.6762090
    2  -1.7713334  -0.3610639  -0.3088074   0.8675954  -1.5898255  -2.6641708
    3   0.4203261  -1.0824275  -0.4874030  -0.4201638  -2.4868502  -0.7502877
          283         284         285         286         287         288
    1  -0.5028294  -1.6378567  -1.3458632   1.0689817   0.5012172  -1.4484290
    2  -2.1677854  -2.0217457  -1.2801534  -2.7058837  -0.1674614   0.3797080
    3   2.1525894   3.8532209   0.2771766   2.0482563   2.4709361   2.1669743
          289         290         291         292         293         294
    1  -2.1476466  -0.2645666  -1.3400012   0.8643486  -2.3336064  -2.8241824
    2  -1.1574584   1.7574926   0.6258939   0.4116457   2.6832220   3.0079349
    3   3.5421739   2.2548877   0.1195451  -0.9630654   1.6771273   0.0236491
          295         296         297         298         299         300
    1  -3.0166182  -0.8158634  -0.1293057  -0.1565781   0.5808575   1.0292827
    2   1.1631559   3.9909158   1.9509542   2.6629653   3.8095877   0.6897690
    3   2.9226892   2.2412191   1.6319918  -0.3223436   0.5528715  -0.8363305
          301         302
    1  -1.9686412  -1.7213965
    2   2.9015869  -0.4093624
    3  -0.6602872   0.4345477
 EField
            1           2           3           4           5           6
    1  -0.0012820  -0.0008852  -0.0003025  -0.0027437  -0.0014603   0.0000918
    2  -0.0032429  -0.0037904  -0.0011753  -0.0005104  -0.0014663   0.0006820
    3  -0.0022178   0.0029161   0.0018391   0.0014287   0.0005631  -0.0024837
            7           8           9          10          11          12
    1  -0.0017301  -0.0041107   0.0005601  -0.0032549  -0.0036768  -0.0023673
    2  -0.0004152  -0.0040808  -0.0002787  -0.0072593   0.0011164   0.0023305
    3   0.0023713   0.0028791  -0.0039708  -0.0042044   0.0007085   0.0039965
           13          14          15          16          17          18
    1  -0.0036874  -0.0007350   0.0005445   0.0027611   0.0045704   0.0005982
    2  -0.0012843  -0.0061572   0.0017804   0.0047664   0.0029840  -0.0060315
    3  -0.0005994   0.0017936  -0.0046825  -0.0045258  -0.0007441   0.0094564
           19          20          21          22          23          24
    1   0.0001640  -0.0019341  -0.0031459  -0.0036024  -0.0037843   0.0127692
    2  -0.0033204  -0.0126524  -0.0156056  -0.0130272  -0.0024518  -0.0236041
    3   0.0112096   0.0103002   0.0100348   0.0045589  -0.0065706   0.0128282
           25          26          27          28          29          30
    1  -0.0359394   0.0054561  -0.0093477  -0.0024199   0.0221828  -0.0313808
    2  -0.0124770  -0.0121150   0.0037946   0.0063121  -0.0019384  -0.0054619
    3   0.0025972  -0.0357587   0.0608943  -0.0074947  -0.0232120  -0.0126978
           31          32          33          34          35          36
    1  -0.0025384   0.1023834  -0.0042083  -0.0186112   0.0272056  -0.0271878
    2   0.0224017  -0.0075881  -0.0107841  -0.0180147  -0.0217301   0.0024781
    3   0.0228751  -0.0372342   0.0048838  -0.0209901   0.0079274   0.0215258
           37          38          39          40          41          42
    1   0.0394492  -0.0014050   0.0286438   0.0042175  -0.0300704  -0.1024583
    2   0.0009860   0.0025705  -0.0129371   0.0327518  -0.0055913   0.0307916
    3  -0.0280400   0.0094791   0.0136548   0.0047100   0.0117863  -0.0204699
           43          44          45          46          47          48
    1  -0.0073036  -0.0182518  -0.0150363  -0.0052411   0.0412362   0.0004642
    2   0.0060769  -0.0209627   0.0248551  -0.0084013   0.0079862  -0.0035295
    3  -0.0028262   0.0150333  -0.0135773  -0.0279428  -0.0491978   0.0054596
           49          50          51          52          53          54
    1   0.0231330  -0.0220583  -0.0029888   0.0015017  -0.0066307  -0.0314119
    2  -0.0098931  -0.0133796  -0.0200440   0.0634963  -0.0100690  -0.0201650
    3   0.0218954   0.0215894  -0.0252815   0.0891233  -0.0015275   0.0171970
           55          56          57          58          59          60
    1  -0.0117359   0.0233012   0.0247052  -0.0062010  -0.0244038   0.0179544
    2   0.0053893  -0.0233460  -0.0252486   0.0061104  -0.0248443   0.0243237
    3  -0.0163757  -0.0089080   0.0417919   0.0078733   0.0224784   0.0143693
           61          62          63          64          65          66
    1   0.0026667   0.0552275  -0.0056557  -0.0020460  -0.0203848  -0.0183844
    2   0.0078342   0.0560135   0.0031100   0.0162835  -0.0264625   0.0072741
    3  -0.0206230  -0.0777476   0.0021405  -0.0296283  -0.0004637   0.0263587
           67          68          69          70          71          72
    1   0.0245014   0.0018644  -0.0076004   0.0291495  -0.0210347   0.0415473
    2  -0.0318191  -0.0043582  -0.0327268  -0.0080137   0.0112812   0.0964940
    3  -0.0403682   0.0110331  -0.0032432   0.0130749   0.0231851   0.0323014
           73          74          75          76          77          78
    1   0.0107112  -0.0090479   0.0240000   0.0233970  -0.0418013   0.0048643
    2  -0.0011386  -0.0089436  -0.0259233   0.0235032  -0.0395371  -0.0015290
    3  -0.0028322   0.0148002  -0.0175431  -0.0102874  -0.0023137  -0.0097595
           79          80          81          82          83          84
    1   0.0085567  -0.0302652   0.0248250  -0.0176219  -0.0041815  -0.0119597
    2  -0.0278109   0.0040480   0.0243923   0.1013220  -0.0057021   0.0212372
    3  -0.0267854  -0.0110200   0.0111619   0.0420604   0.0017242  -0.0170088
           85          86          87          88          89          90
    1  -0.0005609  -0.0193927   0.0367451  -0.0013322  -0.0175759   0.0141997
    2  -0.0242477  -0.0046507   0.0137655  -0.0094979  -0.0022624  -0.0305176
    3  -0.0174751   0.0240687  -0.0399765   0.0039045   0.0255554  -0.0164109
           91          92          93          94          95          96
    1   0.0302407  -0.0168691  -0.0029693   0.0023165   0.0187055  -0.0309699
    2  -0.0073666   0.0499776  -0.0115857  -0.0307375  -0.0100544   0.0030403
    3   0.0093510   0.0940365   0.0016451  -0.0102600   0.0228919   0.0085927
           97          98          99         100         101         102
    1   0.0538525  -0.0002203   0.0244882  -0.0057669  -0.0314457  -0.0786696
    2  -0.0008412   0.0081413  -0.0021842   0.0332548  -0.0005849   0.0033426
    3  -0.0046499   0.0044754   0.0273008  -0.0084922  -0.0043687  -0.0752430
          103         104         105         106         107         108
    1  -0.0016654   0.0234759  -0.0206331   0.0013454   0.0021546  -0.0053537
    2  -0.0029214   0.0063612   0.0089085  -0.0265309   0.0550516  -0.0001690
    3   0.0062061   0.0148663   0.0278893  -0.0144025   0.0064104  -0.0064043
          109         110         111         112         113         114
    1  -0.0253581   0.0077097  -0.0186125   0.0677505   0.0021867   0.0213177
    2   0.0071789  -0.0286482   0.0146336  -0.0624573   0.0111863  -0.0005355
    3  -0.0329450  -0.0064146   0.0199105  -0.0566710   0.0051632  -0.0173507
          115         116         117         118         119         120
    1  -0.0192359   0.0060385  -0.0275915  -0.0021243  -0.0017408   0.0040282
    2   0.0265266   0.0160093  -0.0135609   0.0023604  -0.0276582   0.0154425
    3  -0.0060514   0.0291263  -0.0514862   0.0079421   0.0163163   0.0258062
          121         122         123         124         125         126
    1  -0.0258539   0.0962472  -0.0033202   0.0031087   0.0264265  -0.0289989
    2   0.0183824  -0.0473117   0.0042345  -0.0175088   0.0136831   0.0156007
    3  -0.0079685   0.0244956   0.0050538   0.0268139   0.0133211   0.0001811
          127         128         129         130         131         132
    1   0.0412076   0.0047854  -0.0151169   0.0386746  -0.0049473  -0.1011037
    2  -0.0384930   0.0050408   0.0247690   0.0187783  -0.0127542  -0.0193422
    3  -0.0049095  -0.0094761   0.0119158   0.0046690  -0.0328698  -0.0344297
          133         134         135         136         137         138
    1   0.0063769   0.0119982   0.0193346   0.0248581  -0.0227716  -0.0011642
    2  -0.0000110   0.0125485  -0.0221813   0.0083360   0.0430980   0.0019324
    3   0.0030975   0.0253814   0.0108255  -0.0247455  -0.0235109   0.0099677
          139         140         141         142         143         144
    1  -0.0306111   0.0231953   0.0037873  -0.0099526   0.0004536  -0.0034436
    2  -0.0105487  -0.0203435   0.0314611  -0.1056567   0.0017376   0.0295518
    3   0.0010532   0.0098796   0.0101159  -0.0276190  -0.0054447  -0.0174381
          145         146         147         148         149         150
    1   0.0342136  -0.0260050   0.0319990   0.0065027  -0.0047539  -0.0077540
    2   0.0015703  -0.0128509   0.0250554  -0.0096293  -0.0175391  -0.0075398
    3  -0.0084627  -0.0166887   0.0340204   0.0037680   0.0274684  -0.0284579
          151         152         153         154         155         156
    1   0.0328791  -0.1091786  -0.0044698  -0.0277544  -0.0081271   0.0144861
    2  -0.0147460  -0.0040728   0.0061703  -0.0074812   0.0133602   0.0258569
    3   0.0013726   0.0034361  -0.0029864  -0.0192058   0.0266715  -0.0083143
          157         158         159         160         161         162
    1   0.0008614  -0.0015565   0.0164842  -0.0320160   0.0032490   0.0856258
    2  -0.0334693  -0.0012233   0.0148996  -0.0066808  -0.0311354   0.0476698
    3  -0.0487198   0.0060978   0.0248900  -0.0058864   0.0078936   0.0459201
          163         164         165         166         167         168
    1  -0.0050386  -0.0198995  -0.0114343   0.0184148   0.0312280  -0.0064523
    2   0.0014079   0.0257587  -0.0217006   0.0171074   0.0398700  -0.0028687
    3   0.0051451  -0.0095647   0.0225279   0.0177963  -0.0348383  -0.0017918
          169         170         171         172         173         174
    1  -0.0108451  -0.0213578   0.0169468   0.0546785  -0.0047017   0.0159651
    2  -0.0222398   0.0248883  -0.0109943  -0.0756077   0.0042085   0.0075336
    3   0.0173045  -0.0155013  -0.0209153   0.0593907  -0.0019707  -0.0215505
          175         176         177         178         179         180
    1  -0.0199379  -0.0264741  -0.0236860   0.0079379   0.0238949   0.0215409
    2  -0.0167509   0.0240977  -0.0148430   0.0066696  -0.0003595   0.0108382
    3  -0.0160094   0.0002350   0.0417134   0.0010960   0.0247103  -0.0242996
          181         182         183         184         185         186
    1  -0.0130879   0.0636146  -0.0040009  -0.0290978   0.0144286  -0.0268373
    2   0.0261638  -0.0561674   0.0048293   0.0074438   0.0307431  -0.0050131
    3   0.0165532  -0.0690975  -0.0032338   0.0146115   0.0193642  -0.0213873
          187         188         189         190         191         192
    1   0.0204690   0.0027338   0.0215368  -0.0066165   0.0079721  -0.0626786
    2  -0.0119364   0.0007985  -0.0225866  -0.0025334   0.0312388  -0.0691404
    3   0.0508371  -0.0080954  -0.0127382  -0.0341801   0.0101370  -0.0587962
          193         194         195         196         197         198
    1  -0.0016143   0.0215738  -0.0054216  -0.0135968   0.0367283  -0.0050563
    2  -0.0022398  -0.0186470   0.0108316  -0.0296812   0.0499562  -0.0007313
    3   0.0023280   0.0042227   0.0323015  -0.0082749   0.0182298  -0.0085913
          199         200         201         202         203         204
    1  -0.0124463  -0.0087931  -0.0221334   0.0424046  -0.0005646   0.0228296
    2   0.0193442   0.0225871  -0.0263502  -0.0716431  -0.0005472  -0.0176136
    3   0.0184216  -0.0259431   0.0017832  -0.0734908   0.0051673  -0.0101018
          205         206         207         208         209         210
    1   0.0164408  -0.0206100   0.0364692  -0.0047530  -0.0161131  -0.0022450
    2   0.0250205  -0.0075794   0.0329350   0.0016833  -0.0209445   0.0320977
    3   0.0425999   0.0237718  -0.0281869   0.0045432   0.0156931   0.0131210
          211         212         213         214         215         216
    1  -0.0154135  -0.0164000  -0.0082073  -0.0269244  -0.0089194  -0.0147516
    2   0.0015594  -0.1048512   0.0092095  -0.0012059  -0.0199387   0.0339959
    3  -0.0244928  -0.0281969  -0.0040832  -0.0277264   0.0132304   0.0018414
          217         218         219         220         221         222
    1   0.0059977  -0.0009142  -0.0002017  -0.0241969   0.0281859   0.0600321
    2  -0.0707970   0.0055528   0.0328471  -0.0120648  -0.0192328   0.0530445
    3   0.0037696   0.0118076  -0.0063194   0.0192412   0.0016327  -0.0727634
          223         224         225         226         227         228
    1  -0.0035527  -0.0109242  -0.0187814  -0.0187544   0.0233577  -0.0007245
    2  -0.0043552  -0.0060885  -0.0296570   0.0152908   0.0409981  -0.0094614
    3  -0.0023506  -0.0439988   0.0005997   0.0004040  -0.0170829  -0.0025767
          229         230         231         232         233         234
    1   0.0250055   0.0276956  -0.0218667  -0.0410891  -0.0053113   0.0283239
    2  -0.0127682   0.0034488  -0.0253424  -0.0119206  -0.0037910  -0.0060645
    3  -0.0313771   0.0153416   0.0007778   0.0997234   0.0053814   0.0137560
          235         236         237         238         239         240
    1   0.0044519  -0.0242795   0.0406085  -0.0049449  -0.0169141  -0.0118531
    2   0.0304217  -0.0234145   0.0269419   0.0028851  -0.0238883   0.0322843
    3   0.0169852   0.0101449  -0.0256030  -0.0002862   0.0097074   0.0108534
          241         242         243         244         245         246
    1  -0.0090876  -0.0319293   0.0056154   0.0060650   0.0156262  -0.0078004
    2   0.0029928  -0.1023583   0.0042125   0.0294260  -0.0278617   0.0313618
    3  -0.0301961  -0.0278155  -0.0056437   0.0171464   0.0090862  -0.0218189
          247         248         249         250         251         252
    1  -0.0411511  -0.0006049  -0.0265352   0.0226146   0.0090841  -0.0062389
    2   0.0343502  -0.0086341  -0.0232642  -0.0165325   0.0132902  -0.0612671
    3   0.0170170   0.0075766  -0.0017529  -0.0066955   0.0321083  -0.0908700
          253         254         255         256         257         258
    1  -0.0035701   0.0129854  -0.0096523  -0.0283755   0.0207332   0.0075983
    2   0.0022666   0.0302449  -0.0170976   0.0133588   0.0362062  -0.0029486
    3  -0.0060860  -0.0063370  -0.0276733   0.0063873   0.0434174  -0.0035635
          259         260         261         262         263         264
    1  -0.0123567   0.0130497   0.0319012  -0.0633108   0.0115505   0.0043999
    2  -0.0193859   0.0285331  -0.0150950  -0.0875948   0.0030632   0.0273071
    3  -0.0233529  -0.0000250   0.0052001   0.0132354  -0.0034767  -0.0203166
          265         266         267         268         269         270
    1   0.0002325   0.0195906  -0.0216969  -0.0060084   0.0014261  -0.0314503
    2  -0.0136672  -0.0062842   0.0166052   0.0013835   0.0352604  -0.0116322
    3   0.0333259  -0.0228705  -0.0360391   0.0067055   0.0062173   0.0091417
          271         272         273         274         275         276
    1   0.0227034   0.0199549  -0.0072897  -0.0066316   0.0183077  -0.0337113
    2  -0.0132054  -0.1046800  -0.0060058  -0.0034872  -0.0286258   0.0191203
    3   0.0162910   0.0302770  -0.0056473  -0.0312669   0.0116882  -0.0019525
          277         278         279         280         281         282
    1  -0.0111573  -0.0019502  -0.0323944   0.0186758   0.0008119   0.0990399
    2   0.0169516   0.0073693   0.0005044   0.0248036  -0.0125295  -0.0301085
    3   0.0613770  -0.0074435   0.0057847   0.0129549  -0.0305761  -0.0334354
          283         284         285         286         287         288
    1  -0.0044636  -0.0144354  -0.0175632   0.0240171   0.0310785  -0.0053746
    2  -0.0040257  -0.0187912   0.0017389  -0.0147994   0.0098764   0.0053814
    3  -0.0043434   0.0252506  -0.0324168   0.0052210   0.0416075  -0.0091226
          289         290         291         292         293         294
    1  -0.0181404  -0.0139770  -0.0049065   0.0163996  -0.0048412  -0.0169311
    2  -0.0009629   0.0236632   0.0029323   0.0146641   0.0037591  -0.0012752
    3   0.0288466   0.0231167  -0.0368202  -0.1080008   0.0032297  -0.0288491
          295         296         297         298         299         300
    1  -0.0175592   0.0026610   0.0361872   0.0013518   0.0130180   0.0058275
    2  -0.0161776   0.0326102   0.0011669   0.0012208   0.0300768  -0.0175447
    3   0.0198472   0.0228699   0.0391110  -0.0051886   0.0120491  -0.0229146
          301         302
    1  -0.0242901  -0.0474290
    2   0.0011713  -0.0959972
    3  -0.0187507  -0.0349255
  --- DONE ESP SUMMARY ---
 Total job time:  35.96s(wall), 89.30s(cpu) 
 Thu Jul 21 09:34:38 2022

        *************************************************************
        *                                                           *
        *  Thank you very much for using Q-Chem.  Have a nice day.  *
        *                                                           *
        *************************************************************


