                  Welcome to Q-Chem
     A Quantum Leap Into The Future Of Chemistry


 Q-Chem 6.0 (devel), Q-Chem, Inc., Pleasanton, CA (2022)

 E. Epifanovsky,  A. T. B. Gilbert,  Xintian Feng,  Joonho Lee,  Yuezhi Mao,  
 N. Mardirossian,  P. Pokhilko,  A. White,  M. Wormit,  M. P. Coons,  
 A. L. Dempwolff,  Zhengting Gan,  D. Hait,  P. R. Horn,  L. D. Jacobson,  
 I. Kaliman,  J. Kussmann,  A. W. Lange,  Ka Un Lao,  D. S. Levine,  Jie Liu,  
 S. C. McKenzie,  A. F. Morrison,  K. Nanda,  F. Plasser,  D. R. Rehn,  
 M. L. Vidal,  Zhi-Qiang You,  Ying Zhu,  B. Alam,  B. Albrecht,  
 A. Aldossary,  E. Alguire,  J. H. Andersen,  V. Athavale,  D. Barton,  
 K. Begam,  A. Behn,  N. Bellonzi,  Y. A. Bernard,  E. J. Berquist,  
 H. Burton,  A. Carreras,  K. Carter-Fenk,  Romit Chakraborty,  
 Chandrima Chakravarty,  Junhan Chen,  A. D. Chien,  K. D. Closser,  
 V. Cofer-Shabica,  L. Cunha,  S. Dasgupta,  Jia Deng,  M. de Wergifosse,  
 M. Diedenhofen,  Hainam Do,  S. Ehlert,  Po-Tung Fang,  S. Fatehi,  
 Qingguo Feng,  T. Friedhoff,  B. Ganoe,  J. Gayvert,  Qinghui Ge,  
 G. Gidofalvi,  M. Goldey,  J. Gomes,  C. Gonzalez-Espinoza,  S. Gulania,  
 A. Gunina,  J. A. Gyamfi,  M. W. D. Hanson-Heine,  P. H. P. Harbach,  
 A. W. Hauser,  M. F. Herbst,  M. Hernandez Vera,  M. Hodecker,  
 Z. C. Holden,  S. Houck,  Xunkun Huang,  Kerwin Hui,  B. C. Huynh,  
 K. Ikeda,  M. Ivanov,  Hyunjun Ji,  Zuxin Jin,  Hanjie Jiang,  B. Kaduk,  
 S. Kaehler,  R. Kang,  K. Khistyaev,  Jaehoon Kim,  Yongbin Kim,  
 P. Klunzinger,  Z. Koczor-Benda,  Joong Hoon Koh,  D. Kosenkov,  
 Saikiran Kotaru,  L. Koulias,  T. Kowalczyk,  C. M. Krauter,  K. Kue,  
 A. Kunitsa,  T. Kus,  A. Landau,  K. V. Lawler,  D. Lefrancois,  S. Lehtola,  
 Rain Li,  Shaozhi Li,  Yi-Pei Li,  Jiashu Liang,  M. Liebenthal,  
 Hung-Hsuan Lin,  You-Sheng Lin,  Fenglai Liu,  Kuan-Yu Liu,  
 M. Loipersberger,  A. Luenser,  C. Malbon,  A. Manjanath,  P. Manohar,  
 E. Mansoor,  S. F. Manzer,  Shan-Ping Mao,  A. V. Marenich,  T. Markovich,  
 S. Mason,  F. Matz,  S. A. Maurer,  P. F. McLaughlin,  M. F. S. J. Menger,  
 J.-M. Mewes,  S. A. Mewes,  P. Morgante,  Mohammad Mostafanejad,  
 J. W. Mullinax,  K. J. Oosterbaan,  G. Paran,  V. Parravicini,  
 Alexander C. Paul,  Suranjan K. Paul,  F. Pavosevic,  Zheng Pei,  S. Prager,  
 E. I. Proynov,  E. Ramos,  B. Rana,  A. E. Rask,  A. Rettig,  R. M. Richard,  
 F. Rob,  E. Rossomme,  T. Scheele,  M. Scheurer,  M. Schneider,  
 P. E. Schneider,  N. Sergueev,  S. M. Sharada,  Hengyuan Shen,  
 W. Skomorowski,  D. W. Small,  C. J. Stein,  Yingli Su,  Yu-Chuan Su,  
 E. J. Sundstrom,  Zhen Tao,  J. Thirman,  Hung-Yi Tsai,  T. Tsuchimochi,  
 N. M. Tubman,  C. Utku,  S. P. Veccham,  O. Vydrov,  J. Wenzel,  
 Jonathan Wong,  J. Witte,  A. Yamada,  Chou-Hsun Yang,  Kun Yao,  
 S. Yeganeh,  S. R. Yost,  A. Zech,  F. Zeller,  Igor Ying Zhang,  
 Xing Zhang,  Yu Zhang,  D. Zuev,  A. Aspuru-Guzik,  A. T. Bell,  
 N. A. Besley,  K. B. Bravaya,  B. R. Brooks,  D. Casanova,  Jeng-Da Chai,  
 Hsing-Ta Chen,  S. Coriani,  C. J. Cramer,  A. E. DePrince, III,  
 R. A. DiStasio Jr.,  A. Dreuw,  B. D. Dunietz,  T. R. Furlani,  
 W. A. Goddard III,  S. Grimme,  S. Hammes-Schiffer,  T. Head-Gordon,  
 W. J. Hehre,  Chao-Ping Hsu,  T.-C. Jagau,  Yousung Jung,  A. Klamt,  
 Jing Kong,  D. S. Lambrecht,  Xiangyuan Li,  WanZhen Liang,  N. J. Mayhall,  
 C. W. McCurdy,  J. B. Neaton,  T. Neudecker,  C. Ochsenfeld,  
 J. A. Parkhill,  R. Peverati,  V. A. Rassolov,  Haisheng Ren,  Yihan Shao,  
 L. V. Slipchenko,  R. P. Steele,  J. E. Subotnik,  A. J. W. Thom,  
 A. Tkatchenko,  D. G. Truhlar,  T. Van Voorhis,  Fan Wang,  
 T. A. Wesolowski,  K. B. Whaley,  H. L. Woodcock III,  P. M. Zimmerman,  
 S. Faraji,  P. M. W. Gill,  M. Head-Gordon,  J. M. Herbert,  A. I. Krylov

 Contributors to earlier versions of Q-Chem not listed above: 
 R. D. Adamson,  B. Austin,  R. Baer,  J. Baker,  G. J. O. Beran,  
 K. Brandhorst,  S. T. Brown,  E. F. C. Byrd,  Arup K. Chakraborty,  
 G. K. L. Chan,  Chun-Min Chang,  Yunqing Chen,  C.-L. Cheng,  
 Siu Hung Chien,  D. M. Chipman,  D. L. Crittenden,  H. Dachsel,  
 R. J. Doerksen,  A. D. Dutoi,  R. G. Edgar,  J. Fosso-Tande,  
 L. Fusti-Molnar,  D. Ghosh,  A. Ghysels,  A. Golubeva-Zadorozhnaya,  
 J. Gonthier,  M. S. Gordon,  S. R. Gwaltney,  G. Hawkins,  J. E. Herr,  
 A. Heyden,  S. Hirata,  E. G. Hohenstein,  G. Kedziora,  F. J. Keil,  
 C. Kelley,  Jihan Kim,  R. A. King,  R. Z. Khaliullin,  P. P. Korambath,  
 W. Kurlancheek,  A. Laurent,  A. M. Lee,  M. S. Lee,  S. V. Levchenko,  
 Ching Yeh Lin,  D. Liotard,  E. Livshits,  R. C. Lochan,  I. Lotan,  
 L. A. Martinez-Martinez,  P. E. Maslen,  N. Nair,  D. P. O'Neill,  
 D. Neuhauser,  E. Neuscamman,  C. M. Oana,  R. Olivares-Amaya,  R. Olson,  
 T. M. Perrine,  B. Peters,  P. A. Pieniazek,  A. Prociuk,  Y. M. Rhee,  
 J. Ritchie,  M. A. Rohrdanz,  E. Rosta,  N. J. Russ,  H. F. Schaefer III,  
 M. W. Schmidt,  N. E. Schultz,  S. Sharma,  N. Shenvi,  C. D. Sherrill,  
 A. C. Simmonett,  A. Sodt,  T. Stein,  D. Stuck,  K. S. Thanthiriwatte,  
 V. Vanovschi,  L. Vogt,  Tao Wang,  A. Warshel,  M. A. Watson,  
 C. F. Williams,  Q. Wu,  X. Xu,  Jun Yang,  W. Zhang,  Yan Zhao

   Please cite Q-Chem as follows:
  "Software for the frontiers of quantum chemistry:
   An overview of developments in the Q-Chem 5 package"
   J. Chem. Phys. 155, 084801 (2021)
   https://doi.org/10.1063/5.0055522 (open access)

 Q-Chem 6.0.0 for Intel X86 EM64T Linux

 Parts of Q-Chem use Armadillo 9.900.5 (Nocturnal Misbehaviour).
 http://arma.sourceforge.net/

 Q-Chem begins on Thu Jul 21 03:13:29 2022  

 Host: nid00528
0

     Scratch files written to /global/cscratch1/sd/ymao90/r7.00_frame_0086_spade_B3LYP_dp20220721031316//
 Processing $rem in /global/homes/y/ymao90/my_qchem/qchem_embedding_5p4/config/preferences:
 Processing $rem in /global/homes/y/ymao90/.qchemrc:
 No nuclear gradient supported for projection-based embedding or EMFT. Set max ideriv = 0.

 Checking the input file for inconsistencies... 	...done.

--------------------------------------------------------------
User input:
--------------------------------------------------------------
$molecule
0 1
--
0 1
C    27.85300   28.54700   23.94600  
C    28.50800   29.76800   24.61000  
C    28.48800   29.55900   26.13300  
C    29.24500   28.27500   26.50700  
C    28.63900   27.03200   25.83500  
C    28.53100   27.21700   24.31300  
H    28.91900   30.41800   26.66300  
H    29.50900   29.97300   24.21100  
H    26.78800   28.53500   24.20800  
H    27.83200   28.66300   22.85500  
H    30.23100   28.31400   26.02700  
H    29.39500   28.27700   27.59400  
H    29.13400   26.06100   25.95900  
H    27.60100   26.93500   26.17500  
H    29.53700   27.31300   23.88700  
H    28.03100   26.39600   23.78300  
H    27.46400   29.47300   26.51800  
N    27.68600   30.92400   24.25500  
H    26.81500   30.76400   23.76300  
C    28.09100   32.24200   24.23000  
H    27.33600   32.87900   23.73500  
O    29.11800   32.65800   24.73700  
--
0 1
C    24.42800   33.63100   22.04900  
H    25.27500   34.32200   22.03300  
H    23.59200   34.11700   21.53900  
H    24.12400   33.34100   23.05800  
S    24.98400   32.24300   21.03400  
C    23.46000   31.29700   21.25000  
H    23.56300   30.31100   20.79000  
H    23.31900   31.09800   22.31600  
H    22.55400   31.80400   20.90800  
O    25.97500   31.54000   21.91000  
C    32.26000   30.28600   25.94000  
H    32.94000   30.93300   26.49900  
H    31.28700   30.76800   25.81400  
H    32.03200   29.42400   26.57100  
S    32.88100   29.76800   24.32400  
C    32.59300   31.39900   23.59900  
H    33.01600   31.31000   22.59500  
H    31.53600   31.66900   23.53000  
H    33.18900   32.17600   24.08500  
O    31.78600   28.96600   23.69200  
C    27.65900   23.42000   31.96500  
H    27.99700   22.78300   31.14500  
H    27.35600   22.79800   32.81200  
H    26.79000   24.00300   31.64900  
S    29.01800   24.52000   32.42100  
C    29.95800   23.33600   33.41200  
H    29.27700   22.90000   34.14800  
H    30.38600   22.55000   32.78400  
H    30.74800   23.79900   34.00800  
O    28.33500   25.27700   33.51600  
C    28.74100   37.26500   21.31100  
H    29.40300   38.13000   21.40600  
H    28.87600   36.64500   20.42100  
H    27.71500   37.58400   21.11200  
S    28.74300   36.25600   22.81000  
C    30.36600   35.47300   22.68000  
H    31.17800   36.09700   23.06200  
H    30.30200   34.53600   23.24000  
H    30.46700   35.11200   21.65300  
O    27.80300   35.18800   22.34500  
C    31.86400   31.75500   19.82200  
H    31.84900   30.79600   20.34700  
H    32.43000   31.80500   18.88800  
H    32.23200   32.40600   20.61800  
S    30.10600   32.08000   19.55400  
C    29.50200   31.90300   21.24800  
H    29.88000   32.78900   21.76400  
H    28.40900   31.93400   21.26200  
H    29.86300   30.98600   21.71900  
O    29.57200   30.82100   18.94600  
C    30.77500   32.68700   29.15300  
H    30.66100   31.79700   28.52800  
H    30.99000   32.42900   30.19300  
H    29.80300   33.18600   29.14900  
S    31.99000   33.78400   28.38600  
C    30.96400   33.74900   26.89900  
H    30.01500   34.29200   26.91500  
H    31.50100   34.22400   26.07500  
H    30.83200   32.72800   26.53100  
O    33.22300   32.97200   28.14000  
C    29.46200   23.58300   27.84000  
H    29.89200   24.45700   27.34600  
H    29.66500   22.77100   27.13600  
H    28.38700   23.76000   27.92400  
S    30.11800   23.32300   29.50400  
C    31.82700   23.07800   28.97100  
H    32.37000   22.50500   29.72700  
H    31.68200   22.61900   27.99000  
H    32.16900   24.10100   28.79400  
O    29.74800   21.88400   29.69100  
C    26.52800   26.98400   28.71100  
H    26.27500   26.59600   27.72100  
H    26.77700   28.04800   28.68700  
H    27.36400   26.32800   28.96500  
S    25.22400   26.59500   29.90100  
C    26.17300   27.18200   31.32200  
H    26.75000   28.08600   31.10800  
H    25.34100   27.35600   32.00800  
H    26.75200   26.35400   31.73800  
O    25.36100   25.11000   30.02300  
C    28.51600   22.51500   22.37600  
H    27.45700   22.70500   22.56700  
H    29.03300   23.14700   21.64900  
H    28.56800   21.46300   22.08600  
S    29.35000   22.62700   23.97500  
C    30.84800   21.88300   23.29200  
H    30.64300   20.85900   22.96900  
H    31.13600   22.51000   22.44300  
H    31.60500   21.90100   24.08000  
O    28.76100   21.62700   24.92000  
C    21.57100   37.55600   24.75000  
H    21.51800   37.33600   25.81900  
H    22.54500   38.01100   24.55400  
H    20.69800   38.13800   24.44200  
S    21.74600   35.94500   23.95000  
C    22.07000   36.59800   22.29700  
H    22.37000   35.70000   21.75000  
H    21.05900   36.81900   21.94500  
H    22.80700   37.39700   22.17600  
O    20.28800   35.62600   23.83800  
C    25.37300   22.54300   28.52000  
H    25.43200   22.75600   27.44900  
H    24.52000   22.92300   29.08700  
H    26.27600   22.99300   28.94200  
S    25.38100   20.73700   28.47900  
C    27.06900   20.73300   27.83400  
H    27.64900   20.91300   28.74300  
H    27.28500   19.80700   27.29400  
H    27.13900   21.55600   27.11900  
O    24.51400   20.51000   27.28000  
C    27.97100   37.68400   29.99400  
H    28.29900   37.57600   28.95800  
H    27.11400   38.29700   30.28600  
H    28.87600   38.11500   30.43100  
S    27.82300   35.99300   30.61200  
C    28.80000   36.15000   32.12400  
H    29.49300   36.97500   31.93700  
H    28.09700   36.40900   32.92000  
H    29.29400   35.20200   32.35000  
O    28.80200   35.31800   29.70300  
C    30.04600   38.78400   26.76100  
H    29.73500   39.81100   26.55400  
H    29.13400   38.18100   26.75000  
H    30.55900   38.84100   27.72400  
S    31.08700   38.25100   25.38400  
C    32.44600   39.44100   25.40300  
H    32.01300   40.38900   25.07300  
H    32.68500   39.57600   26.46100  
H    33.24700   39.16700   24.71100  
O    30.16600   38.53500   24.23800  
C    21.52100   25.41500   24.64800  
H    21.59500   24.56700   23.96300  
H    20.53400   25.84800   24.46400  
H    22.25900   26.20000   24.46300  
S    21.73200   24.77400   26.32400  
C    22.84400   23.41800   25.88800  
H    22.41800   22.88000   25.03800  
H    23.83100   23.81600   25.63700  
H    22.87500   22.78000   26.77500  
O    20.52500   23.91900   26.55800  
C    24.95600   35.56000   19.33700  
H    24.53800   36.54300   19.10700  
H    24.14200   34.83500   19.40100  
H    25.55000   35.63100   20.25200  
S    26.02900   35.13000   17.94800  
C    27.07400   34.04400   18.94500  
H    26.46800   33.16300   19.17000  
H    27.90900   33.78400   18.28800  
H    27.51600   34.61800   19.76300  
O    26.87100   36.33300   17.65400  
C    24.39600   25.50500   20.38100  
H    24.11900   25.88400   19.39400  
H    25.45700   25.24900   20.31200  
H    23.72700   24.68400   20.65000  
S    24.42500   26.78600   21.65500  
C    24.53800   25.66800   23.07000  
H    25.50400   25.15900   23.11000  
H    24.55400   26.20600   24.02200  
H    23.76000   24.90500   22.98300  
O    23.07400   27.43100   21.66700  
C    26.99000   39.42500   24.41500  
H    26.64000   40.45100   24.27100  
H    26.98400   39.10000   25.45900  
H    27.98200   39.32600   23.96700  
S    26.02100   38.37100   23.31400  
C    26.16100   39.36800   21.81400  
H    25.56300   40.26900   21.97400  
H    27.16400   39.75400   21.61400  
H    25.76900   38.84800   20.93600  
O    24.62000   38.64100   23.76800  
C    25.70700   30.98000   29.79300  
H    25.80800   31.49800   28.83600  
H    25.43700   29.92600   29.69000  
H    25.14600   31.63000   30.46900  
S    27.33600   30.89200   30.57000  
C    27.41500   32.68900   30.74100  
H    27.58400   33.06200   29.72800  
H    26.50800   33.19600   31.08000  
H    28.26500   33.01300   31.34900  
O    28.20600   30.56000   29.39700  
C    31.85500   28.07400   17.72600  
H    31.97200   28.31000   16.66500  
H    31.17700   27.22100   17.81300  
H    31.45000   28.88300   18.33800  
S    33.41600   27.50100   18.43400  
C    33.47900   25.92600   17.55100  
H    34.46500   25.51600   17.78200  
H    32.60400   25.41600   17.96100  
H    33.32400   26.18900   16.50100  
O    33.12300   27.29300   19.88700  
C    29.97300   27.76400   20.82400  
H    30.38900   28.65100   20.34000  
H    29.38200   28.13100   21.66700  
H    30.78700   27.21300   21.30400  
S    28.97500   26.79800   19.66800  
C    27.72200   28.09500   19.55700  
H    26.84800   27.82500   18.95900  
H    27.51100   28.21700   20.62300  
H    28.18900   29.00600   19.17300  
O    28.21500   25.77200   20.44800  
C    32.93500   25.07300   23.94500  
H    32.77700   24.30500   23.18300  
H    32.65500   26.03900   23.51600  
H    33.99100   25.07700   24.22900  
S    31.96800   24.65300   25.41200  
C    32.55000   26.03300   26.42300  
H    33.64200   26.05300   26.45700  
H    32.22500   26.97900   25.98300  
H    32.16500   25.81400   27.42200  
O    32.72300   23.45500   25.89800  
C    23.48500   30.58100   26.92000  
H    23.71600   30.73000   27.97700  
H    23.73400   31.44000   26.29100  
H    22.42800   30.34900   26.76800  
S    24.55900   29.26800   26.29700  
C    23.78800   29.28700   24.66300  
H    22.86200   28.70800   24.62300  
H    23.71000   30.33200   24.35100  
H    24.50600   28.76400   24.02600  
O    24.28200   27.92000   26.88700  
C    25.52900   35.92100   25.76300  
H    24.61000   36.19800   25.24100  
H    25.55500   36.54900   26.65700  
H    26.34500   36.13700   25.06900  
S    25.47200   34.22000   26.36900  
C    27.21800   34.22100   26.83800  
H    27.70500   34.27000   25.86100  
H    27.32100   35.15800   27.39200  
H    27.51200   33.34200   27.41600  
O    25.25500   33.32500   25.18900  
C    24.33700   30.71900   17.70000  
H    24.79900   30.52300   18.67100  
H    25.15600   31.03700   17.04900  
H    23.61000   31.53500   17.69800  
S    23.55700   29.22100   17.05800  
C    22.38700   29.02000   18.42000  
H    21.53300   29.70000   18.46800  
H    22.04300   28.00000   18.23400  
H    22.92000   28.96200   19.37300  
O    24.64100   28.20200   17.22400  
C    22.34400   20.17400   22.72600  
H    22.16900   20.18100   23.80500  
H    21.49900   20.59100   22.17300  
H    22.42500   19.16700   22.31000  
S    23.80300   21.16600   22.33500  
C    24.71600   20.30300   23.63300  
H    24.79300   19.22600   23.46300  
H    25.70200   20.77400   23.65800  
H    24.29000   20.45700   24.62800  
O    23.44800   22.52300   22.85900  
C    31.33400   29.05000   29.65600  
H    31.63600   29.59500   30.55400  
H    32.17700   28.73300   29.03700  
H    30.70400   29.64700   28.99200  
S    30.52800   27.46300   29.97000  
C    29.84000   27.85200   31.59500  
H    29.25700   28.77100   31.49500  
H    29.25100   27.05900   32.06300  
H    30.70700   28.01300   32.24200  
O    31.67200   26.54400   30.26600  
$end

$rem
JOBTYPE  SP
METHOD  B3LYP
BASIS  6-31+G(D)
SYMMETRY  FALSE
SYM_IGNORE  TRUE
MEM_TOTAL  12000
MEM_STATIC  4000
BASIS_LIN_DEP_THRESH  6
THRESH  14
SCF_CONVERGENCE  8
FD_MAT_VEC_PROD  FALSE
XC_GRID  000075000302
NL_GRID  1
MAX_SCF_CYCLES  200
ENV_METHOD  B3LYP
GEN_SCFMAN_EMBED  TRUE
SPADE_PARTITION  TRUE
EMBEDDING_EARLY_STOP  TRUE
$end

--------------------------------------------------------------
 ----------------------------------------------------------------
             Standard Nuclear Orientation (Angstroms)
    I     Atom           X                Y                Z
 ----------------------------------------------------------------
    1      C      27.8530000000    28.5470000000    23.9460000000
    2      C      28.5080000000    29.7680000000    24.6100000000
    3      C      28.4880000000    29.5590000000    26.1330000000
    4      C      29.2450000000    28.2750000000    26.5070000000
    5      C      28.6390000000    27.0320000000    25.8350000000
    6      C      28.5310000000    27.2170000000    24.3130000000
    7      H      28.9190000000    30.4180000000    26.6630000000
    8      H      29.5090000000    29.9730000000    24.2110000000
    9      H      26.7880000000    28.5350000000    24.2080000000
   10      H      27.8320000000    28.6630000000    22.8550000000
   11      H      30.2310000000    28.3140000000    26.0270000000
   12      H      29.3950000000    28.2770000000    27.5940000000
   13      H      29.1340000000    26.0610000000    25.9590000000
   14      H      27.6010000000    26.9350000000    26.1750000000
   15      H      29.5370000000    27.3130000000    23.8870000000
   16      H      28.0310000000    26.3960000000    23.7830000000
   17      H      27.4640000000    29.4730000000    26.5180000000
   18      N      27.6860000000    30.9240000000    24.2550000000
   19      H      26.8150000000    30.7640000000    23.7630000000
   20      C      28.0910000000    32.2420000000    24.2300000000
   21      H      27.3360000000    32.8790000000    23.7350000000
   22      O      29.1180000000    32.6580000000    24.7370000000
   23      C      24.4280000000    33.6310000000    22.0490000000
   24      H      25.2750000000    34.3220000000    22.0330000000
   25      H      23.5920000000    34.1170000000    21.5390000000
   26      H      24.1240000000    33.3410000000    23.0580000000
   27      S      24.9840000000    32.2430000000    21.0340000000
   28      C      23.4600000000    31.2970000000    21.2500000000
   29      H      23.5630000000    30.3110000000    20.7900000000
   30      H      23.3190000000    31.0980000000    22.3160000000
   31      H      22.5540000000    31.8040000000    20.9080000000
   32      O      25.9750000000    31.5400000000    21.9100000000
   33      C      32.2600000000    30.2860000000    25.9400000000
   34      H      32.9400000000    30.9330000000    26.4990000000
   35      H      31.2870000000    30.7680000000    25.8140000000
   36      H      32.0320000000    29.4240000000    26.5710000000
   37      S      32.8810000000    29.7680000000    24.3240000000
   38      C      32.5930000000    31.3990000000    23.5990000000
   39      H      33.0160000000    31.3100000000    22.5950000000
   40      H      31.5360000000    31.6690000000    23.5300000000
   41      H      33.1890000000    32.1760000000    24.0850000000
   42      O      31.7860000000    28.9660000000    23.6920000000
   43      C      27.6590000000    23.4200000000    31.9650000000
   44      H      27.9970000000    22.7830000000    31.1450000000
   45      H      27.3560000000    22.7980000000    32.8120000000
   46      H      26.7900000000    24.0030000000    31.6490000000
   47      S      29.0180000000    24.5200000000    32.4210000000
   48      C      29.9580000000    23.3360000000    33.4120000000
   49      H      29.2770000000    22.9000000000    34.1480000000
   50      H      30.3860000000    22.5500000000    32.7840000000
   51      H      30.7480000000    23.7990000000    34.0080000000
   52      O      28.3350000000    25.2770000000    33.5160000000
   53      C      28.7410000000    37.2650000000    21.3110000000
   54      H      29.4030000000    38.1300000000    21.4060000000
   55      H      28.8760000000    36.6450000000    20.4210000000
   56      H      27.7150000000    37.5840000000    21.1120000000
   57      S      28.7430000000    36.2560000000    22.8100000000
   58      C      30.3660000000    35.4730000000    22.6800000000
   59      H      31.1780000000    36.0970000000    23.0620000000
   60      H      30.3020000000    34.5360000000    23.2400000000
   61      H      30.4670000000    35.1120000000    21.6530000000
   62      O      27.8030000000    35.1880000000    22.3450000000
   63      C      31.8640000000    31.7550000000    19.8220000000
   64      H      31.8490000000    30.7960000000    20.3470000000
   65      H      32.4300000000    31.8050000000    18.8880000000
   66      H      32.2320000000    32.4060000000    20.6180000000
   67      S      30.1060000000    32.0800000000    19.5540000000
   68      C      29.5020000000    31.9030000000    21.2480000000
   69      H      29.8800000000    32.7890000000    21.7640000000
   70      H      28.4090000000    31.9340000000    21.2620000000
   71      H      29.8630000000    30.9860000000    21.7190000000
   72      O      29.5720000000    30.8210000000    18.9460000000
   73      C      30.7750000000    32.6870000000    29.1530000000
   74      H      30.6610000000    31.7970000000    28.5280000000
   75      H      30.9900000000    32.4290000000    30.1930000000
   76      H      29.8030000000    33.1860000000    29.1490000000
   77      S      31.9900000000    33.7840000000    28.3860000000
   78      C      30.9640000000    33.7490000000    26.8990000000
   79      H      30.0150000000    34.2920000000    26.9150000000
   80      H      31.5010000000    34.2240000000    26.0750000000
   81      H      30.8320000000    32.7280000000    26.5310000000
   82      O      33.2230000000    32.9720000000    28.1400000000
   83      C      29.4620000000    23.5830000000    27.8400000000
   84      H      29.8920000000    24.4570000000    27.3460000000
   85      H      29.6650000000    22.7710000000    27.1360000000
   86      H      28.3870000000    23.7600000000    27.9240000000
   87      S      30.1180000000    23.3230000000    29.5040000000
   88      C      31.8270000000    23.0780000000    28.9710000000
   89      H      32.3700000000    22.5050000000    29.7270000000
   90      H      31.6820000000    22.6190000000    27.9900000000
   91      H      32.1690000000    24.1010000000    28.7940000000
   92      O      29.7480000000    21.8840000000    29.6910000000
   93      C      26.5280000000    26.9840000000    28.7110000000
   94      H      26.2750000000    26.5960000000    27.7210000000
   95      H      26.7770000000    28.0480000000    28.6870000000
   96      H      27.3640000000    26.3280000000    28.9650000000
   97      S      25.2240000000    26.5950000000    29.9010000000
   98      C      26.1730000000    27.1820000000    31.3220000000
   99      H      26.7500000000    28.0860000000    31.1080000000
  100      H      25.3410000000    27.3560000000    32.0080000000
  101      H      26.7520000000    26.3540000000    31.7380000000
  102      O      25.3610000000    25.1100000000    30.0230000000
  103      C      28.5160000000    22.5150000000    22.3760000000
  104      H      27.4570000000    22.7050000000    22.5670000000
  105      H      29.0330000000    23.1470000000    21.6490000000
  106      H      28.5680000000    21.4630000000    22.0860000000
  107      S      29.3500000000    22.6270000000    23.9750000000
  108      C      30.8480000000    21.8830000000    23.2920000000
  109      H      30.6430000000    20.8590000000    22.9690000000
  110      H      31.1360000000    22.5100000000    22.4430000000
  111      H      31.6050000000    21.9010000000    24.0800000000
  112      O      28.7610000000    21.6270000000    24.9200000000
  113      C      21.5710000000    37.5560000000    24.7500000000
  114      H      21.5180000000    37.3360000000    25.8190000000
  115      H      22.5450000000    38.0110000000    24.5540000000
  116      H      20.6980000000    38.1380000000    24.4420000000
  117      S      21.7460000000    35.9450000000    23.9500000000
  118      C      22.0700000000    36.5980000000    22.2970000000
  119      H      22.3700000000    35.7000000000    21.7500000000
  120      H      21.0590000000    36.8190000000    21.9450000000
  121      H      22.8070000000    37.3970000000    22.1760000000
  122      O      20.2880000000    35.6260000000    23.8380000000
  123      C      25.3730000000    22.5430000000    28.5200000000
  124      H      25.4320000000    22.7560000000    27.4490000000
  125      H      24.5200000000    22.9230000000    29.0870000000
  126      H      26.2760000000    22.9930000000    28.9420000000
  127      S      25.3810000000    20.7370000000    28.4790000000
  128      C      27.0690000000    20.7330000000    27.8340000000
  129      H      27.6490000000    20.9130000000    28.7430000000
  130      H      27.2850000000    19.8070000000    27.2940000000
  131      H      27.1390000000    21.5560000000    27.1190000000
  132      O      24.5140000000    20.5100000000    27.2800000000
  133      C      27.9710000000    37.6840000000    29.9940000000
  134      H      28.2990000000    37.5760000000    28.9580000000
  135      H      27.1140000000    38.2970000000    30.2860000000
  136      H      28.8760000000    38.1150000000    30.4310000000
  137      S      27.8230000000    35.9930000000    30.6120000000
  138      C      28.8000000000    36.1500000000    32.1240000000
  139      H      29.4930000000    36.9750000000    31.9370000000
  140      H      28.0970000000    36.4090000000    32.9200000000
  141      H      29.2940000000    35.2020000000    32.3500000000
  142      O      28.8020000000    35.3180000000    29.7030000000
  143      C      30.0460000000    38.7840000000    26.7610000000
  144      H      29.7350000000    39.8110000000    26.5540000000
  145      H      29.1340000000    38.1810000000    26.7500000000
  146      H      30.5590000000    38.8410000000    27.7240000000
  147      S      31.0870000000    38.2510000000    25.3840000000
  148      C      32.4460000000    39.4410000000    25.4030000000
  149      H      32.0130000000    40.3890000000    25.0730000000
  150      H      32.6850000000    39.5760000000    26.4610000000
  151      H      33.2470000000    39.1670000000    24.7110000000
  152      O      30.1660000000    38.5350000000    24.2380000000
  153      C      21.5210000000    25.4150000000    24.6480000000
  154      H      21.5950000000    24.5670000000    23.9630000000
  155      H      20.5340000000    25.8480000000    24.4640000000
  156      H      22.2590000000    26.2000000000    24.4630000000
  157      S      21.7320000000    24.7740000000    26.3240000000
  158      C      22.8440000000    23.4180000000    25.8880000000
  159      H      22.4180000000    22.8800000000    25.0380000000
  160      H      23.8310000000    23.8160000000    25.6370000000
  161      H      22.8750000000    22.7800000000    26.7750000000
  162      O      20.5250000000    23.9190000000    26.5580000000
  163      C      24.9560000000    35.5600000000    19.3370000000
  164      H      24.5380000000    36.5430000000    19.1070000000
  165      H      24.1420000000    34.8350000000    19.4010000000
  166      H      25.5500000000    35.6310000000    20.2520000000
  167      S      26.0290000000    35.1300000000    17.9480000000
  168      C      27.0740000000    34.0440000000    18.9450000000
  169      H      26.4680000000    33.1630000000    19.1700000000
  170      H      27.9090000000    33.7840000000    18.2880000000
  171      H      27.5160000000    34.6180000000    19.7630000000
  172      O      26.8710000000    36.3330000000    17.6540000000
  173      C      24.3960000000    25.5050000000    20.3810000000
  174      H      24.1190000000    25.8840000000    19.3940000000
  175      H      25.4570000000    25.2490000000    20.3120000000
  176      H      23.7270000000    24.6840000000    20.6500000000
  177      S      24.4250000000    26.7860000000    21.6550000000
  178      C      24.5380000000    25.6680000000    23.0700000000
  179      H      25.5040000000    25.1590000000    23.1100000000
  180      H      24.5540000000    26.2060000000    24.0220000000
  181      H      23.7600000000    24.9050000000    22.9830000000
  182      O      23.0740000000    27.4310000000    21.6670000000
  183      C      26.9900000000    39.4250000000    24.4150000000
  184      H      26.6400000000    40.4510000000    24.2710000000
  185      H      26.9840000000    39.1000000000    25.4590000000
  186      H      27.9820000000    39.3260000000    23.9670000000
  187      S      26.0210000000    38.3710000000    23.3140000000
  188      C      26.1610000000    39.3680000000    21.8140000000
  189      H      25.5630000000    40.2690000000    21.9740000000
  190      H      27.1640000000    39.7540000000    21.6140000000
  191      H      25.7690000000    38.8480000000    20.9360000000
  192      O      24.6200000000    38.6410000000    23.7680000000
  193      C      25.7070000000    30.9800000000    29.7930000000
  194      H      25.8080000000    31.4980000000    28.8360000000
  195      H      25.4370000000    29.9260000000    29.6900000000
  196      H      25.1460000000    31.6300000000    30.4690000000
  197      S      27.3360000000    30.8920000000    30.5700000000
  198      C      27.4150000000    32.6890000000    30.7410000000
  199      H      27.5840000000    33.0620000000    29.7280000000
  200      H      26.5080000000    33.1960000000    31.0800000000
  201      H      28.2650000000    33.0130000000    31.3490000000
  202      O      28.2060000000    30.5600000000    29.3970000000
  203      C      31.8550000000    28.0740000000    17.7260000000
  204      H      31.9720000000    28.3100000000    16.6650000000
  205      H      31.1770000000    27.2210000000    17.8130000000
  206      H      31.4500000000    28.8830000000    18.3380000000
  207      S      33.4160000000    27.5010000000    18.4340000000
  208      C      33.4790000000    25.9260000000    17.5510000000
  209      H      34.4650000000    25.5160000000    17.7820000000
  210      H      32.6040000000    25.4160000000    17.9610000000
  211      H      33.3240000000    26.1890000000    16.5010000000
  212      O      33.1230000000    27.2930000000    19.8870000000
  213      C      29.9730000000    27.7640000000    20.8240000000
  214      H      30.3890000000    28.6510000000    20.3400000000
  215      H      29.3820000000    28.1310000000    21.6670000000
  216      H      30.7870000000    27.2130000000    21.3040000000
  217      S      28.9750000000    26.7980000000    19.6680000000
  218      C      27.7220000000    28.0950000000    19.5570000000
  219      H      26.8480000000    27.8250000000    18.9590000000
  220      H      27.5110000000    28.2170000000    20.6230000000
  221      H      28.1890000000    29.0060000000    19.1730000000
  222      O      28.2150000000    25.7720000000    20.4480000000
  223      C      32.9350000000    25.0730000000    23.9450000000
  224      H      32.7770000000    24.3050000000    23.1830000000
  225      H      32.6550000000    26.0390000000    23.5160000000
  226      H      33.9910000000    25.0770000000    24.2290000000
  227      S      31.9680000000    24.6530000000    25.4120000000
  228      C      32.5500000000    26.0330000000    26.4230000000
  229      H      33.6420000000    26.0530000000    26.4570000000
  230      H      32.2250000000    26.9790000000    25.9830000000
  231      H      32.1650000000    25.8140000000    27.4220000000
  232      O      32.7230000000    23.4550000000    25.8980000000
  233      C      23.4850000000    30.5810000000    26.9200000000
  234      H      23.7160000000    30.7300000000    27.9770000000
  235      H      23.7340000000    31.4400000000    26.2910000000
  236      H      22.4280000000    30.3490000000    26.7680000000
  237      S      24.5590000000    29.2680000000    26.2970000000
  238      C      23.7880000000    29.2870000000    24.6630000000
  239      H      22.8620000000    28.7080000000    24.6230000000
  240      H      23.7100000000    30.3320000000    24.3510000000
  241      H      24.5060000000    28.7640000000    24.0260000000
  242      O      24.2820000000    27.9200000000    26.8870000000
  243      C      25.5290000000    35.9210000000    25.7630000000
  244      H      24.6100000000    36.1980000000    25.2410000000
  245      H      25.5550000000    36.5490000000    26.6570000000
  246      H      26.3450000000    36.1370000000    25.0690000000
  247      S      25.4720000000    34.2200000000    26.3690000000
  248      C      27.2180000000    34.2210000000    26.8380000000
  249      H      27.7050000000    34.2700000000    25.8610000000
  250      H      27.3210000000    35.1580000000    27.3920000000
  251      H      27.5120000000    33.3420000000    27.4160000000
  252      O      25.2550000000    33.3250000000    25.1890000000
  253      C      24.3370000000    30.7190000000    17.7000000000
  254      H      24.7990000000    30.5230000000    18.6710000000
  255      H      25.1560000000    31.0370000000    17.0490000000
  256      H      23.6100000000    31.5350000000    17.6980000000
  257      S      23.5570000000    29.2210000000    17.0580000000
  258      C      22.3870000000    29.0200000000    18.4200000000
  259      H      21.5330000000    29.7000000000    18.4680000000
  260      H      22.0430000000    28.0000000000    18.2340000000
  261      H      22.9200000000    28.9620000000    19.3730000000
  262      O      24.6410000000    28.2020000000    17.2240000000
  263      C      22.3440000000    20.1740000000    22.7260000000
  264      H      22.1690000000    20.1810000000    23.8050000000
  265      H      21.4990000000    20.5910000000    22.1730000000
  266      H      22.4250000000    19.1670000000    22.3100000000
  267      S      23.8030000000    21.1660000000    22.3350000000
  268      C      24.7160000000    20.3030000000    23.6330000000
  269      H      24.7930000000    19.2260000000    23.4630000000
  270      H      25.7020000000    20.7740000000    23.6580000000
  271      H      24.2900000000    20.4570000000    24.6280000000
  272      O      23.4480000000    22.5230000000    22.8590000000
  273      C      31.3340000000    29.0500000000    29.6560000000
  274      H      31.6360000000    29.5950000000    30.5540000000
  275      H      32.1770000000    28.7330000000    29.0370000000
  276      H      30.7040000000    29.6470000000    28.9920000000
  277      S      30.5280000000    27.4630000000    29.9700000000
  278      C      29.8400000000    27.8520000000    31.5950000000
  279      H      29.2570000000    28.7710000000    31.4950000000
  280      H      29.2510000000    27.0590000000    32.0630000000
  281      H      30.7070000000    28.0130000000    32.2420000000
  282      O      31.6720000000    26.5440000000    30.2660000000
 ----------------------------------------------------------------
 Nuclear Repulsion Energy =       44927.12793341 hartrees
 There are      581 alpha and      581 beta electrons
 Requested basis set is 6-31+G(d)
 There are 929 shells and 2589 basis functions

 Total QAlloc Memory Limit  12000 MB
 Mega-Array Size      3911 MB
 MEM_STATIC part      4000 MB

 A cutoff of  1.0D-14 yielded 164685 shell pairs
 There are   1422463 function pairs
 Smallest overlap matrix eigenvalue = 3.23E-07
 Linear dependence detected in AO basis
 Tighter screening thresholds may be required for diffuse basis sets
 Use S2THRESH > 14 and THRESH = 14 in case of SCF convergence issues
 Number of orthogonalized atomic orbitals = 2586
 Maximum deviation from orthogonality = 1.029E-10

 Scale SEOQF with 1.000000e-03/1.000000e-03/1.000000e-03

 Standard Electronic Orientation quadrupole field applied
 Nucleus-field energy     =     0.0000002801 hartrees
 Guess from superposition of atomic densities
 Warning:  Energy on first SCF cycle will be non-variational
 SAD guess density has 1162.000002 electrons

 -----------------------------------------------------------------------
  General SCF calculation program by
  Eric Jon Sundstrom, Paul Horn, Yuezhi Mao, Dmitri Zuev, Alec White,
  David Stuck, Shaama M.S., Shane Yost, Joonho Lee, David Small,
  Daniel Levine, Susi Lehtola, Hugh Burton, Evgeny Epifanovsky,
  Bang C. Huynh
 -----------------------------------------------------------------------
=================================================
        Doing projection-based embedding         
      F. Manby et al. JCTC, 8, 2564 (2012)       
=================================================

****************************************************
   Low-level SCF calculation for the whole system   
****************************************************
----------------------------------------------
 Summary of the low-level theory: 
 Exchange:     0.2000 Hartree-Fock + 0.0800 Slater + 0.7200 B88
 Correlation:  0.1900 VWN1RPA + 0.8100 LYP
 Using Euler-Maclaurin-Lebedev (75,302) quadrature formula
----------------------------------------------
 using 16 threads for integral computing
 -------------------------------------------------------
 OpenMP Integral computing Module                
 Release: version 1.0, May 2013, Q-Chem Inc. Pittsburgh 
 -------------------------------------------------------
 A restricted SCF calculation will be
 performed using DIIS
 SCF converges when DIIS error is below 1.0e-08
 ---------------------------------------
  Cycle       Energy         DIIS error
 ---------------------------------------
    1  -14806.1528313441      1.37e-02  
    2  -14782.8962036334      2.55e-03  
    3  -14756.6349265057      5.36e-03  
    4  -14714.3043276988      4.82e-03  
    5  -14786.3840929035      1.24e-03  
    6  -14787.4771541641      3.15e-04  
    7  -14787.5260038705      2.20e-04  
    8  -14787.5602634435      1.02e-04  
    9  -14787.5685370582      4.20e-05  
   10  -14787.5697605202      2.30e-05  
   11  -14787.5700874600      8.61e-06  
   12  -14787.5701365080      2.24e-06  
   13  -14787.5701401331      6.58e-07  
   14  -14787.5701403929      3.14e-07  
   15  -14787.5701404531      1.17e-07  
   16  -14787.5701404622      3.29e-08  
   17  -14787.5701404630      9.47e-09  Convergence criterion met
 ---------------------------------------
 SCF time:   CPU 294021.98s  wall 20783.00s 
 SCF   energy in the final basis set =   -14787.5701404630
 Total energy in the final basis set =   -14787.5701404630

****************************************************
             Start embedding calculation            
****************************************************
----------------------------------------------
 Summary of the high-level theory: 
 Exchange:     0.2000 Hartree-Fock + 0.0800 Slater + 0.7200 B88
 Correlation:  0.1900 VWN1RPA + 0.8100 LYP
 Using Euler-Maclaurin-Lebedev (75,302) quadrature formula
----------------------------------------------
Doing R-in-R Embedding Calculation
Number of fragments: 2
Embedded fragment(s): 1 
NOcc for each fragment
           35
          546
NBasis for each fragment
          197
         2392
Variational space of the embedded problem: 
NOcc (active)  = 35
NOcc (fixed)   = 546
NVir (total)   = 2005
Read converged orbitals from disk
=========================================================
       Doing SPADE partition for the orbital space       
     D. Claudino and N. Mayhall JCTC 15, 1053 (2019)     
=========================================================
SPADE singular values:
 1.0000 1.0000 1.0000 1.0000 1.0000 1.0000 1.0000 1.0000 1.0000 0.9999
 0.9998 0.9997 0.9996 0.9995 0.9993 0.9991 0.9990 0.9989 0.9974 0.9971
 0.9968 0.9961 0.9955 0.9950 0.9944 0.9938 0.9933 0.9931 0.9920 0.9915
 0.9909 0.9899 0.9868 0.9820 0.9753 0.2354 0.1976 0.1846 0.1729 0.1610
 0.1604 0.1551 0.1323 0.1266 0.1238 0.1063 0.0992 0.0894 0.0852 0.0725
 0.0699 0.0632 0.0604 0.0519 0.0488 0.0468 0.0459 0.0435 0.0419 0.0396
 0.0370 0.0340 0.0335 0.0321 0.0302 0.0271 0.0270 0.0239 0.0214 0.0200
 0.0189 0.0182 0.0169 0.0163 0.0155 0.0140 0.0140 0.0129 0.0124 0.0122
 0.0114 0.0107 0.0105 0.0093 0.0090 0.0089 0.0085 0.0077 0.0076 0.0072
 0.0068 0.0066 0.0062 0.0056 0.0054 0.0053 0.0052 0.0049 0.0046 0.0045
 0.0043 0.0039 0.0039 0.0037 0.0035 0.0033 0.0032 0.0030 0.0028 0.0025
 0.0024 0.0024 0.0023 0.0022 0.0021 0.0020 0.0020 0.0018 0.0018 0.0017
 0.0016 0.0016 0.0015 0.0015 0.0014 0.0014 0.0013 0.0013 0.0012 0.0012
 0.0011 0.0011 0.0011 0.0010 0.0010 0.0009 0.0009 0.0008 0.0008 0.0008
 0.0007 0.0007 0.0007 0.0007 0.0006 0.0006 0.0006 0.0005 0.0005 0.0005
 0.0004 0.0004 0.0004 0.0004 0.0004 0.0004 0.0003 0.0003 0.0003 0.0003
 0.0003 0.0003 0.0003 0.0003 0.0003 0.0002 0.0002 0.0002 0.0002 0.0002
 0.0002 0.0002 0.0002 0.0002 0.0002 0.0002 0.0002 0.0002 0.0001 0.0001
 0.0001 0.0001 0.0001 0.0001 0.0001 0.0001 0.0001 0.0001 0.0001 0.0001
 0.0001 0.0001 0.0001 0.0001 0.0001 0.0001 0.0001
Early stop requested; no embedded SCF will be performed

 546 environment occs will be part of frozen-core in future post-HF calculations

 --------------------------------------------------------------

                    Orbital Energies (a.u.)
 --------------------------------------------------------------

 Alpha MOs
 -- Occupied --
-89.0513 -89.0486 -89.0312 -89.0308 -89.0193 -89.0192 -89.0161 -89.0106
-89.0089 -89.0054 -89.0039 -89.0002 -88.9992 -88.9939 -88.9937 -88.9910
-88.9902 -88.9833 -88.9814 -88.9807 -88.9786 -88.9758 -88.9752 -88.9712
-88.9505 -88.9472 -19.1656 -19.1589 -19.1464 -19.1428 -19.1393 -19.1316
-19.1283 -19.1256 -19.1252 -19.1242 -19.1204 -19.1180 -19.1173 -19.1164
-19.1058 -19.1053 -19.1050 -19.1045 -19.1037 -19.0970 -19.0964 -19.0951
-19.0845 -19.0803 -19.0670 -19.0558 -10.2722 -10.2718 -10.2707 -10.2682
-10.2472 -10.2467 -10.2454 -10.2453 -10.2378 -10.2347 -10.2339 -10.2337
-10.2329 -10.2305 -10.2267 -10.2247 -10.2225 -10.2208 -10.2191 -10.2172
-10.2163 -10.2163 -10.2157 -10.2135 -10.2127 -10.2123 -10.2121 -10.2120
-10.2102 -10.2095 -10.2080 -10.2079 -10.2035 -10.2021 -10.1992 -10.1992
-10.1988 -10.1963 -10.1928 -10.1910 -10.1881 -10.1868 -10.1865 -10.1860
-10.1850 -10.1817 -10.1807 -10.1777 -10.1691 -10.1645 -10.1618 -10.1574
 -8.0981  -8.0946  -8.0770  -8.0766  -8.0646  -8.0641  -8.0611  -8.0557
 -8.0547  -8.0513  -8.0490  -8.0468  -8.0452  -8.0406  -8.0393  -8.0364
 -8.0360  -8.0294  -8.0272  -8.0265  -8.0239  -8.0221  -8.0204  -8.0176
 -7.9971  -7.9936  -6.0623  -6.0611  -6.0591  -6.0579  -6.0554  -6.0516
 -6.0414  -6.0408  -6.0402  -6.0396  -6.0343  -6.0342  -6.0291  -6.0285
 -6.0276  -6.0274  -6.0256  -6.0243  -6.0220  -6.0215  -6.0201  -6.0191
 -6.0189  -6.0189  -6.0179  -6.0157  -6.0144  -6.0134  -6.0133  -6.0121
 -6.0119  -6.0108  -6.0099  -6.0094  -6.0088  -6.0084  -6.0067  -6.0049
 -6.0045  -6.0038  -6.0037  -6.0025  -6.0024  -6.0008  -6.0002  -5.9996
 -5.9992  -5.9978  -5.9966  -5.9939  -5.9937  -5.9935  -5.9922  -5.9914
 -5.9909  -5.9903  -5.9896  -5.9883  -5.9870  -5.9868  -5.9865  -5.9851
 -5.9851  -5.9847  -5.9840  -5.9835  -5.9820  -5.9816  -5.9805  -5.9796
 -5.9776  -5.9753  -5.9614  -5.9599  -5.9578  -5.9566  -5.9548  -5.9511
 -1.0759  -1.0747  -1.0559  -1.0545  -1.0443  -1.0424  -1.0396  -1.0334
 -1.0322  -1.0296  -1.0286  -1.0224  -1.0221  -1.0213  -1.0209  -1.0151
 -1.0144  -1.0100  -1.0084  -1.0081  -1.0034  -1.0013  -1.0006  -0.9965
 -0.9778  -0.9690  -0.8514  -0.8508  -0.8359  -0.8317  -0.8292  -0.8154
 -0.8114  -0.8104  -0.8097  -0.8090  -0.8075  -0.8062  -0.8055  -0.7995
 -0.7943  -0.7920  -0.7907  -0.7891  -0.7855  -0.7845  -0.7830  -0.7821
 -0.7771  -0.7768  -0.7687  -0.7673  -0.7603  -0.7559  -0.7553  -0.7500
 -0.7452  -0.7452  -0.7385  -0.7372  -0.7333  -0.7317  -0.7299  -0.7290
 -0.7278  -0.7224  -0.7216  -0.7183  -0.7170  -0.7086  -0.7063  -0.7002
 -0.6994  -0.6988  -0.6955  -0.6920  -0.6755  -0.6697  -0.6659  -0.6626
 -0.6456  -0.6447  -0.6332  -0.6310  -0.6258  -0.6248  -0.6199  -0.6175
 -0.6164  -0.6124  -0.6099  -0.6058  -0.6054  -0.6030  -0.6025  -0.5953
 -0.5947  -0.5923  -0.5899  -0.5889  -0.5853  -0.5831  -0.5634  -0.5602
 -0.5347  -0.5304  -0.5242  -0.5222  -0.5204  -0.5152  -0.5136  -0.5130
 -0.5042  -0.5021  -0.4995  -0.4977  -0.4962  -0.4953  -0.4940  -0.4927
 -0.4914  -0.4902  -0.4895  -0.4870  -0.4859  -0.4852  -0.4844  -0.4834
 -0.4809  -0.4796  -0.4784  -0.4770  -0.4761  -0.4759  -0.4753  -0.4748
 -0.4737  -0.4734  -0.4721  -0.4716  -0.4711  -0.4709  -0.4695  -0.4688
 -0.4682  -0.4678  -0.4678  -0.4667  -0.4655  -0.4643  -0.4638  -0.4633
 -0.4630  -0.4619  -0.4610  -0.4604  -0.4601  -0.4593  -0.4590  -0.4581
 -0.4581  -0.4564  -0.4559  -0.4556  -0.4553  -0.4543  -0.4541  -0.4532
 -0.4521  -0.4504  -0.4502  -0.4484  -0.4480  -0.4461  -0.4456  -0.4454
 -0.4452  -0.4426  -0.4419  -0.4415  -0.4412  -0.4407  -0.4404  -0.4380
 -0.4376  -0.4371  -0.4370  -0.4365  -0.4352  -0.4335  -0.4334  -0.4332
 -0.4329  -0.4317  -0.4311  -0.4303  -0.4296  -0.4291  -0.4285  -0.4274
 -0.4271  -0.4238  -0.4231  -0.4218  -0.4209  -0.4203  -0.4197  -0.4179
 -0.4178  -0.4157  -0.4148  -0.4146  -0.4141  -0.4138  -0.4125  -0.4122
 -0.4115  -0.4111  -0.4107  -0.4101  -0.4099  -0.4093  -0.4087  -0.4061
 -0.4036  -0.4032  -0.4031  -0.4021  -0.4016  -0.4010  -0.4006  -0.3991
 -0.3975  -0.3966  -0.3965  -0.3962  -0.3939  -0.3928  -0.3916  -0.3907
 -0.3898  -0.3884  -0.3880  -0.3879  -0.3870  -0.3847  -0.3846  -0.3843
 -0.3838  -0.3830  -0.3795  -0.3788  -0.3783  -0.3767  -0.3760  -0.3749
 -0.3745  -0.3743  -0.3738  -0.3731  -0.3716  -0.3687  -0.3679  -0.3677
 -0.3675  -0.3669  -0.3636  -0.3628  -0.3626  -0.3611  -0.3608  -0.3564
 -0.3547  -0.3532  -0.3527  -0.3483  -0.3466  -0.3459  -0.3430  -0.3406
 -0.3393  -0.3388  -0.3370  -0.3318  -0.3300  -0.3217  -0.3156  -0.3120
 -0.3055  -0.3053  -0.3003  -0.2930  -0.2914  -0.2899  -0.2860  -0.2858
 -0.2838  -0.2833  -0.2822  -0.2784  -0.2780  -0.2770  -0.2752  -0.2702
 -0.2670  -0.2651  -0.2637  -0.2630  -0.2613  -0.2612  -0.2594  -0.2582
 -0.2564  -0.2561  -0.2544  -0.2543  -0.2473  -0.2469  -0.2461  -0.2457
 -0.2397  -0.2390  -0.2387  -0.2362  -0.2350  -0.2347  -0.2317  -0.2309
 -0.2258  -0.2237  -0.2227  -0.2215  -0.2209  -0.2160  -0.2132  -0.2082
 -0.1974  -0.1854 -10.6817 -12.6049 -10.9424 -10.5767 -15.7364 -12.2997
-10.0943 -10.1346 -10.8964  -0.7815  -0.6888  -0.7136  -0.6306  -0.7555
 -0.5947  -0.5511  -0.8480  -0.7007  -0.4698  -0.4299  -0.4304  -0.4398
 -0.4380  -0.4075  -0.4161  -0.4308  -0.3824  -0.4363  -0.4892  -0.4290
 -0.4578  -0.4839  -0.4572  -0.5234  -0.5216
 -- Virtual --
 -0.0606  -0.0504  -0.0453  -0.0418  -0.0389  -0.0308  -0.0295  -0.0288
 -0.0277  -0.0267  -0.0247  -0.0219  -0.0192  -0.0169  -0.0155  -0.0132
 -0.0114  -0.0104  -0.0094  -0.0085  -0.0074  -0.0059  -0.0049  -0.0040
 -0.0036  -0.0017  -0.0011   0.0002   0.0014   0.0028   0.0038   0.0044
  0.0052   0.0060   0.0069   0.0076   0.0084   0.0089   0.0107   0.0113
  0.0116   0.0120   0.0132   0.0145   0.0147   0.0152   0.0159   0.0162
  0.0170   0.0173   0.0180   0.0182   0.0193   0.0196   0.0204   0.0210
  0.0222   0.0227   0.0235   0.0247   0.0252   0.0254   0.0259   0.0266
  0.0275   0.0278   0.0283   0.0292   0.0295   0.0304   0.0313   0.0315
  0.0322   0.0333   0.0350   0.0354   0.0367   0.0369   0.0380   0.0386
  0.0394   0.0401   0.0407   0.0410   0.0421   0.0425   0.0436   0.0440
  0.0448   0.0452   0.0457   0.0466   0.0469   0.0478   0.0484   0.0490
  0.0497   0.0503   0.0508   0.0518   0.0530   0.0535   0.0543   0.0546
  0.0548   0.0556   0.0560   0.0573   0.0576   0.0579   0.0585   0.0585
  0.0595   0.0608   0.0614   0.0617   0.0626   0.0634   0.0639   0.0652
  0.0657   0.0666   0.0669   0.0679   0.0680   0.0684   0.0691   0.0705
  0.0710   0.0716   0.0723   0.0728   0.0732   0.0740   0.0748   0.0758
  0.0767   0.0771   0.0775   0.0780   0.0786   0.0791   0.0802   0.0809
  0.0816   0.0826   0.0832   0.0837   0.0841   0.0849   0.0852   0.0861
  0.0865   0.0873   0.0877   0.0882   0.0884   0.0898   0.0901   0.0908
  0.0913   0.0915   0.0923   0.0932   0.0938   0.0939   0.0948   0.0961
  0.0965   0.0975   0.0977   0.0983   0.0988   0.0999   0.1001   0.1009
  0.1014   0.1022   0.1031   0.1035   0.1040   0.1048   0.1054   0.1063
  0.1064   0.1071   0.1075   0.1084   0.1091   0.1098   0.1101   0.1110
  0.1113   0.1119   0.1125   0.1130   0.1140   0.1147   0.1163   0.1168
  0.1175   0.1180   0.1187   0.1201   0.1203   0.1211   0.1213   0.1215
  0.1224   0.1229   0.1234   0.1243   0.1246   0.1256   0.1260   0.1268
  0.1274   0.1278   0.1283   0.1287   0.1294   0.1306   0.1312   0.1315
  0.1321   0.1324   0.1335   0.1341   0.1351   0.1354   0.1364   0.1368
  0.1375   0.1378   0.1384   0.1390   0.1394   0.1400   0.1405   0.1412
  0.1418   0.1430   0.1435   0.1439   0.1445   0.1454   0.1458   0.1461
  0.1467   0.1476   0.1484   0.1489   0.1491   0.1499   0.1500   0.1502
  0.1515   0.1523   0.1528   0.1537   0.1542   0.1552   0.1556   0.1561
  0.1570   0.1575   0.1580   0.1589   0.1592   0.1595   0.1600   0.1603
  0.1618   0.1624   0.1636   0.1639   0.1644   0.1653   0.1656   0.1662
  0.1670   0.1680   0.1685   0.1699   0.1702   0.1705   0.1707   0.1716
  0.1727   0.1731   0.1738   0.1749   0.1750   0.1755   0.1759   0.1765
  0.1772   0.1780   0.1789   0.1796   0.1802   0.1802   0.1815   0.1821
  0.1826   0.1835   0.1847   0.1852   0.1857   0.1863   0.1865   0.1873
  0.1879   0.1884   0.1888   0.1895   0.1901   0.1901   0.1912   0.1920
  0.1924   0.1929   0.1933   0.1949   0.1953   0.1958   0.1962   0.1972
  0.1974   0.1980   0.1989   0.1995   0.2004   0.2010   0.2012   0.2015
  0.2026   0.2032   0.2038   0.2045   0.2052   0.2054   0.2063   0.2064
  0.2069   0.2081   0.2081   0.2091   0.2096   0.2099   0.2107   0.2114
  0.2119   0.2125   0.2128   0.2137   0.2147   0.2148   0.2157   0.2163
  0.2171   0.2176   0.2178   0.2193   0.2200   0.2203   0.2208   0.2223
  0.2231   0.2236   0.2240   0.2252   0.2258   0.2261   0.2267   0.2269
  0.2272   0.2289   0.2296   0.2305   0.2314   0.2319   0.2324   0.2331
  0.2335   0.2346   0.2351   0.2358   0.2360   0.2368   0.2374   0.2378
  0.2384   0.2395   0.2403   0.2405   0.2415   0.2420   0.2427   0.2434
  0.2439   0.2449   0.2454   0.2467   0.2470   0.2479   0.2482   0.2484
  0.2496   0.2506   0.2512   0.2513   0.2526   0.2529   0.2543   0.2550
  0.2559   0.2561   0.2564   0.2570   0.2578   0.2585   0.2595   0.2605
  0.2611   0.2620   0.2621   0.2626   0.2629   0.2642   0.2650   0.2656
  0.2662   0.2671   0.2675   0.2682   0.2694   0.2698   0.2703   0.2711
  0.2720   0.2734   0.2738   0.2749   0.2752   0.2759   0.2765   0.2778
  0.2779   0.2794   0.2798   0.2805   0.2822   0.2825   0.2836   0.2840
  0.2848   0.2853   0.2871   0.2874   0.2879   0.2892   0.2898   0.2905
  0.2911   0.2920   0.2923   0.2935   0.2941   0.2948   0.2958   0.2964
  0.2975   0.2978   0.2983   0.2991   0.2999   0.3005   0.3010   0.3028
  0.3037   0.3049   0.3054   0.3063   0.3070   0.3075   0.3085   0.3098
  0.3104   0.3117   0.3130   0.3141   0.3141   0.3152   0.3163   0.3166
  0.3183   0.3186   0.3199   0.3205   0.3214   0.3222   0.3230   0.3246
  0.3251   0.3254   0.3257   0.3269   0.3276   0.3279   0.3299   0.3303
  0.3306   0.3316   0.3320   0.3329   0.3340   0.3346   0.3358   0.3372
  0.3385   0.3397   0.3399   0.3401   0.3419   0.3422   0.3429   0.3433
  0.3463   0.3466   0.3469   0.3484   0.3489   0.3500   0.3504   0.3512
  0.3521   0.3529   0.3536   0.3551   0.3558   0.3570   0.3581   0.3588
  0.3592   0.3599   0.3606   0.3616   0.3619   0.3639   0.3641   0.3643
  0.3663   0.3668   0.3676   0.3685   0.3695   0.3701   0.3716   0.3727
  0.3745   0.3746   0.3756   0.3772   0.3774   0.3787   0.3791   0.3804
  0.3816   0.3823   0.3830   0.3843   0.3856   0.3877   0.3880   0.3887
  0.3896   0.3901   0.3912   0.3914   0.3922   0.3939   0.3947   0.3956
  0.3974   0.3980   0.3986   0.3991   0.3996   0.4008   0.4018   0.4025
  0.4035   0.4043   0.4052   0.4060   0.4066   0.4076   0.4088   0.4094
  0.4098   0.4110   0.4126   0.4133   0.4140   0.4154   0.4174   0.4175
  0.4184   0.4189   0.4200   0.4205   0.4221   0.4238   0.4249   0.4251
  0.4257   0.4265   0.4273   0.4295   0.4299   0.4310   0.4319   0.4321
  0.4341   0.4344   0.4366   0.4371   0.4384   0.4406   0.4411   0.4417
  0.4435   0.4438   0.4446   0.4459   0.4467   0.4475   0.4481   0.4500
  0.4512   0.4515   0.4540   0.4548   0.4561   0.4565   0.4587   0.4587
  0.4592   0.4623   0.4626   0.4633   0.4650   0.4660   0.4678   0.4695
  0.4701   0.4713   0.4730   0.4758   0.4780   0.4791   0.4796   0.4798
  0.4804   0.4818   0.4830   0.4835   0.4859   0.4866   0.4890   0.4922
  0.4933   0.4938   0.4960   0.4966   0.4986   0.4996   0.5028   0.5033
  0.5044   0.5051   0.5073   0.5076   0.5100   0.5110   0.5134   0.5137
  0.5148   0.5173   0.5182   0.5191   0.5225   0.5232   0.5247   0.5269
  0.5279   0.5296   0.5322   0.5335   0.5363   0.5366   0.5381   0.5396
  0.5406   0.5416   0.5443   0.5449   0.5456   0.5474   0.5489   0.5490
  0.5501   0.5526   0.5554   0.5557   0.5572   0.5610   0.5618   0.5643
  0.5666   0.5689   0.5697   0.5710   0.5718   0.5737   0.5748   0.5761
  0.5772   0.5792   0.5806   0.5810   0.5829   0.5842   0.5858   0.5869
  0.5887   0.5903   0.5917   0.5928   0.5939   0.5955   0.5963   0.5983
  0.5985   0.6006   0.6024   0.6044   0.6061   0.6067   0.6086   0.6095
  0.6106   0.6121   0.6137   0.6156   0.6163   0.6171   0.6201   0.6212
  0.6223   0.6238   0.6247   0.6254   0.6265   0.6280   0.6285   0.6301
  0.6323   0.6332   0.6342   0.6354   0.6364   0.6384   0.6389   0.6398
  0.6408   0.6413   0.6432   0.6442   0.6454   0.6461   0.6478   0.6489
  0.6504   0.6512   0.6517   0.6528   0.6548   0.6560   0.6574   0.6586
  0.6592   0.6601   0.6614   0.6634   0.6646   0.6659   0.6666   0.6672
  0.6686   0.6703   0.6707   0.6712   0.6734   0.6755   0.6759   0.6768
  0.6791   0.6802   0.6806   0.6811   0.6832   0.6847   0.6848   0.6869
  0.6871   0.6879   0.6893   0.6904   0.6912   0.6929   0.6942   0.6947
  0.6954   0.6967   0.6976   0.6999   0.7006   0.7026   0.7030   0.7045
  0.7049   0.7057   0.7069   0.7074   0.7084   0.7114   0.7127   0.7140
  0.7148   0.7158   0.7174   0.7180   0.7207   0.7218   0.7232   0.7246
  0.7259   0.7264   0.7277   0.7291   0.7298   0.7317   0.7325   0.7347
  0.7363   0.7373   0.7401   0.7417   0.7423   0.7449   0.7457   0.7480
  0.7488   0.7502   0.7520   0.7540   0.7548   0.7560   0.7567   0.7580
  0.7589   0.7614   0.7641   0.7649   0.7660   0.7677   0.7691   0.7699
  0.7728   0.7738   0.7754   0.7772   0.7788   0.7800   0.7826   0.7835
  0.7847   0.7856   0.7881   0.7884   0.7893   0.7906   0.7924   0.7949
  0.7974   0.7991   0.7996   0.8013   0.8044   0.8059   0.8070   0.8077
  0.8083   0.8108   0.8136   0.8142   0.8164   0.8179   0.8189   0.8211
  0.8232   0.8235   0.8261   0.8266   0.8282   0.8300   0.8311   0.8324
  0.8344   0.8353   0.8359   0.8379   0.8397   0.8414   0.8424   0.8434
  0.8454   0.8473   0.8486   0.8492   0.8499   0.8507   0.8514   0.8555
  0.8558   0.8562   0.8580   0.8584   0.8597   0.8617   0.8635   0.8643
  0.8652   0.8657   0.8668   0.8678   0.8693   0.8707   0.8720   0.8733
  0.8746   0.8752   0.8765   0.8797   0.8805   0.8812   0.8831   0.8848
  0.8868   0.8885   0.8895   0.8919   0.8926   0.8934   0.8941   0.8954
  0.8973   0.8978   0.8988   0.9003   0.9011   0.9031   0.9040   0.9046
  0.9070   0.9077   0.9090   0.9098   0.9113   0.9127   0.9135   0.9144
  0.9151   0.9161   0.9173   0.9179   0.9190   0.9196   0.9202   0.9222
  0.9242   0.9250   0.9260   0.9276   0.9280   0.9285   0.9307   0.9312
  0.9324   0.9332   0.9350   0.9365   0.9381   0.9401   0.9408   0.9416
  0.9423   0.9435   0.9438   0.9467   0.9470   0.9484   0.9494   0.9506
  0.9523   0.9527   0.9548   0.9557   0.9572   0.9580   0.9591   0.9600
  0.9614   0.9626   0.9632   0.9642   0.9653   0.9658   0.9677   0.9689
  0.9700   0.9705   0.9721   0.9725   0.9739   0.9745   0.9758   0.9773
  0.9780   0.9794   0.9806   0.9810   0.9819   0.9830   0.9857   0.9869
  0.9880   0.9890   0.9909   0.9919   0.9931   0.9941   0.9951   0.9975
  0.9980   0.9990   0.9996   1.0000   1.0007   1.0019   1.0030   1.0043
  1.0051   1.0056   1.0075   1.0102   1.0119   1.0130   1.0138   1.0147
  1.0162   1.0166   1.0183   1.0194   1.0200   1.0212   1.0216   1.0240
  1.0244   1.0268   1.0280   1.0296   1.0305   1.0311   1.0325   1.0338
  1.0358   1.0367   1.0372   1.0383   1.0404   1.0416   1.0429   1.0449
  1.0471   1.0481   1.0489   1.0501   1.0511   1.0524   1.0535   1.0542
  1.0557   1.0567   1.0574   1.0591   1.0611   1.0624   1.0640   1.0648
  1.0662   1.0668   1.0687   1.0710   1.0725   1.0731   1.0741   1.0750
  1.0773   1.0787   1.0801   1.0830   1.0834   1.0841   1.0848   1.0850
  1.0872   1.0892   1.0902   1.0909   1.0928   1.0938   1.0967   1.0984
  1.0997   1.1011   1.1020   1.1034   1.1055   1.1065   1.1087   1.1091
  1.1098   1.1117   1.1129   1.1132   1.1150   1.1162   1.1179   1.1185
  1.1196   1.1213   1.1237   1.1242   1.1254   1.1264   1.1297   1.1304
  1.1317   1.1327   1.1356   1.1360   1.1365   1.1388   1.1399   1.1422
  1.1438   1.1455   1.1468   1.1491   1.1499   1.1504   1.1512   1.1532
  1.1541   1.1554   1.1562   1.1582   1.1593   1.1606   1.1623   1.1625
  1.1646   1.1649   1.1662   1.1668   1.1684   1.1703   1.1730   1.1738
  1.1741   1.1763   1.1768   1.1784   1.1794   1.1818   1.1827   1.1852
  1.1862   1.1881   1.1891   1.1895   1.1922   1.1934   1.1950   1.1967
  1.1983   1.1990   1.2010   1.2034   1.2039   1.2052   1.2067   1.2103
  1.2123   1.2136   1.2157   1.2178   1.2185   1.2205   1.2219   1.2252
  1.2259   1.2280   1.2310   1.2312   1.2333   1.2352   1.2374   1.2401
  1.2421   1.2435   1.2458   1.2495   1.2501   1.2525   1.2541   1.2550
  1.2577   1.2591   1.2611   1.2634   1.2660   1.2678   1.2715   1.2754
  1.2771   1.2786   1.2809   1.2845   1.2858   1.2874   1.2889   1.2897
  1.2926   1.2969   1.2985   1.2998   1.3022   1.3060   1.3096   1.3104
  1.3116   1.3141   1.3167   1.3181   1.3195   1.3222   1.3226   1.3244
  1.3277   1.3322   1.3330   1.3347   1.3367   1.3399   1.3414   1.3437
  1.3451   1.3481   1.3486   1.3505   1.3521   1.3542   1.3553   1.3580
  1.3584   1.3594   1.3617   1.3654   1.3663   1.3678   1.3701   1.3705
  1.3721   1.3742   1.3757   1.3760   1.3789   1.3802   1.3820   1.3831
  1.3847   1.3860   1.3887   1.3894   1.3905   1.3928   1.3937   1.3955
  1.3976   1.3988   1.4012   1.4036   1.4046   1.4070   1.4079   1.4092
  1.4099   1.4109   1.4137   1.4161   1.4175   1.4194   1.4207   1.4212
  1.4228   1.4252   1.4259   1.4286   1.4300   1.4325   1.4337   1.4341
  1.4353   1.4363   1.4379   1.4427   1.4431   1.4448   1.4464   1.4476
  1.4487   1.4494   1.4512   1.4544   1.4556   1.4578   1.4596   1.4609
  1.4626   1.4631   1.4656   1.4673   1.4701   1.4721   1.4734   1.4751
  1.4757   1.4768   1.4792   1.4816   1.4840   1.4860   1.4861   1.4873
  1.4894   1.4919   1.4931   1.4951   1.4988   1.5003   1.5014   1.5038
  1.5046   1.5083   1.5107   1.5131   1.5139   1.5179   1.5190   1.5199
  1.5226   1.5230   1.5263   1.5298   1.5318   1.5346   1.5359   1.5380
  1.5392   1.5404   1.5447   1.5487   1.5503   1.5522   1.5525   1.5571
  1.5617   1.5636   1.5671   1.5690   1.5731   1.5759   1.5778   1.5827
  1.5860   1.5867   1.5910   1.5939   1.6014   1.6022   1.6051   1.6071
  1.6096   1.6113   1.6215   1.6236   1.6276   1.6311   1.6327   1.6353
  1.6412   1.6427   1.6444   1.6473   1.6489   1.6497   1.6521   1.6542
  1.6578   1.6589   1.6609   1.6635   1.6637   1.6681   1.6708   1.6741
  1.6754   1.6771   1.6808   1.6810   1.6816   1.6824   1.6838   1.6850
  1.6853   1.6874   1.6892   1.6911   1.6928   1.6932   1.6940   1.6975
  1.6979   1.6995   1.7007   1.7014   1.7038   1.7058   1.7075   1.7088
  1.7100   1.7129   1.7138   1.7148   1.7151   1.7172   1.7183   1.7193
  1.7210   1.7238   1.7261   1.7265   1.7292   1.7296   1.7316   1.7320
  1.7333   1.7348   1.7356   1.7365   1.7374   1.7388   1.7414   1.7421
  1.7437   1.7471   1.7476   1.7488   1.7518   1.7543   1.7566   1.7570
  1.7586   1.7589   1.7597   1.7608   1.7638   1.7644   1.7660   1.7666
  1.7675   1.7696   1.7711   1.7718   1.7729   1.7739   1.7750   1.7773
  1.7798   1.7821   1.7826   1.7859   1.7870   1.7881   1.7892   1.7922
  1.7929   1.7946   1.7966   1.7991   1.8004   1.8021   1.8032   1.8072
  1.8095   1.8104   1.8126   1.8131   1.8148   1.8194   1.8209   1.8247
  1.8263   1.8285   1.8290   1.8358   1.8387   1.8400   1.8407   1.8423
  1.8436   1.8477   1.8552   1.8581   1.8614   1.8628   1.8641   1.8658
  1.8689   1.8715   1.8722   1.8749   1.8766   1.8787   1.8793   1.8807
  1.8820   1.8832   1.8836   1.8861   1.8873   1.8892   1.8905   1.8910
  1.8932   1.8941   1.8948   1.8965   1.8971   1.8987   1.9010   1.9018
  1.9040   1.9044   1.9061   1.9065   1.9068   1.9087   1.9092   1.9106
  1.9129   1.9147   1.9157   1.9184   1.9196   1.9204   1.9226   1.9243
  1.9266   1.9270   1.9295   1.9314   1.9344   1.9380   1.9390   1.9435
  1.9445   1.9453   1.9457   1.9471   1.9483   1.9513   1.9559   1.9592
  1.9639   1.9650   1.9679   1.9711   1.9723   1.9729   1.9757   1.9797
  1.9825   1.9892   1.9918   2.0019   2.0086   2.0161   2.0179   2.0209
  2.0246   2.0297   2.0362   2.0432   2.0454   2.0460   2.0523   2.0538
  2.0551   2.0581   2.0588   2.0608   2.0610   2.0622   2.0683   2.0703
  2.0725   2.0735   2.0759   2.0785   2.0815   2.0825   2.0833   2.0851
  2.0869   2.0876   2.0900   2.0924   2.0931   2.0954   2.0967   2.0987
  2.0999   2.1018   2.1032   2.1044   2.1051   2.1067   2.1077   2.1088
  2.1099   2.1109   2.1129   2.1130   2.1140   2.1184   2.1194   2.1220
  2.1236   2.1242   2.1270   2.1290   2.1306   2.1338   2.1344   2.1371
  2.1388   2.1395   2.1435   2.1480   2.1498   2.1563   2.1583   2.1638
  2.1707   2.1728   2.1734   2.1770   2.1785   2.1811   2.1846   2.1883
  2.1935   2.1944   2.1964   2.1997   2.2009   2.2040   2.2044   2.2046
  2.2064   2.2076   2.2090   2.2107   2.2120   2.2146   2.2171   2.2174
  2.2195   2.2202   2.2208   2.2228   2.2249   2.2265   2.2295   2.2308
  2.2326   2.2357   2.2367   2.2370   2.2410   2.2420   2.2425   2.2453
  2.2466   2.2471   2.2481   2.2501   2.2515   2.2541   2.2553   2.2557
  2.2563   2.2568   2.2575   2.2595   2.2599   2.2606   2.2608   2.2624
  2.2627   2.2644   2.2647   2.2649   2.2653   2.2673   2.2677   2.2685
  2.2693   2.2706   2.2715   2.2722   2.2727   2.2737   2.2751   2.2755
  2.2759   2.2778   2.2784   2.2802   2.2805   2.2820   2.2820   2.2831
  2.2849   2.2854   2.2859   2.2865   2.2870   2.2888   2.2902   2.2920
  2.2935   2.2948   2.2957   2.2966   2.2975   2.3003   2.3010   2.3032
  2.3047   2.3053   2.3065   2.3074   2.3079   2.3082   2.3094   2.3109
  2.3113   2.3118   2.3141   2.3148   2.3154   2.3174   2.3185   2.3200
  2.3212   2.3227   2.3241   2.3256   2.3261   2.3283   2.3290   2.3323
  2.3324   2.3350   2.3369   2.3386   2.3402   2.3406   2.3434   2.3442
  2.3466   2.3471   2.3482   2.3522   2.3536   2.3546   2.3565   2.3574
  2.3580   2.3599   2.3632   2.3640   2.3666   2.3686   2.3699   2.3711
  2.3762   2.3784   2.3791   2.3798   2.3807   2.3829   2.3891   2.3910
  2.3980   2.3997   2.4037   2.4095   2.4168   2.4252   2.4276   2.4392
  2.4510   2.4722   2.4978   2.5151   2.5624   2.5852   2.6120   2.6964
  2.7458   2.7551   2.7748   2.7896   2.7999   2.8198   2.8281   2.8348
  2.8357   2.8383   2.8420   2.8443   2.8467   2.8481   2.8495   2.8523
  2.8546   2.8557   2.8632   2.8659   2.8679   2.8718   2.8731   2.8777
  2.8802   2.8817   2.8824   2.8876   2.8921   2.8940   2.8995   2.9009
  2.9277   2.9684   3.1197   3.2877   3.9203   3.9293   3.9558   3.9595
  3.9663   3.9691   3.9723   3.9743   3.9817   3.9862   3.9936   3.9943
  3.9974   4.0017   4.0033   4.0067   4.0101   4.0112   4.0137   4.0164
  4.0191   4.0206   4.0239   4.0263   4.0289   4.0330   4.1914   4.2001
  4.2156   4.2228   4.2263   4.2306   4.2419   4.2436   4.2514   4.2551
  4.2579   4.2644   4.2668   4.2695   4.2713   4.2738   4.2762   4.2791
  4.2820   4.2830   4.2837   4.2884   4.2939   4.2953   4.2967   4.3001
  4.3009   4.3053   4.3089   4.3109   4.3135   4.3152   4.3181   4.3207
  4.3225   4.3241   4.3274   4.3280   4.3325   4.3342   4.3378   4.3403
  4.3425   4.3455   4.3474   4.3507   4.3518   4.3553   4.3577   4.3604
  4.3668   4.3694   4.3699   4.3722   4.3783   4.3803   4.3827   4.3840
  4.3890   4.3923   4.3964   4.4005   4.4056   4.4122   4.4128   4.4209
  4.4255   4.4369   4.4397   4.4517   4.4576   4.4648   4.4843   4.4988
  4.5142   4.5387   4.5527   4.5714   4.5789   4.6047   4.6413   4.6857
  4.6995   4.7305   4.7834   4.8138   5.0190
 --------------------------------------------------------------

          Ground-State Mulliken Net Atomic Charges

     Atom                 Charge (a.u.)
  ----------------------------------------
      1 C                    -0.309310
      2 C                    -0.727373
      3 C                    -0.257696
      4 C                    -0.325679
      5 C                    -0.541184
      6 C                    -0.675243
      7 H                     0.242303
      8 H                     0.269249
      9 H                     0.211615
     10 H                     0.209689
     11 H                     0.199700
     12 H                     0.200192
     13 H                     0.204306
     14 H                     0.185507
     15 H                     0.242229
     16 H                     0.224138
     17 H                     0.239252
     18 N                     0.604558
     19 H                     0.454036
     20 C                    -0.947572
     21 H                     0.246267
     22 O                    -0.094226
     23 C                    -0.641746
     24 H                     0.303174
     25 H                     0.223124
     26 H                     0.314549
     27 S                     0.056285
     28 C                    -0.677323
     29 H                     0.272285
     30 H                     0.264972
     31 H                     0.243934
     32 O                    -0.484415
     33 C                    -0.858450
     34 H                     0.306141
     35 H                     0.289598
     36 H                     0.255440
     37 S                     0.902236
     38 C                    -0.901575
     39 H                     0.237619
     40 H                     0.307161
     41 H                     0.247782
     42 O                    -0.651147
     43 C                    -0.910568
     44 H                     0.266537
     45 H                     0.239881
     46 H                     0.307280
     47 S                     1.118951
     48 C                    -1.061963
     49 H                     0.251550
     50 H                     0.253864
     51 H                     0.250923
     52 O                    -0.718081
     53 C                    -0.823396
     54 H                     0.254993
     55 H                     0.289799
     56 H                     0.257879
     57 S                     0.879251
     58 C                    -1.025765
     59 H                     0.243425
     60 H                     0.310972
     61 H                     0.249945
     62 O                    -0.585709
     63 C                    -0.921889
     64 H                     0.279344
     65 H                     0.258356
     66 H                     0.242216
     67 S                     1.040140
     68 C                    -0.960275
     69 H                     0.232199
     70 H                     0.343339
     71 H                     0.292930
     72 O                    -0.693856
     73 C                    -0.741781
     74 H                     0.269512
     75 H                     0.236137
     76 H                     0.289186
     77 S                     0.587596
     78 C                    -0.834685
     79 H                     0.272768
     80 H                     0.249703
     81 H                     0.286381
     82 O                    -0.635772
     83 C                    -1.191637
     84 H                     0.239909
     85 H                     0.320317
     86 H                     0.256452
     87 S                     1.382180
     88 C                    -1.021357
     89 H                     0.244597
     90 H                     0.300561
     91 H                     0.244551
     92 O                    -0.751438
     93 C                    -1.171342
     94 H                     0.299438
     95 H                     0.259934
     96 H                     0.275927
     97 S                     1.093105
     98 C                    -0.929441
     99 H                     0.217044
    100 H                     0.245355
    101 H                     0.301888
    102 O                    -0.773854
    103 C                    -0.885894
    104 H                     0.252140
    105 H                     0.273434
    106 H                     0.244245
    107 S                     0.969322
    108 C                    -0.937147
    109 H                     0.254544
    110 H                     0.227557
    111 H                     0.295264
    112 O                    -0.645346
    113 C                    -0.848657
    114 H                     0.236348
    115 H                     0.284231
    116 H                     0.258569
    117 S                     0.942621
    118 C                    -0.802058
    119 H                     0.212547
    120 H                     0.273989
    121 H                     0.262110
    122 O                    -0.757936
    123 C                    -0.969800
    124 H                     0.248794
    125 H                     0.277502
    126 H                     0.260373
    127 S                     0.973878
    128 C                    -0.851041
    129 H                     0.279521
    130 H                     0.246661
    131 H                     0.263700
    132 O                    -0.730544
    133 C                    -0.870759
    134 H                     0.265217
    135 H                     0.246092
    136 H                     0.243361
    137 S                     1.120348
    138 C                    -0.799308
    139 H                     0.234579
    140 H                     0.247348
    141 H                     0.266443
    142 O                    -0.808411
    143 C                    -0.899938
    144 H                     0.271559
    145 H                     0.253154
    146 H                     0.237940
    147 S                     1.001601
    148 C                    -0.865334
    149 H                     0.265272
    150 H                     0.239747
    151 H                     0.264262
    152 O                    -0.701546
    153 C                    -0.836883
    154 H                     0.256598
    155 H                     0.251108
    156 H                     0.233947
    157 S                     1.025654
    158 C                    -0.830460
    159 H                     0.275101
    160 H                     0.215460
    161 H                     0.281226
    162 O                    -0.768243
    163 C                    -0.864806
    164 H                     0.254400
    165 H                     0.233666
    166 H                     0.263241
    167 S                     0.882543
    168 C                    -0.903887
    169 H                     0.232276
    170 H                     0.263032
    171 H                     0.298781
    172 O                    -0.708206
    173 C                    -1.041509
    174 H                     0.273647
    175 H                     0.280029
    176 H                     0.260516
    177 S                     0.998873
    178 C                    -1.009301
    179 H                     0.259676
    180 H                     0.272593
    181 H                     0.310117
    182 O                    -0.600681
    183 C                    -0.706145
    184 H                     0.251733
    185 H                     0.237733
    186 H                     0.290911
    187 S                     0.796204
    188 C                    -0.964669
    189 H                     0.276417
    190 H                     0.265646
    191 H                     0.273641
    192 O                    -0.729379
    193 C                    -0.700035
    194 H                     0.285438
    195 H                     0.274361
    196 H                     0.233795
    197 S                     0.176251
    198 C                    -0.617632
    199 H                     0.303922
    200 H                     0.244727
    201 H                     0.257061
    202 O                    -0.591320
    203 C                    -0.790497
    204 H                     0.230413
    205 H                     0.252049
    206 H                     0.278935
    207 S                     0.706296
    208 C                    -0.739696
    209 H                     0.247408
    210 H                     0.252556
    211 H                     0.233301
    212 O                    -0.650516
    213 C                    -0.879392
    214 H                     0.260140
    215 H                     0.238033
    216 H                     0.304736
    217 S                     0.460813
    218 C                    -0.609495
    219 H                     0.290680
    220 H                     0.234200
    221 H                     0.301973
    222 O                    -0.674762
    223 C                    -1.045907
    224 H                     0.243336
    225 H                     0.277909
    226 H                     0.258186
    227 S                     1.046872
    228 C                    -0.966356
    229 H                     0.262641
    230 H                     0.243101
    231 H                     0.267744
    232 O                    -0.679497
    233 C                    -0.919041
    234 H                     0.235211
    235 H                     0.279496
    236 H                     0.264257
    237 S                     0.720978
    238 C                    -0.967635
    239 H                     0.291523
    240 H                     0.226902
    241 H                     0.262538
    242 O                    -0.474373
    243 C                    -0.976206
    244 H                     0.287393
    245 H                     0.225903
    246 H                     0.267700
    247 S                     0.858251
    248 C                    -0.901428
    249 H                     0.321741
    250 H                     0.237928
    251 H                     0.281634
    252 O                    -0.567454
    253 C                    -0.755324
    254 H                     0.258666
    255 H                     0.264816
    256 H                     0.228488
    257 S                     0.651526
    258 C                    -0.759260
    259 H                     0.239144
    260 H                     0.258341
    261 H                     0.272515
    262 O                    -0.684811
    263 C                    -0.846000
    264 H                     0.265340
    265 H                     0.243966
    266 H                     0.231230
    267 S                     0.849154
    268 C                    -0.779613
    269 H                     0.231348
    270 H                     0.249914
    271 H                     0.318472
    272 O                    -0.738487
    273 C                    -0.971802
    274 H                     0.245304
    275 H                     0.260941
    276 H                     0.271149
    277 S                     1.206401
    278 C                    -1.014599
    279 H                     0.231421
    280 H                     0.285355
    281 H                     0.264790
    282 O                    -0.674539
  ----------------------------------------
  Sum of atomic charges =     0.000000

 -----------------------------------------------------------------
                    Cartesian Multipole Moments
 -----------------------------------------------------------------
    Charge (ESU x 10^10)
                 0.0000
    Dipole Moment (Debye)
         X      13.8941      Y      38.2964      Z      -1.3186
       Tot      40.7602
    Quadrupole Moments (Debye-Ang)
        XX    -250.8033     XY    1476.0965     YY    1445.5942
        XZ     299.6913     YZ    1093.1274     ZZ    -960.5370
    Octopole Moments (Debye-Ang^2)
       XXX  -51655.1344    XXY   22651.1659    XYY   53311.9549
       YYY   30273.7807    XXZ   -8398.8187    XYZ   40252.7200
       YYZ   45483.1493    XZZ  -18255.3258    YZZ    4763.1631
       ZZZ  -68925.1714
    Hexadecapole Moments (Debye-Ang^3)
      XXXX ************   XXXY -667330.0552   XXYY  939812.1073
      XYYY 1290274.0104   YYYY -180546.1068   XXXZ ************
      XXYZ  637720.2322   XYYZ 1577410.6514   YYYZ 1215876.7666
      XXZZ -961030.5704   XYZZ  375808.9951   YYZZ  578286.3912
      XZZZ ************   YZZZ ************   ZZZZ ************
 -----------------------------------------------------------------
 Total job time:  21066.16s(wall), 296975.96s(cpu) 
 Thu Jul 21 09:04:35 2022

        *************************************************************
        *                                                           *
        *  Thank you very much for using Q-Chem.  Have a nice day.  *
        *                                                           *
        *************************************************************


 
User input: 2 of 2 
 
                  Welcome to Q-Chem
     A Quantum Leap Into The Future Of Chemistry


 Q-Chem 6.0 (devel), Q-Chem, Inc., Pleasanton, CA (2022)

 E. Epifanovsky,  A. T. B. Gilbert,  Xintian Feng,  Joonho Lee,  Yuezhi Mao,  
 N. Mardirossian,  P. Pokhilko,  A. White,  M. Wormit,  M. P. Coons,  
 A. L. Dempwolff,  Zhengting Gan,  D. Hait,  P. R. Horn,  L. D. Jacobson,  
 I. Kaliman,  J. Kussmann,  A. W. Lange,  Ka Un Lao,  D. S. Levine,  Jie Liu,  
 S. C. McKenzie,  A. F. Morrison,  K. Nanda,  F. Plasser,  D. R. Rehn,  
 M. L. Vidal,  Zhi-Qiang You,  Ying Zhu,  B. Alam,  B. Albrecht,  
 A. Aldossary,  E. Alguire,  J. H. Andersen,  V. Athavale,  D. Barton,  
 K. Begam,  A. Behn,  N. Bellonzi,  Y. A. Bernard,  E. J. Berquist,  
 H. Burton,  A. Carreras,  K. Carter-Fenk,  Romit Chakraborty,  
 Chandrima Chakravarty,  Junhan Chen,  A. D. Chien,  K. D. Closser,  
 V. Cofer-Shabica,  L. Cunha,  S. Dasgupta,  Jia Deng,  M. de Wergifosse,  
 M. Diedenhofen,  Hainam Do,  S. Ehlert,  Po-Tung Fang,  S. Fatehi,  
 Qingguo Feng,  T. Friedhoff,  B. Ganoe,  J. Gayvert,  Qinghui Ge,  
 G. Gidofalvi,  M. Goldey,  J. Gomes,  C. Gonzalez-Espinoza,  S. Gulania,  
 A. Gunina,  J. A. Gyamfi,  M. W. D. Hanson-Heine,  P. H. P. Harbach,  
[...]
    3  -0.5900926  -0.9411459   1.0856600   0.3643306   2.6589161  -0.4148197
          187         188         189         190         191         192
    1  -0.2305686  -0.3673385  -1.5315894   1.5608875  -1.2310788  -2.9757938
    2   1.7693068   3.1425453   4.3362567   3.5312231   1.8278554   2.7001617
    3  -0.4305595  -2.0969014  -1.1264666  -1.8686722  -3.1238625   0.6169311
          193         194         195         196         197         198
    1  -2.4336540  -1.4777530  -2.3077277  -3.0689165  -0.4978370  -0.4183163
    2   0.6023976   1.4396675  -1.0044550   1.6925988   0.2667624   1.7077664
    3   1.4601695  -0.1356518   1.5637111   2.9873625   2.9830540   2.5594993
          199         200         201         202         203         204
    1  -0.1739377  -2.4276485   1.3759645   1.3101079   0.3309362   0.8805436
    2   1.6851241   1.9090482   1.3239021  -0.1345117   0.1650804   0.4107805
    3   0.2972989   2.9951648   3.6439595  -0.1631099  -2.7973680  -4.2409947
          205         206         207         208         209         210
    1  -0.5159656   0.4981008   2.4358750   1.6157817   3.2787732  -0.1157340
    2  -1.9067098   1.2627874  -0.0531484  -2.1045530  -2.1124105  -2.8265644
    3  -2.5710452  -1.6031317  -1.9866683  -2.2967345  -1.2708909  -1.3647784
          211         212         213         214         215         216
    1   1.0833244   1.8055943   1.4632004   1.8271276  -0.0680089   2.4604196
    2  -0.9002352  -0.8998328  -0.2034536   0.9783119   0.2202426  -1.5580283
    3  -3.8875649   0.8687600  -0.2811934  -1.5352323   1.0622240   0.1536230
          217         218         219         220         221         222
    1   0.8819157  -0.7904055  -1.5842229  -0.8169295   0.3396578  -0.6499196
    2  -1.1532062   0.1948485  -0.8694977   0.2001290   1.1289733  -2.8673975
    3  -2.4491764  -2.0306133  -3.0671888   0.4712107  -2.7209903  -0.5483559
          223         224         225         226         227         228
    1   2.6848734   2.0534111   1.7580458   4.4721962   0.9906038   2.3783589
    2  -0.6992313  -2.2904656   0.6314576  -0.8058552  -0.6866638   0.4027849
    3  -1.6463879  -2.5309729  -1.6764502  -0.4985558  -0.3440162   0.9474452
          229         230         231         232         233         234
    1   4.4480817   1.3896753   1.6385733   3.1804116  -2.7765126  -2.1101085
    2  -0.0928865   1.2465302  -0.4006203  -3.2124482   1.2675651   1.0820308
    3   0.7789417  -0.1049193   2.1653507   0.6648173   1.4191471   3.0526953
          235         236         237         238         239         240
    1  -2.0135650  -4.4457638  -0.6483429  -2.1266777  -3.8713382  -2.1574916
    2   2.0549538   0.4008930   0.4877912   0.0982969  -0.7295324   1.6949765
    3   0.0906522   0.8892361   0.3876636  -0.9470443  -0.3640932  -0.8182030
          241         242         243         244         245         246
    1  -0.0743795  -1.7980761  -1.0391978  -2.6490165  -1.0892705   0.6217216
    2  -0.7729576  -1.9003484   2.5089465   2.1586287   3.2199371   2.0372795
    3  -1.3634305   1.3396474   0.7314766   0.1537147   2.6182188  -0.2810416
          247         248         249         250         251         252
    1  -1.4668712   0.8462383   1.5313869   0.2967543   0.6012926  -1.3895217
    2   1.0621726   0.8850733   0.8284914   2.7592224  -0.5839070  -0.5916388
    3   1.7097940   1.1532550  -0.8243042   1.9069586   1.6143022  -0.9226167
          253         254         255         256         257         258
    1  -0.5606705   0.0552116   0.8872047  -2.4265210  -1.7390490  -2.8620449
    2   1.2211514   0.0847391   1.1210552   2.1473832   0.0040908  -0.3672938
    3  -2.0512054  -0.6510309  -3.5154360  -2.1864673  -2.9076357  -0.9277452
          259         260         261         262         263         264
    1  -3.8332749  -3.0012740  -1.5752351   0.7207361  -2.3972332  -2.3679222
    2   0.9780003  -2.3259972  -0.4097750  -2.1093173  -2.6097383  -2.3189465
    3  -1.1885594  -1.6458282   0.1468397  -2.3272996  -0.5997764   1.4559980
          265         266         267         268         269         270
    1  -3.4052224  -1.3879636  -0.5422998   0.1762543   0.0279144   1.5253362
    2  -1.2463254  -3.8288461  -2.1963447  -2.8839078  -4.3365142  -1.7977622
    3  -1.7205509  -1.3956846  -1.9122611   0.1125421  -0.5881804  -0.3931557
          271         272         273         274         275         276
    1  -1.1763212  -1.6501623   2.2410704   2.5684115   3.7097550   0.6932627
    2  -2.3089004   0.1863559   1.1944452   1.5666683   0.0997868   1.2816870
    3   1.4831529  -0.4676632   1.1692809   3.1558099   0.0674505  -0.0225521
          277         278         279         280         281         282
    1   0.6759109   0.4770781  -0.2929059  -0.2891474   2.4766840   3.5368946
    2   0.0053028   0.4984068   1.6959199  -0.5195868   0.6873400  -1.5044484
    3   0.8598184   3.2910879   2.7924809   3.3621286   4.0403624   1.8688046
 EField
            1           2           3           4           5           6
    1  -0.0012656  -0.0043564  -0.0065531  -0.0052099  -0.0019320   0.0009132
    2   0.0009807  -0.0043117  -0.0039856  -0.0015334   0.0005822   0.0001365
    3  -0.0017466  -0.0042676  -0.0008928  -0.0030800  -0.0036450  -0.0028013
            7           8           9          10          11          12
    1  -0.0120102   0.0001339   0.0049918  -0.0071765  -0.0083949  -0.0090899
    2  -0.0089014  -0.0153962   0.0031272   0.0026751  -0.0029753  -0.0022249
    3   0.0039124  -0.0053492  -0.0034358   0.0047989  -0.0104014  -0.0010710
           13          14          15          16          17          18
    1  -0.0036936   0.0008676   0.0029773   0.0017071  -0.0023838  -0.0143394
    2   0.0005964   0.0020185   0.0033286  -0.0000398  -0.0005865  -0.0009656
    3  -0.0056246  -0.0046163  -0.0011352  -0.0050436  -0.0017967  -0.0090107
           19          20          21          22          23          24
    1  -0.0122403  -0.0201105  -0.0222644  -0.0156085   0.0019546   0.0252306
    2   0.0098248  -0.0062963  -0.0048985  -0.0103197   0.0044020   0.0171554
    3  -0.0167849  -0.0110516  -0.0123637  -0.0079323   0.0094149   0.0161444
           25          26          27          28          29          30
    1  -0.0233017   0.0060834   0.0080446  -0.0047644   0.0022917   0.0029090
    2   0.0129231  -0.0128584   0.0151694  -0.0096032  -0.0274986  -0.0065776
    3  -0.0113739   0.0317444  -0.0473583   0.0061974  -0.0085143   0.0311156
           31          32          33          34          35          36
    1  -0.0246980   0.0773511  -0.0035194   0.0239253  -0.0225961  -0.0011908
    2   0.0134744  -0.0542191  -0.0008064   0.0206114   0.0048870  -0.0316459
    3  -0.0133148   0.0748459   0.0097380   0.0170982  -0.0068852   0.0153032
           37          38          39          40          41          42
    1   0.0536614   0.0017830   0.0099956  -0.0250017   0.0188856  -0.0824866
    2  -0.0160089   0.0024726  -0.0031794  -0.0065472   0.0220620  -0.0629568
    3   0.0009322  -0.0069600  -0.0338422  -0.0015203   0.0176047  -0.0485581
           43          44          45          46          47          48
    1  -0.0084670   0.0048345  -0.0073165  -0.0234201   0.0243559   0.0026533
    2  -0.0077092  -0.0273530  -0.0150597   0.0185967   0.0214075  -0.0082829
    3  -0.0055394  -0.0242054   0.0260367  -0.0132381  -0.0423193   0.0048642
           49          50          51          52          53          54
    1  -0.0233655   0.0126538   0.0230024  -0.0509046  -0.0005349   0.0213034
    2  -0.0114364  -0.0267877   0.0214960   0.0543734   0.0040188   0.0245920
    3   0.0187456  -0.0171645   0.0108453   0.0814265  -0.0097804  -0.0039655
           55          56          57          58          59          60
    1   0.0170100  -0.0280432  -0.0111126   0.0062161   0.0247697  -0.0028724
    2  -0.0200550   0.0108786   0.0329354  -0.0022982   0.0223260  -0.0143174
    3  -0.0246984   0.0013002   0.0464645  -0.0062050   0.0031999   0.0155048
           61          62          63          64          65          66
    1   0.0087165  -0.0745794   0.0042783   0.0085395   0.0164206   0.0178053
    2   0.0004511  -0.0803964  -0.0062886  -0.0390142  -0.0024911   0.0275309
    3  -0.0376163  -0.0335521   0.0039439   0.0004065  -0.0240347   0.0136437
           67          68          69          70          71          72
    1  -0.0138746  -0.0094424  -0.0015832  -0.0378496   0.0047588  -0.0431231
    2   0.0504791  -0.0029949   0.0193857  -0.0034695  -0.0323527  -0.0912117
    3  -0.0191582   0.0078343   0.0209403   0.0016587   0.0104135  -0.0450021
           73          74          75          76          77          78
    1  -0.0085255  -0.0011768   0.0126073  -0.0263647  -0.0004288   0.0013187
    2  -0.0074905  -0.0297595  -0.0106095   0.0176795   0.0529117  -0.0004234
    3   0.0049531  -0.0067507   0.0291951   0.0054266   0.0290039  -0.0029529
           79          80          81          82          83          84
    1  -0.0261770   0.0282805  -0.0010963   0.0950421  -0.0027673   0.0091722
    2   0.0159364   0.0205746  -0.0271198  -0.0563976  -0.0008737   0.0319789
    3   0.0207482  -0.0194575   0.0056535  -0.0126926  -0.0108613  -0.0134203
           85          86          87          88          89          90
    1   0.0002474  -0.0310997  -0.0058505   0.0054181   0.0162336   0.0154510
    2  -0.0342941   0.0015376   0.0384568   0.0005095  -0.0160216  -0.0226353
    3  -0.0102430  -0.0013689   0.0325526  -0.0085537   0.0166468  -0.0247766
           91          92          93          94          95          96
    1   0.0294828  -0.0249476   0.0054029  -0.0212611   0.0122026   0.0286218
    2   0.0247138  -0.1064195  -0.0016028   0.0020620   0.0284569  -0.0117759
    3   0.0005927   0.0122635  -0.0090372  -0.0301589  -0.0088178   0.0152894
           97          98          99         100         101         102
    1  -0.0456093   0.0028905   0.0179115  -0.0128534   0.0184698   0.0066791
    2   0.0302019  -0.0036611   0.0223617   0.0125515  -0.0203353  -0.1087549
    3  -0.0091900   0.0061613   0.0004607   0.0352681   0.0113551   0.0073076
          103         104         105         106         107         108
    1  -0.0049549  -0.0302100   0.0002349   0.0000137   0.0104254   0.0063103
    2  -0.0020555   0.0171460   0.0258701  -0.0311204   0.0580659  -0.0041438
    3  -0.0056033  -0.0044421  -0.0239999  -0.0136643   0.0127888   0.0011406
          109         110         111         112         113         114
    1  -0.0055899   0.0161434   0.0254559  -0.0427181   0.0047398  -0.0067384
    2  -0.0301679   0.0136258  -0.0021001  -0.0710782   0.0070808  -0.0010773
    3  -0.0064174  -0.0255209   0.0207412   0.0719235   0.0025757   0.0324768
          115         116         117         118         119         120
    1   0.0255146  -0.0248578   0.0350235  -0.0025464   0.0104080  -0.0284623
    2   0.0323066   0.0088062  -0.0261578   0.0021708  -0.0199531   0.0125279
    3  -0.0016438  -0.0159137   0.0212584  -0.0069968  -0.0244978  -0.0102595
          121         122         123         124         125         126
    1   0.0199666  -0.1080788   0.0005070  -0.0147157  -0.0240230   0.0213837
    2   0.0238763  -0.0235592   0.0091968   0.0143078   0.0185075   0.0127115
    3   0.0031803  -0.0065270  -0.0003457  -0.0293661   0.0076951   0.0199203
          127         128         129         130         131         132
    1  -0.0013759   0.0073666   0.0386085   0.0097663   0.0110650  -0.0645670
    2  -0.0225214   0.0023341   0.0023902  -0.0267095   0.0188756  -0.0177072
    3   0.0462721  -0.0023975   0.0160632  -0.0106629  -0.0244281  -0.0859616
          133         134         135         136         137         138
    1   0.0029915  -0.0078862  -0.0269275   0.0236561  -0.0512768   0.0039644
    2   0.0070080  -0.0029505   0.0220155   0.0174590  -0.0174070   0.0025506
    3  -0.0010322  -0.0333191  -0.0039138   0.0167020   0.0094061   0.0067718
          139         140         141         142         143         144
    1   0.0281082  -0.0146591   0.0161495   0.0712150  -0.0049388  -0.0124258
    2   0.0157436   0.0089391  -0.0249226  -0.0495854   0.0084139   0.0319756
    3   0.0053087   0.0321483   0.0042862  -0.0643505   0.0059613  -0.0109783
          145         146         147         148         149         150
    1  -0.0205493   0.0134887   0.0223453   0.0026874  -0.0098037   0.0249758
    2  -0.0200228  -0.0076579  -0.0572200   0.0112314   0.0314239   0.0054981
    3   0.0012585   0.0317010   0.0096296  -0.0008839  -0.0143352   0.0282031
          151         152         153         154         155         156
    1   0.0254357  -0.0680959   0.0001387   0.0061068  -0.0303726   0.0220848
    2  -0.0104102   0.0203248   0.0007316  -0.0207454   0.0115621   0.0192402
    3  -0.0131747  -0.0836823  -0.0084901  -0.0234534   0.0048607  -0.0125459
          157         158         159         160         161         162
    1   0.0214793   0.0040675  -0.0088606   0.0330194   0.0048692  -0.0881594
    2   0.0339847  -0.0075696  -0.0150264   0.0034584  -0.0220966  -0.0635711
    3   0.0351192  -0.0031921  -0.0232779  -0.0097595   0.0204196   0.0190255
          163         164         165         166         167         168
    1  -0.0019191  -0.0139420  -0.0236692   0.0137798  -0.0275198   0.0060071
    2   0.0028785   0.0279009  -0.0211748   0.0006621  -0.0320134  -0.0045999
    3   0.0056482  -0.0066405   0.0051035   0.0270594  -0.0387514   0.0041008
          169         170         171         172         173         174
    1  -0.0073739   0.0223264   0.0048237   0.0609620   0.0014738  -0.0085943
    2  -0.0288951  -0.0148546   0.0085301   0.0873034  -0.0072207   0.0195080
    3   0.0157554  -0.0176199   0.0325458  -0.0264530  -0.0055250  -0.0246119
          175         176         177         178         179         180
    1   0.0317211  -0.0151448   0.0534559  -0.0019592   0.0304650  -0.0098231
    2  -0.0201133  -0.0264261   0.0335298  -0.0093834  -0.0176586   0.0194478
    3  -0.0056150   0.0102355  -0.0061963   0.0065661  -0.0093621   0.0252337
          181         182         183         184         185         186
    1  -0.0196402  -0.0968015   0.0071351  -0.0129810  -0.0055668   0.0407837
    2  -0.0226263   0.0487808   0.0068505   0.0301007  -0.0092389   0.0041770
    3   0.0052159   0.0004031  -0.0013867   0.0036514   0.0254128   0.0038299
          187         188         189         190         191         192
    1   0.0221044  -0.0009700  -0.0259042   0.0308653  -0.0113354  -0.1022278
    2  -0.0535695   0.0093851   0.0223409   0.0057050  -0.0158714   0.0203156
    3  -0.0036026  -0.0069805   0.0060748  -0.0086979  -0.0240758   0.0337782
          193         194         195         196         197         198
    1  -0.0050094   0.0050155  -0.0258797  -0.0369352  -0.0045397   0.0022998
    2  -0.0004676   0.0065023  -0.0239213   0.0048919  -0.0289518   0.0087212
    3  -0.0038444  -0.0303109  -0.0075051   0.0155531   0.0476104  -0.0034396
          199         200         201         202         203         204
    1   0.0106434  -0.0280945   0.0238454   0.0618183  -0.0099444  -0.0004463
    2   0.0114744   0.0091642   0.0049669  -0.0283735   0.0001637   0.0144528
    3  -0.0256243   0.0166435   0.0156391  -0.0853381  -0.0002364  -0.0297228
          205         206         207         208         209         210
    1  -0.0291778  -0.0125091   0.0453943  -0.0030120   0.0228507  -0.0191198
    2  -0.0200325   0.0265212   0.0365457  -0.0046549  -0.0232321  -0.0319804
    3   0.0022651   0.0104510  -0.0187229   0.0005147   0.0021821   0.0088292
          211         212         213         214         215         216
    1  -0.0002357  -0.0193721   0.0043547   0.0106033  -0.0236303   0.0255480
    2  -0.0036600  -0.0122551   0.0057402   0.0224423   0.0077032  -0.0174121
    3  -0.0341626   0.1083591   0.0113994  -0.0147326   0.0250926   0.0043263
          217         218         219         220         221         222
    1   0.0251206  -0.0059254  -0.0246893  -0.0237231   0.0090586  -0.0566980
    2  -0.0071137   0.0103594  -0.0106357   0.0100415   0.0318599  -0.0750228
    3  -0.0472557   0.0021829  -0.0147861   0.0289017  -0.0090663   0.0555516
          223         224         225         226         227         228
    1   0.0043829  -0.0029566  -0.0088992   0.0293198  -0.0564581   0.0033518
    2   0.0039000  -0.0217366   0.0308052  -0.0032829   0.0034479   0.0035882
    3  -0.0074836  -0.0205542  -0.0142223   0.0079331  -0.0100534   0.0040996
          229         230         231         232         233         234
    1   0.0322930  -0.0175703  -0.0082549   0.0545972  -0.0052027   0.0002571
    2  -0.0064422   0.0273779   0.0061914  -0.0887009   0.0038504   0.0083661
    3   0.0029035  -0.0099214   0.0317633   0.0350945  -0.0004144   0.0278971
          235         236         237         238         239         240
    1   0.0095833  -0.0313504   0.0581374   0.0008312  -0.0272393  -0.0005255
    2   0.0319836  -0.0099689   0.0233236  -0.0015105  -0.0118199   0.0263789
    3  -0.0131223  -0.0006460  -0.0085977  -0.0099558   0.0004343  -0.0176499
          241         242         243         244         245         246
    1   0.0201097  -0.0160548  -0.0034972  -0.0285321   0.0009646   0.0235956
    2  -0.0077578  -0.0986925   0.0067140   0.0017197   0.0250550  -0.0014273
    3  -0.0282388   0.0414653  -0.0069095  -0.0159246   0.0228314  -0.0210033
          247         248         249         250         251         252
    1  -0.0363603   0.0019163   0.0122093   0.0151468   0.0041821  -0.0161408
    2  -0.0036612   0.0004656   0.0001179   0.0220021  -0.0249602  -0.0693897
    3   0.0472577  -0.0017313  -0.0205125   0.0229407   0.0153914  -0.0911290
          253         254         255         256         257         258
    1   0.0051439   0.0103952   0.0232907  -0.0206621  -0.0265754  -0.0015000
    2   0.0043101  -0.0086663   0.0032609   0.0262080   0.0112838  -0.0056684
    3   0.0033456   0.0286058  -0.0217522   0.0067573  -0.0492728   0.0106152
          259         260         261         262         263         264
    1  -0.0234122  -0.0194111   0.0120814   0.0806720  -0.0083258  -0.0088369
    2   0.0211356  -0.0303216  -0.0053286  -0.0751861  -0.0021207   0.0010174
    3  -0.0013855   0.0042738   0.0300906   0.0081963   0.0019190   0.0290312
          265         266         267         268         269         270
    1  -0.0281570   0.0063626   0.0205604   0.0058738   0.0059603   0.0336524
    2   0.0184919  -0.0340591  -0.0133347  -0.0002086  -0.0308857   0.0055172
    3  -0.0085052  -0.0056050  -0.0492344   0.0124800  -0.0065278   0.0076827
          271         272         273         274         275         276
    1  -0.0127952  -0.0255945   0.0019979   0.0117404   0.0325844  -0.0256193
    2   0.0080345   0.0996609   0.0047467   0.0123724  -0.0052132   0.0186389
    3   0.0311135   0.0365676  -0.0036044   0.0248321  -0.0089472  -0.0098846
          277         278         279         280         281         282
    1  -0.0426504  -0.0028010  -0.0190383  -0.0181219   0.0245302   0.0831444
    2  -0.0112064   0.0002296   0.0261895  -0.0216666   0.0043690  -0.0684609
    3  -0.0397822   0.0100735   0.0023619   0.0099728   0.0207833   0.0217440
  --- DONE ESP SUMMARY ---
 Total job time:  31.84s(wall), 77.10s(cpu) 
 Thu Jul 21 09:05:07 2022

        *************************************************************
        *                                                           *
        *  Thank you very much for using Q-Chem.  Have a nice day.  *
        *                                                           *
        *************************************************************


