                  Welcome to Q-Chem
     A Quantum Leap Into The Future Of Chemistry


 Q-Chem 6.0 (devel), Q-Chem, Inc., Pleasanton, CA (2022)

 E. Epifanovsky,  A. T. B. Gilbert,  Xintian Feng,  Joonho Lee,  Yuezhi Mao,  
 N. Mardirossian,  P. Pokhilko,  A. White,  M. Wormit,  M. P. Coons,  
 A. L. Dempwolff,  Zhengting Gan,  D. Hait,  P. R. Horn,  L. D. Jacobson,  
 I. Kaliman,  J. Kussmann,  A. W. Lange,  Ka Un Lao,  D. S. Levine,  Jie Liu,  
 S. C. McKenzie,  A. F. Morrison,  K. Nanda,  F. Plasser,  D. R. Rehn,  
 M. L. Vidal,  Zhi-Qiang You,  Ying Zhu,  B. Alam,  B. Albrecht,  
 A. Aldossary,  E. Alguire,  J. H. Andersen,  V. Athavale,  D. Barton,  
 K. Begam,  A. Behn,  N. Bellonzi,  Y. A. Bernard,  E. J. Berquist,  
 H. Burton,  A. Carreras,  K. Carter-Fenk,  Romit Chakraborty,  
 Chandrima Chakravarty,  Junhan Chen,  A. D. Chien,  K. D. Closser,  
 V. Cofer-Shabica,  L. Cunha,  S. Dasgupta,  Jia Deng,  M. de Wergifosse,  
 M. Diedenhofen,  Hainam Do,  S. Ehlert,  Po-Tung Fang,  S. Fatehi,  
 Qingguo Feng,  T. Friedhoff,  B. Ganoe,  J. Gayvert,  Qinghui Ge,  
 G. Gidofalvi,  M. Goldey,  J. Gomes,  C. Gonzalez-Espinoza,  S. Gulania,  
 A. Gunina,  J. A. Gyamfi,  M. W. D. Hanson-Heine,  P. H. P. Harbach,  
 A. W. Hauser,  M. F. Herbst,  M. Hernandez Vera,  M. Hodecker,  
 Z. C. Holden,  S. Houck,  Xunkun Huang,  Kerwin Hui,  B. C. Huynh,  
 K. Ikeda,  M. Ivanov,  Hyunjun Ji,  Zuxin Jin,  Hanjie Jiang,  B. Kaduk,  
 S. Kaehler,  R. Kang,  K. Khistyaev,  Jaehoon Kim,  Yongbin Kim,  
 P. Klunzinger,  Z. Koczor-Benda,  Joong Hoon Koh,  D. Kosenkov,  
 Saikiran Kotaru,  L. Koulias,  T. Kowalczyk,  C. M. Krauter,  K. Kue,  
 A. Kunitsa,  T. Kus,  A. Landau,  K. V. Lawler,  D. Lefrancois,  S. Lehtola,  
 Rain Li,  Shaozhi Li,  Yi-Pei Li,  Jiashu Liang,  M. Liebenthal,  
 Hung-Hsuan Lin,  You-Sheng Lin,  Fenglai Liu,  Kuan-Yu Liu,  
 M. Loipersberger,  A. Luenser,  C. Malbon,  A. Manjanath,  P. Manohar,  
 E. Mansoor,  S. F. Manzer,  Shan-Ping Mao,  A. V. Marenich,  T. Markovich,  
 S. Mason,  F. Matz,  S. A. Maurer,  P. F. McLaughlin,  M. F. S. J. Menger,  
 J.-M. Mewes,  S. A. Mewes,  P. Morgante,  Mohammad Mostafanejad,  
 J. W. Mullinax,  K. J. Oosterbaan,  G. Paran,  V. Parravicini,  
 Alexander C. Paul,  Suranjan K. Paul,  F. Pavosevic,  Zheng Pei,  S. Prager,  
 E. I. Proynov,  E. Ramos,  B. Rana,  A. E. Rask,  A. Rettig,  R. M. Richard,  
 F. Rob,  E. Rossomme,  T. Scheele,  M. Scheurer,  M. Schneider,  
 P. E. Schneider,  N. Sergueev,  S. M. Sharada,  Hengyuan Shen,  
 W. Skomorowski,  D. W. Small,  C. J. Stein,  Yingli Su,  Yu-Chuan Su,  
 E. J. Sundstrom,  Zhen Tao,  J. Thirman,  Hung-Yi Tsai,  T. Tsuchimochi,  
 N. M. Tubman,  C. Utku,  S. P. Veccham,  O. Vydrov,  J. Wenzel,  
 Jonathan Wong,  J. Witte,  A. Yamada,  Chou-Hsun Yang,  Kun Yao,  
 S. Yeganeh,  S. R. Yost,  A. Zech,  F. Zeller,  Igor Ying Zhang,  
 Xing Zhang,  Yu Zhang,  D. Zuev,  A. Aspuru-Guzik,  A. T. Bell,  
 N. A. Besley,  K. B. Bravaya,  B. R. Brooks,  D. Casanova,  Jeng-Da Chai,  
 Hsing-Ta Chen,  S. Coriani,  C. J. Cramer,  A. E. DePrince, III,  
 R. A. DiStasio Jr.,  A. Dreuw,  B. D. Dunietz,  T. R. Furlani,  
 W. A. Goddard III,  S. Grimme,  S. Hammes-Schiffer,  T. Head-Gordon,  
 W. J. Hehre,  Chao-Ping Hsu,  T.-C. Jagau,  Yousung Jung,  A. Klamt,  
 Jing Kong,  D. S. Lambrecht,  Xiangyuan Li,  WanZhen Liang,  N. J. Mayhall,  
 C. W. McCurdy,  J. B. Neaton,  T. Neudecker,  C. Ochsenfeld,  
 J. A. Parkhill,  R. Peverati,  V. A. Rassolov,  Haisheng Ren,  Yihan Shao,  
 L. V. Slipchenko,  R. P. Steele,  J. E. Subotnik,  A. J. W. Thom,  
 A. Tkatchenko,  D. G. Truhlar,  T. Van Voorhis,  Fan Wang,  
 T. A. Wesolowski,  K. B. Whaley,  H. L. Woodcock III,  P. M. Zimmerman,  
 S. Faraji,  P. M. W. Gill,  M. Head-Gordon,  J. M. Herbert,  A. I. Krylov

 Contributors to earlier versions of Q-Chem not listed above: 
 R. D. Adamson,  B. Austin,  R. Baer,  J. Baker,  G. J. O. Beran,  
 K. Brandhorst,  S. T. Brown,  E. F. C. Byrd,  Arup K. Chakraborty,  
 G. K. L. Chan,  Chun-Min Chang,  Yunqing Chen,  C.-L. Cheng,  
 Siu Hung Chien,  D. M. Chipman,  D. L. Crittenden,  H. Dachsel,  
 R. J. Doerksen,  A. D. Dutoi,  R. G. Edgar,  J. Fosso-Tande,  
 L. Fusti-Molnar,  D. Ghosh,  A. Ghysels,  A. Golubeva-Zadorozhnaya,  
 J. Gonthier,  M. S. Gordon,  S. R. Gwaltney,  G. Hawkins,  J. E. Herr,  
 A. Heyden,  S. Hirata,  E. G. Hohenstein,  G. Kedziora,  F. J. Keil,  
 C. Kelley,  Jihan Kim,  R. A. King,  R. Z. Khaliullin,  P. P. Korambath,  
 W. Kurlancheek,  A. Laurent,  A. M. Lee,  M. S. Lee,  S. V. Levchenko,  
 Ching Yeh Lin,  D. Liotard,  E. Livshits,  R. C. Lochan,  I. Lotan,  
 L. A. Martinez-Martinez,  P. E. Maslen,  N. Nair,  D. P. O'Neill,  
 D. Neuhauser,  E. Neuscamman,  C. M. Oana,  R. Olivares-Amaya,  R. Olson,  
 T. M. Perrine,  B. Peters,  P. A. Pieniazek,  A. Prociuk,  Y. M. Rhee,  
 J. Ritchie,  M. A. Rohrdanz,  E. Rosta,  N. J. Russ,  H. F. Schaefer III,  
 M. W. Schmidt,  N. E. Schultz,  S. Sharma,  N. Shenvi,  C. D. Sherrill,  
 A. C. Simmonett,  A. Sodt,  T. Stein,  D. Stuck,  K. S. Thanthiriwatte,  
 V. Vanovschi,  L. Vogt,  Tao Wang,  A. Warshel,  M. A. Watson,  
 C. F. Williams,  Q. Wu,  X. Xu,  Jun Yang,  W. Zhang,  Yan Zhao

   Please cite Q-Chem as follows:
  "Software for the frontiers of quantum chemistry:
   An overview of developments in the Q-Chem 5 package"
   J. Chem. Phys. 155, 084801 (2021)
   https://doi.org/10.1063/5.0055522 (open access)

 Q-Chem 6.0.0 for Intel X86 EM64T Linux

 Parts of Q-Chem use Armadillo 9.900.5 (Nocturnal Misbehaviour).
 http://arma.sourceforge.net/

 Q-Chem begins on Thu Jul 21 03:13:29 2022  

 Host: nid00525
0

     Scratch files written to /global/cscratch1/sd/ymao90/r7.00_frame_0021_spade_B3LYP_dp20220721031313//
 Processing $rem in /global/homes/y/ymao90/my_qchem/qchem_embedding_5p4/config/preferences:
 Processing $rem in /global/homes/y/ymao90/.qchemrc:
 No nuclear gradient supported for projection-based embedding or EMFT. Set max ideriv = 0.

 Checking the input file for inconsistencies... 	...done.

--------------------------------------------------------------
User input:
--------------------------------------------------------------
$molecule
0 1
--
0 1
C    22.97800   14.20400   26.86100  
C    23.15700   15.15100   25.66300  
C    22.15000   16.30600   25.78400  
C    22.01200   17.01300   27.14200  
C    22.00500   16.10300   28.38100  
C    23.03100   14.97300   28.19100  
H    22.40600   17.01000   24.98200  
H    24.16000   15.55600   25.84700  
H    22.10100   13.54700   26.81100  
H    23.90300   13.61400   26.82900  
H    22.94000   17.58200   27.27500  
H    21.18400   17.73000   27.20300  
H    22.16900   16.62400   29.33200  
H    21.00200   15.65900   28.39000  
H    24.08300   15.28200   28.22300  
H    22.86500   14.22200   28.97300  
H    21.17300   15.84200   25.60000  
N    22.96900   14.38600   24.43200  
H    22.00100   14.14300   24.25700  
C    23.87400   14.43700   23.39200  
H    23.54900   14.04000   22.41300  
O    25.05000   14.69100   23.58100  
--
0 1
C    20.30600   21.42700   28.13100  
H    20.42600   20.34200   28.18600  
H    19.52200   21.81200   28.78700  
H    20.10500   21.65100   27.08000  
S    21.77400   22.28200   28.74700  
C    22.77700   21.71200   27.35600  
H    22.76400   20.61900   27.34100  
H    22.38200   22.11000   26.41700  
H    23.81000   22.00800   27.55700  
O    22.22300   21.47800   29.92700  
C    20.83300   19.79600   22.70400  
H    21.63100   20.33900   22.19200  
H    20.99400   18.71900   22.61500  
H    19.92900   20.06000   22.15000  
S    20.68900   20.26000   24.44500  
C    18.92800   19.88800   24.60300  
H    18.83800   18.79900   24.61300  
H    18.60300   20.40900   25.50700  
H    18.25000   20.37700   23.89900  
O    20.57900   21.74200   24.62900  
C    27.69400   14.31300   32.00500  
H    28.31800   15.20000   32.14200  
H    27.11200   14.24900   32.92800  
H    28.22500   13.38800   31.76700  
S    26.43500   14.59600   30.74000  
C    27.60100   15.04900   29.43600  
H    26.99600   15.38500   28.59000  
H    28.25500   15.89300   29.67200  
H    28.14000   14.12200   29.22400  
O    25.78100   15.90700   31.04900  
C    24.52200   19.11100   30.05700  
H    24.35700   19.69200   30.96800  
H    23.67000   19.14100   29.37300  
H    25.00000   18.16400   30.32200  
S    25.83800   19.97800   29.17200  
C    26.68900   18.53100   28.50300  
H    27.14000   18.05800   29.37900  
H    25.91500   17.81400   28.21800  
H    27.45100   18.72300   27.74400  
O    26.76700   20.47500   30.23500  
C    20.72900   11.49600   36.32800  
H    19.97000   11.10900   35.64300  
H    21.10800   10.72800   37.00700  
H    20.35000   12.39600   36.81900  
S    22.10100   11.98100   35.25700  
C    23.00200   12.78600   36.60000  
H    22.45300   13.61400   37.05600  
H    23.26100   12.02700   37.34200  
H    23.95500   13.10200   36.16800  
O    21.59600   13.18900   34.53100  
C    20.31900   19.84700   32.99700  
H    20.18200   19.91500   31.91400  
H    20.96900   20.64000   33.37600  
H    20.62100   18.88300   33.41200  
S    18.69600   20.21700   33.70100  
C    19.35800   19.88000   35.34800  
H    19.77600   18.87100   35.37700  
H    20.16500   20.58300   35.56700  
H    18.58000   19.94900   36.11300  
O    17.86500   19.03000   33.32400  
C    17.36700   19.32100   27.85800  
H    18.28500   19.79800   27.50500  
H    16.66100   19.34300   27.02400  
H    16.83000   19.92400   28.59500  
S    17.86200   17.62500   28.23700  
C    18.92400   17.92100   29.66800  
H    19.14900   17.07300   30.32000  
H    19.82700   18.19900   29.11700  
H    18.50400   18.75500   30.23500  
O    18.78800   17.37600   27.08700  
C    19.24400   8.79600    26.25000  
H    18.31600   8.94400    25.69100  
H    19.76400   9.68100    26.62500  
H    19.92700   8.30300    25.55300  
S    18.76500   7.50400    27.41900  
C    17.86600   8.43400    28.68100  
H    18.52400   9.23800    29.02000  
H    17.02000   8.88500    28.15500  
H    17.69200   7.63500    29.40600  
O    20.05500   7.04600    28.02400  
C    28.08700   12.80400   22.50800  
H    27.34100   13.49000   22.91800  
H    27.95700   11.81500   22.95500  
H    29.04000   13.22300   22.84100  
S    28.11100   12.65900   20.70700  
C    26.49000   11.90100   20.46000  
H    25.65000   12.59300   20.56600  
H    26.47600   11.53500   19.43000  
H    26.49400   11.01700   21.10200  
O    29.03700   11.49700   20.52200  
C    28.66900   20.44000   26.10500  
H    29.39800   19.68200   26.40400  
H    27.74700   20.07200   25.64700  
H    29.20700   21.02200   25.35200  
S    28.20400   21.56100   27.44400  
C    27.26000   22.73900   26.45200  
H    27.37000   23.71300   26.93400  
H    27.61900   22.65800   25.42300  
H    26.24500   22.33200   26.47100  
O    29.49400   22.31700   27.52800  
C    27.37100   11.37600   27.34800  
H    27.08300   10.63600   26.59800  
H    26.49300   11.97300   27.60700  
H    28.31800   11.88900   27.15900  
S    27.70600   10.31500   28.77200  
C    26.09900   9.50500    28.61400  
H    26.16600   8.76200    27.81500  
H    25.87000   8.94900    29.52700  
H    25.21500   10.14400   28.54300  
O    27.62700   11.22100   29.96100  
C    26.14100   12.67200   14.86500  
H    27.02300   12.26800   14.36100  
H    25.23900   12.43600   14.29500  
H    26.29500   13.75400   14.89200  
S    26.07800   12.05000   16.56100  
C    24.78600   13.20800   17.06600  
H    24.76200   13.13700   18.15600  
H    25.18000   14.19500   16.80800  
H    23.85700   12.93400   16.56100  
O    27.30000   12.68800   17.14500  
C    24.88700   12.12200   32.12800  
H    24.01700   11.46300   32.16900  
H    24.66700   13.16400   32.37400  
H    25.40900   12.12100   31.16800  
S    26.07300   11.51200   33.34700  
C    25.68200   9.76700    33.08700  
H    24.67600   9.54700    33.45300  
H    25.69600   9.50300    32.02600  
H    26.30000   9.07200    33.66100  
O    25.60600   11.86300   34.72500  
C    29.02800   19.66500   32.75700  
H    29.92900   20.07800   32.29400  
H    28.26500   20.44100   32.85200  
H    29.33700   19.17000   33.68100  
S    28.40600   18.30200   31.74700  
C    27.43600   17.79300   33.18400  
H    27.98400   17.78500   34.12900  
H    26.63300   18.53200   33.26200  
H    26.93800   16.83800   32.99900  
O    29.56700   17.35700   31.74700  
C    21.24900   13.76900   31.14600  
H    22.00600   13.22100   31.71400  
H    20.88500   13.03100   30.42700  
H    21.61400   14.67700   30.65900  
S    19.87400   14.28600   32.19700  
C    19.21300   12.62200   32.44100  
H    18.26700   12.70000   32.98300  
H    19.10300   12.04200   31.52100  
H    19.85800   12.04400   33.10800  
O    18.94100   14.99600   31.26500  
C    21.86400   17.67300   19.80800  
H    21.90600   17.64900   18.71600  
H    21.35000   16.75100   20.09000  
H    21.27400   18.54100   20.11400  
S    23.35500   17.60400   20.82700  
C    23.89500   16.07700   20.02700  
H    23.22400   15.26600   20.32200  
H    23.91800   16.33100   18.96400  
H    24.93500   15.90800   20.31600  
O    22.81500   17.10200   22.13000  
C    18.66200   10.70200   21.35600  
H    19.17300   9.74200    21.46300  
H    17.64500   10.63400   20.96200  
H    19.22500   11.39800   20.72800  
S    18.42400   11.36500   23.01900  
C    20.00100   10.76100   23.66200  
H    20.13100   11.10300   24.69200  
H    19.99900   9.68400    23.47800  
H    20.73100   11.27400   23.03100  
O    17.60100   10.18400   23.43000  
C    17.81000   13.56400   28.69400  
H    17.76900   14.61800   28.40800  
H    16.93900   13.12200   28.20300  
H    17.80800   13.44700   29.78100  
S    19.31100   12.88200   27.95400  
C    19.12300   13.39900   26.23200  
H    19.94600   12.97800   25.64900  
H    18.22000   12.96700   25.79300  
H    19.16600   14.49000   26.26700  
O    19.04600   11.40900   27.96100  
C    22.29200   10.36300   20.34600  
H    22.14200   9.32800    20.02700  
H    23.33100   10.57400   20.61200  
H    21.63400   10.54600   21.20000  
S    21.69000   11.60100   19.17600  
C    22.70900   10.86500   17.87800  
H    22.38900   9.83800    17.69000  
H    22.65000   11.41600   16.93600  
H    23.73000   10.81900   18.26600  
O    22.43700   12.84000   19.56000  
C    29.85300   18.32600   19.34100  
H    30.10800   17.84600   18.39300  
H    29.37700   19.29300   19.15900  
H    30.73900   18.40400   19.97700  
S    28.66700   17.26100   20.19400  
C    27.22200   17.99100   19.39000  
H    27.33900   17.91100   18.30700  
H    26.31500   17.48100   19.72700  
H    27.18000   19.07900   19.49000  
O    28.62000   17.75100   21.60700  
C    22.86500   16.73900   32.57700  
H    22.06400   16.13000   33.00400  
H    22.45300   17.45300   31.85900  
H    23.51900   15.98600   32.13000  
S    23.70800   17.47000   33.99800  
C    24.03800   15.99500   34.98800  
H    23.85600   16.30900   36.01800  
H    23.18600   15.37300   34.70300  
H    25.02000   15.59900   34.71600  
O    22.63300   18.20800   34.73300  
C    25.99300   18.29500   24.19200  
H    26.39000   17.63000   24.96400  
H    25.67200   17.70500   23.33100  
H    26.75300   19.01400   23.87400  
S    24.65300   19.35900   24.77200  
C    24.42200   20.30600   23.25000  
H    25.36800   20.60600   22.79100  
H    23.94600   19.63400   22.53300  
H    23.76900   21.17400   23.37000  
O    25.28000   20.27500   25.77600  
C    28.23100   14.97300   25.65200  
H    28.17800   16.05200   25.82100  
H    27.74400   14.79300   24.69000  
H    27.67000   14.44000   26.42400  
S    29.96100   14.46600   25.54100  
C    30.21600   15.46700   24.05800  
H    30.39200   16.51500   24.31300  
H    31.11800   15.13700   23.53600  
H    29.30300   15.42200   23.46100  
O    29.75900   13.04200   25.12600  
C    16.01700   17.35200   24.96800  
H    15.50100   17.46200   25.92500  
H    17.09100   17.20700   25.10400  
H    15.86700   18.24600   24.35600  
S    15.31200   15.97500   24.03400  
C    13.57400   16.46100   24.11700  
H    13.44300   17.50800   23.83300  
H    13.13500   15.90100   23.28700  
H    13.07500   16.05800   25.00200  
O    15.38500   14.72900   24.86100  
C    21.33300   10.07200   31.01900  
H    21.51800   11.04700   31.47600  
H    20.32700   9.64900    31.08200  
H    22.04700   9.40800    31.51200  
S    21.83900   10.09600   29.28400  
C    22.68200   8.49800    29.24100  
H    21.91000   7.73000    29.14700  
H    23.35900   8.48700    28.38300  
H    23.34600   8.42000    30.10600  
O    23.05500   10.96500   29.35400  
C    24.95100   10.96200   23.84600  
H    25.44700   11.86300   24.21400  
H    25.43900   10.13300   24.36500  
H    24.96400   11.06900   22.75800  
S    23.20200   10.68600   24.21000  
C    23.34400   10.60700   26.00900  
H    24.26500   10.06600   26.23900  
H    23.39200   11.58700   26.49100  
H    22.48500   10.01500   26.33500  
O    22.97600   9.26700    23.78900  
C    30.68600   19.09500   28.95800  
H    29.88100   19.82300   28.83400  
H    31.06800   18.94600   29.97100  
H    31.49000   19.38400   28.27500  
S    29.98100   17.49000   28.51900  
C    31.52500   16.66900   28.97500  
H    32.45700   17.05900   28.55700  
H    31.52300   16.58900   30.06500  
H    31.34800   15.63200   28.67700  
O    30.01100   17.37800   27.02700  
C    19.04900   16.37700   23.15800  
H    18.84600   17.18900   22.45500  
H    18.19800   15.85900   23.60600  
H    19.51800   16.65600   24.10500  
S    20.21200   15.30300   22.28600  
C    18.86200   14.84000   21.17700  
H    18.77200   15.70700   20.51700  
H    19.15100   13.98800   20.55700  
H    17.92500   14.60000   21.68500  
O    20.42300   14.04000   23.06000  
$end

$rem
JOBTYPE  SP
METHOD  B3LYP
BASIS  6-31+G(D)
SYMMETRY  FALSE
SYM_IGNORE  TRUE
MEM_TOTAL  12000
MEM_STATIC  4000
BASIS_LIN_DEP_THRESH  6
THRESH  14
SCF_CONVERGENCE  8
FD_MAT_VEC_PROD  FALSE
XC_GRID  000075000302
NL_GRID  1
MAX_SCF_CYCLES  200
ENV_METHOD  B3LYP
GEN_SCFMAN_EMBED  TRUE
SPADE_PARTITION  TRUE
EMBEDDING_EARLY_STOP  TRUE
$end

--------------------------------------------------------------
 ----------------------------------------------------------------
             Standard Nuclear Orientation (Angstroms)
    I     Atom           X                Y                Z
 ----------------------------------------------------------------
    1      C      22.9780000000    14.2040000000    26.8610000000
    2      C      23.1570000000    15.1510000000    25.6630000000
    3      C      22.1500000000    16.3060000000    25.7840000000
    4      C      22.0120000000    17.0130000000    27.1420000000
    5      C      22.0050000000    16.1030000000    28.3810000000
    6      C      23.0310000000    14.9730000000    28.1910000000
    7      H      22.4060000000    17.0100000000    24.9820000000
    8      H      24.1600000000    15.5560000000    25.8470000000
    9      H      22.1010000000    13.5470000000    26.8110000000
   10      H      23.9030000000    13.6140000000    26.8290000000
   11      H      22.9400000000    17.5820000000    27.2750000000
   12      H      21.1840000000    17.7300000000    27.2030000000
   13      H      22.1690000000    16.6240000000    29.3320000000
   14      H      21.0020000000    15.6590000000    28.3900000000
   15      H      24.0830000000    15.2820000000    28.2230000000
   16      H      22.8650000000    14.2220000000    28.9730000000
   17      H      21.1730000000    15.8420000000    25.6000000000
   18      N      22.9690000000    14.3860000000    24.4320000000
   19      H      22.0010000000    14.1430000000    24.2570000000
   20      C      23.8740000000    14.4370000000    23.3920000000
   21      H      23.5490000000    14.0400000000    22.4130000000
   22      O      25.0500000000    14.6910000000    23.5810000000
   23      C      20.3060000000    21.4270000000    28.1310000000
   24      H      20.4260000000    20.3420000000    28.1860000000
   25      H      19.5220000000    21.8120000000    28.7870000000
   26      H      20.1050000000    21.6510000000    27.0800000000
   27      S      21.7740000000    22.2820000000    28.7470000000
   28      C      22.7770000000    21.7120000000    27.3560000000
   29      H      22.7640000000    20.6190000000    27.3410000000
   30      H      22.3820000000    22.1100000000    26.4170000000
   31      H      23.8100000000    22.0080000000    27.5570000000
   32      O      22.2230000000    21.4780000000    29.9270000000
   33      C      20.8330000000    19.7960000000    22.7040000000
   34      H      21.6310000000    20.3390000000    22.1920000000
   35      H      20.9940000000    18.7190000000    22.6150000000
   36      H      19.9290000000    20.0600000000    22.1500000000
   37      S      20.6890000000    20.2600000000    24.4450000000
   38      C      18.9280000000    19.8880000000    24.6030000000
   39      H      18.8380000000    18.7990000000    24.6130000000
   40      H      18.6030000000    20.4090000000    25.5070000000
   41      H      18.2500000000    20.3770000000    23.8990000000
   42      O      20.5790000000    21.7420000000    24.6290000000
   43      C      27.6940000000    14.3130000000    32.0050000000
   44      H      28.3180000000    15.2000000000    32.1420000000
   45      H      27.1120000000    14.2490000000    32.9280000000
   46      H      28.2250000000    13.3880000000    31.7670000000
   47      S      26.4350000000    14.5960000000    30.7400000000
   48      C      27.6010000000    15.0490000000    29.4360000000
   49      H      26.9960000000    15.3850000000    28.5900000000
   50      H      28.2550000000    15.8930000000    29.6720000000
   51      H      28.1400000000    14.1220000000    29.2240000000
   52      O      25.7810000000    15.9070000000    31.0490000000
   53      C      24.5220000000    19.1110000000    30.0570000000
   54      H      24.3570000000    19.6920000000    30.9680000000
   55      H      23.6700000000    19.1410000000    29.3730000000
   56      H      25.0000000000    18.1640000000    30.3220000000
   57      S      25.8380000000    19.9780000000    29.1720000000
   58      C      26.6890000000    18.5310000000    28.5030000000
   59      H      27.1400000000    18.0580000000    29.3790000000
   60      H      25.9150000000    17.8140000000    28.2180000000
   61      H      27.4510000000    18.7230000000    27.7440000000
   62      O      26.7670000000    20.4750000000    30.2350000000
   63      C      20.7290000000    11.4960000000    36.3280000000
   64      H      19.9700000000    11.1090000000    35.6430000000
   65      H      21.1080000000    10.7280000000    37.0070000000
   66      H      20.3500000000    12.3960000000    36.8190000000
   67      S      22.1010000000    11.9810000000    35.2570000000
   68      C      23.0020000000    12.7860000000    36.6000000000
   69      H      22.4530000000    13.6140000000    37.0560000000
   70      H      23.2610000000    12.0270000000    37.3420000000
   71      H      23.9550000000    13.1020000000    36.1680000000
   72      O      21.5960000000    13.1890000000    34.5310000000
   73      C      20.3190000000    19.8470000000    32.9970000000
   74      H      20.1820000000    19.9150000000    31.9140000000
   75      H      20.9690000000    20.6400000000    33.3760000000
   76      H      20.6210000000    18.8830000000    33.4120000000
   77      S      18.6960000000    20.2170000000    33.7010000000
   78      C      19.3580000000    19.8800000000    35.3480000000
   79      H      19.7760000000    18.8710000000    35.3770000000
   80      H      20.1650000000    20.5830000000    35.5670000000
   81      H      18.5800000000    19.9490000000    36.1130000000
   82      O      17.8650000000    19.0300000000    33.3240000000
   83      C      17.3670000000    19.3210000000    27.8580000000
   84      H      18.2850000000    19.7980000000    27.5050000000
   85      H      16.6610000000    19.3430000000    27.0240000000
   86      H      16.8300000000    19.9240000000    28.5950000000
   87      S      17.8620000000    17.6250000000    28.2370000000
   88      C      18.9240000000    17.9210000000    29.6680000000
   89      H      19.1490000000    17.0730000000    30.3200000000
   90      H      19.8270000000    18.1990000000    29.1170000000
   91      H      18.5040000000    18.7550000000    30.2350000000
   92      O      18.7880000000    17.3760000000    27.0870000000
   93      C      19.2440000000     8.7960000000    26.2500000000
   94      H      18.3160000000     8.9440000000    25.6910000000
   95      H      19.7640000000     9.6810000000    26.6250000000
   96      H      19.9270000000     8.3030000000    25.5530000000
   97      S      18.7650000000     7.5040000000    27.4190000000
   98      C      17.8660000000     8.4340000000    28.6810000000
   99      H      18.5240000000     9.2380000000    29.0200000000
  100      H      17.0200000000     8.8850000000    28.1550000000
  101      H      17.6920000000     7.6350000000    29.4060000000
  102      O      20.0550000000     7.0460000000    28.0240000000
  103      C      28.0870000000    12.8040000000    22.5080000000
  104      H      27.3410000000    13.4900000000    22.9180000000
  105      H      27.9570000000    11.8150000000    22.9550000000
  106      H      29.0400000000    13.2230000000    22.8410000000
  107      S      28.1110000000    12.6590000000    20.7070000000
  108      C      26.4900000000    11.9010000000    20.4600000000
  109      H      25.6500000000    12.5930000000    20.5660000000
  110      H      26.4760000000    11.5350000000    19.4300000000
  111      H      26.4940000000    11.0170000000    21.1020000000
  112      O      29.0370000000    11.4970000000    20.5220000000
  113      C      28.6690000000    20.4400000000    26.1050000000
  114      H      29.3980000000    19.6820000000    26.4040000000
  115      H      27.7470000000    20.0720000000    25.6470000000
  116      H      29.2070000000    21.0220000000    25.3520000000
  117      S      28.2040000000    21.5610000000    27.4440000000
  118      C      27.2600000000    22.7390000000    26.4520000000
  119      H      27.3700000000    23.7130000000    26.9340000000
  120      H      27.6190000000    22.6580000000    25.4230000000
  121      H      26.2450000000    22.3320000000    26.4710000000
  122      O      29.4940000000    22.3170000000    27.5280000000
  123      C      27.3710000000    11.3760000000    27.3480000000
  124      H      27.0830000000    10.6360000000    26.5980000000
  125      H      26.4930000000    11.9730000000    27.6070000000
  126      H      28.3180000000    11.8890000000    27.1590000000
  127      S      27.7060000000    10.3150000000    28.7720000000
  128      C      26.0990000000     9.5050000000    28.6140000000
  129      H      26.1660000000     8.7620000000    27.8150000000
  130      H      25.8700000000     8.9490000000    29.5270000000
  131      H      25.2150000000    10.1440000000    28.5430000000
  132      O      27.6270000000    11.2210000000    29.9610000000
  133      C      26.1410000000    12.6720000000    14.8650000000
  134      H      27.0230000000    12.2680000000    14.3610000000
  135      H      25.2390000000    12.4360000000    14.2950000000
  136      H      26.2950000000    13.7540000000    14.8920000000
  137      S      26.0780000000    12.0500000000    16.5610000000
  138      C      24.7860000000    13.2080000000    17.0660000000
  139      H      24.7620000000    13.1370000000    18.1560000000
  140      H      25.1800000000    14.1950000000    16.8080000000
  141      H      23.8570000000    12.9340000000    16.5610000000
  142      O      27.3000000000    12.6880000000    17.1450000000
  143      C      24.8870000000    12.1220000000    32.1280000000
  144      H      24.0170000000    11.4630000000    32.1690000000
  145      H      24.6670000000    13.1640000000    32.3740000000
  146      H      25.4090000000    12.1210000000    31.1680000000
  147      S      26.0730000000    11.5120000000    33.3470000000
  148      C      25.6820000000     9.7670000000    33.0870000000
  149      H      24.6760000000     9.5470000000    33.4530000000
  150      H      25.6960000000     9.5030000000    32.0260000000
  151      H      26.3000000000     9.0720000000    33.6610000000
  152      O      25.6060000000    11.8630000000    34.7250000000
  153      C      29.0280000000    19.6650000000    32.7570000000
  154      H      29.9290000000    20.0780000000    32.2940000000
  155      H      28.2650000000    20.4410000000    32.8520000000
  156      H      29.3370000000    19.1700000000    33.6810000000
  157      S      28.4060000000    18.3020000000    31.7470000000
  158      C      27.4360000000    17.7930000000    33.1840000000
  159      H      27.9840000000    17.7850000000    34.1290000000
  160      H      26.6330000000    18.5320000000    33.2620000000
  161      H      26.9380000000    16.8380000000    32.9990000000
  162      O      29.5670000000    17.3570000000    31.7470000000
  163      C      21.2490000000    13.7690000000    31.1460000000
  164      H      22.0060000000    13.2210000000    31.7140000000
  165      H      20.8850000000    13.0310000000    30.4270000000
  166      H      21.6140000000    14.6770000000    30.6590000000
  167      S      19.8740000000    14.2860000000    32.1970000000
  168      C      19.2130000000    12.6220000000    32.4410000000
  169      H      18.2670000000    12.7000000000    32.9830000000
  170      H      19.1030000000    12.0420000000    31.5210000000
  171      H      19.8580000000    12.0440000000    33.1080000000
  172      O      18.9410000000    14.9960000000    31.2650000000
  173      C      21.8640000000    17.6730000000    19.8080000000
  174      H      21.9060000000    17.6490000000    18.7160000000
  175      H      21.3500000000    16.7510000000    20.0900000000
  176      H      21.2740000000    18.5410000000    20.1140000000
  177      S      23.3550000000    17.6040000000    20.8270000000
  178      C      23.8950000000    16.0770000000    20.0270000000
  179      H      23.2240000000    15.2660000000    20.3220000000
  180      H      23.9180000000    16.3310000000    18.9640000000
  181      H      24.9350000000    15.9080000000    20.3160000000
  182      O      22.8150000000    17.1020000000    22.1300000000
  183      C      18.6620000000    10.7020000000    21.3560000000
  184      H      19.1730000000     9.7420000000    21.4630000000
  185      H      17.6450000000    10.6340000000    20.9620000000
  186      H      19.2250000000    11.3980000000    20.7280000000
  187      S      18.4240000000    11.3650000000    23.0190000000
  188      C      20.0010000000    10.7610000000    23.6620000000
  189      H      20.1310000000    11.1030000000    24.6920000000
  190      H      19.9990000000     9.6840000000    23.4780000000
  191      H      20.7310000000    11.2740000000    23.0310000000
  192      O      17.6010000000    10.1840000000    23.4300000000
  193      C      17.8100000000    13.5640000000    28.6940000000
  194      H      17.7690000000    14.6180000000    28.4080000000
  195      H      16.9390000000    13.1220000000    28.2030000000
  196      H      17.8080000000    13.4470000000    29.7810000000
  197      S      19.3110000000    12.8820000000    27.9540000000
  198      C      19.1230000000    13.3990000000    26.2320000000
  199      H      19.9460000000    12.9780000000    25.6490000000
  200      H      18.2200000000    12.9670000000    25.7930000000
  201      H      19.1660000000    14.4900000000    26.2670000000
  202      O      19.0460000000    11.4090000000    27.9610000000
  203      C      22.2920000000    10.3630000000    20.3460000000
  204      H      22.1420000000     9.3280000000    20.0270000000
  205      H      23.3310000000    10.5740000000    20.6120000000
  206      H      21.6340000000    10.5460000000    21.2000000000
  207      S      21.6900000000    11.6010000000    19.1760000000
  208      C      22.7090000000    10.8650000000    17.8780000000
  209      H      22.3890000000     9.8380000000    17.6900000000
  210      H      22.6500000000    11.4160000000    16.9360000000
  211      H      23.7300000000    10.8190000000    18.2660000000
  212      O      22.4370000000    12.8400000000    19.5600000000
  213      C      29.8530000000    18.3260000000    19.3410000000
  214      H      30.1080000000    17.8460000000    18.3930000000
  215      H      29.3770000000    19.2930000000    19.1590000000
  216      H      30.7390000000    18.4040000000    19.9770000000
  217      S      28.6670000000    17.2610000000    20.1940000000
  218      C      27.2220000000    17.9910000000    19.3900000000
  219      H      27.3390000000    17.9110000000    18.3070000000
  220      H      26.3150000000    17.4810000000    19.7270000000
  221      H      27.1800000000    19.0790000000    19.4900000000
  222      O      28.6200000000    17.7510000000    21.6070000000
  223      C      22.8650000000    16.7390000000    32.5770000000
  224      H      22.0640000000    16.1300000000    33.0040000000
  225      H      22.4530000000    17.4530000000    31.8590000000
  226      H      23.5190000000    15.9860000000    32.1300000000
  227      S      23.7080000000    17.4700000000    33.9980000000
  228      C      24.0380000000    15.9950000000    34.9880000000
  229      H      23.8560000000    16.3090000000    36.0180000000
  230      H      23.1860000000    15.3730000000    34.7030000000
  231      H      25.0200000000    15.5990000000    34.7160000000
  232      O      22.6330000000    18.2080000000    34.7330000000
  233      C      25.9930000000    18.2950000000    24.1920000000
  234      H      26.3900000000    17.6300000000    24.9640000000
  235      H      25.6720000000    17.7050000000    23.3310000000
  236      H      26.7530000000    19.0140000000    23.8740000000
  237      S      24.6530000000    19.3590000000    24.7720000000
  238      C      24.4220000000    20.3060000000    23.2500000000
  239      H      25.3680000000    20.6060000000    22.7910000000
  240      H      23.9460000000    19.6340000000    22.5330000000
  241      H      23.7690000000    21.1740000000    23.3700000000
  242      O      25.2800000000    20.2750000000    25.7760000000
  243      C      28.2310000000    14.9730000000    25.6520000000
  244      H      28.1780000000    16.0520000000    25.8210000000
  245      H      27.7440000000    14.7930000000    24.6900000000
  246      H      27.6700000000    14.4400000000    26.4240000000
  247      S      29.9610000000    14.4660000000    25.5410000000
  248      C      30.2160000000    15.4670000000    24.0580000000
  249      H      30.3920000000    16.5150000000    24.3130000000
  250      H      31.1180000000    15.1370000000    23.5360000000
  251      H      29.3030000000    15.4220000000    23.4610000000
  252      O      29.7590000000    13.0420000000    25.1260000000
  253      C      16.0170000000    17.3520000000    24.9680000000
  254      H      15.5010000000    17.4620000000    25.9250000000
  255      H      17.0910000000    17.2070000000    25.1040000000
  256      H      15.8670000000    18.2460000000    24.3560000000
  257      S      15.3120000000    15.9750000000    24.0340000000
  258      C      13.5740000000    16.4610000000    24.1170000000
  259      H      13.4430000000    17.5080000000    23.8330000000
  260      H      13.1350000000    15.9010000000    23.2870000000
  261      H      13.0750000000    16.0580000000    25.0020000000
  262      O      15.3850000000    14.7290000000    24.8610000000
  263      C      21.3330000000    10.0720000000    31.0190000000
  264      H      21.5180000000    11.0470000000    31.4760000000
  265      H      20.3270000000     9.6490000000    31.0820000000
  266      H      22.0470000000     9.4080000000    31.5120000000
  267      S      21.8390000000    10.0960000000    29.2840000000
  268      C      22.6820000000     8.4980000000    29.2410000000
  269      H      21.9100000000     7.7300000000    29.1470000000
  270      H      23.3590000000     8.4870000000    28.3830000000
  271      H      23.3460000000     8.4200000000    30.1060000000
  272      O      23.0550000000    10.9650000000    29.3540000000
  273      C      24.9510000000    10.9620000000    23.8460000000
  274      H      25.4470000000    11.8630000000    24.2140000000
  275      H      25.4390000000    10.1330000000    24.3650000000
  276      H      24.9640000000    11.0690000000    22.7580000000
  277      S      23.2020000000    10.6860000000    24.2100000000
  278      C      23.3440000000    10.6070000000    26.0090000000
  279      H      24.2650000000    10.0660000000    26.2390000000
  280      H      23.3920000000    11.5870000000    26.4910000000
  281      H      22.4850000000    10.0150000000    26.3350000000
  282      O      22.9760000000     9.2670000000    23.7890000000
  283      C      30.6860000000    19.0950000000    28.9580000000
  284      H      29.8810000000    19.8230000000    28.8340000000
  285      H      31.0680000000    18.9460000000    29.9710000000
  286      H      31.4900000000    19.3840000000    28.2750000000
  287      S      29.9810000000    17.4900000000    28.5190000000
  288      C      31.5250000000    16.6690000000    28.9750000000
  289      H      32.4570000000    17.0590000000    28.5570000000
  290      H      31.5230000000    16.5890000000    30.0650000000
  291      H      31.3480000000    15.6320000000    28.6770000000
  292      O      30.0110000000    17.3780000000    27.0270000000
  293      C      19.0490000000    16.3770000000    23.1580000000
  294      H      18.8460000000    17.1890000000    22.4550000000
  295      H      18.1980000000    15.8590000000    23.6060000000
  296      H      19.5180000000    16.6560000000    24.1050000000
  297      S      20.2120000000    15.3030000000    22.2860000000
  298      C      18.8620000000    14.8400000000    21.1770000000
  299      H      18.7720000000    15.7070000000    20.5170000000
  300      H      19.1510000000    13.9880000000    20.5570000000
  301      H      17.9250000000    14.6000000000    21.6850000000
  302      O      20.4230000000    14.0400000000    23.0600000000
 ----------------------------------------------------------------
 Nuclear Repulsion Energy =       51550.84773389 hartrees
 There are      623 alpha and      623 beta electrons
 Requested basis set is 6-31+G(d)
 There are 995 shells and 2773 basis functions

 Total QAlloc Memory Limit  12000 MB
 Mega-Array Size      3911 MB
 MEM_STATIC part      4000 MB

 A cutoff of  1.0D-14 yielded 188850 shell pairs
 There are   1642296 function pairs
 Smallest overlap matrix eigenvalue = 4.79E-07
 Linear dependence detected in AO basis
 Tighter screening thresholds may be required for diffuse basis sets
 Use S2THRESH > 14 and THRESH = 14 in case of SCF convergence issues
 Number of orthogonalized atomic orbitals = 2771
 Maximum deviation from orthogonality = 2.660E-10

 Scale SEOQF with 1.000000e-03/1.000000e-03/1.000000e-03

 Standard Electronic Orientation quadrupole field applied
 Nucleus-field energy     =    -0.0000005204 hartrees
 Guess from superposition of atomic densities
 Warning:  Energy on first SCF cycle will be non-variational
 SAD guess density has 1246.000002 electrons

 -----------------------------------------------------------------------
  General SCF calculation program by
  Eric Jon Sundstrom, Paul Horn, Yuezhi Mao, Dmitri Zuev, Alec White,
  David Stuck, Shaama M.S., Shane Yost, Joonho Lee, David Small,
  Daniel Levine, Susi Lehtola, Hugh Burton, Evgeny Epifanovsky,
  Bang C. Huynh
 -----------------------------------------------------------------------
=================================================
        Doing projection-based embedding         
      F. Manby et al. JCTC, 8, 2564 (2012)       
=================================================

****************************************************
   Low-level SCF calculation for the whole system   
****************************************************
----------------------------------------------
 Summary of the low-level theory: 
 Exchange:     0.2000 Hartree-Fock + 0.0800 Slater + 0.7200 B88
 Correlation:  0.1900 VWN1RPA + 0.8100 LYP
 Using Euler-Maclaurin-Lebedev (75,302) quadrature formula
----------------------------------------------
 using 16 threads for integral computing
 -------------------------------------------------------
 OpenMP Integral computing Module                
 Release: version 1.0, May 2013, Q-Chem Inc. Pittsburgh 
 -------------------------------------------------------
 A restricted SCF calculation will be
 performed using DIIS
 SCF converges when DIIS error is below 1.0e-08
 ---------------------------------------
  Cycle       Energy         DIIS error
 ---------------------------------------
    1  -15913.9076807091      1.33e-02  
    2  -15888.9454414144      2.46e-03  
    3  -15874.6354299082      4.73e-03  
    4  -15892.7707636062      1.11e-03  
    5  -15893.8973056231      1.70e-04  
    6  -15893.9093111968      1.38e-04  
    7  -15893.9226456186      5.31e-05  
    8  -15893.9248165361      1.31e-05  
    9  -15893.9249487259      4.98e-06  
   10  -15893.9249663269      2.03e-06  
   11  -15893.9249693282      5.02e-07  
   12  -15893.9249695006      2.27e-07  
   13  -15893.9249695415      7.52e-08  
   14  -15893.9249695454      2.83e-08  
   15  -15893.9249695461      6.93e-09  Convergence criterion met
 ---------------------------------------
 SCF time:   CPU 330076.36s  wall 23586.00s 
 SCF   energy in the final basis set =   -15893.9249695461
 Total energy in the final basis set =   -15893.9249695461

****************************************************
             Start embedding calculation            
****************************************************
----------------------------------------------
 Summary of the high-level theory: 
 Exchange:     0.2000 Hartree-Fock + 0.0800 Slater + 0.7200 B88
 Correlation:  0.1900 VWN1RPA + 0.8100 LYP
 Using Euler-Maclaurin-Lebedev (75,302) quadrature formula
----------------------------------------------
Doing R-in-R Embedding Calculation
Number of fragments: 2
Embedded fragment(s): 1 
NOcc for each fragment
           35
          588
NBasis for each fragment
          197
         2576
Variational space of the embedded problem: 
NOcc (active)  = 35
NOcc (fixed)   = 588
NVir (total)   = 2148
Read converged orbitals from disk
=========================================================
       Doing SPADE partition for the orbital space       
     D. Claudino and N. Mayhall JCTC 15, 1053 (2019)     
=========================================================
SPADE singular values:
 1.0000 1.0000 1.0000 1.0000 1.0000 1.0000 1.0000 1.0000 1.0000 0.9999
 0.9998 0.9997 0.9996 0.9996 0.9995 0.9994 0.9993 0.9990 0.9987 0.9972
 0.9967 0.9964 0.9962 0.9958 0.9956 0.9950 0.9943 0.9939 0.9928 0.9923
 0.9908 0.9896 0.9881 0.9861 0.9788 0.2036 0.1935 0.1815 0.1697 0.1524
 0.1439 0.1256 0.1149 0.1113 0.1053 0.0953 0.0912 0.0763 0.0720 0.0703
 0.0643 0.0558 0.0521 0.0471 0.0454 0.0427 0.0402 0.0391 0.0326 0.0320
 0.0300 0.0290 0.0279 0.0261 0.0242 0.0223 0.0207 0.0188 0.0183 0.0182
 0.0170 0.0162 0.0150 0.0142 0.0138 0.0134 0.0126 0.0122 0.0112 0.0107
 0.0100 0.0097 0.0092 0.0087 0.0084 0.0079 0.0073 0.0072 0.0068 0.0064
 0.0063 0.0061 0.0060 0.0057 0.0055 0.0053 0.0050 0.0046 0.0045 0.0042
 0.0041 0.0039 0.0036 0.0033 0.0031 0.0030 0.0028 0.0027 0.0026 0.0024
 0.0023 0.0022 0.0020 0.0019 0.0019 0.0017 0.0017 0.0016 0.0016 0.0016
 0.0015 0.0015 0.0014 0.0014 0.0013 0.0013 0.0012 0.0012 0.0011 0.0011
 0.0010 0.0010 0.0009 0.0009 0.0009 0.0009 0.0008 0.0008 0.0007 0.0007
 0.0007 0.0007 0.0006 0.0006 0.0006 0.0006 0.0005 0.0005 0.0005 0.0005
 0.0005 0.0004 0.0004 0.0004 0.0004 0.0004 0.0004 0.0003 0.0003 0.0003
 0.0003 0.0003 0.0003 0.0003 0.0003 0.0003 0.0003 0.0002 0.0002 0.0002
 0.0002 0.0002 0.0002 0.0002 0.0002 0.0002 0.0002 0.0002 0.0002 0.0001
 0.0001 0.0001 0.0001 0.0001 0.0001 0.0001 0.0001 0.0001 0.0001 0.0001
 0.0001 0.0001 0.0001 0.0001 0.0001 0.0001 0.0001
Early stop requested; no embedded SCF will be performed

 588 environment occs will be part of frozen-core in future post-HF calculations

 --------------------------------------------------------------

                    Orbital Energies (a.u.)
 --------------------------------------------------------------

 Alpha MOs
 -- Occupied --
-89.0397 -89.0329 -89.0319 -89.0240 -89.0185 -89.0169 -89.0134 -89.0087
-89.0054 -89.0046 -89.0001 -88.9967 -88.9963 -88.9954 -88.9933 -88.9909
-88.9909 -88.9890 -88.9873 -88.9840 -88.9793 -88.9788 -88.9770 -88.9764
-88.9747 -88.9709 -88.9648 -88.9629 -19.1523 -19.1523 -19.1515 -19.1364
-19.1336 -19.1294 -19.1274 -19.1253 -19.1204 -19.1203 -19.1202 -19.1171
-19.1151 -19.1127 -19.1095 -19.1085 -19.1066 -19.1061 -19.1031 -19.0997
-19.0964 -19.0944 -19.0926 -19.0923 -19.0901 -19.0859 -19.0802 -19.0679
-10.2539 -10.2471 -10.2469 -10.2468 -10.2434 -10.2416 -10.2390 -10.2387
-10.2378 -10.2377 -10.2353 -10.2353 -10.2341 -10.2317 -10.2300 -10.2276
-10.2256 -10.2211 -10.2204 -10.2172 -10.2155 -10.2144 -10.2141 -10.2138
-10.2132 -10.2130 -10.2104 -10.2103 -10.2097 -10.2089 -10.2089 -10.2060
-10.2046 -10.2044 -10.2042 -10.2030 -10.2028 -10.2025 -10.2015 -10.2011
-10.1952 -10.1943 -10.1933 -10.1933 -10.1922 -10.1915 -10.1907 -10.1897
-10.1894 -10.1875 -10.1854 -10.1840 -10.1831 -10.1821 -10.1819 -10.1767
 -8.0853  -8.0789  -8.0768  -8.0692  -8.0644  -8.0633  -8.0591  -8.0545
 -8.0514  -8.0492  -8.0460  -8.0423  -8.0420  -8.0419  -8.0387  -8.0366
 -8.0365  -8.0340  -8.0331  -8.0297  -8.0250  -8.0240  -8.0230  -8.0217
 -8.0215  -8.0176  -8.0104  -8.0094  -6.0495  -6.0483  -6.0432  -6.0430
 -6.0418  -6.0414  -6.0397  -6.0366  -6.0343  -6.0336  -6.0324  -6.0287
 -6.0277  -6.0274  -6.0265  -6.0264  -6.0235  -6.0224  -6.0217  -6.0210
 -6.0190  -6.0175  -6.0165  -6.0157  -6.0143  -6.0138  -6.0124  -6.0117
 -6.0105  -6.0090  -6.0089  -6.0065  -6.0065  -6.0064  -6.0059  -6.0056
 -6.0051  -6.0049  -6.0035  -6.0034  -6.0019  -6.0012  -6.0011  -5.9998
 -5.9997  -5.9997  -5.9995  -5.9993  -5.9984  -5.9974  -5.9972  -5.9962
 -5.9960  -5.9942  -5.9939  -5.9937  -5.9925  -5.9912  -5.9907  -5.9895
 -5.9884  -5.9876  -5.9875  -5.9874  -5.9871  -5.9862  -5.9859  -5.9859
 -5.9850  -5.9846  -5.9827  -5.9819  -5.9816  -5.9805  -5.9801  -5.9792
 -5.9785  -5.9753  -5.9749  -5.9735  -5.9735  -5.9725  -5.9676  -5.9668
 -1.0648  -1.0599  -1.0595  -1.0461  -1.0395  -1.0391  -1.0375  -1.0350
 -1.0319  -1.0285  -1.0265  -1.0243  -1.0234  -1.0217  -1.0199  -1.0189
 -1.0165  -1.0155  -1.0130  -1.0125  -1.0100  -1.0036  -1.0032  -1.0031
 -0.9968  -0.9955  -0.9913  -0.9848  -0.8401  -0.8394  -0.8348  -0.8230
 -0.8220  -0.8200  -0.8176  -0.8076  -0.8071  -0.8059  -0.8046  -0.7993
 -0.7992  -0.7953  -0.7927  -0.7919  -0.7917  -0.7913  -0.7905  -0.7869
 -0.7846  -0.7837  -0.7798  -0.7791  -0.7786  -0.7739  -0.7730  -0.7613
 -0.7602  -0.7550  -0.7529  -0.7520  -0.7509  -0.7447  -0.7437  -0.7359
 -0.7323  -0.7300  -0.7283  -0.7275  -0.7266  -0.7235  -0.7228  -0.7213
 -0.7196  -0.7164  -0.7128  -0.7122  -0.7106  -0.7082  -0.7041  -0.7005
 -0.6996  -0.6956  -0.6930  -0.6912  -0.6524  -0.6457  -0.6442  -0.6405
 -0.6302  -0.6302  -0.6291  -0.6201  -0.6171  -0.6161  -0.6151  -0.6129
 -0.6100  -0.6083  -0.6076  -0.6045  -0.6033  -0.6009  -0.6003  -0.5958
 -0.5953  -0.5926  -0.5905  -0.5875  -0.5824  -0.5816  -0.5798  -0.5760
 -0.5240  -0.5184  -0.5142  -0.5082  -0.5053  -0.5037  -0.4997  -0.4991
 -0.4979  -0.4964  -0.4946  -0.4945  -0.4937  -0.4925  -0.4918  -0.4896
 -0.4891  -0.4879  -0.4856  -0.4851  -0.4848  -0.4840  -0.4831  -0.4823
 -0.4811  -0.4802  -0.4797  -0.4795  -0.4776  -0.4770  -0.4763  -0.4758
 -0.4754  -0.4737  -0.4713  -0.4709  -0.4707  -0.4699  -0.4689  -0.4684
 -0.4679  -0.4677  -0.4670  -0.4661  -0.4659  -0.4657  -0.4647  -0.4634
 -0.4631  -0.4629  -0.4624  -0.4609  -0.4605  -0.4599  -0.4598  -0.4584
 -0.4574  -0.4570  -0.4569  -0.4567  -0.4564  -0.4563  -0.4557  -0.4549
 -0.4544  -0.4541  -0.4532  -0.4526  -0.4518  -0.4514  -0.4510  -0.4501
 -0.4491  -0.4489  -0.4477  -0.4466  -0.4460  -0.4450  -0.4447  -0.4434
 -0.4431  -0.4425  -0.4417  -0.4409  -0.4397  -0.4391  -0.4387  -0.4360
 -0.4351  -0.4343  -0.4341  -0.4338  -0.4335  -0.4330  -0.4319  -0.4312
 -0.4302  -0.4299  -0.4298  -0.4291  -0.4270  -0.4266  -0.4263  -0.4248
 -0.4242  -0.4231  -0.4229  -0.4211  -0.4199  -0.4194  -0.4181  -0.4168
 -0.4167  -0.4164  -0.4157  -0.4144  -0.4140  -0.4133  -0.4131  -0.4126
 -0.4112  -0.4109  -0.4101  -0.4098  -0.4085  -0.4082  -0.4078  -0.4075
 -0.4071  -0.4059  -0.4053  -0.4041  -0.4037  -0.4033  -0.4025  -0.4015
 -0.4006  -0.3993  -0.3989  -0.3979  -0.3974  -0.3965  -0.3961  -0.3952
 -0.3946  -0.3934  -0.3927  -0.3921  -0.3909  -0.3901  -0.3896  -0.3894
 -0.3879  -0.3875  -0.3868  -0.3864  -0.3860  -0.3831  -0.3824  -0.3819
 -0.3818  -0.3798  -0.3791  -0.3771  -0.3770  -0.3765  -0.3751  -0.3747
 -0.3736  -0.3730  -0.3720  -0.3687  -0.3678  -0.3671  -0.3654  -0.3653
 -0.3649  -0.3637  -0.3632  -0.3628  -0.3610  -0.3601  -0.3592  -0.3553
 -0.3544  -0.3520  -0.3512  -0.3495  -0.3483  -0.3425  -0.3407  -0.3402
 -0.3382  -0.3368  -0.3346  -0.3184  -0.3146  -0.3115  -0.3083  -0.2977
 -0.2944  -0.2926  -0.2916  -0.2890  -0.2846  -0.2845  -0.2816  -0.2795
 -0.2793  -0.2785  -0.2772  -0.2738  -0.2725  -0.2724  -0.2710  -0.2684
 -0.2650  -0.2616  -0.2606  -0.2586  -0.2582  -0.2578  -0.2566  -0.2551
 -0.2539  -0.2518  -0.2517  -0.2511  -0.2501  -0.2473  -0.2466  -0.2459
 -0.2452  -0.2423  -0.2415  -0.2391  -0.2377  -0.2355  -0.2320  -0.2316
 -0.2304  -0.2300  -0.2279  -0.2271  -0.2267  -0.2195  -0.2169  -0.2161
 -0.2123  -0.2119  -0.2003  -0.1990 -10.5338 -17.6420 -11.6818 -11.5371
-11.3194 -10.1683 -10.2041 -10.5762 -10.4412  -0.8526  -0.7385  -0.8662
 -0.6843  -0.7138  -0.6151  -0.7511  -0.6997  -0.4686  -0.4219  -0.4621
 -0.4497  -0.4876  -0.4662  -0.4085  -0.3982  -0.3953  -0.4406  -0.4273
 -0.4511  -0.4439  -0.4659  -0.4649  -0.3942  -0.5456  -0.5350
 -- Virtual --
 -0.0506  -0.0403  -0.0351  -0.0347  -0.0332  -0.0301  -0.0262  -0.0218
 -0.0210  -0.0205  -0.0185  -0.0177  -0.0162  -0.0140  -0.0108  -0.0101
 -0.0098  -0.0093  -0.0073  -0.0065  -0.0047  -0.0041  -0.0027  -0.0015
 -0.0004  -0.0001   0.0021   0.0031   0.0039   0.0047   0.0049   0.0051
  0.0063   0.0069   0.0077   0.0079   0.0089   0.0096   0.0112   0.0113
  0.0119   0.0132   0.0137   0.0144   0.0147   0.0159   0.0165   0.0166
  0.0167   0.0180   0.0191   0.0193   0.0202   0.0209   0.0212   0.0222
  0.0228   0.0230   0.0239   0.0246   0.0251   0.0259   0.0263   0.0276
  0.0280   0.0283   0.0287   0.0296   0.0298   0.0309   0.0317   0.0328
  0.0328   0.0334   0.0337   0.0349   0.0351   0.0359   0.0371   0.0374
  0.0376   0.0380   0.0387   0.0392   0.0399   0.0407   0.0414   0.0419
  0.0424   0.0427   0.0436   0.0442   0.0446   0.0453   0.0458   0.0467
  0.0476   0.0479   0.0483   0.0489   0.0496   0.0504   0.0513   0.0516
  0.0525   0.0531   0.0533   0.0541   0.0549   0.0551   0.0554   0.0558
  0.0564   0.0570   0.0574   0.0577   0.0590   0.0598   0.0601   0.0608
  0.0616   0.0625   0.0630   0.0632   0.0642   0.0647   0.0649   0.0655
  0.0658   0.0661   0.0671   0.0674   0.0681   0.0689   0.0694   0.0701
  0.0708   0.0714   0.0723   0.0730   0.0734   0.0743   0.0746   0.0757
  0.0758   0.0766   0.0776   0.0779   0.0785   0.0787   0.0795   0.0801
  0.0807   0.0816   0.0827   0.0830   0.0837   0.0853   0.0859   0.0866
  0.0869   0.0878   0.0883   0.0886   0.0892   0.0894   0.0896   0.0918
  0.0921   0.0928   0.0936   0.0944   0.0949   0.0953   0.0962   0.0967
  0.0981   0.0983   0.0989   0.0997   0.0999   0.1002   0.1011   0.1017
  0.1022   0.1025   0.1029   0.1034   0.1040   0.1048   0.1051   0.1055
  0.1062   0.1077   0.1081   0.1091   0.1094   0.1099   0.1102   0.1115
  0.1121   0.1126   0.1127   0.1131   0.1142   0.1148   0.1151   0.1156
  0.1156   0.1164   0.1168   0.1176   0.1183   0.1193   0.1197   0.1200
  0.1206   0.1211   0.1222   0.1228   0.1231   0.1240   0.1246   0.1250
  0.1254   0.1267   0.1269   0.1277   0.1281   0.1283   0.1286   0.1301
  0.1305   0.1313   0.1317   0.1324   0.1332   0.1334   0.1346   0.1349
  0.1357   0.1360   0.1368   0.1372   0.1379   0.1386   0.1396   0.1400
  0.1406   0.1411   0.1415   0.1424   0.1430   0.1436   0.1442   0.1449
  0.1460   0.1464   0.1473   0.1477   0.1483   0.1484   0.1492   0.1497
  0.1503   0.1510   0.1514   0.1526   0.1527   0.1536   0.1540   0.1548
  0.1556   0.1557   0.1568   0.1570   0.1576   0.1579   0.1584   0.1593
  0.1597   0.1607   0.1614   0.1620   0.1624   0.1631   0.1636   0.1640
  0.1646   0.1649   0.1660   0.1662   0.1665   0.1674   0.1679   0.1682
  0.1690   0.1699   0.1703   0.1708   0.1717   0.1717   0.1725   0.1729
  0.1731   0.1740   0.1749   0.1754   0.1756   0.1762   0.1764   0.1778
  0.1782   0.1790   0.1797   0.1798   0.1802   0.1816   0.1821   0.1825
  0.1829   0.1837   0.1847   0.1852   0.1860   0.1863   0.1865   0.1875
  0.1881   0.1881   0.1891   0.1901   0.1906   0.1911   0.1914   0.1927
  0.1928   0.1934   0.1940   0.1946   0.1951   0.1956   0.1961   0.1965
  0.1969   0.1976   0.1978   0.1988   0.1998   0.2000   0.2005   0.2006
  0.2017   0.2020   0.2024   0.2041   0.2048   0.2050   0.2057   0.2065
  0.2068   0.2075   0.2076   0.2084   0.2090   0.2094   0.2104   0.2106
  0.2115   0.2125   0.2129   0.2135   0.2140   0.2148   0.2149   0.2153
  0.2159   0.2169   0.2169   0.2174   0.2191   0.2194   0.2201   0.2204
  0.2206   0.2211   0.2214   0.2225   0.2227   0.2237   0.2240   0.2247
  0.2250   0.2258   0.2263   0.2265   0.2271   0.2283   0.2287   0.2298
  0.2303   0.2304   0.2316   0.2323   0.2330   0.2333   0.2344   0.2348
  0.2352   0.2358   0.2360   0.2368   0.2375   0.2379   0.2390   0.2394
  0.2402   0.2411   0.2418   0.2428   0.2433   0.2442   0.2443   0.2447
  0.2452   0.2460   0.2470   0.2476   0.2483   0.2486   0.2494   0.2498
  0.2507   0.2509   0.2519   0.2525   0.2528   0.2544   0.2548   0.2553
  0.2556   0.2564   0.2574   0.2576   0.2589   0.2590   0.2600   0.2604
  0.2611   0.2613   0.2622   0.2626   0.2634   0.2640   0.2644   0.2659
  0.2672   0.2677   0.2686   0.2694   0.2701   0.2703   0.2712   0.2716
  0.2722   0.2724   0.2736   0.2744   0.2748   0.2751   0.2767   0.2768
  0.2772   0.2789   0.2793   0.2802   0.2812   0.2818   0.2826   0.2830
  0.2840   0.2842   0.2849   0.2859   0.2867   0.2876   0.2882   0.2888
  0.2893   0.2899   0.2911   0.2918   0.2922   0.2932   0.2943   0.2947
  0.2962   0.2969   0.2976   0.2984   0.2995   0.3000   0.3002   0.3009
  0.3015   0.3025   0.3032   0.3034   0.3045   0.3054   0.3065   0.3068
  0.3079   0.3087   0.3100   0.3105   0.3110   0.3123   0.3124   0.3129
  0.3139   0.3145   0.3153   0.3160   0.3167   0.3174   0.3184   0.3185
  0.3190   0.3196   0.3210   0.3219   0.3228   0.3243   0.3244   0.3257
  0.3264   0.3275   0.3281   0.3293   0.3298   0.3311   0.3316   0.3322
  0.3324   0.3338   0.3354   0.3358   0.3370   0.3379   0.3388   0.3394
  0.3400   0.3406   0.3413   0.3426   0.3434   0.3444   0.3447   0.3459
  0.3466   0.3477   0.3483   0.3491   0.3495   0.3510   0.3520   0.3524
  0.3531   0.3545   0.3561   0.3571   0.3575   0.3581   0.3589   0.3593
  0.3603   0.3615   0.3624   0.3633   0.3644   0.3648   0.3661   0.3667
  0.3673   0.3685   0.3695   0.3699   0.3705   0.3710   0.3719   0.3734
  0.3743   0.3751   0.3753   0.3762   0.3766   0.3769   0.3793   0.3795
  0.3809   0.3816   0.3826   0.3833   0.3839   0.3845   0.3850   0.3857
  0.3872   0.3875   0.3883   0.3889   0.3912   0.3917   0.3923   0.3932
  0.3936   0.3942   0.3951   0.3960   0.3962   0.3971   0.3981   0.3989
  0.3998   0.4006   0.4015   0.4027   0.4032   0.4038   0.4049   0.4053
  0.4065   0.4072   0.4079   0.4081   0.4098   0.4112   0.4116   0.4127
  0.4130   0.4135   0.4151   0.4159   0.4175   0.4185   0.4192   0.4193
  0.4206   0.4217   0.4225   0.4238   0.4249   0.4254   0.4258   0.4262
  0.4275   0.4290   0.4302   0.4312   0.4314   0.4323   0.4339   0.4349
  0.4358   0.4362   0.4376   0.4379   0.4393   0.4405   0.4418   0.4421
  0.4429   0.4453   0.4458   0.4464   0.4468   0.4490   0.4494   0.4509
  0.4527   0.4534   0.4538   0.4554   0.4574   0.4576   0.4590   0.4596
  0.4610   0.4620   0.4629   0.4650   0.4658   0.4670   0.4684   0.4693
  0.4702   0.4719   0.4726   0.4730   0.4748   0.4753   0.4769   0.4787
  0.4797   0.4804   0.4817   0.4831   0.4851   0.4854   0.4861   0.4881
  0.4901   0.4910   0.4922   0.4936   0.4967   0.4973   0.4985   0.4989
  0.5000   0.5023   0.5028   0.5029   0.5044   0.5058   0.5062   0.5097
  0.5111   0.5114   0.5125   0.5146   0.5150   0.5172   0.5185   0.5200
  0.5203   0.5244   0.5253   0.5273   0.5282   0.5294   0.5305   0.5313
  0.5329   0.5348   0.5358   0.5371   0.5391   0.5400   0.5410   0.5433
  0.5446   0.5452   0.5484   0.5495   0.5509   0.5516   0.5528   0.5548
  0.5552   0.5582   0.5595   0.5610   0.5619   0.5629   0.5639   0.5642
  0.5665   0.5681   0.5697   0.5715   0.5739   0.5751   0.5759   0.5773
  0.5786   0.5801   0.5816   0.5832   0.5856   0.5861   0.5876   0.5888
  0.5898   0.5916   0.5927   0.5948   0.5961   0.5968   0.5977   0.5989
  0.5999   0.6017   0.6029   0.6040   0.6046   0.6066   0.6079   0.6098
  0.6106   0.6127   0.6138   0.6152   0.6166   0.6178   0.6190   0.6208
  0.6215   0.6227   0.6236   0.6256   0.6266   0.6282   0.6286   0.6296
  0.6302   0.6313   0.6332   0.6339   0.6359   0.6367   0.6383   0.6393
  0.6407   0.6408   0.6425   0.6430   0.6454   0.6454   0.6470   0.6485
  0.6490   0.6497   0.6510   0.6521   0.6530   0.6551   0.6553   0.6566
  0.6576   0.6586   0.6595   0.6612   0.6628   0.6644   0.6647   0.6659
  0.6667   0.6686   0.6697   0.6714   0.6731   0.6737   0.6742   0.6760
  0.6764   0.6775   0.6779   0.6806   0.6811   0.6826   0.6830   0.6839
  0.6850   0.6860   0.6880   0.6891   0.6900   0.6908   0.6915   0.6935
  0.6939   0.6959   0.6975   0.6979   0.6985   0.7002   0.7007   0.7019
  0.7035   0.7037   0.7049   0.7062   0.7067   0.7089   0.7095   0.7105
  0.7119   0.7124   0.7134   0.7170   0.7174   0.7185   0.7202   0.7207
  0.7212   0.7219   0.7253   0.7260   0.7273   0.7292   0.7298   0.7304
  0.7324   0.7330   0.7347   0.7359   0.7369   0.7381   0.7387   0.7408
  0.7415   0.7437   0.7448   0.7470   0.7477   0.7485   0.7499   0.7514
  0.7519   0.7540   0.7549   0.7567   0.7574   0.7590   0.7607   0.7623
  0.7641   0.7643   0.7662   0.7671   0.7687   0.7701   0.7704   0.7718
  0.7734   0.7748   0.7750   0.7765   0.7787   0.7805   0.7827   0.7842
  0.7856   0.7865   0.7880   0.7891   0.7904   0.7908   0.7938   0.7946
  0.7967   0.7983   0.7989   0.8003   0.8009   0.8047   0.8053   0.8074
  0.8084   0.8100   0.8102   0.8116   0.8125   0.8130   0.8158   0.8172
  0.8178   0.8201   0.8212   0.8216   0.8236   0.8247   0.8269   0.8277
  0.8287   0.8298   0.8324   0.8328   0.8357   0.8370   0.8379   0.8385
  0.8397   0.8415   0.8424   0.8450   0.8458   0.8469   0.8479   0.8486
  0.8511   0.8516   0.8533   0.8543   0.8551   0.8576   0.8588   0.8602
  0.8611   0.8628   0.8644   0.8654   0.8660   0.8687   0.8690   0.8695
  0.8723   0.8736   0.8741   0.8752   0.8757   0.8765   0.8782   0.8798
  0.8804   0.8818   0.8831   0.8837   0.8854   0.8863   0.8870   0.8879
  0.8884   0.8891   0.8910   0.8933   0.8949   0.8958   0.8961   0.8974
  0.8982   0.8989   0.9007   0.9017   0.9019   0.9035   0.9040   0.9055
  0.9080   0.9085   0.9099   0.9106   0.9120   0.9129   0.9131   0.9160
  0.9165   0.9172   0.9193   0.9208   0.9226   0.9230   0.9232   0.9245
  0.9251   0.9259   0.9273   0.9291   0.9306   0.9316   0.9340   0.9348
  0.9355   0.9365   0.9380   0.9393   0.9400   0.9413   0.9428   0.9439
  0.9448   0.9455   0.9468   0.9473   0.9498   0.9509   0.9520   0.9525
  0.9530   0.9539   0.9549   0.9565   0.9584   0.9592   0.9599   0.9604
  0.9617   0.9634   0.9647   0.9658   0.9662   0.9673   0.9680   0.9687
  0.9701   0.9710   0.9721   0.9730   0.9737   0.9757   0.9766   0.9780
  0.9784   0.9805   0.9814   0.9826   0.9847   0.9853   0.9869   0.9875
  0.9876   0.9903   0.9909   0.9914   0.9933   0.9939   0.9941   0.9951
  0.9956   0.9957   0.9978   0.9994   1.0008   1.0018   1.0027   1.0033
  1.0035   1.0040   1.0051   1.0069   1.0076   1.0091   1.0102   1.0113
  1.0136   1.0137   1.0149   1.0158   1.0166   1.0174   1.0190   1.0205
  1.0216   1.0222   1.0230   1.0247   1.0258   1.0268   1.0273   1.0299
  1.0306   1.0317   1.0328   1.0332   1.0340   1.0354   1.0372   1.0382
  1.0386   1.0407   1.0425   1.0437   1.0442   1.0448   1.0485   1.0495
  1.0503   1.0513   1.0524   1.0538   1.0548   1.0563   1.0572   1.0583
  1.0597   1.0601   1.0609   1.0618   1.0641   1.0648   1.0659   1.0672
  1.0684   1.0690   1.0698   1.0720   1.0724   1.0743   1.0753   1.0771
  1.0783   1.0796   1.0807   1.0820   1.0836   1.0846   1.0852   1.0867
  1.0879   1.0881   1.0906   1.0915   1.0918   1.0939   1.0947   1.0965
  1.0969   1.0978   1.0992   1.1005   1.1022   1.1029   1.1033   1.1046
  1.1051   1.1075   1.1080   1.1096   1.1110   1.1131   1.1139   1.1147
  1.1158   1.1162   1.1187   1.1192   1.1207   1.1230   1.1237   1.1246
  1.1257   1.1267   1.1275   1.1286   1.1295   1.1301   1.1332   1.1344
  1.1355   1.1367   1.1381   1.1384   1.1400   1.1420   1.1427   1.1432
  1.1452   1.1471   1.1479   1.1482   1.1492   1.1501   1.1513   1.1530
  1.1549   1.1554   1.1561   1.1568   1.1580   1.1595   1.1616   1.1627
  1.1631   1.1644   1.1650   1.1659   1.1677   1.1681   1.1700   1.1727
  1.1735   1.1748   1.1761   1.1768   1.1781   1.1797   1.1811   1.1821
  1.1839   1.1859   1.1877   1.1887   1.1909   1.1924   1.1936   1.1942
  1.1964   1.1983   1.1996   1.2023   1.2028   1.2037   1.2046   1.2056
  1.2073   1.2097   1.2103   1.2120   1.2136   1.2141   1.2157   1.2176
  1.2198   1.2217   1.2237   1.2263   1.2269   1.2282   1.2309   1.2322
  1.2369   1.2381   1.2396   1.2408   1.2434   1.2442   1.2468   1.2482
  1.2499   1.2509   1.2541   1.2554   1.2567   1.2579   1.2595   1.2607
  1.2638   1.2668   1.2694   1.2709   1.2758   1.2782   1.2790   1.2810
  1.2825   1.2841   1.2843   1.2867   1.2903   1.2913   1.2937   1.2949
  1.2974   1.3006   1.3026   1.3044   1.3062   1.3069   1.3086   1.3097
  1.3121   1.3127   1.3158   1.3187   1.3200   1.3244   1.3275   1.3289
  1.3304   1.3316   1.3341   1.3356   1.3369   1.3380   1.3391   1.3422
  1.3429   1.3454   1.3464   1.3475   1.3508   1.3520   1.3524   1.3552
  1.3562   1.3593   1.3619   1.3637   1.3648   1.3670   1.3694   1.3711
  1.3718   1.3720   1.3753   1.3768   1.3788   1.3821   1.3828   1.3844
  1.3860   1.3882   1.3883   1.3891   1.3911   1.3919   1.3927   1.3952
  1.3964   1.3965   1.3984   1.3993   1.4008   1.4017   1.4034   1.4045
  1.4071   1.4076   1.4083   1.4094   1.4105   1.4121   1.4126   1.4137
  1.4150   1.4163   1.4167   1.4192   1.4196   1.4211   1.4244   1.4265
  1.4288   1.4290   1.4305   1.4312   1.4334   1.4357   1.4368   1.4381
  1.4386   1.4409   1.4433   1.4469   1.4476   1.4484   1.4493   1.4512
  1.4531   1.4552   1.4576   1.4600   1.4604   1.4628   1.4642   1.4660
  1.4668   1.4686   1.4698   1.4720   1.4726   1.4735   1.4759   1.4768
  1.4776   1.4807   1.4811   1.4829   1.4852   1.4864   1.4882   1.4917
  1.4941   1.4949   1.4960   1.4981   1.5009   1.5026   1.5042   1.5074
  1.5079   1.5101   1.5110   1.5148   1.5176   1.5189   1.5209   1.5227
  1.5247   1.5268   1.5289   1.5307   1.5326   1.5340   1.5372   1.5376
  1.5398   1.5429   1.5451   1.5488   1.5507   1.5535   1.5573   1.5596
  1.5608   1.5631   1.5637   1.5651   1.5710   1.5737   1.5744   1.5791
  1.5841   1.5848   1.5861   1.5889   1.5946   1.5965   1.5993   1.6025
  1.6044   1.6085   1.6121   1.6157   1.6183   1.6202   1.6262   1.6281
  1.6338   1.6370   1.6401   1.6426   1.6434   1.6454   1.6507   1.6511
  1.6526   1.6540   1.6549   1.6570   1.6623   1.6637   1.6665   1.6693
  1.6702   1.6722   1.6748   1.6768   1.6775   1.6802   1.6811   1.6825
  1.6834   1.6846   1.6857   1.6870   1.6884   1.6894   1.6899   1.6911
  1.6942   1.6943   1.6969   1.6985   1.6999   1.7010   1.7023   1.7037
  1.7038   1.7056   1.7069   1.7078   1.7099   1.7114   1.7120   1.7133
  1.7143   1.7148   1.7162   1.7172   1.7190   1.7195   1.7212   1.7226
  1.7237   1.7241   1.7265   1.7283   1.7294   1.7300   1.7308   1.7319
  1.7344   1.7350   1.7369   1.7389   1.7399   1.7412   1.7429   1.7444
  1.7457   1.7463   1.7472   1.7490   1.7510   1.7514   1.7522   1.7527
  1.7563   1.7566   1.7580   1.7587   1.7603   1.7622   1.7626   1.7643
  1.7648   1.7674   1.7687   1.7699   1.7711   1.7732   1.7741   1.7751
  1.7760   1.7781   1.7794   1.7824   1.7830   1.7844   1.7857   1.7866
  1.7901   1.7907   1.7915   1.7930   1.7962   1.7967   1.7977   1.7993
  1.8015   1.8040   1.8063   1.8083   1.8133   1.8145   1.8177   1.8216
  1.8229   1.8265   1.8271   1.8294   1.8318   1.8342   1.8375   1.8389
  1.8393   1.8434   1.8452   1.8481   1.8515   1.8540   1.8552   1.8574
  1.8596   1.8624   1.8659   1.8674   1.8679   1.8706   1.8722   1.8734
  1.8764   1.8777   1.8794   1.8808   1.8819   1.8833   1.8849   1.8854
  1.8875   1.8886   1.8899   1.8906   1.8925   1.8938   1.8945   1.8965
  1.8975   1.8987   1.8999   1.9032   1.9039   1.9048   1.9072   1.9083
  1.9098   1.9111   1.9131   1.9143   1.9158   1.9161   1.9178   1.9197
  1.9209   1.9222   1.9228   1.9235   1.9246   1.9259   1.9267   1.9300
  1.9315   1.9330   1.9336   1.9364   1.9370   1.9392   1.9418   1.9431
  1.9450   1.9462   1.9511   1.9523   1.9530   1.9544   1.9558   1.9573
  1.9599   1.9603   1.9641   1.9667   1.9679   1.9719   1.9741   1.9755
  1.9787   1.9833   1.9859   1.9880   1.9941   1.9948   1.9971   2.0051
  2.0092   2.0115   2.0208   2.0234   2.0321   2.0342   2.0374   2.0405
  2.0428   2.0469   2.0482   2.0508   2.0568   2.0611   2.0641   2.0652
  2.0661   2.0683   2.0700   2.0718   2.0738   2.0748   2.0760   2.0776
  2.0791   2.0826   2.0831   2.0841   2.0853   2.0860   2.0870   2.0883
  2.0887   2.0898   2.0902   2.0910   2.0953   2.0967   2.0979   2.0990
  2.1005   2.1014   2.1028   2.1037   2.1053   2.1084   2.1128   2.1138
  2.1149   2.1164   2.1172   2.1189   2.1205   2.1228   2.1243   2.1268
  2.1271   2.1297   2.1322   2.1336   2.1385   2.1387   2.1439   2.1443
  2.1463   2.1505   2.1516   2.1550   2.1574   2.1604   2.1617   2.1651
  2.1696   2.1715   2.1803   2.1818   2.1879   2.1940   2.1949   2.1964
  2.1982   2.1998   2.2027   2.2045   2.2058   2.2100   2.2111   2.2145
  2.2153   2.2181   2.2194   2.2203   2.2215   2.2221   2.2232   2.2242
  2.2249   2.2257   2.2275   2.2284   2.2312   2.2325   2.2330   2.2339
  2.2348   2.2362   2.2374   2.2376   2.2380   2.2403   2.2424   2.2431
  2.2453   2.2463   2.2482   2.2484   2.2495   2.2504   2.2506   2.2509
  2.2530   2.2535   2.2552   2.2556   2.2562   2.2576   2.2577   2.2589
  2.2595   2.2612   2.2643   2.2658   2.2671   2.2677   2.2686   2.2702
  2.2703   2.2713   2.2714   2.2722   2.2726   2.2728   2.2738   2.2745
  2.2747   2.2765   2.2780   2.2785   2.2792   2.2803   2.2805   2.2819
  2.2831   2.2836   2.2848   2.2858   2.2861   2.2873   2.2877   2.2889
  2.2903   2.2919   2.2931   2.2936   2.2942   2.2945   2.2956   2.2961
  2.2969   2.2978   2.2981   2.2997   2.3013   2.3017   2.3021   2.3038
  2.3045   2.3059   2.3067   2.3080   2.3084   2.3099   2.3111   2.3119
  2.3145   2.3148   2.3156   2.3187   2.3206   2.3217   2.3219   2.3240
  2.3244   2.3266   2.3280   2.3290   2.3313   2.3322   2.3337   2.3343
  2.3355   2.3364   2.3394   2.3406   2.3417   2.3427   2.3443   2.3467
  2.3476   2.3503   2.3507   2.3515   2.3525   2.3555   2.3588   2.3601
  2.3608   2.3625   2.3642   2.3667   2.3674   2.3684   2.3688   2.3706
  2.3733   2.3744   2.3756   2.3767   2.3782   2.3792   2.3808   2.3816
  2.3847   2.3878   2.3881   2.3909   2.3919   2.3943   2.3959   2.4027
  2.4062   2.4108   2.4123   2.4171   2.4209   2.4304   2.4465   2.4571
  2.4938   2.5243   2.5665   2.5812   2.6487   2.7215   2.7725   2.7888
  2.8211   2.8246   2.8281   2.8294   2.8322   2.8378   2.8418   2.8433
  2.8467   2.8484   2.8516   2.8543   2.8548   2.8574   2.8608   2.8612
  2.8679   2.8702   2.8733   2.8754   2.8779   2.8796   2.8814   2.8824
  2.8855   2.8879   2.8893   2.8931   2.8995   2.9068   2.9102   2.9204
  2.9419   3.0844   3.2353   3.9372   3.9403   3.9567   3.9660   3.9744
  3.9777   3.9801   3.9853   3.9863   3.9878   3.9911   3.9935   3.9977
  4.0039   4.0061   4.0070   4.0071   4.0113   4.0173   4.0185   4.0241
  4.0255   4.0271   4.0301   4.0341   4.0371   4.0521   4.0566   4.2034
  4.2147   4.2222   4.2254   4.2279   4.2373   4.2459   4.2522   4.2531
  4.2586   4.2643   4.2663   4.2690   4.2715   4.2739   4.2756   4.2782
  4.2790   4.2812   4.2837   4.2847   4.2885   4.2903   4.2931   4.2940
  4.2971   4.2973   4.2998   4.3033   4.3072   4.3084   4.3113   4.3137
  4.3142   4.3178   4.3206   4.3222   4.3252   4.3276   4.3311   4.3339
  4.3379   4.3381   4.3408   4.3414   4.3425   4.3481   4.3520   4.3543
  4.3583   4.3623   4.3630   4.3657   4.3679   4.3726   4.3752   4.3778
  4.3802   4.3832   4.3900   4.3931   4.3946   4.3978   4.4027   4.4065
  4.4086   4.4144   4.4198   4.4266   4.4284   4.4364   4.4431   4.4466
  4.4632   4.4807   4.5025   4.5062   4.5137   4.5296   4.5346   4.5509
  4.5518   4.5634   4.5810   4.6072   4.6260   4.6712   4.6861   4.7076
  4.7376   4.7784   4.8203   4.8550
 --------------------------------------------------------------

          Ground-State Mulliken Net Atomic Charges

     Atom                 Charge (a.u.)
  ----------------------------------------
      1 C                     0.174031
      2 C                    -0.172458
      3 C                    -0.480108
      4 C                    -0.966930
      5 C                    -1.144788
      6 C                    -0.321418
      7 H                     0.244726
      8 H                     0.237103
      9 H                     0.217534
     10 H                     0.204745
     11 H                     0.197648
     12 H                     0.227675
     13 H                     0.219593
     14 H                     0.242676
     15 H                     0.203727
     16 H                     0.216054
     17 H                     0.201376
     18 N                     0.352076
     19 H                     0.499076
     20 C                    -0.348999
     21 H                     0.163028
     22 O                    -0.191424
     23 C                    -0.779143
     24 H                     0.264219
     25 H                     0.242674
     26 H                     0.277732
     27 S                     0.558906
     28 C                    -0.841845
     29 H                     0.279386
     30 H                     0.285113
     31 H                     0.285770
     32 O                    -0.674540
     33 C                    -1.248197
     34 H                     0.256582
     35 H                     0.303360
     36 H                     0.253345
     37 S                     1.344488
     38 C                    -0.971934
     39 H                     0.246213
     40 H                     0.246680
     41 H                     0.255724
     42 O                    -0.681241
     43 C                    -0.690671
     44 H                     0.329565
     45 H                     0.255652
     46 H                     0.293033
     47 S                    -0.643209
     48 C                    -0.204049
     49 H                     0.257790
     50 H                     0.298994
     51 H                     0.255263
     52 O                    -0.388427
     53 C                    -0.882067
     54 H                     0.301011
     55 H                     0.248956
     56 H                     0.306104
     57 S                     0.896040
     58 C                    -1.036097
     59 H                     0.300899
     60 H                     0.258642
     61 H                     0.280246
     62 O                    -0.591329
     63 C                    -0.879134
     64 H                     0.236835
     65 H                     0.234980
     66 H                     0.261353
     67 S                     1.049773
     68 C                    -0.867535
     69 H                     0.258196
     70 H                     0.232222
     71 H                     0.302656
     72 O                    -0.732569
     73 C                    -0.815689
     74 H                     0.236119
     75 H                     0.245538
     76 H                     0.284472
     77 S                     0.851328
     78 C                    -0.829059
     79 H                     0.277630
     80 H                     0.242037
     81 H                     0.232005
     82 O                    -0.705328
     83 C                    -0.775655
     84 H                     0.250538
     85 H                     0.245135
     86 H                     0.254766
     87 S                     0.519732
     88 C                    -0.578032
     89 H                     0.347229
     90 H                     0.241392
     91 H                     0.269140
     92 O                    -0.696485
     93 C                    -0.873841
     94 H                     0.286609
     95 H                     0.293176
     96 H                     0.264557
     97 S                     0.789181
     98 C                    -0.747076
     99 H                     0.286857
    100 H                     0.248565
    101 H                     0.234556
    102 O                    -0.702931
    103 C                    -0.838948
    104 H                     0.253147
    105 H                     0.252403
    106 H                     0.277600
    107 S                     0.902820
    108 C                    -0.848608
    109 H                     0.230645
    110 H                     0.253880
    111 H                     0.241744
    112 O                    -0.750412
    113 C                    -1.034111
    114 H                     0.308399
    115 H                     0.257234
    116 H                     0.257437
    117 S                     1.089037
    118 C                    -0.935115
    119 H                     0.256654
    120 H                     0.235919
    121 H                     0.275735
    122 O                    -0.716596
    123 C                    -0.884258
    124 H                     0.233799
    125 H                     0.273424
    126 H                     0.295660
    127 S                     0.999693
    128 C                    -1.037215
    129 H                     0.250563
    130 H                     0.248279
    131 H                     0.329388
    132 O                    -0.737340
    133 C                    -0.906842
    134 H                     0.262063
    135 H                     0.223339
    136 H                     0.247330
    137 S                     1.055011
    138 C                    -0.876778
    139 H                     0.288215
    140 H                     0.241030
    141 H                     0.206897
    142 O                    -0.712729
    143 C                    -0.854167
    144 H                     0.252068
    145 H                     0.265003
    146 H                     0.313191
    147 S                     0.975887
    148 C                    -0.946659
    149 H                     0.256835
    150 H                     0.247100
    151 H                     0.250913
    152 O                    -0.666359
    153 C                    -0.932859
    154 H                     0.246627
    155 H                     0.270090
    156 H                     0.230725
    157 S                     1.171393
    158 C                    -0.931955
    159 H                     0.232424
    160 H                     0.272499
    161 H                     0.281858
    162 O                    -0.699566
    163 C                    -1.165749
    164 H                     0.277780
    165 H                     0.262496
    166 H                     0.262413
    167 S                     1.090060
    168 C                    -0.951737
    169 H                     0.254027
    170 H                     0.258921
    171 H                     0.253017
    172 O                    -0.647269
    173 C                    -0.854063
    174 H                     0.247147
    175 H                     0.261023
    176 H                     0.250842
    177 S                     1.038163
    178 C                    -1.008890
    179 H                     0.313519
    180 H                     0.235476
    181 H                     0.268553
    182 O                    -0.687164
    183 C                    -0.944278
    184 H                     0.250701
    185 H                     0.261407
    186 H                     0.202202
    187 S                     1.364397
    188 C                    -1.272063
    189 H                     0.267583
    190 H                     0.288115
    191 H                     0.260718
    192 O                    -0.731605
    193 C                    -0.684092
    194 H                     0.247421
    195 H                     0.266575
    196 H                     0.286187
    197 S                     0.485328
    198 C                    -0.863738
    199 H                     0.264186
    200 H                     0.293545
    201 H                     0.267473
    202 O                    -0.595354
    203 C                    -0.832124
    204 H                     0.254100
    205 H                     0.275373
    206 H                     0.263479
    207 S                     0.819227
    208 C                    -0.843042
    209 H                     0.248374
    210 H                     0.224373
    211 H                     0.259629
    212 O                    -0.670149
    213 C                    -0.905392
    214 H                     0.246771
    215 H                     0.232654
    216 H                     0.265701
    217 S                     0.974166
    218 C                    -0.804840
    219 H                     0.241211
    220 H                     0.223386
    221 H                     0.254788
    222 O                    -0.699573
    223 C                    -0.938370
    224 H                     0.269621
    225 H                     0.266643
    226 H                     0.301793
    227 S                     0.772687
    228 C                    -0.788297
    229 H                     0.271029
    230 H                     0.282149
    231 H                     0.242487
    232 O                    -0.695627
    233 C                    -0.801469
    234 H                     0.275946
    235 H                     0.279733
    236 H                     0.269460
    237 S                     0.638337
    238 C                    -0.927954
    239 H                     0.257516
    240 H                     0.236416
    241 H                     0.271651
    242 O                    -0.513227
    243 C                    -0.892243
    244 H                     0.275689
    245 H                     0.264263
    246 H                     0.239901
    247 S                     0.828999
    248 C                    -0.837896
    249 H                     0.289270
    250 H                     0.248401
    251 H                     0.250810
    252 O                    -0.656633
    253 C                    -0.871075
    254 H                     0.255284
    255 H                     0.284316
    256 H                     0.232791
    257 S                     0.841918
    258 C                    -0.907833
    259 H                     0.229744
    260 H                     0.252984
    261 H                     0.277886
    262 O                    -0.645859
    263 C                    -0.862840
    264 H                     0.282337
[...]
    2   0.3570664  -0.4500782   1.8289097  -0.8464626   1.1776269  -0.4789905
    3   0.6153744   2.0406200  -0.1669819   0.3800316   2.0503291   3.4094335
          229         230         231         232         233         234
    1   0.1944447  -1.1590294   2.3884629  -1.4963627   1.6014575   1.5901972
    2   0.5921191  -1.0446562  -0.6662611   2.2488213   0.0264889  -0.8548176
    3   4.8848234   2.5150854   2.6383698   3.4995885  -1.3620745   0.1598426
          235         236         237         238         239         240
    1   0.6469793   2.7857454  -0.3317368   0.2328962   2.0627045  -0.3820516
    2  -0.5709791   2.0489795   0.7920752   2.7975453   3.0377006   1.4180690
    3  -2.3946958  -2.0039000  -0.9226612  -2.4446417  -2.8042347  -2.9904863
          241         242         243         244         245         246
    1  -0.7595924   0.9780765   0.2002611   0.6695166  -0.2633196  -0.1630518
    2   4.1195443   2.9278107  -0.0652573   1.6380377  -0.4108024  -1.2501565
    3  -1.7120196   0.4374532  -0.3721644  -0.4312337  -2.0523004   0.7710569
          247         248         249         250         251         252
    1   2.8981436   2.7781092   2.9550450   4.2578395   0.8090577   2.2044780
    2  -0.2947397   0.6494328   2.2650791  -0.3813304   0.2948712  -3.1986449
    3   0.1143147  -1.8704523  -1.0007882  -2.1386682  -2.3801384  -0.8586001
          253         254         255         256         257         258
    1  -2.0384791  -3.3920956  -0.6092760  -2.4319114  -2.2912521  -3.6933111
    2   1.8001625   1.4100552   0.9042132   3.1052954   0.4902513   0.7533078
    3  -0.0980924   1.5699358  -0.3706230  -1.6571294  -1.6189381  -0.6208198
          259         260         261         262         263         264
    1  -3.0687115  -3.6444565  -3.9051293  -2.4951445  -1.2182581  -0.5846341
    2   2.5501048  -0.6125232  -0.2823348  -2.0870920  -2.1550614  -0.5129787
    3  -1.1884566  -2.2632530   1.2127230   0.6223412   2.5532485   2.5486437
          265         266         267         268         269         270
    1  -2.8930491   0.4350162  -1.0191018   0.6501652  -0.7546339   1.6191675
    2  -2.8383916  -3.4866925  -2.0240688  -3.8429343  -4.4247739  -3.3647991
    3   2.1349527   2.9486635   0.3330665   0.6320826   0.7063314  -1.0846438
          271         272         273         274         275         276
    1   1.5306648   1.6617726   1.9615661   1.8615442   2.5063495   1.2218356
    2  -3.4958482  -0.1790729  -1.3495571   0.3047930  -3.3329096  -1.3715352
    3   2.3077692   0.5395274  -1.0455764  -0.1624405  -0.0846901  -2.6684805
          277         278         279         280         281         282
    1   0.0872709   0.4654317   2.1383033   0.4777229  -1.0881552  -0.0535796
    2  -0.8614268  -1.5217359  -2.8817674   0.6610752  -2.8342681  -4.4123892
    3  -0.8574230   0.6485451   0.3786840   0.6673200   0.4081988  -1.5339927
          283         284         285         286         287         288
    1   3.2759894   1.7040716   3.7820839   4.4053455   2.0681290   4.0677699
    2   2.3135134   2.9908565   1.5399401   2.1702752   0.2488416  -0.6767510
    3   0.7902910   0.6151351   2.5505288  -0.7658449   0.7708381   0.8753597
          289         290         291         292         293         294
    1   4.9108083   3.5156550   3.1873055   2.4600323  -2.1634467  -2.3726544
    2   0.4973592  -0.6202445  -2.4749709   0.4188254   1.3789816   2.5604722
    3  -0.1935467   2.7678759   0.2721877  -2.3149559  -0.7653105  -2.5978682
          295         296         297         298         299         300
    1  -3.0835535  -0.6710477  -0.6361305  -2.6235004  -2.3258139  -1.6275862
    2  -0.1112983   1.2346589   0.7535796  -0.0871338   1.7263244  -1.3742995
    3  -0.3215202   0.8216819  -1.8107961  -2.9670319  -3.7949297  -3.6193898
          301         302
    1  -3.8809335  -0.2798190
    2  -0.4414301  -1.6735631
    3  -1.5940833  -0.0167835
 EField
            1           2           3           4           5           6
    1  -0.0049481  -0.0065540  -0.0023364  -0.0060007  -0.0024946  -0.0022949
    2   0.0027623   0.0010927  -0.0004528  -0.0009257  -0.0000975  -0.0013909
    3   0.0025142  -0.0027109  -0.0002433  -0.0012674  -0.0029582   0.0013218
            7           8           9          10          11          12
    1   0.0017137  -0.0077419  -0.0020758  -0.0054484  -0.0043420  -0.0122537
    2  -0.0010780   0.0006199   0.0051120   0.0070316  -0.0024498  -0.0073976
    3  -0.0025136  -0.0001899   0.0037395   0.0058359  -0.0017813  -0.0041395
           13          14          15          16          17          18
    1   0.0014100  -0.0029849  -0.0049716   0.0007710   0.0022364  -0.0147224
    2   0.0003632   0.0014364   0.0001572  -0.0061848  -0.0020985   0.0017532
    3  -0.0036475  -0.0038390   0.0042163  -0.0019027   0.0034301  -0.0060394
           19          20          21          22          23          24
    1  -0.0245717  -0.0139347  -0.0140555  -0.0114422  -0.0051456   0.0076704
    2  -0.0025212   0.0047520   0.0012948   0.0033324  -0.0034977  -0.0308450
    3  -0.0189599  -0.0000307   0.0038747   0.0009878  -0.0031189   0.0118849
           25          26          27          28          29          30
    1  -0.0314955  -0.0056729  -0.0063371   0.0068319   0.0015167  -0.0083134
    2   0.0008851   0.0162299   0.0545378  -0.0032115  -0.0309453   0.0118997
    3   0.0145767  -0.0299691  -0.0032612  -0.0060930  -0.0014415  -0.0295012
           31          32          33          34          35          36
    1   0.0300617   0.0333555  -0.0015053   0.0262380   0.0127519  -0.0295097
    2   0.0061903  -0.0558142  -0.0031245   0.0151337  -0.0329145   0.0101587
    3  -0.0018749   0.0885541  -0.0086370  -0.0074012   0.0019472  -0.0128693
           37          38          39          40          41          42
    1   0.0303965  -0.0074857  -0.0141634  -0.0027326  -0.0076478  -0.0091270
    2  -0.0356133  -0.0040275  -0.0302913   0.0014785   0.0131048   0.1081035
    3   0.0362180   0.0033819   0.0126057   0.0331579  -0.0353298   0.0161987
           43          44          45          46          47          48
    1   0.0077059   0.0262061  -0.0089250   0.0175450  -0.0258439   0.0058989
    2   0.0020887   0.0226354  -0.0112183  -0.0271556  -0.0501489   0.0038182
    3   0.0071183  -0.0041715   0.0325629  -0.0008257  -0.0144787  -0.0036423
           49          50          51          52          53          54
    1  -0.0166328   0.0180265   0.0214602  -0.0498290  -0.0030057  -0.0112636
    2   0.0050913   0.0184678  -0.0230399   0.0941648  -0.0043166   0.0193942
    3  -0.0260566   0.0189433  -0.0133211   0.0203818   0.0062812   0.0213231
           55          56          57          58          59          60
    1  -0.0323350  -0.0045780  -0.0247619   0.0026546   0.0154028  -0.0204250
    2  -0.0075965  -0.0363871   0.0373235  -0.0077651  -0.0088017  -0.0216707
    3  -0.0082641   0.0117368  -0.0434061   0.0037610   0.0244868  -0.0192168
           61          62          63          64          65          66
    1   0.0124320   0.0671613  -0.0051902  -0.0280251   0.0017046  -0.0126230
    2   0.0080508   0.0396696   0.0008791  -0.0146794  -0.0233064   0.0238706
    3  -0.0224691   0.0752867   0.0022002  -0.0113595   0.0245152   0.0156481
           67          68          69          70          71          72
    1   0.0270052   0.0092152  -0.0188622   0.0113436   0.0279639  -0.0358248
    2  -0.0412079   0.0040014   0.0240722  -0.0193858   0.0107750   0.0893599
    3  -0.0188060   0.0047081   0.0061095   0.0270012  -0.0115190  -0.0523268
           73          74          75          76          77          78
    1   0.0068671   0.0103024   0.0312378   0.0158649  -0.0111098   0.0032115
    2  -0.0032247  -0.0024814   0.0179833  -0.0282705   0.0506449  -0.0050595
    3  -0.0015463  -0.0314023   0.0007952   0.0033007  -0.0077984   0.0074251
           79          80          81          82          83          84
    1   0.0119990   0.0244237  -0.0229636  -0.0627167   0.0015881   0.0243795
    2  -0.0301534   0.0195605   0.0028102  -0.0865766   0.0094333   0.0152416
    3  -0.0001609   0.0108071   0.0213619  -0.0283622  -0.0021952  -0.0051109
           85          86          87          88          89          90
    1  -0.0158509  -0.0066733  -0.0472483   0.0102847  -0.0053945   0.0348184
    2  -0.0095819   0.0133291  -0.0381365   0.0005811  -0.0326517   0.0117170
    3  -0.0283617   0.0333601   0.0153688   0.0081010   0.0149944  -0.0059725
           91          92          93          94          95          96
    1  -0.0066788   0.0701418   0.0010839  -0.0223628  -0.0000243   0.0197224
    2   0.0214040  -0.0199925   0.0084553   0.0249869   0.0284079  -0.0167186
    3   0.0236538  -0.0824951  -0.0069817  -0.0244835   0.0223494  -0.0195910
           97          98          99         100         101         102
    1  -0.0368360   0.0016948   0.0152078  -0.0319694  -0.0164710   0.0936531
    2  -0.0333806   0.0074365   0.0260752   0.0130093  -0.0117895  -0.0372203
    3  -0.0293985   0.0031307   0.0124011  -0.0042019   0.0291195   0.0405306
          103         104         105         106         107         108
    1   0.0064092  -0.0194119   0.0065805   0.0341847   0.0083982  -0.0036122
    2  -0.0031872   0.0113554  -0.0324818  -0.0038847   0.0488137  -0.0067091
    3   0.0091040   0.0036692   0.0118167   0.0095766  -0.0273563  -0.0038648
          109         110         111         112         113         114
    1  -0.0284792   0.0084884  -0.0048453   0.0711046   0.0009551   0.0120194
    2   0.0171894  -0.0100301  -0.0277176  -0.0853723  -0.0033298  -0.0273733
    3   0.0086466  -0.0302881   0.0178554  -0.0160579  -0.0074522   0.0117255
          115         116         117         118         119         120
    1  -0.0240561   0.0157422  -0.0259995  -0.0073732   0.0044027   0.0130042
    2  -0.0181248   0.0248646  -0.0213014   0.0008722   0.0276841   0.0087460
    3  -0.0113552  -0.0171700   0.0402693  -0.0032684   0.0102334  -0.0274386
          121         122         123         124         125         126
    1  -0.0358580   0.0944128   0.0008516  -0.0015767  -0.0206412   0.0200103
    2  -0.0029115   0.0566455   0.0036948  -0.0105139   0.0237195   0.0197795
    3  -0.0049050   0.0061453  -0.0027644  -0.0365634   0.0085258  -0.0204850
          127         128         129         130         131         132
    1   0.0409639  -0.0106962  -0.0027657   0.0005401  -0.0229313  -0.0021852
    2  -0.0354117  -0.0021898  -0.0224883  -0.0194616   0.0283012   0.0640371
    3  -0.0125467   0.0020285  -0.0243800   0.0280443  -0.0048150   0.0882169
          133         134         135         136         137         138
    1   0.0021605   0.0244901  -0.0263226   0.0053811  -0.0137158  -0.0024880
    2   0.0039992  -0.0154769  -0.0076728   0.0311741  -0.0494723   0.0046876
    3  -0.0074037  -0.0133439  -0.0207952   0.0033152   0.0046011   0.0036624
          139         140         141         142         143         144
    1  -0.0159357   0.0063031  -0.0309587   0.0922189  -0.0050425  -0.0295891
    2   0.0009859   0.0292556   0.0040245   0.0442931   0.0017150  -0.0100092
    3   0.0298637  -0.0072988  -0.0083184   0.0428745  -0.0081782  -0.0079746
          145         146         147         148         149         150
    1  -0.0149191   0.0064767   0.0586315  -0.0044745  -0.0334067   0.0064659
    2   0.0264240  -0.0069658   0.0143294  -0.0084580   0.0007452  -0.0053222
    3   0.0083044  -0.0314716  -0.0212186  -0.0002908   0.0129200  -0.0306685
          151         152         153         154         155         156
    1   0.0274755  -0.0288740   0.0043234   0.0229643  -0.0207921   0.0114941
    2  -0.0129816   0.0262703   0.0062027   0.0147646   0.0243449  -0.0036825
    3   0.0150168   0.1017087   0.0040444  -0.0151207   0.0051407   0.0285979
          157         158         159         160         161         162
    1  -0.0337005  -0.0085458   0.0205394  -0.0279383  -0.0142316   0.0837365
    2   0.0161625  -0.0039709  -0.0043438   0.0185954  -0.0236413  -0.0680610
    3  -0.0434113   0.0051593   0.0233814   0.0066127  -0.0095345   0.0001145
          163         164         165         166         167         168
    1   0.0058800   0.0258937  -0.0092541   0.0146325   0.0216954  -0.0022554
    2  -0.0038057  -0.0035030  -0.0098338   0.0184694   0.0248185  -0.0083731
    3  -0.0071509   0.0198104  -0.0320499  -0.0168363   0.0538433   0.0011143
          169         170         171         172         173         174
    1  -0.0308245  -0.0086881   0.0241891  -0.0685360  -0.0107478   0.0111677
    2   0.0049419  -0.0109281  -0.0080996   0.0541899  -0.0028952   0.0035072
    3   0.0095648  -0.0295061   0.0190673  -0.0644578  -0.0020036  -0.0320759
          175         176         177         178         179         180
    1  -0.0203027  -0.0197345   0.0337051  -0.0015153  -0.0208400  -0.0028562
    2  -0.0243320   0.0222445   0.0386897  -0.0088806  -0.0285683  -0.0086313
    3   0.0123476   0.0082050  -0.0080268  -0.0022841   0.0063232  -0.0362790
          181         182         183         184         185         186
    1   0.0223394  -0.0407874   0.0013990   0.0053730  -0.0270814   0.0187342
    2  -0.0164422  -0.0405195   0.0008494  -0.0289516  -0.0110086   0.0186317
    3   0.0100656   0.0973947  -0.0043692   0.0013552  -0.0100687  -0.0229444
          187         188         189         190         191         192
    1  -0.0080492   0.0074543   0.0033606   0.0016578   0.0329166  -0.0604528
    2   0.0475743   0.0011138   0.0036916  -0.0277063   0.0169394  -0.0865819
    3   0.0070428  -0.0006424   0.0269704   0.0052339  -0.0072204   0.0299028
          193         194         195         196         197         198
    1  -0.0091293  -0.0024312  -0.0239988   0.0028003   0.0483841  -0.0001747
    2   0.0055914   0.0353144  -0.0201015   0.0041368   0.0268653   0.0036502
    3   0.0022171   0.0022464  -0.0114533   0.0273807   0.0222438  -0.0090713
          199         200         201         202         203         204
    1   0.0314403  -0.0305952   0.0010815  -0.0188638   0.0008322  -0.0032323
    2   0.0005223  -0.0034252   0.0346371  -0.1061049  -0.0036205  -0.0300484
    3  -0.0183250  -0.0099138  -0.0127442   0.0000390   0.0105353  -0.0068777
          205         206         207         208         209         210
    1   0.0260660  -0.0070551  -0.0536091   0.0050627  -0.0105204  -0.0032306
    2   0.0068424  -0.0043970  -0.0063357  -0.0035516  -0.0312605   0.0142428
    3   0.0080781   0.0354290  -0.0079220  -0.0048055  -0.0079201  -0.0238641
          211         212         213         214         215         216
    1   0.0292220   0.0515215   0.0056107   0.0127614  -0.0039927   0.0251275
    2   0.0013416   0.0920431   0.0053411  -0.0112056   0.0330635   0.0061868
    3   0.0060782   0.0300078  -0.0029966  -0.0300797  -0.0029582   0.0169893
          217         218         219         220         221         222
    1   0.0081071  -0.0041880  -0.0010264  -0.0236984  -0.0039658  -0.0006922
    2  -0.0556475   0.0053527  -0.0137879  -0.0075285   0.0320199   0.0353552
    3  -0.0148009  -0.0043434  -0.0367752   0.0068936   0.0204691   0.1042865
          223         224         225         226         227         228
    1  -0.0048325  -0.0325353  -0.0052440   0.0259243   0.0527951  -0.0050047
    2  -0.0095906  -0.0108521   0.0235861  -0.0117519   0.0292539  -0.0062393
    3  -0.0053736   0.0120382  -0.0178926  -0.0248786  -0.0178013   0.0023016
          229         230         231         232         233         234
    1   0.0030639  -0.0184267   0.0260471  -0.0769606   0.0076636   0.0073974
    2   0.0084406  -0.0358583  -0.0171869   0.0569296   0.0009119  -0.0107284
    3   0.0306429   0.0010326   0.0007556   0.0536715  -0.0043806   0.0260297
          235         236         237         238         239         240
    1  -0.0094800   0.0315331  -0.0533265  -0.0001391   0.0290194  -0.0163486
    2  -0.0139139   0.0126717  -0.0333388   0.0037237   0.0142009  -0.0199620
    3  -0.0227005  -0.0102578   0.0144098  -0.0079061  -0.0077344  -0.0202965
          241         242         243         244         245         246
    1  -0.0156286   0.0414847  -0.0046947   0.0044815  -0.0054806  -0.0081362
    2   0.0262224   0.0665001   0.0065669   0.0337793  -0.0103106  -0.0167667
    3   0.0124567   0.0758400   0.0020098   0.0153624  -0.0190191   0.0270066
          247         248         249         250         251         252
    1   0.0334458   0.0021982   0.0031085   0.0238156  -0.0143055  -0.0110560
    2   0.0173168   0.0070801   0.0321628  -0.0144210   0.0025162  -0.1059369
    3   0.0467285  -0.0068821   0.0141181  -0.0188614  -0.0265269  -0.0269726
          253         254         255         256         257         258
    1   0.0045274  -0.0110049   0.0301122  -0.0027871   0.0200625  -0.0073013
    2   0.0034120  -0.0001617  -0.0065081   0.0298331   0.0011770  -0.0012144
    3   0.0061095   0.0300703   0.0139719  -0.0146536  -0.0537251   0.0001012
          259         260         261         262         263         264
    1  -0.0095101  -0.0179718  -0.0079986   0.0061975  -0.0000562  -0.0042297
    2   0.0334499  -0.0176693  -0.0040024  -0.0944160  -0.0015880   0.0289240
    3   0.0024507  -0.0237270   0.0325334   0.0588979   0.0063110   0.0047989
          265         266         267         268         269         270
    1  -0.0310745   0.0157009  -0.0425944  -0.0010578  -0.0188863   0.0102250
    2  -0.0063622  -0.0214409   0.0042509  -0.0107437  -0.0313496  -0.0012242
    3   0.0096022   0.0182325  -0.0395915  -0.0000832  -0.0061009  -0.0292834
          271         272         273         274         275         276
    1   0.0136243   0.0869019   0.0044506   0.0014854   0.0203336   0.0096709
    2  -0.0042080   0.0647146  -0.0019918   0.0258902  -0.0345815  -0.0137899
    3   0.0280668   0.0048281  -0.0008623   0.0161639  -0.0055306  -0.0313361
          277         278         279         280         281         282
    1  -0.0379888  -0.0015960   0.0216215  -0.0063851  -0.0251320  -0.0199434
    2   0.0473274  -0.0013699  -0.0210522   0.0237632  -0.0147752  -0.1035975
    3  -0.0174247   0.0086408   0.0116906   0.0171706   0.0128784  -0.0316102
          283         284         285         286         287         288
    1   0.0018968  -0.0144732   0.0072683   0.0223247  -0.0386949   0.0042627
    2   0.0096295   0.0308244   0.0090127   0.0054526  -0.0128067  -0.0073658
    3   0.0007702   0.0105710   0.0325662  -0.0208684   0.0360909   0.0060910
          289         290         291         292         293         294
    1   0.0212106   0.0055666   0.0057418   0.0028565  -0.0014208  -0.0135762
    2   0.0147268   0.0040014  -0.0308885  -0.0090208  -0.0012709   0.0274949
    3  -0.0156513   0.0357006  -0.0155046  -0.1069311   0.0109438  -0.0083034
          295         296         297         298         299         300
    1  -0.0277983   0.0239818   0.0426373  -0.0043249  -0.0145908   0.0124434
    2  -0.0248953   0.0195996   0.0284414  -0.0048391   0.0207259  -0.0240311
    3  -0.0043363   0.0233444  -0.0250771  -0.0032017  -0.0248182  -0.0148517
          301         302
    1  -0.0227434   0.0294803
    2  -0.0063370  -0.0923299
    3   0.0189524   0.0640392
  --- DONE ESP SUMMARY ---
 Total job time:  38.14s(wall), 92.50s(cpu) 
 Thu Jul 21 09:52:54 2022

        *************************************************************
        *                                                           *
        *  Thank you very much for using Q-Chem.  Have a nice day.  *
        *                                                           *
        *************************************************************


