                  Welcome to Q-Chem
     A Quantum Leap Into The Future Of Chemistry


 Q-Chem 5.2 (devel), Q-Chem, Inc., Pleasanton, CA (2019)

 Yihan Shao,  Zhengting Gan,  E. Epifanovsky,  A. T. B. Gilbert,  M. Wormit,  
 J. Kussmann,  A. W. Lange,  A. Behn,  Jia Deng,  Xintian Feng,  D. Ghosh,  
 M. Goldey,  P. R. Horn,  L. D. Jacobson,  I. Kaliman,  T. Kus,  A. Landau,  
 Jie Liu,  E. I. Proynov,  R. M. Richard,  R. P. Steele,  E. J. Sundstrom,  
 H. L. Woodcock III,  P. M. Zimmerman,  D. Zuev,  B. Alam,  B. Albrecht,  
 E. Alguire,  S. A. Baeppler,  D. Barton,  Z. Benda,  Y. A. Bernard,  
 E. J. Berquist,  K. B. Bravaya,  H. Burton,  K. Carter-Fenk,  D. Casanova,  
 Chun-Min Chang,  Yunqing Chen,  A. Chien,  K. D. Closser,  M. P. Coons,  
 S. Coriani,  S. Dasgupta,  A. L. Dempwolff,  M. Diedenhofen,  Hainam Do,  
 R. G. Edgar,  Po-Tung Fang,  S. Faraji,  S. Fatehi,  Qingguo Feng,  
 J. Fosso-Tande,  J. Gayvert,  Qinghui Ge,  A. Ghysels,  G. Gidofalvi,  
 J. Gomes,  J. Gonthier,  A. Gunina,  D. Hait,  M. W. D. Hanson-Heine,  
 P. H. P. Harbach,  A. W. Hauser,  M. F. Herbst,  J. E. Herr,  
 E. G. Hohenstein,  Z. C. Holden,  Kerwin Hui,  B. C. Huynh,  T.-C. Jagau,  
 Hyunjun Ji,  B. Kaduk,  K. Khistyaev,  Jaehoon Kim,  P. Klunzinger,  K. Koh,  
 D. Kosenkov,  L. Koulias,  T. Kowalczyk,  C. M. Krauter,  A. Kunitsa,  
 Ka Un Lao,  A. Laurent,  K. V. Lawler,  Joonho Lee,  D. Lefrancois,  
 S. Lehtola,  D. S. Levine,  Yi-Pei Li,  You-Sheng Lin,  Fenglai Liu,  
 Kuan-Yu Liu,  E. Livshits,  M. Loipersberger,  A. Luenser,  P. Manohar,  
 E. Mansoor,  S. F. Manzer,  Shan-Ping Mao,  Yuezhi Mao,  N. Mardirossian,  
 A. V. Marenich,  T. Markovich,  L. A. Martinez-Martinez,  S. A. Maurer,  
 N. J. Mayhall,  S. C. McKenzie,  J.-M. Mewes,  P. Morgante,  A. F. Morrison,  
 J. W. Mullinax,  K. Nanda,  T. S. Nguyen-Beck,  R. Olivares-Amaya,  
 J. A. Parkhill,  S. K. Paul,  F. Pavosevic,  Zheng Pei,  T. M. Perrine,  
 F. Plasser,  P. Pokhilko,  S. Prager,  A. Prociuk,  E. Ramos,  B. Rana,  
 D. R. Rehn,  F. Rob,  M. Scheurer,  M. Schneider,  N. Sergueev,  
 S. M. Sharada,  S. Sharma,  D. W. Small,  T. Stauch,  C. J. Stein,  
 T. Stein,  Yu-Chuan Su,  S. P. Veccham,  Zhen Tao,  A. J. W. Thom,  
 A. Tkatchenko,  T. Tsuchimochi,  N. M. Tubman,  L. Vogt,  M. L. Vidal,  
 O. Vydrov,  M. A. Watson,  J. Wenzel,  M. de Wergifosse,  T. A. Wesolowski,  
 A. White,  J. Witte,  A. Yamada,  Jun Yang,  K. Yao,  S. Yeganeh,  
 S. R. Yost,  Zhi-Qiang You,  A. Zech,  Igor Ying Zhang,  Xing Zhang,  
 Yan Zhao,  Ying Zhu,  B. R. Brooks,  G. K. L. Chan,  C. J. Cramer,  
 M. S. Gordon,  W. J. Hehre,  A. Klamt,  M. W. Schmidt,  C. D. Sherrill,  
 D. G. Truhlar,  A. Aspuru-Guzik,  R. Baer,  A. T. Bell,  N. A. Besley,  
 Jeng-Da Chai,  A. E. DePrince, III,  R. A. DiStasio Jr.,  A. Dreuw,  
 B. D. Dunietz,  T. R. Furlani,  Chao-Ping Hsu,  Yousung Jung,  Jing Kong,  
 D. S. Lambrecht,  WanZhen Liang,  C. Ochsenfeld,  V. A. Rassolov,  
 L. V. Slipchenko,  J. E. Subotnik,  T. Van Voorhis,  J. M. Herbert,  
 A. I. Krylov,  P. M. W. Gill,  M. Head-Gordon

 Contributors to earlier versions of Q-Chem not listed above: 
 R. D. Adamson,  B. Austin,  J. Baker,  G. J. O. Beran,  K. Brandhorst,  
 S. T. Brown,  E. F. C. Byrd,  A. K. Chakraborty,  C.-L. Cheng,  
 Siu Hung Chien,  D. M. Chipman,  D. L. Crittenden,  H. Dachsel,  
 R. J. Doerksen,  A. D. Dutoi,  L. Fusti-Molnar,  W. A. Goddard III,  
 A. Golubeva-Zadorozhnaya,  S. R. Gwaltney,  G. Hawkins,  A. Heyden,  
 S. Hirata,  G. Kedziora,  F. J. Keil,  C. Kelley,  Jihan Kim,  R. A. King,  
 R. Z. Khaliullin,  P. P. Korambath,  W. Kurlancheek,  A. M. Lee,  M. S. Lee,  
 S. V. Levchenko,  Ching Yeh Lin,  D. Liotard,  R. C. Lochan,  I. Lotan,  
 P. E. Maslen,  N. Nair,  D. P. O'Neill,  D. Neuhauser,  E. Neuscamman,  
 C. M. Oana,  R. Olson,  B. Peters,  R. Peverati,  P. A. Pieniazek,  
 Y. M. Rhee,  J. Ritchie,  M. A. Rohrdanz,  E. Rosta,  N. J. Russ,  
 H. F. Schaefer III,  N. E. Schultz,  N. Shenvi,  A. C. Simmonett,  A. Sodt,  
 D. Stuck,  K. S. Thanthiriwatte,  V. Vanovschi,  Tao Wang,  A. Warshel,  
 C. F. Williams,  Q. Wu,  X. Xu,  W. Zhang

 Please cite Q-Chem as follows:
 Y. Shao et al., Mol. Phys. 113, 184-215 (2015)
 DOI: 10.1080/00268976.2014.952696

 Q-Chem 5.2.2 for Intel X86 EM64T Linux

 Parts of Q-Chem use Armadillo 9.800.1 (Horizon Scraper).
 http://arma.sourceforge.net/

 Q-Chem begins on Fri Dec  3 12:08:47 2021  

Host: node024
0

     Scratch files written to /home/ymao90/scratch/r7.00_frame_0002_spade_B3LYP_dp20211203120845//

Checking the input file for inconsistencies... 	...done.

--------------------------------------------------------------
User input:
--------------------------------------------------------------
$molecule
0 1
--
0 1
C    19.82700   20.34100   28.08000  
C    20.42600   18.95500   27.78900  
C    20.63000   18.50800   26.33300  
C    21.32200   19.62600   25.53500  
C    20.58500   20.95800   25.75100  
C    20.58000   21.37700   27.23000  
H    21.20900   17.57800   26.27400  
H    21.43400   19.00700   28.22100  
H    18.74900   20.30800   27.88100  
H    19.98500   20.54900   29.14500  
H    22.38300   19.71200   25.80000  
H    21.39300   19.33400   24.48000  
H    21.11500   21.79100   25.27300  
H    19.56700   20.87100   25.35000  
H    21.62000   21.56300   27.52700  
H    20.02600   22.32000   27.30700  
H    19.63800   18.26800   25.93000  
N    19.70800   17.83800   28.40000  
H    19.05200   17.28100   27.86600  
C    19.83700   17.51900   29.73500  
H    19.09300   16.74900   30.01200  
O    20.71100   18.00200   30.43200  
--
0 1
C    17.21600   20.10700   19.45500  
H    18.10200   20.26300   18.83500  
H    17.53000   19.61600   20.38000  
H    16.35500   19.63900   18.97000  
S    16.88400   21.85000   19.79600  
C    16.53100   22.41800   18.11800  
H    16.74900   23.48600   18.03600  
H    17.07000   21.89200   17.32600  
H    15.44400   22.34000   18.02300  
O    18.18700   22.51400   20.11800  
C    18.09800   29.22900   31.69800  
H    17.06500   29.43000   31.99500  
H    18.59300   28.88700   32.61100  
H    18.46400   30.24000   31.50100  
S    18.20400   28.15700   30.24700  
C    18.59700   26.65100   31.16500  
H    17.81400   26.44000   31.89800  
H    18.59500   25.79700   30.48300  
H    19.56500   26.66200   31.67200  
O    19.47500   28.60700   29.59600  
C    26.12500   19.53100   26.41400  
H    25.49500   19.74400   25.54700  
H    26.22800   18.44800   26.51800  
H    25.74300   19.96100   27.34300  
S    27.76000   20.25000   26.13900  
C    28.46800   20.04300   27.78900  
H    27.65100   20.13500   28.50900  
H    28.93600   19.06400   27.91100  
H    29.15300   20.87500   27.97100  
O    27.64000   21.74000   26.22000  
C    21.22100   15.15600   31.68500  
H    20.54800   15.90600   32.10900  
H    21.74200   14.69200   32.52700  
H    21.93100   15.69700   31.05400  
S    20.38000   13.99900   30.58200  
C    19.84500   12.79400   31.81700  
H    20.63500   12.64900   32.55900  
H    18.99400   13.19200   32.37600  
H    19.59400   11.88500   31.26400  
O    21.59000   13.45500   29.88700  
C    17.81100   19.66100   31.99600  
H    17.59600   18.69000   32.45000  
H    17.99300   19.62800   30.91900  
H    18.66400   20.08000   32.53700  
S    16.37600   20.70900   32.32200  
C    16.52100   20.74200   34.12300  
H    15.50300   20.97700   34.44200  
H    16.83100   19.74800   34.45900  
H    17.25600   21.50300   34.39800  
O    15.22600   19.76700   32.14100  
C    13.84100   16.01600   26.43900  
H    13.86200   15.70800   25.39100  
H    12.79300   16.19900   26.68900  
H    14.38300   16.95000   26.60800  
S    14.49600   14.63600   27.40500  
C    13.23200   13.44800   26.89900  
H    13.38500   12.49100   27.40500  
H    12.22000   13.85400   26.98000  
H    13.51800   13.27400   25.85900  
O    14.11900   15.04200   28.79600  
C    15.95600   18.14200   29.10300  
H    16.94400   18.60300   29.02700  
H    16.06200   17.72500   30.10800  
H    15.87000   17.42200   28.28600  
S    14.63700   19.35800   28.88300  
C    13.29400   18.44400   29.67300  
H    12.29500   18.88700   29.65300  
H    13.21600   17.40900   29.32900  
H    13.67400   18.43800   30.69700  
O    14.46400   19.31400   27.39700  
C    21.65700   15.33600   21.88500  
H    22.33000   15.82900   22.59200  
H    21.96300   14.32900   21.58900  
H    21.67900   15.88000   20.93700  
S    20.07200   15.10700   22.72200  
C    20.29400   16.62800   23.67200  
H    20.41200   17.38400   22.89100  
H    19.36400   16.68000   24.24400  
H    21.11200   16.61700   24.39700  
O    20.21900   13.93600   23.64400  
C    23.34400   23.11600   28.95600  
H    23.45800   23.32600   27.89000  
H    23.17000   22.04100   29.04700  
H    22.57400   23.70600   29.46200  
S    24.92200   23.59600   29.69400  
C    25.94200   22.30900   28.94100  
H    25.74700   22.52200   27.88700  
H    26.98800   22.53200   29.16600  
H    25.61500   21.31000   29.24300  
O    24.76900   23.17400   31.12200  
C    25.34500   15.00500   30.43800  
H    25.58700   16.07100   30.45400  
H    25.97600   14.50400   29.69900  
H    24.30100   14.85300   30.15300  
S    25.39800   14.47300   32.16300  
C    24.79900   12.79700   31.84700  
H    25.60900   12.09000   31.65300  
H    24.30800   12.55100   32.79200  
H    24.19800   12.87400   30.93800  
O    24.27800   15.15300   32.88800  
C    21.60700   22.71500   34.91000  
H    21.24300   22.18000   35.79000  
H    22.53400   22.23500   34.58600  
H    21.81700   23.76300   35.14100  
S    20.47300   22.79100   33.50500  
C    21.36700   24.03600   32.54600  
H    22.36800   23.64600   32.34500  
H    20.81000   24.16200   31.61400  
H    21.42200   25.02000   33.01900  
O    19.28600   23.48800   34.09400  
C    20.76100   25.77700   27.02400  
H    20.72800   26.16600   26.00300  
H    20.83700   24.68700   27.03000  
H    19.81000   26.01300   27.50900  
S    22.11900   26.48600   27.98200  
C    22.09100   28.14300   27.26100  
H    22.03000   28.08600   26.17200  
H    21.22200   28.65500   27.68300  
H    22.97500   28.66600   27.63400  
O    23.38800   26.02400   27.33800  
C    16.01200   14.71600   31.07900  
H    16.12800   15.62500   30.48400  
H    16.87000   14.15300   30.70200  
H    15.05500   14.21300   30.91500  
S    16.48300   14.98400   32.80300  
C    15.21000   16.23500   33.08900  
H    15.38600   17.01600   32.34500  
H    14.18500   15.85700   33.09000  
H    15.41300   16.52800   34.12200  
O    17.68000   15.87600   32.69600  
C    24.08600   20.27800   31.38300  
H    24.91700   20.82400   31.83700  
H    23.75500   20.73000   30.44500  
H    23.28500   20.22400   32.12500  
S    24.65600   18.57000   31.23100  
C    25.37800   18.44400   32.88300  
H    24.58300   18.30200   33.61900  
H    25.95900   17.52900   33.02700  
H    26.03600   19.30400   33.03500  
O    25.86100   18.81800   30.37800  
C    15.31500   15.69800   22.88600  
H    15.60000   15.97400   23.90500  
H    15.77700   16.31800   22.11300  
H    14.23200   15.65700   22.75000  
S    16.01500   14.03900   22.73900  
C    15.16900   13.62900   21.19600  
H    15.05600   12.54200   21.21100  
H    14.18800   14.10900   21.14900  
H    15.85500   13.98900   20.42500  
O    15.23500   13.12500   23.63200  
C    19.72400   18.77900   35.09200  
H    19.13800   19.67600   34.88000  
H    18.99800   17.96900   35.20200  
H    20.24000   18.99300   36.03100  
S    21.03700   18.50800   33.88100  
C    21.62500   16.94800   34.57900  
H    20.97800   16.11700   34.28500  
H    22.69200   16.85000   34.36500  
H    21.60000   17.00500   35.67000  
O    22.13000   19.46800   34.23100  
C    23.39900   26.25100   22.11500  
H    23.78400   26.87500   22.92500  
H    22.95800   25.32500   22.49300  
H    24.08900   26.11500   21.27800  
S    21.91100   27.01700   21.43400  
C    20.73800   26.69500   22.77100  
H    19.79100   26.96500   22.29800  
H    20.87000   25.67800   23.14900  
H    20.75300   27.50400   23.50500  
O    21.41300   26.05100   20.40500  
C    24.05900   18.75600   21.38000  
H    24.35600   19.62700   21.97000  
H    23.69000   18.99400   20.37900  
H    23.22500   18.18700   21.80000  
S    25.44100   17.60100   21.23100  
C    25.59300   17.13300   22.97000  
H    24.56600   16.90900   23.27000  
H    26.21100   16.24500   23.12500  
H    25.86400   18.05100   23.49700  
O    26.62600   18.42800   20.84200  
C    20.94500   20.82800   20.23600  
H    20.95000   19.74100   20.13000  
H    20.10500   21.22200   19.65700  
H    21.87600   21.29300   19.90300  
S    20.76400   21.14700   22.00500  
C    21.09100   22.92300   21.93000  
H    21.87200   23.23600   21.23300  
H    20.18800   23.53300   21.84900  
H    21.51200   23.16400   22.90900  
O    22.12700   20.78700   22.51100  
C    24.56000   22.49500   24.50400  
H    24.73200   21.87200   25.38600  
H    23.76100   23.24000   24.51200  
H    24.24300   21.75200   23.76700  
S    26.05800   23.24200   23.82500  
C    26.03600   24.45500   25.16500  
H    26.41200   23.93400   26.04900  
H    26.67400   25.29600   24.88200  
H    25.03500   24.81200   25.42100  
O    25.64500   24.01100   22.60900  
C    23.65100   17.00400   27.96700  
H    23.32100   17.98500   27.61700  
H    23.01600   16.70400   28.80500  
H    24.66800   17.03800   28.36700  
S    23.46100   15.69600   26.73500  
C    25.22900   15.36700   26.55000  
H    25.67200   14.91500   27.44100  
H    25.32500   14.71200   25.68000  
H    25.77400   16.30000   26.39200  
O    23.24600   16.50100   25.49200  
C    17.08400   23.75600   22.61800  
H    17.78700   24.40100   22.08500  
H    17.51200   22.75100   22.56600  
H    16.15400   23.81900   22.04700  
S    16.60700   24.25100   24.28900  
C    18.10800   23.86300   25.21700  
H    18.83500   24.56400   24.79900  
H    17.98200   24.27400   26.22200  
H    18.34400   22.79700   25.25600  
O    15.65800   23.14700   24.63900  
C    20.17400   14.24200   26.99700  
H    20.02600   14.45800   25.93600  
H    20.74700   14.98100   27.56300  
H    20.61800   13.27900   27.26000  
S    18.53900   14.15100   27.76300  
C    17.71400   13.52100   26.28400  
H    16.75400   13.02200   26.44200  
H    17.69600   14.25800   25.47700  
H    18.38000   12.70600   25.99000  
O    18.07900   15.56900   27.62600  
C    16.36900   22.63000   28.24500  
H    15.49400   22.04600   28.54200  
H    16.00000   23.59800   27.89500  
H    16.89400   22.13700   27.42300  
S    17.53800   22.88800   29.59800  
C    16.42900   23.68600   30.78200  
H    15.48400   23.16700   30.95800  
H    16.81200   23.95000   31.77100  
H    16.21400   24.66300   30.34300  
O    18.47300   23.92900   29.06700  
C    16.98100   18.17000   25.55800  
H    16.02800   17.64800   25.43700  
H    17.73200   17.39500   25.73100  
H    16.86000   18.88600   26.37600  
S    17.17200   18.99500   23.96100  
C    15.51700   19.64100   23.63100  
H    15.45900   20.60900   24.13600  
H    15.52000   19.77700   22.54700  
H    14.69700   18.99500   23.95300  
O    17.26600   17.87000   22.97800  
$end

$rem
JOBTYPE  SP
METHOD  B3LYP
BASIS  6-31+G(D)
SYMMETRY  FALSE
SYM_IGNORE  TRUE
MEM_TOTAL  16000
MEM_STATIC  8000
MAX_SUB_FILE_NUM  16000
BASIS_LIN_DEP_THRESH  6
THRESH  14
SCF_CONVERGENCE  8
GEN_SCFMAN  TRUE
SCF_GUESS  SAD
FD_MAT_VEC_PROD  FALSE
XC_GRID  000075000302
NL_GRID  1
MAX_SCF_CYCLES  200
ENV_METHOD  B3LYP
GEN_SCFMAN_EMBED  TRUE
SPADE_PARTITION  TRUE
$end

$development
embedding_early_stop  1
$end

--------------------------------------------------------------
 ----------------------------------------------------------------
             Standard Nuclear Orientation (Angstroms)
    I     Atom           X                Y                Z
 ----------------------------------------------------------------
    1      C      19.8270000000    20.3410000000    28.0800000000
    2      C      20.4260000000    18.9550000000    27.7890000000
    3      C      20.6300000000    18.5080000000    26.3330000000
    4      C      21.3220000000    19.6260000000    25.5350000000
    5      C      20.5850000000    20.9580000000    25.7510000000
    6      C      20.5800000000    21.3770000000    27.2300000000
    7      H      21.2090000000    17.5780000000    26.2740000000
    8      H      21.4340000000    19.0070000000    28.2210000000
    9      H      18.7490000000    20.3080000000    27.8810000000
   10      H      19.9850000000    20.5490000000    29.1450000000
   11      H      22.3830000000    19.7120000000    25.8000000000
   12      H      21.3930000000    19.3340000000    24.4800000000
   13      H      21.1150000000    21.7910000000    25.2730000000
   14      H      19.5670000000    20.8710000000    25.3500000000
   15      H      21.6200000000    21.5630000000    27.5270000000
   16      H      20.0260000000    22.3200000000    27.3070000000
   17      H      19.6380000000    18.2680000000    25.9300000000
   18      N      19.7080000000    17.8380000000    28.4000000000
   19      H      19.0520000000    17.2810000000    27.8660000000
   20      C      19.8370000000    17.5190000000    29.7350000000
   21      H      19.0930000000    16.7490000000    30.0120000000
   22      O      20.7110000000    18.0020000000    30.4320000000
   23      C      17.2160000000    20.1070000000    19.4550000000
   24      H      18.1020000000    20.2630000000    18.8350000000
   25      H      17.5300000000    19.6160000000    20.3800000000
   26      H      16.3550000000    19.6390000000    18.9700000000
   27      S      16.8840000000    21.8500000000    19.7960000000
   28      C      16.5310000000    22.4180000000    18.1180000000
   29      H      16.7490000000    23.4860000000    18.0360000000
   30      H      17.0700000000    21.8920000000    17.3260000000
   31      H      15.4440000000    22.3400000000    18.0230000000
   32      O      18.1870000000    22.5140000000    20.1180000000
   33      C      18.0980000000    29.2290000000    31.6980000000
   34      H      17.0650000000    29.4300000000    31.9950000000
   35      H      18.5930000000    28.8870000000    32.6110000000
   36      H      18.4640000000    30.2400000000    31.5010000000
   37      S      18.2040000000    28.1570000000    30.2470000000
   38      C      18.5970000000    26.6510000000    31.1650000000
   39      H      17.8140000000    26.4400000000    31.8980000000
   40      H      18.5950000000    25.7970000000    30.4830000000
   41      H      19.5650000000    26.6620000000    31.6720000000
   42      O      19.4750000000    28.6070000000    29.5960000000
   43      C      26.1250000000    19.5310000000    26.4140000000
   44      H      25.4950000000    19.7440000000    25.5470000000
   45      H      26.2280000000    18.4480000000    26.5180000000
   46      H      25.7430000000    19.9610000000    27.3430000000
   47      S      27.7600000000    20.2500000000    26.1390000000
   48      C      28.4680000000    20.0430000000    27.7890000000
   49      H      27.6510000000    20.1350000000    28.5090000000
   50      H      28.9360000000    19.0640000000    27.9110000000
   51      H      29.1530000000    20.8750000000    27.9710000000
   52      O      27.6400000000    21.7400000000    26.2200000000
   53      C      21.2210000000    15.1560000000    31.6850000000
   54      H      20.5480000000    15.9060000000    32.1090000000
   55      H      21.7420000000    14.6920000000    32.5270000000
   56      H      21.9310000000    15.6970000000    31.0540000000
   57      S      20.3800000000    13.9990000000    30.5820000000
   58      C      19.8450000000    12.7940000000    31.8170000000
   59      H      20.6350000000    12.6490000000    32.5590000000
   60      H      18.9940000000    13.1920000000    32.3760000000
   61      H      19.5940000000    11.8850000000    31.2640000000
   62      O      21.5900000000    13.4550000000    29.8870000000
   63      C      17.8110000000    19.6610000000    31.9960000000
   64      H      17.5960000000    18.6900000000    32.4500000000
   65      H      17.9930000000    19.6280000000    30.9190000000
   66      H      18.6640000000    20.0800000000    32.5370000000
   67      S      16.3760000000    20.7090000000    32.3220000000
   68      C      16.5210000000    20.7420000000    34.1230000000
   69      H      15.5030000000    20.9770000000    34.4420000000
   70      H      16.8310000000    19.7480000000    34.4590000000
   71      H      17.2560000000    21.5030000000    34.3980000000
   72      O      15.2260000000    19.7670000000    32.1410000000
   73      C      13.8410000000    16.0160000000    26.4390000000
   74      H      13.8620000000    15.7080000000    25.3910000000
   75      H      12.7930000000    16.1990000000    26.6890000000
   76      H      14.3830000000    16.9500000000    26.6080000000
   77      S      14.4960000000    14.6360000000    27.4050000000
   78      C      13.2320000000    13.4480000000    26.8990000000
   79      H      13.3850000000    12.4910000000    27.4050000000
   80      H      12.2200000000    13.8540000000    26.9800000000
   81      H      13.5180000000    13.2740000000    25.8590000000
   82      O      14.1190000000    15.0420000000    28.7960000000
   83      C      15.9560000000    18.1420000000    29.1030000000
   84      H      16.9440000000    18.6030000000    29.0270000000
   85      H      16.0620000000    17.7250000000    30.1080000000
   86      H      15.8700000000    17.4220000000    28.2860000000
   87      S      14.6370000000    19.3580000000    28.8830000000
   88      C      13.2940000000    18.4440000000    29.6730000000
   89      H      12.2950000000    18.8870000000    29.6530000000
   90      H      13.2160000000    17.4090000000    29.3290000000
   91      H      13.6740000000    18.4380000000    30.6970000000
   92      O      14.4640000000    19.3140000000    27.3970000000
   93      C      21.6570000000    15.3360000000    21.8850000000
   94      H      22.3300000000    15.8290000000    22.5920000000
   95      H      21.9630000000    14.3290000000    21.5890000000
   96      H      21.6790000000    15.8800000000    20.9370000000
   97      S      20.0720000000    15.1070000000    22.7220000000
   98      C      20.2940000000    16.6280000000    23.6720000000
   99      H      20.4120000000    17.3840000000    22.8910000000
  100      H      19.3640000000    16.6800000000    24.2440000000
  101      H      21.1120000000    16.6170000000    24.3970000000
  102      O      20.2190000000    13.9360000000    23.6440000000
  103      C      23.3440000000    23.1160000000    28.9560000000
  104      H      23.4580000000    23.3260000000    27.8900000000
  105      H      23.1700000000    22.0410000000    29.0470000000
  106      H      22.5740000000    23.7060000000    29.4620000000
  107      S      24.9220000000    23.5960000000    29.6940000000
  108      C      25.9420000000    22.3090000000    28.9410000000
  109      H      25.7470000000    22.5220000000    27.8870000000
  110      H      26.9880000000    22.5320000000    29.1660000000
  111      H      25.6150000000    21.3100000000    29.2430000000
  112      O      24.7690000000    23.1740000000    31.1220000000
  113      C      25.3450000000    15.0050000000    30.4380000000
  114      H      25.5870000000    16.0710000000    30.4540000000
  115      H      25.9760000000    14.5040000000    29.6990000000
  116      H      24.3010000000    14.8530000000    30.1530000000
  117      S      25.3980000000    14.4730000000    32.1630000000
  118      C      24.7990000000    12.7970000000    31.8470000000
  119      H      25.6090000000    12.0900000000    31.6530000000
  120      H      24.3080000000    12.5510000000    32.7920000000
  121      H      24.1980000000    12.8740000000    30.9380000000
  122      O      24.2780000000    15.1530000000    32.8880000000
  123      C      21.6070000000    22.7150000000    34.9100000000
  124      H      21.2430000000    22.1800000000    35.7900000000
  125      H      22.5340000000    22.2350000000    34.5860000000
  126      H      21.8170000000    23.7630000000    35.1410000000
  127      S      20.4730000000    22.7910000000    33.5050000000
  128      C      21.3670000000    24.0360000000    32.5460000000
  129      H      22.3680000000    23.6460000000    32.3450000000
  130      H      20.8100000000    24.1620000000    31.6140000000
  131      H      21.4220000000    25.0200000000    33.0190000000
  132      O      19.2860000000    23.4880000000    34.0940000000
  133      C      20.7610000000    25.7770000000    27.0240000000
  134      H      20.7280000000    26.1660000000    26.0030000000
  135      H      20.8370000000    24.6870000000    27.0300000000
  136      H      19.8100000000    26.0130000000    27.5090000000
  137      S      22.1190000000    26.4860000000    27.9820000000
  138      C      22.0910000000    28.1430000000    27.2610000000
  139      H      22.0300000000    28.0860000000    26.1720000000
  140      H      21.2220000000    28.6550000000    27.6830000000
  141      H      22.9750000000    28.6660000000    27.6340000000
  142      O      23.3880000000    26.0240000000    27.3380000000
  143      C      16.0120000000    14.7160000000    31.0790000000
  144      H      16.1280000000    15.6250000000    30.4840000000
  145      H      16.8700000000    14.1530000000    30.7020000000
  146      H      15.0550000000    14.2130000000    30.9150000000
  147      S      16.4830000000    14.9840000000    32.8030000000
  148      C      15.2100000000    16.2350000000    33.0890000000
  149      H      15.3860000000    17.0160000000    32.3450000000
  150      H      14.1850000000    15.8570000000    33.0900000000
  151      H      15.4130000000    16.5280000000    34.1220000000
  152      O      17.6800000000    15.8760000000    32.6960000000
  153      C      24.0860000000    20.2780000000    31.3830000000
  154      H      24.9170000000    20.8240000000    31.8370000000
  155      H      23.7550000000    20.7300000000    30.4450000000
  156      H      23.2850000000    20.2240000000    32.1250000000
  157      S      24.6560000000    18.5700000000    31.2310000000
  158      C      25.3780000000    18.4440000000    32.8830000000
  159      H      24.5830000000    18.3020000000    33.6190000000
  160      H      25.9590000000    17.5290000000    33.0270000000
  161      H      26.0360000000    19.3040000000    33.0350000000
  162      O      25.8610000000    18.8180000000    30.3780000000
  163      C      15.3150000000    15.6980000000    22.8860000000
  164      H      15.6000000000    15.9740000000    23.9050000000
  165      H      15.7770000000    16.3180000000    22.1130000000
  166      H      14.2320000000    15.6570000000    22.7500000000
  167      S      16.0150000000    14.0390000000    22.7390000000
  168      C      15.1690000000    13.6290000000    21.1960000000
  169      H      15.0560000000    12.5420000000    21.2110000000
  170      H      14.1880000000    14.1090000000    21.1490000000
  171      H      15.8550000000    13.9890000000    20.4250000000
  172      O      15.2350000000    13.1250000000    23.6320000000
  173      C      19.7240000000    18.7790000000    35.0920000000
  174      H      19.1380000000    19.6760000000    34.8800000000
  175      H      18.9980000000    17.9690000000    35.2020000000
  176      H      20.2400000000    18.9930000000    36.0310000000
  177      S      21.0370000000    18.5080000000    33.8810000000
  178      C      21.6250000000    16.9480000000    34.5790000000
  179      H      20.9780000000    16.1170000000    34.2850000000
  180      H      22.6920000000    16.8500000000    34.3650000000
  181      H      21.6000000000    17.0050000000    35.6700000000
  182      O      22.1300000000    19.4680000000    34.2310000000
  183      C      23.3990000000    26.2510000000    22.1150000000
  184      H      23.7840000000    26.8750000000    22.9250000000
  185      H      22.9580000000    25.3250000000    22.4930000000
  186      H      24.0890000000    26.1150000000    21.2780000000
  187      S      21.9110000000    27.0170000000    21.4340000000
  188      C      20.7380000000    26.6950000000    22.7710000000
  189      H      19.7910000000    26.9650000000    22.2980000000
  190      H      20.8700000000    25.6780000000    23.1490000000
  191      H      20.7530000000    27.5040000000    23.5050000000
  192      O      21.4130000000    26.0510000000    20.4050000000
  193      C      24.0590000000    18.7560000000    21.3800000000
  194      H      24.3560000000    19.6270000000    21.9700000000
  195      H      23.6900000000    18.9940000000    20.3790000000
  196      H      23.2250000000    18.1870000000    21.8000000000
  197      S      25.4410000000    17.6010000000    21.2310000000
  198      C      25.5930000000    17.1330000000    22.9700000000
  199      H      24.5660000000    16.9090000000    23.2700000000
  200      H      26.2110000000    16.2450000000    23.1250000000
  201      H      25.8640000000    18.0510000000    23.4970000000
  202      O      26.6260000000    18.4280000000    20.8420000000
  203      C      20.9450000000    20.8280000000    20.2360000000
  204      H      20.9500000000    19.7410000000    20.1300000000
  205      H      20.1050000000    21.2220000000    19.6570000000
  206      H      21.8760000000    21.2930000000    19.9030000000
  207      S      20.7640000000    21.1470000000    22.0050000000
  208      C      21.0910000000    22.9230000000    21.9300000000
  209      H      21.8720000000    23.2360000000    21.2330000000
  210      H      20.1880000000    23.5330000000    21.8490000000
  211      H      21.5120000000    23.1640000000    22.9090000000
  212      O      22.1270000000    20.7870000000    22.5110000000
  213      C      24.5600000000    22.4950000000    24.5040000000
  214      H      24.7320000000    21.8720000000    25.3860000000
  215      H      23.7610000000    23.2400000000    24.5120000000
  216      H      24.2430000000    21.7520000000    23.7670000000
  217      S      26.0580000000    23.2420000000    23.8250000000
  218      C      26.0360000000    24.4550000000    25.1650000000
  219      H      26.4120000000    23.9340000000    26.0490000000
  220      H      26.6740000000    25.2960000000    24.8820000000
  221      H      25.0350000000    24.8120000000    25.4210000000
  222      O      25.6450000000    24.0110000000    22.6090000000
  223      C      23.6510000000    17.0040000000    27.9670000000
  224      H      23.3210000000    17.9850000000    27.6170000000
  225      H      23.0160000000    16.7040000000    28.8050000000
  226      H      24.6680000000    17.0380000000    28.3670000000
  227      S      23.4610000000    15.6960000000    26.7350000000
  228      C      25.2290000000    15.3670000000    26.5500000000
  229      H      25.6720000000    14.9150000000    27.4410000000
  230      H      25.3250000000    14.7120000000    25.6800000000
  231      H      25.7740000000    16.3000000000    26.3920000000
  232      O      23.2460000000    16.5010000000    25.4920000000
  233      C      17.0840000000    23.7560000000    22.6180000000
  234      H      17.7870000000    24.4010000000    22.0850000000
  235      H      17.5120000000    22.7510000000    22.5660000000
  236      H      16.1540000000    23.8190000000    22.0470000000
  237      S      16.6070000000    24.2510000000    24.2890000000
  238      C      18.1080000000    23.8630000000    25.2170000000
  239      H      18.8350000000    24.5640000000    24.7990000000
  240      H      17.9820000000    24.2740000000    26.2220000000
  241      H      18.3440000000    22.7970000000    25.2560000000
  242      O      15.6580000000    23.1470000000    24.6390000000
  243      C      20.1740000000    14.2420000000    26.9970000000
  244      H      20.0260000000    14.4580000000    25.9360000000
  245      H      20.7470000000    14.9810000000    27.5630000000
  246      H      20.6180000000    13.2790000000    27.2600000000
  247      S      18.5390000000    14.1510000000    27.7630000000
  248      C      17.7140000000    13.5210000000    26.2840000000
  249      H      16.7540000000    13.0220000000    26.4420000000
  250      H      17.6960000000    14.2580000000    25.4770000000
  251      H      18.3800000000    12.7060000000    25.9900000000
  252      O      18.0790000000    15.5690000000    27.6260000000
  253      C      16.3690000000    22.6300000000    28.2450000000
  254      H      15.4940000000    22.0460000000    28.5420000000
  255      H      16.0000000000    23.5980000000    27.8950000000
  256      H      16.8940000000    22.1370000000    27.4230000000
  257      S      17.5380000000    22.8880000000    29.5980000000
  258      C      16.4290000000    23.6860000000    30.7820000000
  259      H      15.4840000000    23.1670000000    30.9580000000
  260      H      16.8120000000    23.9500000000    31.7710000000
  261      H      16.2140000000    24.6630000000    30.3430000000
  262      O      18.4730000000    23.9290000000    29.0670000000
  263      C      16.9810000000    18.1700000000    25.5580000000
  264      H      16.0280000000    17.6480000000    25.4370000000
  265      H      17.7320000000    17.3950000000    25.7310000000
  266      H      16.8600000000    18.8860000000    26.3760000000
  267      S      17.1720000000    18.9950000000    23.9610000000
  268      C      15.5170000000    19.6410000000    23.6310000000
  269      H      15.4590000000    20.6090000000    24.1360000000
  270      H      15.5200000000    19.7770000000    22.5470000000
  271      H      14.6970000000    18.9950000000    23.9530000000
  272      O      17.2660000000    17.8700000000    22.9780000000
 ----------------------------------------------------------------
 Nuclear Repulsion Energy =       43088.63881129 hartrees
 There are      560 alpha and      560 beta electrons
 Requested basis set is 6-31+G(d)
 There are 896 shells and 2497 basis functions

 Total QAlloc Memory Limit  16000 MB
 Mega-Array Size      7821 MB
 MEM_STATIC part      8000 MB
 A cutoff of  1.0D-14 yielded 162578 shell pairs
 There are   1402700 function pairs
 Smallest overlap matrix eigenvalue = 3.41E-07
 Linear dependence detected in AO basis
 Tighter screening thresholds may be required for diffuse basis sets
 Use S2THRESH > 14 and THRESH = 14 in case of SCF convergence issues
 Number of orthogonalized atomic orbitals = 2495
 Maximum deviation from orthogonality = 1.703E-10

 Scale SEOQF with 1.000000e-03/1.000000e-03/1.000000e-03

 Standard Electronic Orientation quadrupole field applied
 Nucleus-field energy     =    -0.0000004252 hartrees
 Guess from superposition of atomic densities
 Warning:  Energy on first SCF cycle will be non-variational
 SAD guess density has 1120.000002 electrons

 -----------------------------------------------------------------------
  General SCF calculation program by
  Eric Jon Sundstrom, Paul Horn, Yuezhi Mao, Dmitri Zuev, Alec White,
  David Stuck, Shaama M.S., Shane Yost, Joonho Lee, David Small,
  Daniel Levine, Susi Lehtola, Hugh Burton, Evgeny Epifanovsky,
  Bang C. Huynh
 -----------------------------------------------------------------------
=================================================
        Doing projection-based embedding         
      F. Manby et al. JCTC, 8, 2564 (2012)       
=================================================

****************************************************
   Low-level SCF calculation for the whole system   
****************************************************
----------------------------------------------
 Summary of the low-level theory: 
 Exchange:     0.2000 Hartree-Fock + 0.0800 Slater + 0.7200 B88
 Correlation:  0.1900 VWN1RPA + 0.8100 LYP
 Using Euler-Maclaurin-Lebedev (75,302) quadrature formula
----------------------------------------------
 using 16 threads for integral computing
 -------------------------------------------------------
 OpenMP Integral computing Module                
 Release: version 2.0, May 2017, Q-Chem Inc. Pleasanton 
 -------------------------------------------------------
 A restricted SCF calculation will be
 performed using DIIS
 SCF converges when DIIS error is below 1.0e-08
 ---------------------------------------
  Cycle       Energy         DIIS error
 ---------------------------------------
    1  -14252.1838078504      1.40e-02  
    2  -14229.9058132681      2.59e-03  
    3  -14219.4009860634      4.82e-03  
    4  -14233.7405997554      9.46e-04  
    5  -14234.3701971430      1.89e-04  
    6  -14234.3912031217      8.68e-05  
    7  -14234.3955032502      3.97e-05  
    8  -14234.3964732426      6.86e-06  
    9  -14234.3965027930      2.75e-06  
   10  -14234.3965073711      9.81e-07  
   11  -14234.3965079189      3.76e-07  
   12  -14234.3965080058      1.14e-07  
   13  -14234.3965080139      3.74e-08  
   14  -14234.3965080147      1.68e-08  
   15  -14234.3965080152      5.64e-09  Convergence criterion met
 ---------------------------------------
 SCF time:   CPU 150454.52s  wall 9503.00s 
 SCF   energy in the final basis set =   -14234.3965080152
 Total energy in the final basis set =   -14234.3965080152

****************************************************
             Start embedding calculation            
****************************************************
----------------------------------------------
 Summary of the high-level theory: 
 Exchange:     0.2000 Hartree-Fock + 0.0800 Slater + 0.7200 B88
 Correlation:  0.1900 VWN1RPA + 0.8100 LYP
 Using Euler-Maclaurin-Lebedev (75,302) quadrature formula
----------------------------------------------
Doing R-in-R Embedding Calculation
Number of fragments: 2
Embedded fragment(s): 1 
NOcc for each fragment
           35
          525
NBasis for each fragment
          197
         2300
Variational space of the embedded problem: 
NOcc (active)  = 35
NOcc (fixed)   = 525
NVir (total)   = 1935
Read converged orbitals from disk
=========================================================
       Doing SPADE partition for the orbital space       
     D. CLaudino and N. Mayhall JCTC 15, 1053 (2019)     
=========================================================
SPADE singular values:
 1.0000 1.0000 1.0000 1.0000 1.0000 1.0000 1.0000 1.0000 1.0000 0.9999
 0.9997 0.9997 0.9996 0.9995 0.9995 0.9993 0.9990 0.9986 0.9985 0.9977
 0.9972 0.9965 0.9962 0.9959 0.9952 0.9951 0.9942 0.9929 0.9922 0.9915
 0.9900 0.9895 0.9863 0.9843 0.9772 0.2123 0.1972 0.1803 0.1705 0.1619
 0.1536 0.1442 0.1348 0.1186 0.1141 0.1014 0.0963 0.0854 0.0824 0.0679
 0.0662 0.0594 0.0584 0.0558 0.0509 0.0464 0.0459 0.0434 0.0418 0.0386
 0.0351 0.0308 0.0286 0.0278 0.0261 0.0246 0.0230 0.0219 0.0207 0.0199
 0.0175 0.0174 0.0163 0.0153 0.0142 0.0140 0.0128 0.0126 0.0117 0.0110
 0.0104 0.0100 0.0093 0.0088 0.0083 0.0081 0.0078 0.0074 0.0069 0.0065
 0.0062 0.0062 0.0060 0.0057 0.0054 0.0051 0.0048 0.0046 0.0043 0.0041
 0.0038 0.0036 0.0035 0.0033 0.0032 0.0030 0.0030 0.0027 0.0026 0.0024
 0.0024 0.0023 0.0023 0.0021 0.0021 0.0020 0.0020 0.0019 0.0017 0.0016
 0.0016 0.0015 0.0015 0.0014 0.0014 0.0013 0.0013 0.0012 0.0012 0.0011
 0.0011 0.0011 0.0010 0.0010 0.0010 0.0009 0.0009 0.0009 0.0008 0.0008
 0.0008 0.0008 0.0007 0.0007 0.0006 0.0006 0.0006 0.0006 0.0005 0.0005
 0.0005 0.0005 0.0004 0.0004 0.0004 0.0004 0.0004 0.0003 0.0003 0.0003
 0.0003 0.0003 0.0003 0.0003 0.0003 0.0002 0.0002 0.0002 0.0002 0.0002
 0.0002 0.0002 0.0002 0.0002 0.0002 0.0002 0.0002 0.0002 0.0002 0.0002
 0.0001 0.0001 0.0001 0.0001 0.0001 0.0001 0.0001 0.0001 0.0001 0.0001
 0.0001 0.0001 0.0001 0.0001 0.0001 0.0001 0.0001
Early stop requested!
525 environment occs will be part of frozen-core in future post-HF calculations
 
 --------------------------------------------------------------
 
                    Orbital Energies (a.u.)
 --------------------------------------------------------------
 
 Alpha MOs
 -- Occupied --
 -0.5339  -0.5367  -0.5262  -0.5196  -0.4704  -0.5455  -0.5258  -0.5033
 -0.4434  -0.4561  -0.4523  -0.4449  -0.4492  -0.4646  -0.4413  -0.4183
 -0.4879  -0.4238  -0.4333  -0.4734  -0.5175  -0.5119  -0.4647  -0.4874
 -0.5167  -0.5789  -0.5904  -0.5586  -0.5463  -0.5667  -0.6124  -0.5229
 -0.6223  -0.6133  -0.5387  -0.5389  -0.5401  -0.6047  -0.5957  -0.5690
 -0.4859  -0.5813  -0.5976  -0.5225  -0.5705  -0.6404  -0.6125  -0.5741
 -0.5464  -0.5441  -0.6295  -0.5792  -0.6094  -0.6004  -0.6202  -0.5950
 -0.6064  -0.6099  -0.5847  -0.6319  -0.6970  -0.8966  -0.6867  -0.7190
 -0.6449  -0.8014  -0.8596  -0.7998  -0.8410  -0.9281  -0.7537  -1.3942
 -0.8482  -1.4883  -0.9677  -1.0572  -1.0599  -0.9627  -1.1777  -1.1659
 -1.2866  -1.2800  -1.2286  -0.7794  -0.9103  -1.0940  -1.0538  -1.3009
 -1.1028  -0.7864  -0.9911  -1.4217  -1.5532  -1.0071  -1.0136  -0.9546
 -1.2936  -1.5026  -1.2486  -1.4137  -1.3492  -1.0650  -1.2041  -1.1565
 -2.7525  -1.1035  -2.4388  -1.2534  -2.3582  -1.9419  -2.1642  -1.3988
 -2.0310  -1.3511  -1.7940  -1.5958  -1.7780  -1.6159  -1.7180  -1.2593
 -1.1694  -1.3365  -1.5839  -1.9105  -1.1936  -2.0658  -2.3012  -1.2034
 -1.7559  -1.6303  -1.2892  -1.8497  -1.8336  -1.1744  -1.8345  -1.8938
 -1.5387  -1.7944  -1.7065  -1.6090  -1.2528  -2.2734  -1.7734  -1.5479
 -2.0320  -1.8317  -1.6578  -2.0639  -1.7571  -1.9855  -1.9023  -1.9615
 -1.4547  -2.0536  -1.7291  -2.5586  -2.0517  -1.9705  -1.5555  -1.7037
 -2.3335  -2.0286  -5.9869  -5.9917  -5.9228  -5.8266  -5.9825  -6.0009
 -5.9449  -5.9649  -5.9722  -5.9446  -5.9524  -5.9390  -1.4737 -41.3408
-26.1852  -4.1219 -11.9637  -1.7853  -3.0240  -9.7962  -7.9739  -4.0425
 -6.0556  -1.2275  -1.7875  -1.4940  -3.7671  -3.9149  -1.9462  -6.6164
 -2.2319  -9.3204  -3.4720  -2.9904  -1.2297  -4.6945  -1.9192  -2.6759
-67.2809 -74.6022  -1.1416  -1.7162 -13.4685 -10.6330  -7.0373  -1.6833
 -1.5587  -1.2758  -4.3905  -3.2867  -9.1214  -5.5110  -6.9526 -12.2249
 -7.8610  -3.1501  -2.2506  -6.6165 -10.7255  -2.4373 -12.1327  -3.8098
 -4.0136  -8.6805  -4.4103  -0.9644 -67.2287 -73.0523 -21.5582  -5.0477
 -9.1206 -11.9401  -8.1663 -10.5867  -3.8728  -4.0081  -2.5563  -2.5433
 -2.2026  -3.7182  -5.9771  -1.0692  -9.1909  -3.0255 -13.8660  -7.6182
 -9.2103 -12.1508  -8.7671  -2.8415  -3.6492  -5.1424 -60.8635  -1.0455
 -9.5946 -10.2978 -61.8273  -2.4222  -4.2880  -5.7003  -4.4588  -5.4241
-10.7666  -6.4072  -5.7966  -4.4087  -5.9189  -3.9908  -7.9004  -2.4987
 -6.9454  -7.0968  -4.2618 -11.3204  -7.3073  -1.6115  -9.4843  -4.7743
-55.6073  -3.6400 -59.0532 -58.9528  -1.4685  -1.7151 -23.9330  -1.6656
-14.2824  -2.9316  -9.3498 -18.3155  -7.9660  -7.7112 -11.2459 -26.6901
 -5.3007 -13.1231 -19.7061 -16.2498  -4.5623  -8.9987  -6.5100  -4.1476
 -6.6368  -4.2529  -7.7183  -8.3186  -4.7563  -4.7622  -5.1749  -5.1433
-23.7445  -6.9635  -7.0351  -5.2985 -10.2734  -5.5611  -6.6681  -7.2308
-12.2044  -4.1808  -7.3637  -4.5048  -4.5419  -4.9401  -7.9480  -7.4164
 -8.7710  -6.3936  -7.3759  -4.9462  -4.7880  -5.0234  -3.1364  -6.4221
 -9.9137  -8.5500  -5.9193  -4.5471  -8.2526  -6.2251  -3.7485  -3.8993
 -9.2943  -2.6410  -4.8217  -6.9765  -9.1662 -27.3676 -13.2919  -9.7354
 -5.6606 -31.2568  -4.7607  -6.4100  -4.5325  -1.7201 -18.5035  -4.5035
-25.5111  -5.3480 -19.8408  -7.0580  -9.7216  -7.6212  -5.2608  -8.1155
 -5.5991  -5.9779  -6.8089 -10.1040  -4.1444  -6.6964  -2.3449  -3.8060
-24.8274  -5.1104  -4.8385  -2.0063  -9.5880 -11.8155  -3.3841  -3.2999
 -3.3791  -8.2023  -2.1880  -4.3028  -6.8055  -4.3315  -6.0469  -7.6899
 -2.5376  -7.6762  -7.8270  -5.9489  -4.3811  -6.8790 -12.6570 -12.2998
 -7.7611  -9.1280 -10.4835 -10.1742  -8.9028 -16.8557  -7.6831  -4.7043
-12.6235  -3.4424  -9.8678  -6.2519  -9.9610  -9.4519  -8.5962  -4.0429
-11.3062 -15.8101  -5.6865  -8.8871 -26.4321  -6.9355 -17.8493 -11.2494
 -5.9576 -15.2042 -17.2810 -17.5286  -3.7206 -12.5466 -11.2113  -6.8181
 -2.8434 -22.5531 -12.5534  -4.5788 -27.9160  -3.8981  -4.5313  -2.6725
 -4.3118 -12.6024  -7.4460 -22.3026 -23.0403 -45.2455  -3.9905  -7.8566
-16.2034  -3.6099  -3.6318 -12.4922  -7.8379  -6.4717  -5.2028  -7.1983
-34.1578 -18.5480  -4.6834  -8.8606  -9.3359  -5.4076 -38.1703  -8.7956
 -2.4443 -11.7818 -28.3908 -53.0061  -3.0479 -14.1825 -49.3126 -70.2457
-76.5138  -4.4935 -19.0100  -2.1690  -6.1631  -7.0081 -13.4843 -11.4262
 -3.1860 -16.2341 -14.8889  -9.4621  -4.7254 -13.1787 -11.1592 -12.1765
 -4.0749  -7.4954  -5.7770 -39.7334  -9.5853 -14.2275  -9.1444  -2.0465
-10.4305  -9.7401  -3.9429 -34.2681 -14.4658 -18.2413 -44.2662 -10.8719
 -9.1207 -16.7429  -6.8448  -6.1631  -5.7669  -5.8649 -13.3837 -10.5635
 -9.4956 -13.9590  -8.7453 -13.6206 -12.7336 -10.0149 -10.7990  -6.2342
 -6.7578  -5.5918 -15.6298  -6.0189  -7.0223 -14.9520 -12.2611 -11.7173
-11.3229 -12.5447 -10.3037 -10.0584 -10.6617 -10.1093  -0.7444  -0.7055
 -0.7129  -0.9168  -0.7997  -0.6669  -0.6361  -0.7811  -0.4331  -0.4207
 -0.4008  -0.4556  -0.4930  -0.4199  -0.4271  -0.4418  -0.4951  -0.3919
 -0.3999  -0.3742  -0.4835  -0.4572  -0.5082  -0.4206  -0.5639  -0.5913
 -- Virtual --
 -0.0217  -0.0208  -0.0196  -0.0183  -0.0145  -0.0122  -0.0112  -0.0107
 -0.0102  -0.0093  -0.0087  -0.0065  -0.0056  -0.0042  -0.0036  -0.0022
 -0.0015  -0.0010  -0.0004   0.0009   0.0019   0.0021   0.0026   0.0035
  0.0041   0.0048   0.0061   0.0065   0.0069   0.0072   0.0076   0.0086
  0.0088   0.0106   0.0107   0.0126   0.0130   0.0135   0.0140   0.0147
  0.0157   0.0163   0.0179   0.0184   0.0192   0.0198   0.0203   0.0207
  0.0213   0.0221   0.0226   0.0227   0.0230   0.0241   0.0256   0.0264
  0.0269   0.0280   0.0286   0.0293   0.0301   0.0307   0.0314   0.0317
  0.0325   0.0329   0.0338   0.0340   0.0351   0.0357   0.0367   0.0373
  0.0379   0.0385   0.0398   0.0406   0.0410   0.0417   0.0420   0.0425
  0.0431   0.0442   0.0446   0.0449   0.0454   0.0461   0.0466   0.0472
  0.0474   0.0485   0.0489   0.0494   0.0502   0.0510   0.0521   0.0522
  0.0532   0.0540   0.0544   0.0551   0.0556   0.0562   0.0565   0.0580
  0.0580   0.0589   0.0590   0.0597   0.0605   0.0614   0.0626   0.0629
  0.0636   0.0650   0.0655   0.0664   0.0670   0.0674   0.0679   0.0685
  0.0694   0.0700   0.0714   0.0715   0.0720   0.0726   0.0733   0.0740
  0.0747   0.0767   0.0768   0.0771   0.0781   0.0782   0.0790   0.0796
  0.0809   0.0811   0.0815   0.0820   0.0828   0.0841   0.0846   0.0855
  0.0856   0.0869   0.0873   0.0881   0.0885   0.0894   0.0901   0.0907
  0.0910   0.0919   0.0921   0.0933   0.0939   0.0946   0.0952   0.0957
  0.0966   0.0973   0.0977   0.0984   0.0985   0.1004   0.1009   0.1017
  0.1022   0.1030   0.1036   0.1037   0.1045   0.1049   0.1063   0.1067
  0.1073   0.1073   0.1085   0.1087   0.1097   0.1101   0.1111   0.1118
  0.1127   0.1137   0.1149   0.1151   0.1157   0.1161   0.1167   0.1173
  0.1178   0.1179   0.1190   0.1200   0.1205   0.1215   0.1226   0.1227
  0.1234   0.1243   0.1247   0.1251   0.1265   0.1272   0.1276   0.1280
  0.1285   0.1295   0.1298   0.1310   0.1312   0.1318   0.1328   0.1338
  0.1346   0.1353   0.1361   0.1365   0.1371   0.1375   0.1385   0.1389
  0.1392   0.1400   0.1409   0.1423   0.1426   0.1433   0.1442   0.1446
  0.1459   0.1461   0.1465   0.1476   0.1479   0.1485   0.1488   0.1503
  0.1507   0.1511   0.1513   0.1522   0.1530   0.1537   0.1544   0.1549
  0.1552   0.1571   0.1574   0.1579   0.1583   0.1593   0.1598   0.1602
  0.1607   0.1610   0.1615   0.1618   0.1621   0.1628   0.1641   0.1646
  0.1652   0.1661   0.1667   0.1679   0.1682   0.1688   0.1699   0.1705
  0.1709   0.1714   0.1724   0.1728   0.1733   0.1747   0.1750   0.1757
  0.1764   0.1768   0.1770   0.1781   0.1789   0.1796   0.1802   0.1808
  0.1818   0.1820   0.1828   0.1835   0.1840   0.1845   0.1856   0.1860
  0.1870   0.1880   0.1884   0.1888   0.1897   0.1906   0.1913   0.1917
  0.1926   0.1931   0.1937   0.1942   0.1955   0.1959   0.1968   0.1972
  0.1978   0.1985   0.1987   0.1999   0.2003   0.2005   0.2013   0.2021
  0.2028   0.2037   0.2043   0.2053   0.2056   0.2060   0.2063   0.2078
  0.2083   0.2094   0.2097   0.2102   0.2106   0.2119   0.2120   0.2126
  0.2126   0.2134   0.2144   0.2147   0.2155   0.2165   0.2168   0.2174
  0.2182   0.2191   0.2196   0.2206   0.2216   0.2219   0.2224   0.2226
  0.2238   0.2241   0.2250   0.2251   0.2262   0.2263   0.2271   0.2273
  0.2280   0.2293   0.2298   0.2303   0.2306   0.2320   0.2321   0.2326
  0.2338   0.2347   0.2349   0.2355   0.2359   0.2370   0.2377   0.2379
  0.2380   0.2391   0.2400   0.2405   0.2411   0.2416   0.2431   0.2436
  0.2445   0.2450   0.2456   0.2463   0.2470   0.2480   0.2488   0.2499
  0.2503   0.2506   0.2516   0.2520   0.2522   0.2529   0.2543   0.2549
  0.2565   0.2575   0.2579   0.2584   0.2590   0.2592   0.2601   0.2608
  0.2617   0.2619   0.2626   0.2643   0.2646   0.2657   0.2659   0.2663
  0.2671   0.2682   0.2690   0.2696   0.2707   0.2711   0.2722   0.2736
  0.2743   0.2751   0.2758   0.2761   0.2766   0.2784   0.2789   0.2792
  0.2799   0.2802   0.2828   0.2832   0.2839   0.2845   0.2846   0.2862
  0.2872   0.2882   0.2890   0.2896   0.2907   0.2917   0.2923   0.2928
  0.2942   0.2947   0.2965   0.2971   0.2983   0.2996   0.3004   0.3006
  0.3020   0.3027   0.3028   0.3032   0.3056   0.3062   0.3066   0.3072
  0.3079   0.3090   0.3091   0.3099   0.3114   0.3127   0.3138   0.3140
  0.3151   0.3160   0.3170   0.3175   0.3181   0.3184   0.3198   0.3202
  0.3214   0.3223   0.3234   0.3247   0.3254   0.3260   0.3272   0.3276
  0.3280   0.3288   0.3291   0.3303   0.3307   0.3328   0.3339   0.3343
  0.3354   0.3357   0.3366   0.3380   0.3381   0.3397   0.3403   0.3412
  0.3417   0.3428   0.3432   0.3447   0.3456   0.3461   0.3468   0.3477
  0.3482   0.3495   0.3505   0.3509   0.3522   0.3530   0.3536   0.3546
  0.3567   0.3570   0.3580   0.3593   0.3598   0.3612   0.3624   0.3631
  0.3634   0.3652   0.3662   0.3672   0.3689   0.3706   0.3710   0.3718
  0.3725   0.3730   0.3747   0.3750   0.3762   0.3773   0.3787   0.3793
  0.3801   0.3807   0.3816   0.3821   0.3836   0.3848   0.3855   0.3863
  0.3868   0.3878   0.3887   0.3896   0.3903   0.3917   0.3927   0.3935
  0.3965   0.3968   0.3975   0.3986   0.3988   0.4009   0.4020   0.4024
  0.4028   0.4032   0.4051   0.4060   0.4069   0.4081   0.4084   0.4100
  0.4104   0.4108   0.4120   0.4129   0.4141   0.4155   0.4155   0.4163
  0.4171   0.4181   0.4187   0.4205   0.4209   0.4227   0.4235   0.4242
  0.4259   0.4264   0.4272   0.4282   0.4286   0.4302   0.4318   0.4319
  0.4335   0.4352   0.4358   0.4370   0.4382   0.4388   0.4400   0.4414
  0.4431   0.4433   0.4438   0.4453   0.4464   0.4482   0.4488   0.4502
  0.4511   0.4515   0.4527   0.4536   0.4544   0.4556   0.4566   0.4577
  0.4594   0.4608   0.4616   0.4628   0.4641   0.4643   0.4654   0.4678
  0.4701   0.4713   0.4719   0.4729   0.4758   0.4765   0.4788   0.4791
  0.4810   0.4834   0.4850   0.4869   0.4871   0.4894   0.4913   0.4933
  0.4939   0.4952   0.4965   0.4969   0.4983   0.5014   0.5017   0.5035
  0.5043   0.5068   0.5074   0.5087   0.5111   0.5115   0.5145   0.5174
  0.5192   0.5198   0.5228   0.5230   0.5238   0.5254   0.5288   0.5296
  0.5302   0.5323   0.5350   0.5369   0.5385   0.5398   0.5419   0.5442
  0.5454   0.5485   0.5498   0.5506   0.5517   0.5542   0.5555   0.5574
  0.5617   0.5626   0.5643   0.5664   0.5677   0.5688   0.5709   0.5715
  0.5726   0.5728   0.5745   0.5772   0.5781   0.5809   0.5829   0.5849
  0.5852   0.5861   0.5873   0.5887   0.5902   0.5914   0.5926   0.5939
  0.5942   0.5974   0.5977   0.5986   0.6007   0.6024   0.6053   0.6059
  0.6064   0.6078   0.6095   0.6103   0.6119   0.6150   0.6154   0.6176
  0.6180   0.6214   0.6226   0.6237   0.6248   0.6265   0.6279   0.6284
  0.6304   0.6314   0.6331   0.6341   0.6346   0.6361   0.6374   0.6382
  0.6389   0.6402   0.6415   0.6434   0.6451   0.6470   0.6482   0.6496
  0.6503   0.6528   0.6539   0.6545   0.6552   0.6567   0.6580   0.6590
  0.6611   0.6616   0.6622   0.6640   0.6657   0.6662   0.6670   0.6676
  0.6695   0.6715   0.6724   0.6730   0.6741   0.6749   0.6762   0.6768
  0.6780   0.6801   0.6806   0.6827   0.6837   0.6851   0.6855   0.6872
  0.6874   0.6897   0.6914   0.6920   0.6941   0.6947   0.6958   0.6959
  0.6970   0.6994   0.7024   0.7025   0.7045   0.7062   0.7075   0.7084
  0.7095   0.7116   0.7123   0.7126   0.7141   0.7164   0.7171   0.7181
  0.7191   0.7197   0.7203   0.7227   0.7239   0.7247   0.7271   0.7280
  0.7294   0.7309   0.7324   0.7344   0.7353   0.7360   0.7395   0.7404
  0.7420   0.7428   0.7432   0.7448   0.7455   0.7491   0.7507   0.7531
  0.7539   0.7544   0.7557   0.7583   0.7588   0.7606   0.7617   0.7654
  0.7656   0.7670   0.7685   0.7708   0.7735   0.7752   0.7763   0.7769
  0.7795   0.7807   0.7822   0.7832   0.7848   0.7858   0.7879   0.7887
  0.7909   0.7915   0.7940   0.7956   0.7961   0.7967   0.7987   0.8008
  0.8030   0.8046   0.8067   0.8081   0.8086   0.8116   0.8121   0.8132
  0.8138   0.8182   0.8193   0.8205   0.8223   0.8231   0.8249   0.8261
  0.8275   0.8291   0.8301   0.8303   0.8339   0.8348   0.8357   0.8380
  0.8389   0.8397   0.8414   0.8435   0.8455   0.8459   0.8483   0.8498
  0.8508   0.8512   0.8537   0.8548   0.8562   0.8566   0.8577   0.8587
  0.8599   0.8611   0.8639   0.8652   0.8654   0.8669   0.8686   0.8706
  0.8714   0.8732   0.8738   0.8759   0.8766   0.8793   0.8799   0.8821
  0.8824   0.8839   0.8848   0.8860   0.8878   0.8896   0.8900   0.8907
  0.8919   0.8922   0.8952   0.8961   0.8979   0.8986   0.8990   0.9003
  0.9018   0.9037   0.9051   0.9061   0.9077   0.9092   0.9104   0.9119
  0.9129   0.9149   0.9162   0.9179   0.9199   0.9210   0.9228   0.9231
  0.9249   0.9266   0.9279   0.9283   0.9293   0.9315   0.9319   0.9334
  0.9342   0.9355   0.9367   0.9375   0.9387   0.9402   0.9410   0.9433
  0.9440   0.9457   0.9472   0.9487   0.9508   0.9518   0.9527   0.9539
  0.9547   0.9560   0.9564   0.9573   0.9589   0.9594   0.9609   0.9633
  0.9637   0.9641   0.9646   0.9659   0.9681   0.9687   0.9694   0.9703
  0.9715   0.9725   0.9744   0.9751   0.9758   0.9770   0.9782   0.9800
  0.9805   0.9822   0.9829   0.9848   0.9858   0.9879   0.9881   0.9899
  0.9913   0.9924   0.9925   0.9934   0.9950   0.9961   0.9965   0.9982
  0.9988   1.0003   1.0009   1.0023   1.0040   1.0053   1.0069   1.0077
  1.0087   1.0100   1.0103   1.0116   1.0140   1.0142   1.0157   1.0170
  1.0185   1.0190   1.0212   1.0224   1.0226   1.0234   1.0246   1.0269
  1.0277   1.0285   1.0296   1.0306   1.0324   1.0340   1.0351   1.0367
  1.0373   1.0385   1.0399   1.0412   1.0426   1.0441   1.0451   1.0455
  1.0473   1.0483   1.0501   1.0522   1.0529   1.0546   1.0548   1.0578
  1.0586   1.0596   1.0607   1.0617   1.0649   1.0654   1.0664   1.0668
  1.0686   1.0699   1.0702   1.0724   1.0727   1.0748   1.0772   1.0784
  1.0793   1.0802   1.0815   1.0837   1.0857   1.0865   1.0873   1.0894
  1.0917   1.0927   1.0937   1.0951   1.0976   1.0988   1.1000   1.1020
  1.1034   1.1036   1.1056   1.1072   1.1080   1.1098   1.1119   1.1123
  1.1142   1.1164   1.1165   1.1180   1.1201   1.1210   1.1232   1.1238
  1.1246   1.1284   1.1288   1.1303   1.1321   1.1329   1.1357   1.1358
  1.1361   1.1371   1.1402   1.1409   1.1425   1.1445   1.1452   1.1473
  1.1477   1.1495   1.1520   1.1539   1.1545   1.1557   1.1574   1.1587
  1.1591   1.1614   1.1627   1.1629   1.1637   1.1653   1.1662   1.1674
  1.1698   1.1720   1.1727   1.1749   1.1765   1.1770   1.1780   1.1796
  1.1805   1.1823   1.1844   1.1854   1.1892   1.1909   1.1920   1.1926
  1.1939   1.1944   1.1989   1.1996   1.2001   1.2013   1.2041   1.2044
  1.2064   1.2081   1.2086   1.2123   1.2149   1.2167   1.2177   1.2198
  1.2211   1.2240   1.2251   1.2261   1.2278   1.2285   1.2320   1.2329
  1.2364   1.2374   1.2404   1.2421   1.2441   1.2464   1.2482   1.2494
  1.2512   1.2531   1.2561   1.2592   1.2627   1.2645   1.2661   1.2665
  1.2681   1.2724   1.2749   1.2764   1.2779   1.2788   1.2830   1.2866
  1.2885   1.2895   1.2932   1.2960   1.2989   1.3003   1.3015   1.3029
  1.3064   1.3080   1.3107   1.3131   1.3139   1.3165   1.3181   1.3217
  1.3236   1.3262   1.3276   1.3279   1.3302   1.3315   1.3339   1.3359
  1.3378   1.3398   1.3420   1.3455   1.3470   1.3489   1.3497   1.3519
  1.3527   1.3548   1.3561   1.3582   1.3621   1.3624   1.3637   1.3680
  1.3694   1.3695   1.3735   1.3748   1.3764   1.3770   1.3796   1.3816
  1.3827   1.3837   1.3850   1.3854   1.3872   1.3887   1.3905   1.3928
  1.3948   1.3954   1.3982   1.3999   1.4009   1.4026   1.4052   1.4062
  1.4065   1.4097   1.4099   1.4111   1.4139   1.4156   1.4169   1.4186
  1.4208   1.4230   1.4231   1.4236   1.4283   1.4286   1.4305   1.4326
  1.4328   1.4355   1.4364   1.4387   1.4409   1.4413   1.4425   1.4460
  1.4486   1.4495   1.4503   1.4518   1.4531   1.4537   1.4568   1.4573
  1.4590   1.4612   1.4622   1.4636   1.4649   1.4682   1.4684   1.4718
  1.4724   1.4768   1.4790   1.4802   1.4812   1.4830   1.4845   1.4866
  1.4881   1.4887   1.4913   1.4927   1.4954   1.4973   1.4986   1.5023
  1.5039   1.5059   1.5089   1.5105   1.5121   1.5150   1.5152   1.5179
  1.5207   1.5229   1.5244   1.5310   1.5345   1.5355   1.5362   1.5373
  1.5427   1.5450   1.5470   1.5504   1.5535   1.5548   1.5562   1.5575
  1.5612   1.5630   1.5668   1.5675   1.5710   1.5774   1.5804   1.5867
  1.5895   1.5923   1.5934   1.5957   1.5981   1.6022   1.6055   1.6091
  1.6150   1.6238   1.6241   1.6264   1.6326   1.6379   1.6430   1.6457
  1.6494   1.6616   1.6649   1.6667   1.6686   1.6688   1.6709   1.6738
  1.6743   1.6759   1.6767   1.6782   1.6791   1.6796   1.6815   1.6836
  1.6844   1.6862   1.6883   1.6886   1.6892   1.6903   1.6932   1.6941
  1.6955   1.6995   1.6997   1.7014   1.7017   1.7036   1.7055   1.7057
  1.7073   1.7076   1.7088   1.7097   1.7103   1.7118   1.7121   1.7132
  1.7153   1.7163   1.7183   1.7208   1.7218   1.7237   1.7251   1.7260
  1.7284   1.7300   1.7321   1.7327   1.7335   1.7363   1.7371   1.7389
  1.7416   1.7422   1.7441   1.7451   1.7470   1.7478   1.7501   1.7508
  1.7522   1.7538   1.7566   1.7570   1.7572   1.7629   1.7638   1.7659
  1.7672   1.7695   1.7705   1.7716   1.7718   1.7728   1.7744   1.7760
  1.7776   1.7790   1.7799   1.7803   1.7828   1.7853   1.7868   1.7881
  1.7896   1.7928   1.7943   1.7960   1.7984   1.8001   1.8014   1.8032
  1.8052   1.8073   1.8088   1.8104   1.8126   1.8174   1.8175   1.8199
  1.8250   1.8306   1.8310   1.8340   1.8368   1.8391   1.8426   1.8445
  1.8480   1.8543   1.8585   1.8620   1.8645   1.8665   1.8675   1.8694
  1.8718   1.8732   1.8773   1.8800   1.8818   1.8843   1.8857   1.8870
  1.8886   1.8900   1.8911   1.8917   1.8934   1.8947   1.8961   1.8981
  1.8990   1.9008   1.9020   1.9034   1.9054   1.9072   1.9083   1.9089
  1.9090   1.9122   1.9126   1.9133   1.9143   1.9150   1.9156   1.9163
  1.9181   1.9191   1.9192   1.9217   1.9219   1.9224   1.9263   1.9277
  1.9298   1.9306   1.9326   1.9349   1.9355   1.9377   1.9399   1.9416
  1.9434   1.9456   1.9467   1.9506   1.9540   1.9553   1.9576   1.9594
  1.9611   1.9655   1.9696   1.9725   1.9739   1.9774   1.9819   1.9848
  1.9911   1.9989   2.0037   2.0081   2.0105   2.0131   2.0219   2.0325
  2.0416   2.0447   2.0472   2.0501   2.0506   2.0534   2.0600   2.0628
  2.0636   2.0652   2.0665   2.0673   2.0678   2.0709   2.0715   2.0715
  2.0724   2.0752   2.0770   2.0771   2.0779   2.0812   2.0856   2.0866
  2.0879   2.0882   2.0894   2.0908   2.0915   2.0934   2.0947   2.0957
  2.0973   2.0994   2.1002   2.1021   2.1025   2.1052   2.1058   2.1068
  2.1104   2.1126   2.1140   2.1176   2.1184   2.1199   2.1213   2.1217
  2.1253   2.1258   2.1280   2.1290   2.1314   2.1327   2.1433   2.1461
  2.1465   2.1508   2.1620   2.1743   2.1760   2.1785   2.1807   2.1839
  2.1853   2.1889   2.1940   2.1955   2.1982   2.2012   2.2038   2.2043
  2.2053   2.2087   2.2105   2.2123   2.2147   2.2167   2.2192   2.2197
  2.2208   2.2228   2.2257   2.2293   2.2317   2.2320   2.2342   2.2348
  2.2383   2.2396   2.2406   2.2419   2.2429   2.2440   2.2466   2.2474
  2.2498   2.2505   2.2521   2.2527   2.2540   2.2562   2.2566   2.2577
  2.2600   2.2608   2.2620   2.2625   2.2639   2.2652   2.2653   2.2664
  2.2669   2.2685   2.2695   2.2714   2.2718   2.2724   2.2737   2.2746
  2.2752   2.2755   2.2762   2.2781   2.2792   2.2800   2.2800   2.2809
  2.2817   2.2825   2.2834   2.2838   2.2846   2.2851   2.2873   2.2882
  2.2885   2.2895   2.2900   2.2904   2.2910   2.2918   2.2930   2.2941
  2.2956   2.2966   2.2975   2.2983   2.3005   2.3008   2.3014   2.3018
  2.3030   2.3039   2.3046   2.3072   2.3094   2.3110   2.3132   2.3136
  2.3151   2.3165   2.3170   2.3190   2.3202   2.3210   2.3220   2.3227
  2.3244   2.3247   2.3252   2.3259   2.3269   2.3279   2.3282   2.3306
  2.3310   2.3330   2.3349   2.3361   2.3375   2.3388   2.3396   2.3433
  2.3463   2.3467   2.3484   2.3509   2.3518   2.3552   2.3561   2.3580
  2.3591   2.3599   2.3629   2.3649   2.3666   2.3687   2.3693   2.3717
  2.3726   2.3777   2.3782   2.3807   2.3824   2.3850   2.3864   2.3911
  2.3964   2.4003   2.4016   2.4023   2.4155   2.4215   2.4258   2.4555
  2.4685   2.4891   2.5039   2.5342   2.5398   2.6160   2.6725   2.7436
  2.7829   2.7910   2.8158   2.8226   2.8301   2.8309   2.8410   2.8424
  2.8447   2.8458   2.8468   2.8471   2.8507   2.8509   2.8532   2.8536
  2.8562   2.8581   2.8603   2.8622   2.8629   2.8670   2.8684   2.8697
  2.8754   2.8784   2.8824   2.8888   2.8944   2.9044   2.9114   2.9828
  3.1105   3.2639   3.9564   3.9586   3.9588   3.9673   3.9701   3.9724
  3.9775   3.9795   3.9818   3.9833   3.9868   3.9897   3.9924   3.9938
  3.9975   4.0010   4.0061   4.0091   4.0111   4.0139   4.0165   4.0173
  4.0266   4.0295   4.0346   4.2142   4.2230   4.2312   4.2353   4.2405
  4.2460   4.2474   4.2581   4.2591   4.2620   4.2657   4.2666   4.2690
  4.2710   4.2763   4.2781   4.2791   4.2825   4.2845   4.2879   4.2898
  4.2915   4.2950   4.2983   4.3013   4.3054   4.3081   4.3101   4.3137
  4.3149   4.3192   4.3210   4.3221   4.3254   4.3287   4.3293   4.3318
  4.3357   4.3382   4.3396   4.3428   4.3447   4.3500   4.3530   4.3548
  4.3563   4.3592   4.3617   4.3641   4.3664   4.3710   4.3748   4.3785
  4.3814   4.3834   4.3852   4.3886   4.3937   4.3985   4.4072   4.4185
  4.4241   4.4313   4.4352   4.4412   4.4507   4.4542   4.4718   4.4811
  4.4871   4.5084   4.5121   4.5339   4.5446   4.5542   4.5782   4.5890
  4.5999   4.6125   4.6518   4.7112   4.7706   4.7866   4.9903
 --------------------------------------------------------------
 
          Ground-State Mulliken Net Atomic Charges

     Atom                 Charge (a.u.)
  ----------------------------------------
      1 C                    -0.628551
      2 C                    -0.363172
      3 C                    -0.293501
      4 C                     0.055986
      5 C                    -0.319310
      6 C                    -1.151858
      7 H                     0.256767
      8 H                     0.228460
      9 H                     0.200764
     10 H                     0.238340
     11 H                     0.211270
     12 H                     0.255673
     13 H                     0.213070
     14 H                     0.203923
     15 H                     0.202402
     16 H                     0.228639
     17 H                     0.191834
     18 N                     0.305388
     19 H                     0.512613
     20 C                    -0.663091
     21 H                     0.197442
     22 O                    -0.119638
     23 C                    -0.739519
     24 H                     0.248884
     25 H                     0.292167
     26 H                     0.241598
     27 S                     0.839530
     28 C                    -0.892232
     29 H                     0.280812
     30 H                     0.243322
     31 H                     0.241647
     32 O                    -0.708888
     33 C                    -0.958402
     34 H                     0.237916
     35 H                     0.252253
     36 H                     0.267234
     37 S                     1.011479
     38 C                    -0.849475
     39 H                     0.240226
     40 H                     0.307838
     41 H                     0.263614
     42 O                    -0.762968
     43 C                    -0.764363
     44 H                     0.263669
     45 H                     0.231726
     46 H                     0.270332
     47 S                     0.797351
     48 C                    -0.807090
     49 H                     0.283360
     50 H                     0.226183
     51 H                     0.272059
     52 O                    -0.705877
     53 C                    -1.045536
     54 H                     0.279755
     55 H                     0.268447
     56 H                     0.281403
     57 S                     0.951630
     58 C                    -1.061620
     59 H                     0.254460
     60 H                     0.258274
     61 H                     0.251230
     62 O                    -0.556560
     63 C                    -1.110260
     64 H                     0.312394
     65 H                     0.266496
     66 H                     0.267467
     67 S                     1.047275
     68 C                    -0.961278
     69 H                     0.255237
     70 H                     0.244630
     71 H                     0.289747
     72 O                    -0.672965
     73 C                    -0.933835
     74 H                     0.239651
     75 H                     0.258569
     76 H                     0.292933
     77 S                     1.022464
     78 C                    -0.945065
     79 H                     0.247262
     80 H                     0.244350
     81 H                     0.285064
     82 O                    -0.666201
     83 C                    -1.198042
     84 H                     0.262949
     85 H                     0.246645
     86 H                     0.297975
     87 S                     1.199536
     88 C                    -1.056583
     89 H                     0.244287
     90 H                     0.297845
     91 H                     0.277980
     92 O                    -0.637534
     93 C                    -1.015992
     94 H                     0.262088
     95 H                     0.253036
     96 H                     0.243601
     97 S                     1.053128
     98 C                    -1.094122
     99 H                     0.244353
    100 H                     0.249580
    101 H                     0.325993
    102 O                    -0.651629
    103 C                    -1.094708
    104 H                     0.286539
    105 H                     0.229022
    106 H                     0.265165
    107 S                     0.916928
    108 C                    -0.896186
    109 H                     0.247250
    110 H                     0.262394
    111 H                     0.277474
    112 O                    -0.714497
    113 C                    -0.663094
    114 H                     0.272514
    115 H                     0.237944
    116 H                     0.283115
    117 S                     0.579772
    118 C                    -0.784898
    119 H                     0.240136
    120 H                     0.248586
    121 H                     0.275783
    122 O                    -0.680319
    123 C                    -0.944638
    124 H                     0.258625
    125 H                     0.281631
    126 H                     0.240509
    127 S                     1.022827
    128 C                    -0.951013
    129 H                     0.294938
    130 H                     0.260890
    131 H                     0.255102
    132 O                    -0.711086
    133 C                    -0.852083
    134 H                     0.222661
    135 H                     0.266314
    136 H                     0.275527
    137 S                     0.984504
    138 C                    -0.970061
    139 H                     0.230022
    140 H                     0.283799
    141 H                     0.254493
    142 O                    -0.660083
    143 C                    -0.758010
    144 H                     0.300317
    145 H                     0.244071
    146 H                     0.276669
    147 S                     0.723924
    148 C                    -0.758447
    149 H                     0.278108
    150 H                     0.238740
    151 H                     0.232576
    152 O                    -0.769105
    153 C                    -1.076606
    154 H                     0.291982
    155 H                     0.224152
    156 H                     0.288846
    157 S                     0.972494
    158 C                    -0.804789
    159 H                     0.273886
    160 H                     0.258662
    161 H                     0.240290
    162 O                    -0.706759
    163 C                    -0.807133
    164 H                     0.238805
    165 H                     0.286275
    166 H                     0.235651
    167 S                     0.967848
    168 C                    -0.914581
    169 H                     0.266202
    170 H                     0.236739
    171 H                     0.226588
    172 O                    -0.706460
    173 C                    -0.953998
    174 H                     0.247284
    175 H                     0.261409
    176 H                     0.261124
    177 S                     1.092349
    178 C                    -1.017699
    179 H                     0.241229
    180 H                     0.297722
    181 H                     0.241764
    182 O                    -0.675782
    183 C                    -0.578151
    184 H                     0.237669
    185 H                     0.226577
    186 H                     0.284029
    187 S                     0.551609
    188 C                    -0.717353
    189 H                     0.255095
    190 H                     0.229833
    191 H                     0.227990
    192 O                    -0.699334
    193 C                    -0.717395
    194 H                     0.283363
    195 H                     0.246641
    196 H                     0.225458
    197 S                     0.560652
    198 C                    -0.673239
    199 H                     0.255164
    200 H                     0.236744
    201 H                     0.246065
    202 O                    -0.672653
    203 C                    -1.175442
    204 H                     0.231617
    205 H                     0.277649
    206 H                     0.271826
    207 S                     1.097259
    208 C                    -0.878197
    209 H                     0.297900
    210 H                     0.269204
    211 H                     0.248497
    212 O                    -0.608069
    213 C                    -1.019594
    214 H                     0.230408
    215 H                     0.241421
    216 H                     0.296517
    217 S                     0.919796
    218 C                    -0.815847
    219 H                     0.264388
    220 H                     0.239670
    221 H                     0.269907
    222 O                    -0.651962
    223 C                    -1.102591
    224 H                     0.299859
    225 H                     0.299032
    226 H                     0.295984
    227 S                     1.211548
    228 C                    -0.973895
    229 H                     0.229554
    230 H                     0.258749
    231 H                     0.261433
    232 O                    -0.680038
    233 C                    -0.814563
    234 H                     0.273822
    235 H                     0.274245
    236 H                     0.251235
    237 S                     0.685951
    238 C                    -0.747691
    239 H                     0.230956
    240 H                     0.295464
    241 H                     0.263482
    242 O                    -0.681322
    243 C                    -1.061132
    244 H                     0.320683
    245 H                     0.275381
    246 H                     0.280227
    247 S                     1.168163
    248 C                    -0.910979
    249 H                     0.264865
    250 H                     0.277299
    251 H                     0.260295
    252 O                    -0.668694
    253 C                    -0.908661
    254 H                     0.267069
    255 H                     0.274452
    256 H                     0.285439
    257 S                     1.042789
    258 C                    -1.190711
    259 H                     0.270443
    260 H                     0.298628
    261 H                     0.259920
    262 O                    -0.578863
    263 C                    -0.720253
    264 H                     0.235011
    265 H                     0.284523
    266 H                     0.286322
    267 S                     0.549193
    268 C                    -0.843850
    269 H                     0.319970
    270 H                     0.242610
    271 H                     0.260689
    272 O                    -0.574236
  ----------------------------------------
  Sum of atomic charges =     0.000000

 -----------------------------------------------------------------
                    Cartesian Multipole Moments
 -----------------------------------------------------------------
    Charge (ESU x 10^10)
                -0.0000
    Dipole Moment (Debye)
         X     -15.9633      Y      -8.3435      Z       7.2093
       Tot      19.4014
    Quadrupole Moments (Debye-Ang)
        XX   -1565.0023     XY    -543.4083     YY   -1183.2231
        XZ    -203.7325     YZ     -80.3555     ZZ    -459.7904
    Octopole Moments (Debye-Ang^2)
       XXX  -76096.3480    XXY  -37107.4423    XYY  -32722.7976
       YYY  -60181.8722    XXZ  -35953.1492    XYZ  -10149.2324
       YYZ  -28825.5661    XZZ  -17685.8527    YZZ  -15360.6060
       ZZZ  -53869.1676
    Hexadecapole Moments (Debye-Ang^3)
      XXXX ************   XXXY ************   XXYY ************
      XYYY ************   YYYY ************   XXXZ ************
      XXYZ -875753.4624   XYYZ -789555.4484   YYYZ ************
      XXZZ ************   XYZZ -523188.6332   YYZZ ************
      XZZZ ************   YZZZ ************   ZZZZ ************
 -----------------------------------------------------------------
Archival summary:
[...]
    2   0.0113715   0.0065290   0.0346476   0.0188126  -0.0043748  -0.0863464
    3  -0.0353816   0.0103857  -0.0094112   0.0131501   0.0166513   0.0653939
          103         104         105         106         107         108
    1  -0.0042121  -0.0099955  -0.0085316  -0.0235566   0.0174289   0.0030252
    2  -0.0018461   0.0157977  -0.0276200   0.0146019   0.0520165  -0.0041247
    3  -0.0068857  -0.0332088   0.0057202   0.0068564  -0.0179460  -0.0055327
          109         110         111         112         113         114
    1   0.0121145   0.0293562  -0.0025322  -0.0085526  -0.0039758   0.0088294
    2  -0.0080197   0.0015189  -0.0266216  -0.0285342   0.0051718   0.0296825
    3  -0.0392721   0.0038258   0.0120743   0.1044889  -0.0076885  -0.0070240
          115         116         117         118         119         120
    1   0.0250572  -0.0310085   0.0605108  -0.0046360   0.0268585  -0.0237140
    2  -0.0206651  -0.0000702  -0.0036051  -0.0066935  -0.0212094  -0.0152290
    3  -0.0133130  -0.0133939   0.0211826  -0.0031280  -0.0031569   0.0192740
          121         122         123         124         125         126
    1  -0.0344557  -0.0776822   0.0095349  -0.0174071   0.0281465   0.0063852
    2  -0.0105366   0.0478080   0.0019399  -0.0146469  -0.0167121   0.0294178
    3  -0.0168291   0.0568160   0.0064829   0.0206621  -0.0056500   0.0162618
          127         128         129         130         131         132
    1  -0.0028268   0.0063358   0.0346750  -0.0132232   0.0005262  -0.0872854
    2  -0.0482638   0.0066503  -0.0045996   0.0040704   0.0263247   0.0515415
    3  -0.0279487  -0.0049032  -0.0123901  -0.0301465   0.0210201   0.0445568
          133         134         135         136         137         138
    1  -0.0072870   0.0040342   0.0044767  -0.0282537  -0.0089008  -0.0041217
    2  -0.0029793   0.0085474  -0.0309308   0.0066942   0.0008573   0.0091844
    3  -0.0036260  -0.0306354  -0.0002369   0.0164841   0.0537876  -0.0001958
          139         140         141         142         143         144
    1   0.0056399  -0.0287509   0.0282481   0.0951849  -0.0006148  -0.0066709
    2  -0.0018957   0.0205335   0.0122587  -0.0312447   0.0012390   0.0283855
    3  -0.0305313   0.0104515   0.0045077  -0.0455011  -0.0133705  -0.0157750
          145         146         147         148         149         150
    1   0.0183239  -0.0260181  -0.0093999  -0.0044415   0.0012333  -0.0318244
    2  -0.0259008  -0.0098855  -0.0439416   0.0067195   0.0282316  -0.0115635
    3  -0.0211938  -0.0126510   0.0260102  -0.0003938  -0.0131771  -0.0072986
          151         152         153         154         155         156
    1   0.0021579   0.0858143   0.0014210   0.0215792  -0.0053259  -0.0259620
    2   0.0240033   0.0634378   0.0125621   0.0278763   0.0106660   0.0135992
    3   0.0263395  -0.0089525   0.0081815   0.0030951  -0.0227692   0.0237648
          157         158         159         160         161         162
    1  -0.0365602   0.0046872  -0.0222319   0.0205347   0.0178998   0.0903684
    2  -0.0338473   0.0002776   0.0109451  -0.0269757   0.0255548   0.0196285
    3  -0.0099296   0.0105086   0.0271667  -0.0058860   0.0085278  -0.0618328
          163         164         165         166         167         168
    1  -0.0002833   0.0079521   0.0181873  -0.0324721   0.0545183  -0.0014405
    2   0.0073222   0.0234171   0.0287692  -0.0012050   0.0023326  -0.0023479
    3   0.0010510   0.0218577  -0.0089590   0.0012588  -0.0054874  -0.0045194
          169         170         171         172         173         174
    1  -0.0015871  -0.0277356   0.0119859  -0.0545698  -0.0050609  -0.0131354
    2  -0.0296908   0.0113833   0.0042593  -0.0702766   0.0024768   0.0287282
    3  -0.0017687  -0.0018228  -0.0358475   0.0633630   0.0108189  -0.0087216
          175         176         177         178         179         180
    1  -0.0174559   0.0136911  -0.0225151   0.0052466  -0.0122125   0.0283305
    2  -0.0299691   0.0034694  -0.0084702  -0.0087540  -0.0282944  -0.0128547
    3   0.0029695   0.0324177  -0.0532670   0.0085695  -0.0086230  -0.0158796
          181         182         183         184         185         186
    1  -0.0022205   0.0815819   0.0048740   0.0201433   0.0134529   0.0245182
    2   0.0033753   0.0716188  -0.0069532   0.0126077  -0.0373714  -0.0128160
    3   0.0365275   0.0271767   0.0023037   0.0243931   0.0101707  -0.0155135
          187         188         189         190         191         192
    1   0.0080178  -0.0027312  -0.0326353  -0.0047400   0.0128091  -0.0375404
    2   0.0552316   0.0012524  -0.0126280  -0.0278653   0.0183273  -0.0690815
    3  -0.0100555   0.0021570  -0.0187685   0.0106788   0.0333146  -0.0783291
          193         194         195         196         197         198
    1  -0.0060953  -0.0022491  -0.0012869  -0.0281579  -0.0174068  -0.0046556
    2   0.0066914   0.0279345   0.0171717  -0.0046124  -0.0457595   0.0022141
    3   0.0042900   0.0131355  -0.0281864   0.0248643  -0.0327590   0.0068804
          199         200         201         202         203         204
    1  -0.0290774   0.0227725   0.0178460   0.0877882  -0.0004605   0.0066093
    2  -0.0108143  -0.0186647   0.0208803   0.0601529   0.0015551  -0.0322941
    3   0.0222312   0.0029511   0.0199956  -0.0316097  -0.0091163  -0.0066324
          205         206         207         208         209         210
    1  -0.0239343   0.0285904  -0.0450192   0.0004002   0.0172456  -0.0250377
    2   0.0193410   0.0084824  -0.0125849   0.0113526   0.0034835   0.0169559
    3  -0.0114199  -0.0076205   0.0203928  -0.0007252  -0.0271507  -0.0169839
          211         212         213         214         215         216
    1   0.0143531   0.0985240  -0.0073639   0.0039893  -0.0225847  -0.0179007
    2  -0.0005250  -0.0264800  -0.0054498  -0.0043501   0.0195881  -0.0194722
    3   0.0311281   0.0394637  -0.0038182   0.0326304   0.0084132  -0.0261440
          217         218         219         220         221         222
    1   0.0469136  -0.0005596   0.0201402   0.0192593  -0.0292514  -0.0259138
    2  -0.0348073   0.0051204  -0.0113877   0.0236909   0.0150540   0.0544135
    3   0.0045912   0.0070389   0.0249041  -0.0048913   0.0023472  -0.0908391
          223         224         225         226         227         228
    1   0.0008287  -0.0091839  -0.0171853   0.0293775  -0.0311842   0.0073115
    2   0.0057925   0.0223395  -0.0020509   0.0088760  -0.0407665  -0.0006694
    3   0.0041421  -0.0239051   0.0212151   0.0071877   0.0157763  -0.0022086
          229         230         231         232         233         234
    1   0.0126511   0.0064593   0.0089510  -0.0190707   0.0046120   0.0228972
    2  -0.0202041  -0.0183957   0.0279043   0.0609199  -0.0041021   0.0205224
    3   0.0229810  -0.0247777  -0.0132914  -0.0905903  -0.0099590  -0.0138467
          235         236         237         238         239         240
    1   0.0071078  -0.0266292  -0.0110527   0.0045848   0.0365752  -0.0062038
    2  -0.0294724  -0.0060366   0.0526835  -0.0004931   0.0081707   0.0027773
    3   0.0011159  -0.0164313   0.0034190   0.0049838  -0.0140553   0.0337287
          241         242         243         244         245         246
    1   0.0085494  -0.0719939   0.0051566   0.0063102   0.0102714   0.0248219
    2  -0.0290286  -0.0798334   0.0023539   0.0040420   0.0226114  -0.0263074
    3  -0.0051754   0.0257595  -0.0055644  -0.0313695   0.0094656  -0.0049099
          247         248         249         250         251         252
    1  -0.0015021  -0.0021815  -0.0287709   0.0008401   0.0158154  -0.0285786
    2  -0.0269304  -0.0041066  -0.0019176   0.0249459  -0.0246967   0.1160073
    3   0.0384502  -0.0085559   0.0054395  -0.0147124  -0.0264002  -0.0091371
          253         254         255         256         257         258
    1  -0.0089538  -0.0240095  -0.0089076   0.0106773   0.0192447  -0.0091619
    2  -0.0000525  -0.0216277   0.0276481  -0.0144623  -0.0570607   0.0087441
    3  -0.0088563   0.0054939  -0.0141214  -0.0246045   0.0195758   0.0049418
          259         260         261         262         263         264
    1  -0.0265074   0.0248638  -0.0122314   0.0707551  -0.0015775  -0.0239501
    2  -0.0186383  -0.0037816   0.0300221   0.0729781  -0.0072327  -0.0162110
    3  -0.0005962   0.0266608  -0.0165817  -0.0404001   0.0109090   0.0076665
          265         266         267         268         269         270
    1   0.0294089  -0.0019639   0.0399056  -0.0077063  -0.0100935  -0.0048687
    2  -0.0192799   0.0145607   0.0448786   0.0062468   0.0327009   0.0048183
    3   0.0130317   0.0242096   0.0040148   0.0024222   0.0123657  -0.0296574
          271         272
    1  -0.0216006   0.0083937
    2  -0.0202585  -0.0815475
    3   0.0102931  -0.0706138
  --- DONE ESP SUMMARY ---
Archival summary:
1\1\node024\SP\ProcedureUnspecified\6-31+G*\252550h22\ymao90\FriDec314:57:172021FriDec314:57:172021\0\\#,ProcedureUnspecified,6-31+G*,\\0,1\S\O,1,1.49691\C,1,1.807,2,101.904\H,3,1.09243,1,114.977,2,70.8603,0\H,3,1.0925,1,102.896,2,-50.6923,0\H,3,1.09335,1,106.305,2,-166.744,0\C,1,1.80763,2,104.111,3,107.036,0\H,7,1.09296,1,113.008,2,50.5336,0\H,7,1.09331,1,102.253,2,-63.1191,0\H,7,1.09381,1,111.94,2,-177.777,0\Gh,8,2.10584,7,110.055,1,67.1764,0\Gh,11,1.0973,8,160.669,7,130.185,0\Gh,12,1.0971,11,105.781,8,64.836,0\Gh,12,1.53667,11,106.953,8,-54.2093,0\Gh,14,1.0979,12,105.35,11,169.746,0\Gh,14,1.46169,12,103.827,11,55.4036,0\Gh,16,1.01279,14,121.201,12,-32.8987,0\Gh,16,1.37863,14,122.387,12,149.952,0\Gh,18,1.10597,16,109.919,14,171.254,0\Gh,18,1.21777,16,121.98,14,-12.2128,0\Gh,14,1.53769,12,119.552,11,-74.0016,0\Gh,21,1.09656,14,107.376,12,-167.016,0\Gh,21,1.09671,14,108.75,12,75.3217,0\Gh,21,1.53714,14,108.181,12,-48.5761,0\Gh,24,1.0964,21,107.057,14,169.77,0\Gh,24,1.09745,21,115.392,14,-69.615,0\Gh,24,1.53721,21,110.482,14,52.7911,0\Gh,27,1.09694,24,102.348,21,178.149,0\Gh,27,1.09759,24,111.722,21,59.9909,0\Gh,27,1.53755,24,111.892,21,-62.4639,0\Gh,30,1.09696,27,113.374,24,-176.515,0\Gh,30,1.09697,27,111.209,24,-63.533,0\O,17,1.98375,16,148.883,14,156.821,0\S,33,1.49703,17,130.97,16,-42.5041,0\C,34,1.80692,33,96.6066,17,-136.988,0\H,35,1.0928,34,101.653,33,150.389,0\H,35,1.09304,34,112.132,33,34.9036,0\H,35,1.09342,34,116.213,33,-98.0563,0\C,34,1.80783,33,101.037,17,-40.7647,0\H,39,1.09255,34,102.778,33,168.95,0\H,39,1.09283,34,107.388,33,-66.4065,0\H,39,1.09307,34,106.782,33,58.7711,0\H,13,2.11094,12,114.172,11,48.7351,0\C,43,1.0931,13,128.284,12,-29.7907,0\H,44,1.09306,43,106.864,13,-33.3364,0\H,44,1.09335,43,113.576,13,95.3927,0\S,44,1.80699,43,115.605,13,-146.249,0\O,47,1.49764,44,108.81,43,42.5385,0\C,47,1.807,44,91.6667,43,-66.4284,0\H,49,1.09322,47,118.841,44,-91.3442,0\H,49,1.0933,47,104.725,44,154.955,0\H,49,1.09354,47,107.307,44,32.6368,0\H,9,2.13646,7,140.038,1,-151.586,0\C,53,1.09301,9,125.186,7,-142.36,0\H,54,1.09252,53,112.314,9,-28.0527,0\H,54,1.09284,53,107.282,9,-144.823,0\S,54,1.80737,53,112.961,9,92.9378,0\O,57,1.49728,54,101.435,53,68.6997,0\C,57,1.80695,54,95.6711,53,175.498,0\H,59,1.09255,57,100.845,54,71.4517,0\H,59,1.0933,57,110.365,54,-177.546,0\H,59,1.09341,57,112.493,54,-47.8366,0\H,26,2.22292,24,151.918,21,-50.5997,0\C,63,1.09279,26,105.404,24,-97.6906,0\H,64,1.09245,63,106.677,26,-47.0416,0\H,64,1.09409,63,112.328,26,79.7007,0\S,64,1.80697,63,111.491,26,-160.966,0\O,67,1.49689,64,103.031,63,-59.8253,0\C,67,1.80659,64,97.6769,63,47.3192,0\H,69,1.09284,67,99.3462,64,57.8999,0\H,69,1.09292,67,108.011,64,171.773,0\H,69,1.09368,67,111.519,64,-61.4963,0\H,63,2.00383,26,122.679,24,72.0995,0\C,73,1.09257,63,163.35,26,-142.775,0\H,74,1.09307,73,112.35,63,-47.3941,0\H,74,1.0932,73,112.406,63,73.9475,0\S,74,1.80701,73,114.481,63,-167.707,0\O,77,1.49704,74,98.3517,73,65.4555,0\C,77,1.80728,74,96.6051,73,168.841,0\H,79,1.09265,77,109.518,74,77.5555,0\H,79,1.0934,77,113.017,74,-170.813,0\H,79,1.09347,77,108.218,74,-50.4174,0\H,15,2.22937,14,130.451,12,-23.2597,0\C,83,1.09259,15,125.483,14,-88.5402,0\H,84,1.09336,83,111.729,15,-127.363,0\H,84,1.09338,83,108.449,15,-11.4198,0\S,84,1.80687,83,113.565,15,105.186,0\O,87,1.49643,84,101.073,83,14.9082,0\C,87,1.80784,84,95.663,83,115.073,0\H,89,1.09201,87,110.329,84,-49.4534,0\H,89,1.0929,87,112.846,84,68.4113,0\H,89,1.09323,87,106.043,84,-169.332,0\H,90,2.19907,89,158.325,87,28.4317,0\C,93,1.09285,90,160.573,89,-59.1658,0\H,94,1.09264,93,110.001,90,97.0536,0\H,94,1.09268,93,108.846,90,-27.6902,0\S,94,1.80716,93,108.874,90,-146.229,0\O,97,1.49702,94,108.375,93,-170.937,0\C,97,1.80738,94,99.7832,93,-71.734,0\H,99,1.09195,97,111.874,94,86.9125,0\H,99,1.09286,97,107.395,94,-32.4084,0\H,99,1.09297,97,108.08,94,-147.698,0\H,96,2.26638,94,115.69,93,166.403,0\C,103,1.09345,96,130.183,94,144.726,0\H,104,1.09247,103,119.846,96,148.481,0\H,104,1.09348,103,101.661,96,33.6392,0\S,104,1.80639,103,114.102,96,-79.45,0\O,107,1.49686,104,106.798,103,178.052,0\C,107,1.80761,104,89.3559,103,-76.7558,0\H,109,1.09283,107,105.995,104,77.2104,0\H,109,1.09289,107,108.501,104,-162.272,0\H,109,1.09315,107,113.822,104,-39.3062,0\H,29,2.28343,27,116.42,24,64.6111,0\C,113,1.09251,29,160.08,27,22.3137,0\H,114,1.093,113,119.72,29,26.13,0\H,114,1.09308,113,111.036,29,-90.6403,0\S,114,1.80686,113,114.036,29,148.133,0\O,117,1.4973,114,104.367,113,38.5479,0\C,117,1.80687,114,101.353,113,-65.4879,0\H,119,1.09285,117,117.334,114,-73.4883,0\H,119,1.09312,117,104.045,114,171.091,0\H,119,1.09358,117,113.519,114,50.1044,0\H,53,2.29121,9,80.4678,7,-12.5836,0\C,123,1.09238,53,137.275,9,112.46,0\H,124,1.0929,123,107.288,53,-128.622,0\H,124,1.09323,123,116.345,53,123.051,0\S,124,1.80743,123,107.154,53,-8.69786,0\O,127,1.49668,124,100.686,123,-28.4256,0\C,127,1.80642,124,98.5638,123,83.3839,0\H,129,1.09225,127,98.8662,124,66.1762,0\H,129,1.093,127,117.804,124,-175.902,0\H,129,1.09346,127,113.227,124,-48.2416,0\H,126,2.13442,124,122.699,123,0.825732,0\C,133,1.09259,126,155.672,124,-155.483,0\H,134,1.09328,133,99.0515,126,-143.451,0\H,134,1.09351,133,113.2,126,96.0844,0\S,134,1.80716,133,111.621,126,-37.0799,0\O,137,1.49664,134,103.217,133,-38.9383,0\C,137,1.80757,134,94.0155,133,61.6291,0\H,139,1.09248,137,114.926,134,68.9802,0\H,139,1.09277,137,101.789,134,-177.638,0\H,139,1.09292,137,105.869,134,-57.1404,0\H,55,2.30209,54,126.951,53,35.5448,0\C,143,1.09351,55,112.061,54,-172.469,0\H,144,1.09228,143,112.576,55,17.3751,0\H,144,1.09333,143,113.927,55,144.375,0\S,144,1.80662,143,101.924,55,-100.249,0\O,147,1.49708,144,108.073,143,69.2159,0\C,147,1.80684,144,95.5343,143,168.756,0\H,149,1.09296,147,105.211,144,-151.842,0\H,149,1.09299,147,103.52,144,88.5539,0\H,149,1.09315,147,110.932,144,-32.748,0\H,91,2.31515,89,157.188,87,-33.7825,0\C,153,1.09329,91,120.14,89,0.894784,0\H,154,1.09282,153,108.141,91,51.5132,0\H,154,1.09324,153,109.206,91,-68.8289,0\S,154,1.80595,153,119.585,91,169.664,0\O,157,1.49747,154,107.862,153,-170.181,0\C,157,1.80766,154,95.5334,153,-62.5213,0\H,159,1.09243,157,105.213,154,-26.8386,0\H,159,1.09251,157,112.666,154,90.3506,0\H,159,1.09299,157,101.911,154,-151.894,0\H,125,2.39389,124,121.452,123,-157.541,0\C,163,1.09277,125,135.963,124,11.3143,0\H,164,1.09324,163,114.533,125,46.317,0\H,164,1.09355,163,111.669,125,167.805,0\S,164,1.8066,163,109.127,125,-72.9452,0\O,167,1.49754,164,102.901,163,84.806,0\C,167,1.80713,164,97.2788,163,-171.93,0\H,169,1.09239,167,102.72,164,-156.869,0\H,169,1.09315,167,108.504,164,82.3606,0\H,169,1.09409,167,108.192,164,-38.624,0\H,172,2.3462,169,111.198,167,99.3745,0\C,173,1.09222,172,125.986,169,-171.082,0\H,174,1.0926,173,105.031,172,-126.077,0\H,174,1.09329,173,105.766,172,-7.63195,0\S,174,1.80664,173,112.52,172,120.015,0\O,177,1.49624,174,106.132,173,77.2381,0\C,177,1.80736,174,96.145,173,-177.243,0\H,179,1.09265,177,108.631,174,-150.529,0\H,179,1.09277,177,109.457,174,-38.9247,0\H,179,1.09344,177,111.077,174,79.171,0\H,182,2.22809,179,116.664,177,51.4552,0\C,183,1.09325,182,108.961,179,97.8603,0\H,184,1.09313,183,106.51,182,-109.266,0\H,184,1.09348,183,106.605,182,8.37375,0\S,184,1.80625,183,112.932,182,135.411,0\O,187,1.49769,184,98.0405,183,162.986,0\C,187,1.80651,184,98.4931,183,-87.0176,0\H,189,1.0932,187,109.71,184,75.5193,0\H,189,1.0932,187,106.07,184,-162.731,0\H,189,1.09348,187,109.779,184,-39.7265,0\H,25,2.51737,24,129.658,21,154.659,0\C,193,1.09266,25,156.373,24,-176.732,0\H,194,1.09309,193,111.237,25,-104.859,0\H,194,1.09331,193,105.867,25,12.3755,0\S,194,1.80682,193,109.649,25,130.411,0\O,197,1.49618,194,106.743,193,59.2182,0\C,197,1.80728,194,97.8514,193,159.167,0\H,199,1.0922,197,110.536,194,-46.4602,0\H,199,1.09276,197,106.864,194,-171.323,0\H,199,1.09334,197,106.719,194,74.8301,0\O,122,2.55039,119,103.57,117,-176.2,0\S,203,1.49746,122,90.9917,119,-94.3141,0\C,204,1.80635,203,103.319,122,146.011,0\H,205,1.09291,204,115.18,203,79.6703,0\H,205,1.0931,204,109.751,203,-43.1217,0\H,205,1.09393,204,104.622,203,-155.494,0\C,204,1.80681,203,107.966,122,-109.283,0\H,209,1.09258,204,96.7978,203,-43.6528,0\H,209,1.0933,204,109.046,203,68.2386,0\H,209,1.09342,204,110.605,203,-165.441,0\H,203,2.35807,122,116.99,119,146.783,0\C,213,1.09365,203,135.94,122,-15.3575,0\H,214,1.09217,213,108.101,203,121.437,0\H,214,1.09265,213,109.863,203,-114.892,0\S,214,1.80662,213,112.199,203,5.23164,0\O,217,1.4978,214,101.372,213,-168.63,0\C,217,1.80741,214,96.589,213,-72.2525,0\H,219,1.09258,217,115.932,214,-38.8389,0\H,219,1.09259,217,104.435,214,-151.96,0\H,219,1.09274,217,113.709,214,93.9489,0\H,218,2.57035,217,145.742,214,-13.9278,0\C,223,1.09314,218,103.744,217,-37.3918,0\H,224,1.09307,223,114.362,218,70.439,0\H,224,1.09349,223,114.489,218,-46.7315,0\S,224,1.80725,223,110.24,218,-166.641,0\O,227,1.49649,224,105.889,223,-47.4799,0\C,227,1.80728,224,98.6547,223,65.2783,0\H,229,1.09265,227,105.509,224,-63.3505,0\H,229,1.09293,227,113.23,224,165.776,0\H,229,1.09312,227,103.776,224,47.7216,0\O,202,2.59112,199,144.309,197,16.866,0\S,233,1.49724,202,154.017,199,-83.645,0\C,234,1.80699,233,106.664,202,88.1028,0\H,235,1.09279,234,114.832,233,39.2083,0\H,235,1.09291,234,109.501,233,-81.6818,0\H,235,1.09311,234,110.228,233,162.751,0\C,234,1.80716,233,102.745,202,-171.882,0\H,239,1.09311,234,112.6,233,36.3388,0\H,239,1.09342,234,117.28,233,-88.1256,0\H,239,1.09348,234,112.491,233,149.994,0\O,237,2.3472,235,176.782,234,-103.325,0\S,243,1.49662,237,111.839,235,-22.4825,0\C,244,1.80658,243,103.761,237,124.495,0\H,245,1.09287,244,108.474,243,69.1039,0\H,245,1.09311,244,113.003,243,-168.191,0\H,245,1.09347,244,109.369,243,-49.312,0\C,244,1.80791,243,107.973,237,20.0817,0\H,249,1.09241,244,115.242,243,157.779,0\H,249,1.09246,244,104.613,243,38.581,0\H,249,1.09293,244,118.965,243,-75.0055,0\H,222,2.59926,219,101.933,217,147.375,0\C,253,1.09298,222,124.278,219,130.814,0\H,254,1.09245,253,118.973,222,44.8094,0\H,254,1.09246,253,117.067,222,160.703,0\S,254,1.80753,253,110.072,222,-71.5242,0\O,257,1.49666,254,100.232,253,65.4822,0\C,257,1.80684,254,100.377,253,-42.0452,0\H,259,1.09257,257,109.117,254,-72.6632,0\H,259,1.09309,257,99.0459,254,44.1642,0\H,259,1.09324,257,106.496,254,163.135,0\H,68,2.73556,67,117.877,64,-41.6521,0\C,263,1.09293,68,161.381,67,-13.3222,0\H,264,1.09305,263,110.551,68,34.3847,0\H,264,1.09317,263,110.775,68,-83.9356,0\S,264,1.80802,263,107.74,68,150.076,0\O,267,1.49723,264,106.267,263,164.074,0\C,267,1.80714,264,97.5309,263,58.9739,0\H,269,1.0923,267,115.967,264,168.051,0\H,269,1.09303,267,108.675,264,-70.3284,0\H,269,1.09351,267,104.149,264,45.4079,0\\\@

 Total job time:  47.21s(wall), 141.64s(cpu) 
 Fri Dec  3 14:57:17 2021

        *************************************************************
        *                                                           *
        *  Thank you very much for using Q-Chem.  Have a nice day.  *
        *                                                           *
        *************************************************************


