                  Welcome to Q-Chem
     A Quantum Leap Into The Future Of Chemistry


 Q-Chem 5.2 (devel), Q-Chem, Inc., Pleasanton, CA (2019)

 Yihan Shao,  Zhengting Gan,  E. Epifanovsky,  A. T. B. Gilbert,  M. Wormit,  
 J. Kussmann,  A. W. Lange,  A. Behn,  Jia Deng,  Xintian Feng,  D. Ghosh,  
 M. Goldey,  P. R. Horn,  L. D. Jacobson,  I. Kaliman,  T. Kus,  A. Landau,  
 Jie Liu,  E. I. Proynov,  R. M. Richard,  R. P. Steele,  E. J. Sundstrom,  
 H. L. Woodcock III,  P. M. Zimmerman,  D. Zuev,  B. Alam,  B. Albrecht,  
 E. Alguire,  S. A. Baeppler,  D. Barton,  Z. Benda,  Y. A. Bernard,  
 E. J. Berquist,  K. B. Bravaya,  H. Burton,  K. Carter-Fenk,  D. Casanova,  
 Chun-Min Chang,  Yunqing Chen,  A. Chien,  K. D. Closser,  M. P. Coons,  
 S. Coriani,  S. Dasgupta,  A. L. Dempwolff,  M. Diedenhofen,  Hainam Do,  
 R. G. Edgar,  Po-Tung Fang,  S. Faraji,  S. Fatehi,  Qingguo Feng,  
 J. Fosso-Tande,  J. Gayvert,  Qinghui Ge,  A. Ghysels,  G. Gidofalvi,  
 J. Gomes,  J. Gonthier,  A. Gunina,  D. Hait,  M. W. D. Hanson-Heine,  
 P. H. P. Harbach,  A. W. Hauser,  M. F. Herbst,  J. E. Herr,  
 E. G. Hohenstein,  Z. C. Holden,  Kerwin Hui,  B. C. Huynh,  T.-C. Jagau,  
 Hyunjun Ji,  B. Kaduk,  K. Khistyaev,  Jaehoon Kim,  P. Klunzinger,  K. Koh,  
 D. Kosenkov,  L. Koulias,  T. Kowalczyk,  C. M. Krauter,  A. Kunitsa,  
 Ka Un Lao,  A. Laurent,  K. V. Lawler,  Joonho Lee,  D. Lefrancois,  
 S. Lehtola,  D. S. Levine,  Yi-Pei Li,  You-Sheng Lin,  Fenglai Liu,  
 Kuan-Yu Liu,  E. Livshits,  M. Loipersberger,  A. Luenser,  P. Manohar,  
 E. Mansoor,  S. F. Manzer,  Shan-Ping Mao,  Yuezhi Mao,  N. Mardirossian,  
 A. V. Marenich,  T. Markovich,  L. A. Martinez-Martinez,  S. A. Maurer,  
 N. J. Mayhall,  S. C. McKenzie,  J.-M. Mewes,  P. Morgante,  A. F. Morrison,  
 J. W. Mullinax,  K. Nanda,  T. S. Nguyen-Beck,  R. Olivares-Amaya,  
 J. A. Parkhill,  S. K. Paul,  F. Pavosevic,  Zheng Pei,  T. M. Perrine,  
 F. Plasser,  P. Pokhilko,  S. Prager,  A. Prociuk,  E. Ramos,  B. Rana,  
 D. R. Rehn,  F. Rob,  M. Scheurer,  M. Schneider,  N. Sergueev,  
 S. M. Sharada,  S. Sharma,  D. W. Small,  T. Stauch,  C. J. Stein,  
 T. Stein,  Yu-Chuan Su,  S. P. Veccham,  Zhen Tao,  A. J. W. Thom,  
 A. Tkatchenko,  T. Tsuchimochi,  N. M. Tubman,  L. Vogt,  M. L. Vidal,  
 O. Vydrov,  M. A. Watson,  J. Wenzel,  M. de Wergifosse,  T. A. Wesolowski,  
 A. White,  J. Witte,  A. Yamada,  Jun Yang,  K. Yao,  S. Yeganeh,  
 S. R. Yost,  Zhi-Qiang You,  A. Zech,  Igor Ying Zhang,  Xing Zhang,  
 Yan Zhao,  Ying Zhu,  B. R. Brooks,  G. K. L. Chan,  C. J. Cramer,  
 M. S. Gordon,  W. J. Hehre,  A. Klamt,  M. W. Schmidt,  C. D. Sherrill,  
 D. G. Truhlar,  A. Aspuru-Guzik,  R. Baer,  A. T. Bell,  N. A. Besley,  
 Jeng-Da Chai,  A. E. DePrince, III,  R. A. DiStasio Jr.,  A. Dreuw,  
 B. D. Dunietz,  T. R. Furlani,  Chao-Ping Hsu,  Yousung Jung,  Jing Kong,  
 D. S. Lambrecht,  WanZhen Liang,  C. Ochsenfeld,  V. A. Rassolov,  
 L. V. Slipchenko,  J. E. Subotnik,  T. Van Voorhis,  J. M. Herbert,  
 A. I. Krylov,  P. M. W. Gill,  M. Head-Gordon

 Contributors to earlier versions of Q-Chem not listed above: 
 R. D. Adamson,  B. Austin,  J. Baker,  G. J. O. Beran,  K. Brandhorst,  
 S. T. Brown,  E. F. C. Byrd,  A. K. Chakraborty,  C.-L. Cheng,  
 Siu Hung Chien,  D. M. Chipman,  D. L. Crittenden,  H. Dachsel,  
 R. J. Doerksen,  A. D. Dutoi,  L. Fusti-Molnar,  W. A. Goddard III,  
 A. Golubeva-Zadorozhnaya,  S. R. Gwaltney,  G. Hawkins,  A. Heyden,  
 S. Hirata,  G. Kedziora,  F. J. Keil,  C. Kelley,  Jihan Kim,  R. A. King,  
 R. Z. Khaliullin,  P. P. Korambath,  W. Kurlancheek,  A. M. Lee,  M. S. Lee,  
 S. V. Levchenko,  Ching Yeh Lin,  D. Liotard,  R. C. Lochan,  I. Lotan,  
 P. E. Maslen,  N. Nair,  D. P. O'Neill,  D. Neuhauser,  E. Neuscamman,  
 C. M. Oana,  R. Olson,  B. Peters,  R. Peverati,  P. A. Pieniazek,  
 Y. M. Rhee,  J. Ritchie,  M. A. Rohrdanz,  E. Rosta,  N. J. Russ,  
 H. F. Schaefer III,  N. E. Schultz,  N. Shenvi,  A. C. Simmonett,  A. Sodt,  
 D. Stuck,  K. S. Thanthiriwatte,  V. Vanovschi,  Tao Wang,  A. Warshel,  
 C. F. Williams,  Q. Wu,  X. Xu,  W. Zhang

 Please cite Q-Chem as follows:
 Y. Shao et al., Mol. Phys. 113, 184-215 (2015)
 DOI: 10.1080/00268976.2014.952696

 Q-Chem 5.2.2 for Intel X86 EM64T Linux

 Parts of Q-Chem use Armadillo 9.800.1 (Horizon Scraper).
 http://arma.sourceforge.net/

 Q-Chem begins on Fri Dec  3 12:08:47 2021  

Host: node029
0

     Scratch files written to /home/ymao90/scratch/r7.00_frame_0013_spade_B3LYP_dp20211203120846//

Checking the input file for inconsistencies... 	...done.

--------------------------------------------------------------
User input:
--------------------------------------------------------------
$molecule
0 1
--
0 1
C    21.93800   19.39900   30.87900  
C    22.90400   18.32300   30.35600  
C    23.33100   18.78200   28.95200  
C    24.09900   20.11500   28.96500  
C    23.31000   21.23100   29.66900  
C    22.68900   20.73600   30.98600  
H    23.89000   17.96600   28.47900  
H    23.85800   18.37100   30.89600  
H    21.08500   19.52600   30.20200  
H    21.55300   19.18800   31.88400  
H    25.01800   19.91100   29.52800  
H    24.27100   20.49500   27.95100  
H    23.91000   22.12300   29.88700  
H    22.43100   21.45700   29.05200  
H    23.40000   20.76400   31.82100  
H    21.98200   21.53800   31.23100  
H    22.49300   18.87500   28.25100  
N    22.17600   17.06100   30.24100  
H    21.18900   17.09900   30.01500  
C    22.81200   15.85100   30.05800  
H    22.15100   15.09600   29.59500  
O    23.99100   15.72700   30.33900  
--
0 1
C    25.65400   25.75700   27.46100  
H    25.91600   25.09100   26.63500  
H    24.99000   26.42600   26.90700  
H    26.51700   26.31300   27.83800  
S    24.79300   24.81700   28.74100  
C    24.43800   26.36800   29.59700  
H    23.46500   26.76400   29.29400  
H    24.42500   26.24100   30.68300  
H    25.21600   27.09600   29.35400  
O    25.85400   24.22500   29.61600  
C    18.57500   21.94100   25.39200  
H    19.29300   22.59100   25.89900  
H    18.55400   22.21100   24.33300  
H    17.64000   22.05000   25.94700  
S    19.29200   20.29700   25.61300  
C    19.89000   20.47600   27.30900  
H    19.25600   21.05500   27.98500  
H    19.76700   19.47900   27.74000  
H    20.91100   20.86800   27.32600  
O    20.60000   20.29800   24.88400  
C    27.10600   14.20200   29.68500  
H    26.22400   14.83800   29.79800  
H    27.93800   14.81700   30.03800  
H    27.34500   13.85900   28.67500  
S    26.92200   12.76800   30.76700  
C    27.38300   13.62700   32.28900  
H    26.57200   14.23700   32.69500  
H    27.62500   12.86900   33.03900  
H    28.35100   14.13200   32.26100  
O    28.09500   11.86300   30.54800  
C    20.84300   9.57200    27.53500  
H    21.45100   8.88600    28.13100  
H    20.31800   8.98100    26.78000  
H    21.52000   10.17400   26.92300  
S    19.69700   10.44500   28.62500  
C    18.95300   11.38700   27.27400  
H    18.35800   12.25900   27.55700  
H    19.79200   11.64700   26.62300  
H    18.30200   10.71200   26.71300  
O    20.48600   11.57700   29.20700  
C    30.52200   17.98900   27.61600  
H    31.00200   18.03200   26.63500  
H    30.18800   18.98000   27.93400  
H    31.15500   17.39600   28.28100  
S    28.99300   17.03000   27.51600  
C    28.48400   17.31200   29.22700  
H    28.24300   18.37400   29.32000  
H    27.58500   16.70800   29.36900  
H    29.18500   16.94900   29.98200  
O    29.39700   15.59000   27.57800  
C    26.02400   22.79000   36.28400  
H    25.64800   22.06100   35.56200  
H    25.26800   23.38900   36.79800  
H    26.72900   23.53000   35.89500  
S    26.94800   21.79300   37.47400  
C    25.39700   21.09800   38.08800  
H    24.82400   21.97800   38.39200  
H    24.92600   20.47200   37.32600  
H    25.69800   20.43100   38.90000  
O    27.22200   22.71100   38.62500  
C    22.12800   8.35300    30.90100  
H    22.48100   8.69700    29.92600  
H    22.97700   8.28100    31.58600  
H    21.67800   7.37000    30.74200  
S    20.88000   9.40400    31.67900  
C    21.96300   10.79200   32.08700  
H    22.67000   10.37100   32.80700  
H    22.35700   11.25600   31.17900  
H    21.49100   11.54500   32.72200  
O    20.82200   8.69000    32.99400  
C    18.16700   23.02800   34.08900  
H    17.73200   22.53200   33.21800  
H    17.53700   23.77100   34.58500  
H    19.13300   23.51400   33.92900  
S    18.41800   21.85400   35.44000  
C    19.07600   23.10100   36.57000  
H    19.77100   23.73300   36.01000  
H    18.35600   23.59300   37.22900  
H    19.73600   22.60300   37.28500  
O    19.59900   21.02800   35.03500  
C    27.33000   22.31000   31.93300  
H    26.24500   22.22800   31.82100  
H    27.51000   23.14200   32.61900  
H    27.83600   22.64200   31.02300  
S    28.04700   20.86600   32.74700  
C    27.12900   19.61100   31.82500  
H    26.06700   19.84500   31.92700  
H    27.32600   19.84800   30.77600  
H    27.35700   18.56400   32.03800  
O    27.39100   20.75300   34.08800  
C    24.75700   13.87100   26.40700  
H    25.65200   13.77100   27.02700  
H    24.77800   13.27400   25.49200  
H    24.54700   14.86200   25.99900  
S    23.33700   13.43800   27.43800  
C    23.69100   11.68300   27.69000  
H    22.90400   11.19300   28.26800  
H    23.76600   11.32300   26.66100  
H    24.63000   11.65200   28.24800  
O    22.16100   13.56400   26.52100  
C    29.42500   27.10100   27.82400  
H    30.42100   27.53100   27.95500  
H    28.99800   27.04900   26.81900  
H    28.72800   27.71900   28.39500  
S    29.31900   25.50800   28.67100  
C    29.96000   26.28900   30.16900  
H    30.92300   26.74300   29.92200  
H    29.16700   26.93900   30.54700  
H    30.14500   25.49300   30.89500  
O    30.48600   24.71700   28.16800  
C    23.84400   23.82500   33.03600  
H    24.24100   24.68900   32.49700  
H    24.72600   23.33200   33.45300  
H    23.25900   23.29000   32.28400  
S    22.89100   24.30100   34.49500  
C    22.51500   22.62300   35.04900  
H    23.38400   21.97800   34.89500  
H    22.27500   22.66800   36.11500  
H    21.67500   22.37000   34.39800  
O    21.56400   24.69100   33.92400  
C    29.50400   12.18500   27.79900  
H    30.17400   12.76100   27.15500  
H    29.16000   12.72000   28.68800  
H    29.98600   11.22000   27.97300  
S    28.05000   11.92900   26.75500  
C    27.73200   10.25800   27.36500  
H    26.99600   9.80600    26.69400  
H    28.60200   9.60500    27.46700  
H    27.28700   10.48700   28.33700  
O    28.56200   11.82100   25.35300  
C    23.59500   13.91900   33.03400  
H    22.85200   13.45300   32.38200  
H    23.02000   14.70600   33.52900  
H    24.50200   14.16700   32.47700  
S    24.03600   12.66500   34.25800  
C    24.86700   13.72500   35.46400  
H    24.08300   14.40300   35.80900  
H    25.14800   13.21400   36.38800  
H    25.74500   14.22700   35.05100  
O    25.12800   12.01100   33.47000  
C    31.09500   18.15300   31.94300  
H    30.51000   18.91400   31.42000  
H    31.75200   18.73000   32.59900  
H    31.56800   17.38100   31.33000  
S    29.87700   17.39600   33.04300  
C    31.10300   16.29800   33.78800  
H    31.71900   16.89800   34.46300  
H    30.55300   15.54200   34.35400  
H    31.66700   15.73700   33.03800  
O    29.00500   16.44800   32.28100  
C    20.11300   24.82000   30.54400  
H    21.01700   24.73000   31.15200  
H    20.00400   25.85900   30.22400  
H    19.19600   24.58600   31.09200  
S    20.19200   23.84500   29.02500  
C    18.53100   24.35300   28.52700  
H    18.52600   25.41900   28.28900  
H    18.09100   23.78200   27.70500  
H    17.88900   24.19300   29.39800  
O    20.06800   22.46900   29.60000  
C    17.42800   20.35100   30.24500  
H    17.99800   19.43900   30.05000  
H    16.64700   20.29700   29.48200  
H    18.07800   21.21800   30.10400  
S    16.92800   20.35100   31.98100  
C    18.60600   19.81900   32.38800  
H    19.23600   20.59500   31.94600  
H    18.63000   19.76100   33.47900  
H    18.87600   18.82400   32.02300  
O    16.21300   19.04900   32.16500  
C    27.14000   27.92500   34.83900  
H    26.38200   28.41800   34.22500  
H    26.73700   28.01900   35.85100  
H    28.16700   28.29200   34.76500  
S    27.17000   26.15800   34.46100  
C    27.30800   26.25800   32.66200  
H    26.70900   27.11800   32.35300  
H    28.35100   26.35200   32.34900  
H    26.92700   25.34700   32.19400  
O    25.76500   25.69300   34.68400  
C    19.65100   14.54400   32.41800  
H    20.43000   14.92700   31.75400  
H    19.69500   13.45400   32.49300  
H    18.68100   14.79800   31.98300  
S    19.71900   15.15300   34.11700  
C    20.32900   16.81200   33.73800  
H    20.71900   17.27300   34.64900  
H    21.08300   16.60000   32.97600  
H    19.47500   17.35900   33.33200  
O    20.87200   14.36800   34.66000  
C    22.79300   22.93600   23.60000  
H    23.31400   22.75700   22.65600  
H    22.11700   22.11800   23.86100  
H    22.39000   23.94900   23.68000  
S    23.99000   22.85800   24.95200  
C    22.72800   22.74900   26.24100  
H    22.70200   21.67300   26.43000  
H    23.26700   23.17100   27.09400  
H    21.78900   23.27800   26.06300  
O    24.56700   24.23900   24.96700  
C    20.95800   16.38000   25.89100  
H    21.21900   15.84000   26.80400  
H    21.43000   15.88300   25.04000  
H    21.31600   17.41200   25.84100  
S    19.17900   16.33500   25.57700  
C    19.08400   14.59500   25.09900  
H    19.39100   13.94400   25.92300  
H    18.03000   14.42200   24.86900  
H    19.64400   14.60400   24.16000  
O    18.99300   17.14900   24.33500  
C    24.66500   19.33200   34.52100  
H    25.08100   20.01500   33.77600  
H    24.19100   18.54600   33.92600  
H    24.00600   19.76300   35.27800  
S    25.94500   18.53400   35.51700  
C    25.94100   16.98800   34.58100  
H    24.89500   16.68900   34.47900  
H    26.38300   17.13900   33.59300  
H    26.48600   16.38300   35.31000  
O    25.18100   18.01100   36.69300  
C    24.81400   18.10500   22.62700  
H    24.68000   17.38800   21.81400  
H    24.77700   19.13200   22.25600  
H    25.76800   17.80500   23.06800  
S    23.47900   17.75100   23.79300  
C    23.71300   19.01500   25.06200  
H    24.67500   18.93900   25.57500  
H    23.63500   19.99100   24.57600  
H    22.83400   18.88200   25.69800  
O    23.73600   16.40100   24.38700  
C    21.83000   26.94000   24.41300  
H    21.12000   26.81400   23.59200  
H    22.33400   27.90600   24.34300  
H    22.58300   26.16200   24.56200  
S    20.78000   27.05800   25.87900  
C    22.20400   27.19400   26.98300  
H    22.95900   26.40700   26.92100  
H    22.76100   28.10700   26.75800  
H    21.76200   27.32100   27.97500  
O    20.39800   25.62100   26.05900  
C    29.12600   21.73400   26.24600  
H    29.48700   20.87100   26.81200  
H    29.31100   21.64100   25.17300  
H    29.49000   22.69900   26.60800  
S    27.32900   21.73500   26.43500  
C    27.45400   21.75700   28.23700  
H    27.97300   22.69500   28.44900  
H    26.51700   21.72100   28.79900  
H    28.11500   20.93800   28.53300  
O    27.00300   20.32100   26.06400  
C    29.43500   14.81400   23.79700  
H    28.67200   14.03300   23.74500  
H    30.28200   14.70800   23.11400  
H    29.81200   14.72900   24.82000  
S    28.54900   16.38600   23.70000  
C    27.06000   15.87500   24.58900  
H    26.45000   16.78200   24.57900  
H    26.67300   15.07800   23.94800  
H    27.19500   15.50700   25.60900  
O    28.14900   16.50000   22.26200  
C    16.91100   16.51700   29.63900  
H    16.27300   16.10100   28.85500  
H    17.11900   15.91900   30.52900  
H    16.58800   17.51600   29.94400  
S    18.46000   16.76900   28.74300  
C    18.80800   15.00100   28.60700  
H    18.85900   14.53600   29.59400  
H    17.96500   14.56000   28.06800  
H    19.79300   14.88900   28.14700  
O    19.48300   17.11100   29.78100  
C    32.04000   22.15200   28.74900  
H    31.73200   21.76600   27.77400  
H    32.27600   23.21600   28.67200  
H    32.84000   21.53000   29.15900  
S    30.72200   22.11800   29.98400  
C    31.76400   22.03000   31.45800  
H    32.22500   23.01700   31.54500  
H    31.04500   21.81700   32.25200  
H    32.34700   21.13400   31.22800  
O    30.23700   20.70300   29.93100  
$end

$rem
JOBTYPE  SP
METHOD  B3LYP
BASIS  6-31+G(D)
SYMMETRY  FALSE
SYM_IGNORE  TRUE
MEM_TOTAL  16000
MEM_STATIC  8000
MAX_SUB_FILE_NUM  16000
BASIS_LIN_DEP_THRESH  6
THRESH  14
SCF_CONVERGENCE  8
GEN_SCFMAN  TRUE
SCF_GUESS  SAD
FD_MAT_VEC_PROD  FALSE
XC_GRID  000075000302
NL_GRID  1
MAX_SCF_CYCLES  200
ENV_METHOD  B3LYP
GEN_SCFMAN_EMBED  TRUE
SPADE_PARTITION  TRUE
$end

$development
embedding_early_stop  1
$end

--------------------------------------------------------------
 ----------------------------------------------------------------
             Standard Nuclear Orientation (Angstroms)
    I     Atom           X                Y                Z
 ----------------------------------------------------------------
    1      C      21.9380000000    19.3990000000    30.8790000000
    2      C      22.9040000000    18.3230000000    30.3560000000
    3      C      23.3310000000    18.7820000000    28.9520000000
    4      C      24.0990000000    20.1150000000    28.9650000000
    5      C      23.3100000000    21.2310000000    29.6690000000
    6      C      22.6890000000    20.7360000000    30.9860000000
    7      H      23.8900000000    17.9660000000    28.4790000000
    8      H      23.8580000000    18.3710000000    30.8960000000
    9      H      21.0850000000    19.5260000000    30.2020000000
   10      H      21.5530000000    19.1880000000    31.8840000000
   11      H      25.0180000000    19.9110000000    29.5280000000
   12      H      24.2710000000    20.4950000000    27.9510000000
   13      H      23.9100000000    22.1230000000    29.8870000000
   14      H      22.4310000000    21.4570000000    29.0520000000
   15      H      23.4000000000    20.7640000000    31.8210000000
   16      H      21.9820000000    21.5380000000    31.2310000000
   17      H      22.4930000000    18.8750000000    28.2510000000
   18      N      22.1760000000    17.0610000000    30.2410000000
   19      H      21.1890000000    17.0990000000    30.0150000000
   20      C      22.8120000000    15.8510000000    30.0580000000
   21      H      22.1510000000    15.0960000000    29.5950000000
   22      O      23.9910000000    15.7270000000    30.3390000000
   23      C      25.6540000000    25.7570000000    27.4610000000
   24      H      25.9160000000    25.0910000000    26.6350000000
   25      H      24.9900000000    26.4260000000    26.9070000000
   26      H      26.5170000000    26.3130000000    27.8380000000
   27      S      24.7930000000    24.8170000000    28.7410000000
   28      C      24.4380000000    26.3680000000    29.5970000000
   29      H      23.4650000000    26.7640000000    29.2940000000
   30      H      24.4250000000    26.2410000000    30.6830000000
   31      H      25.2160000000    27.0960000000    29.3540000000
   32      O      25.8540000000    24.2250000000    29.6160000000
   33      C      18.5750000000    21.9410000000    25.3920000000
   34      H      19.2930000000    22.5910000000    25.8990000000
   35      H      18.5540000000    22.2110000000    24.3330000000
   36      H      17.6400000000    22.0500000000    25.9470000000
   37      S      19.2920000000    20.2970000000    25.6130000000
   38      C      19.8900000000    20.4760000000    27.3090000000
   39      H      19.2560000000    21.0550000000    27.9850000000
   40      H      19.7670000000    19.4790000000    27.7400000000
   41      H      20.9110000000    20.8680000000    27.3260000000
   42      O      20.6000000000    20.2980000000    24.8840000000
   43      C      27.1060000000    14.2020000000    29.6850000000
   44      H      26.2240000000    14.8380000000    29.7980000000
   45      H      27.9380000000    14.8170000000    30.0380000000
   46      H      27.3450000000    13.8590000000    28.6750000000
   47      S      26.9220000000    12.7680000000    30.7670000000
   48      C      27.3830000000    13.6270000000    32.2890000000
   49      H      26.5720000000    14.2370000000    32.6950000000
   50      H      27.6250000000    12.8690000000    33.0390000000
   51      H      28.3510000000    14.1320000000    32.2610000000
   52      O      28.0950000000    11.8630000000    30.5480000000
   53      C      20.8430000000     9.5720000000    27.5350000000
   54      H      21.4510000000     8.8860000000    28.1310000000
   55      H      20.3180000000     8.9810000000    26.7800000000
   56      H      21.5200000000    10.1740000000    26.9230000000
   57      S      19.6970000000    10.4450000000    28.6250000000
   58      C      18.9530000000    11.3870000000    27.2740000000
   59      H      18.3580000000    12.2590000000    27.5570000000
   60      H      19.7920000000    11.6470000000    26.6230000000
   61      H      18.3020000000    10.7120000000    26.7130000000
   62      O      20.4860000000    11.5770000000    29.2070000000
   63      C      30.5220000000    17.9890000000    27.6160000000
   64      H      31.0020000000    18.0320000000    26.6350000000
   65      H      30.1880000000    18.9800000000    27.9340000000
   66      H      31.1550000000    17.3960000000    28.2810000000
   67      S      28.9930000000    17.0300000000    27.5160000000
   68      C      28.4840000000    17.3120000000    29.2270000000
   69      H      28.2430000000    18.3740000000    29.3200000000
   70      H      27.5850000000    16.7080000000    29.3690000000
   71      H      29.1850000000    16.9490000000    29.9820000000
   72      O      29.3970000000    15.5900000000    27.5780000000
   73      C      26.0240000000    22.7900000000    36.2840000000
   74      H      25.6480000000    22.0610000000    35.5620000000
   75      H      25.2680000000    23.3890000000    36.7980000000
   76      H      26.7290000000    23.5300000000    35.8950000000
   77      S      26.9480000000    21.7930000000    37.4740000000
   78      C      25.3970000000    21.0980000000    38.0880000000
   79      H      24.8240000000    21.9780000000    38.3920000000
   80      H      24.9260000000    20.4720000000    37.3260000000
   81      H      25.6980000000    20.4310000000    38.9000000000
   82      O      27.2220000000    22.7110000000    38.6250000000
   83      C      22.1280000000     8.3530000000    30.9010000000
   84      H      22.4810000000     8.6970000000    29.9260000000
   85      H      22.9770000000     8.2810000000    31.5860000000
   86      H      21.6780000000     7.3700000000    30.7420000000
   87      S      20.8800000000     9.4040000000    31.6790000000
   88      C      21.9630000000    10.7920000000    32.0870000000
   89      H      22.6700000000    10.3710000000    32.8070000000
   90      H      22.3570000000    11.2560000000    31.1790000000
   91      H      21.4910000000    11.5450000000    32.7220000000
   92      O      20.8220000000     8.6900000000    32.9940000000
   93      C      18.1670000000    23.0280000000    34.0890000000
   94      H      17.7320000000    22.5320000000    33.2180000000
   95      H      17.5370000000    23.7710000000    34.5850000000
   96      H      19.1330000000    23.5140000000    33.9290000000
   97      S      18.4180000000    21.8540000000    35.4400000000
   98      C      19.0760000000    23.1010000000    36.5700000000
   99      H      19.7710000000    23.7330000000    36.0100000000
  100      H      18.3560000000    23.5930000000    37.2290000000
  101      H      19.7360000000    22.6030000000    37.2850000000
  102      O      19.5990000000    21.0280000000    35.0350000000
  103      C      27.3300000000    22.3100000000    31.9330000000
  104      H      26.2450000000    22.2280000000    31.8210000000
  105      H      27.5100000000    23.1420000000    32.6190000000
  106      H      27.8360000000    22.6420000000    31.0230000000
  107      S      28.0470000000    20.8660000000    32.7470000000
  108      C      27.1290000000    19.6110000000    31.8250000000
  109      H      26.0670000000    19.8450000000    31.9270000000
  110      H      27.3260000000    19.8480000000    30.7760000000
  111      H      27.3570000000    18.5640000000    32.0380000000
  112      O      27.3910000000    20.7530000000    34.0880000000
  113      C      24.7570000000    13.8710000000    26.4070000000
  114      H      25.6520000000    13.7710000000    27.0270000000
  115      H      24.7780000000    13.2740000000    25.4920000000
  116      H      24.5470000000    14.8620000000    25.9990000000
  117      S      23.3370000000    13.4380000000    27.4380000000
  118      C      23.6910000000    11.6830000000    27.6900000000
  119      H      22.9040000000    11.1930000000    28.2680000000
  120      H      23.7660000000    11.3230000000    26.6610000000
  121      H      24.6300000000    11.6520000000    28.2480000000
  122      O      22.1610000000    13.5640000000    26.5210000000
  123      C      29.4250000000    27.1010000000    27.8240000000
  124      H      30.4210000000    27.5310000000    27.9550000000
  125      H      28.9980000000    27.0490000000    26.8190000000
  126      H      28.7280000000    27.7190000000    28.3950000000
  127      S      29.3190000000    25.5080000000    28.6710000000
  128      C      29.9600000000    26.2890000000    30.1690000000
  129      H      30.9230000000    26.7430000000    29.9220000000
  130      H      29.1670000000    26.9390000000    30.5470000000
  131      H      30.1450000000    25.4930000000    30.8950000000
  132      O      30.4860000000    24.7170000000    28.1680000000
  133      C      23.8440000000    23.8250000000    33.0360000000
  134      H      24.2410000000    24.6890000000    32.4970000000
  135      H      24.7260000000    23.3320000000    33.4530000000
  136      H      23.2590000000    23.2900000000    32.2840000000
  137      S      22.8910000000    24.3010000000    34.4950000000
  138      C      22.5150000000    22.6230000000    35.0490000000
  139      H      23.3840000000    21.9780000000    34.8950000000
  140      H      22.2750000000    22.6680000000    36.1150000000
  141      H      21.6750000000    22.3700000000    34.3980000000
  142      O      21.5640000000    24.6910000000    33.9240000000
  143      C      29.5040000000    12.1850000000    27.7990000000
  144      H      30.1740000000    12.7610000000    27.1550000000
  145      H      29.1600000000    12.7200000000    28.6880000000
  146      H      29.9860000000    11.2200000000    27.9730000000
  147      S      28.0500000000    11.9290000000    26.7550000000
  148      C      27.7320000000    10.2580000000    27.3650000000
  149      H      26.9960000000     9.8060000000    26.6940000000
  150      H      28.6020000000     9.6050000000    27.4670000000
  151      H      27.2870000000    10.4870000000    28.3370000000
  152      O      28.5620000000    11.8210000000    25.3530000000
  153      C      23.5950000000    13.9190000000    33.0340000000
  154      H      22.8520000000    13.4530000000    32.3820000000
  155      H      23.0200000000    14.7060000000    33.5290000000
  156      H      24.5020000000    14.1670000000    32.4770000000
  157      S      24.0360000000    12.6650000000    34.2580000000
  158      C      24.8670000000    13.7250000000    35.4640000000
  159      H      24.0830000000    14.4030000000    35.8090000000
  160      H      25.1480000000    13.2140000000    36.3880000000
  161      H      25.7450000000    14.2270000000    35.0510000000
  162      O      25.1280000000    12.0110000000    33.4700000000
  163      C      31.0950000000    18.1530000000    31.9430000000
  164      H      30.5100000000    18.9140000000    31.4200000000
  165      H      31.7520000000    18.7300000000    32.5990000000
  166      H      31.5680000000    17.3810000000    31.3300000000
  167      S      29.8770000000    17.3960000000    33.0430000000
  168      C      31.1030000000    16.2980000000    33.7880000000
  169      H      31.7190000000    16.8980000000    34.4630000000
  170      H      30.5530000000    15.5420000000    34.3540000000
  171      H      31.6670000000    15.7370000000    33.0380000000
  172      O      29.0050000000    16.4480000000    32.2810000000
  173      C      20.1130000000    24.8200000000    30.5440000000
  174      H      21.0170000000    24.7300000000    31.1520000000
  175      H      20.0040000000    25.8590000000    30.2240000000
  176      H      19.1960000000    24.5860000000    31.0920000000
  177      S      20.1920000000    23.8450000000    29.0250000000
  178      C      18.5310000000    24.3530000000    28.5270000000
  179      H      18.5260000000    25.4190000000    28.2890000000
  180      H      18.0910000000    23.7820000000    27.7050000000
  181      H      17.8890000000    24.1930000000    29.3980000000
  182      O      20.0680000000    22.4690000000    29.6000000000
  183      C      17.4280000000    20.3510000000    30.2450000000
  184      H      17.9980000000    19.4390000000    30.0500000000
  185      H      16.6470000000    20.2970000000    29.4820000000
  186      H      18.0780000000    21.2180000000    30.1040000000
  187      S      16.9280000000    20.3510000000    31.9810000000
  188      C      18.6060000000    19.8190000000    32.3880000000
  189      H      19.2360000000    20.5950000000    31.9460000000
  190      H      18.6300000000    19.7610000000    33.4790000000
  191      H      18.8760000000    18.8240000000    32.0230000000
  192      O      16.2130000000    19.0490000000    32.1650000000
  193      C      27.1400000000    27.9250000000    34.8390000000
  194      H      26.3820000000    28.4180000000    34.2250000000
  195      H      26.7370000000    28.0190000000    35.8510000000
  196      H      28.1670000000    28.2920000000    34.7650000000
  197      S      27.1700000000    26.1580000000    34.4610000000
  198      C      27.3080000000    26.2580000000    32.6620000000
  199      H      26.7090000000    27.1180000000    32.3530000000
  200      H      28.3510000000    26.3520000000    32.3490000000
  201      H      26.9270000000    25.3470000000    32.1940000000
  202      O      25.7650000000    25.6930000000    34.6840000000
  203      C      19.6510000000    14.5440000000    32.4180000000
  204      H      20.4300000000    14.9270000000    31.7540000000
  205      H      19.6950000000    13.4540000000    32.4930000000
  206      H      18.6810000000    14.7980000000    31.9830000000
  207      S      19.7190000000    15.1530000000    34.1170000000
  208      C      20.3290000000    16.8120000000    33.7380000000
  209      H      20.7190000000    17.2730000000    34.6490000000
  210      H      21.0830000000    16.6000000000    32.9760000000
  211      H      19.4750000000    17.3590000000    33.3320000000
  212      O      20.8720000000    14.3680000000    34.6600000000
  213      C      22.7930000000    22.9360000000    23.6000000000
  214      H      23.3140000000    22.7570000000    22.6560000000
  215      H      22.1170000000    22.1180000000    23.8610000000
  216      H      22.3900000000    23.9490000000    23.6800000000
  217      S      23.9900000000    22.8580000000    24.9520000000
  218      C      22.7280000000    22.7490000000    26.2410000000
  219      H      22.7020000000    21.6730000000    26.4300000000
  220      H      23.2670000000    23.1710000000    27.0940000000
  221      H      21.7890000000    23.2780000000    26.0630000000
  222      O      24.5670000000    24.2390000000    24.9670000000
  223      C      20.9580000000    16.3800000000    25.8910000000
  224      H      21.2190000000    15.8400000000    26.8040000000
  225      H      21.4300000000    15.8830000000    25.0400000000
  226      H      21.3160000000    17.4120000000    25.8410000000
  227      S      19.1790000000    16.3350000000    25.5770000000
  228      C      19.0840000000    14.5950000000    25.0990000000
  229      H      19.3910000000    13.9440000000    25.9230000000
  230      H      18.0300000000    14.4220000000    24.8690000000
  231      H      19.6440000000    14.6040000000    24.1600000000
  232      O      18.9930000000    17.1490000000    24.3350000000
  233      C      24.6650000000    19.3320000000    34.5210000000
  234      H      25.0810000000    20.0150000000    33.7760000000
  235      H      24.1910000000    18.5460000000    33.9260000000
  236      H      24.0060000000    19.7630000000    35.2780000000
  237      S      25.9450000000    18.5340000000    35.5170000000
  238      C      25.9410000000    16.9880000000    34.5810000000
  239      H      24.8950000000    16.6890000000    34.4790000000
  240      H      26.3830000000    17.1390000000    33.5930000000
  241      H      26.4860000000    16.3830000000    35.3100000000
  242      O      25.1810000000    18.0110000000    36.6930000000
  243      C      24.8140000000    18.1050000000    22.6270000000
  244      H      24.6800000000    17.3880000000    21.8140000000
  245      H      24.7770000000    19.1320000000    22.2560000000
  246      H      25.7680000000    17.8050000000    23.0680000000
  247      S      23.4790000000    17.7510000000    23.7930000000
  248      C      23.7130000000    19.0150000000    25.0620000000
  249      H      24.6750000000    18.9390000000    25.5750000000
  250      H      23.6350000000    19.9910000000    24.5760000000
  251      H      22.8340000000    18.8820000000    25.6980000000
  252      O      23.7360000000    16.4010000000    24.3870000000
  253      C      21.8300000000    26.9400000000    24.4130000000
  254      H      21.1200000000    26.8140000000    23.5920000000
  255      H      22.3340000000    27.9060000000    24.3430000000
  256      H      22.5830000000    26.1620000000    24.5620000000
  257      S      20.7800000000    27.0580000000    25.8790000000
  258      C      22.2040000000    27.1940000000    26.9830000000
  259      H      22.9590000000    26.4070000000    26.9210000000
  260      H      22.7610000000    28.1070000000    26.7580000000
  261      H      21.7620000000    27.3210000000    27.9750000000
  262      O      20.3980000000    25.6210000000    26.0590000000
  263      C      29.1260000000    21.7340000000    26.2460000000
  264      H      29.4870000000    20.8710000000    26.8120000000
  265      H      29.3110000000    21.6410000000    25.1730000000
  266      H      29.4900000000    22.6990000000    26.6080000000
  267      S      27.3290000000    21.7350000000    26.4350000000
  268      C      27.4540000000    21.7570000000    28.2370000000
  269      H      27.9730000000    22.6950000000    28.4490000000
  270      H      26.5170000000    21.7210000000    28.7990000000
  271      H      28.1150000000    20.9380000000    28.5330000000
  272      O      27.0030000000    20.3210000000    26.0640000000
  273      C      29.4350000000    14.8140000000    23.7970000000
  274      H      28.6720000000    14.0330000000    23.7450000000
  275      H      30.2820000000    14.7080000000    23.1140000000
  276      H      29.8120000000    14.7290000000    24.8200000000
  277      S      28.5490000000    16.3860000000    23.7000000000
  278      C      27.0600000000    15.8750000000    24.5890000000
  279      H      26.4500000000    16.7820000000    24.5790000000
  280      H      26.6730000000    15.0780000000    23.9480000000
  281      H      27.1950000000    15.5070000000    25.6090000000
  282      O      28.1490000000    16.5000000000    22.2620000000
  283      C      16.9110000000    16.5170000000    29.6390000000
  284      H      16.2730000000    16.1010000000    28.8550000000
  285      H      17.1190000000    15.9190000000    30.5290000000
  286      H      16.5880000000    17.5160000000    29.9440000000
  287      S      18.4600000000    16.7690000000    28.7430000000
  288      C      18.8080000000    15.0010000000    28.6070000000
  289      H      18.8590000000    14.5360000000    29.5940000000
  290      H      17.9650000000    14.5600000000    28.0680000000
  291      H      19.7930000000    14.8890000000    28.1470000000
  292      O      19.4830000000    17.1110000000    29.7810000000
  293      C      32.0400000000    22.1520000000    28.7490000000
  294      H      31.7320000000    21.7660000000    27.7740000000
  295      H      32.2760000000    23.2160000000    28.6720000000
  296      H      32.8400000000    21.5300000000    29.1590000000
  297      S      30.7220000000    22.1180000000    29.9840000000
  298      C      31.7640000000    22.0300000000    31.4580000000
  299      H      32.2250000000    23.0170000000    31.5450000000
  300      H      31.0450000000    21.8170000000    32.2520000000
  301      H      32.3470000000    21.1340000000    31.2280000000
  302      O      30.2370000000    20.7030000000    29.9310000000
 ----------------------------------------------------------------
 Nuclear Repulsion Energy =       51432.26217732 hartrees
 There are      623 alpha and      623 beta electrons
 Requested basis set is 6-31+G(d)
 There are 995 shells and 2773 basis functions

 Total QAlloc Memory Limit  16000 MB
 Mega-Array Size      7821 MB
 MEM_STATIC part      8000 MB
 A cutoff of  1.0D-14 yielded 189149 shell pairs
 There are   1637054 function pairs
 Smallest overlap matrix eigenvalue = 4.59E-07
 Linear dependence detected in AO basis
 Tighter screening thresholds may be required for diffuse basis sets
 Use S2THRESH > 14 and THRESH = 14 in case of SCF convergence issues
 Number of orthogonalized atomic orbitals = 2771
 Maximum deviation from orthogonality = 2.038E-10

 Scale SEOQF with 1.000000e-03/1.000000e-03/1.000000e-03

 Standard Electronic Orientation quadrupole field applied
 Nucleus-field energy     =    -0.0000006061 hartrees
 Guess from superposition of atomic densities
 Warning:  Energy on first SCF cycle will be non-variational
 SAD guess density has 1246.000002 electrons

 -----------------------------------------------------------------------
  General SCF calculation program by
  Eric Jon Sundstrom, Paul Horn, Yuezhi Mao, Dmitri Zuev, Alec White,
  David Stuck, Shaama M.S., Shane Yost, Joonho Lee, David Small,
  Daniel Levine, Susi Lehtola, Hugh Burton, Evgeny Epifanovsky,
  Bang C. Huynh
 -----------------------------------------------------------------------
=================================================
        Doing projection-based embedding         
      F. Manby et al. JCTC, 8, 2564 (2012)       
=================================================

****************************************************
   Low-level SCF calculation for the whole system   
****************************************************
----------------------------------------------
 Summary of the low-level theory: 
 Exchange:     0.2000 Hartree-Fock + 0.0800 Slater + 0.7200 B88
 Correlation:  0.1900 VWN1RPA + 0.8100 LYP
 Using Euler-Maclaurin-Lebedev (75,302) quadrature formula
----------------------------------------------
 using 16 threads for integral computing
 -------------------------------------------------------
 OpenMP Integral computing Module                
 Release: version 2.0, May 2017, Q-Chem Inc. Pleasanton 
 -------------------------------------------------------
 A restricted SCF calculation will be
 performed using DIIS
 SCF converges when DIIS error is below 1.0e-08
 ---------------------------------------
  Cycle       Energy         DIIS error
 ---------------------------------------
    1  -15913.9916662874      1.33e-02  
    2  -15888.8768278580      2.47e-03  
    3  -15869.5298604643      4.98e-03  
    4  -15886.9515912368      1.84e-03  
    5  -15893.4624147670      6.66e-04  
    6  -15893.8371011742      2.67e-04  
    7  -15893.8740658261      1.54e-04  
    8  -15893.8925575323      3.07e-05  
    9  -15893.8932967957      1.52e-05  
   10  -15893.8934698861      7.11e-06  
   11  -15893.8935054096      2.55e-06  
   12  -15893.8935120575      1.30e-06  
   13  -15893.8935134500      5.75e-07  
   14  -15893.8935137086      1.64e-07  
   15  -15893.8935137309      4.87e-08  
   16  -15893.8935137329      2.35e-08  
   17  -15893.8935137330      6.90e-09  Convergence criterion met
 ---------------------------------------
 SCF time:   CPU 240715.03s  wall 15224.00s 
 SCF   energy in the final basis set =   -15893.8935137330
 Total energy in the final basis set =   -15893.8935137330

****************************************************
             Start embedding calculation            
****************************************************
----------------------------------------------
 Summary of the high-level theory: 
 Exchange:     0.2000 Hartree-Fock + 0.0800 Slater + 0.7200 B88
 Correlation:  0.1900 VWN1RPA + 0.8100 LYP
 Using Euler-Maclaurin-Lebedev (75,302) quadrature formula
----------------------------------------------
Doing R-in-R Embedding Calculation
Number of fragments: 2
Embedded fragment(s): 1 
NOcc for each fragment
           35
          588
NBasis for each fragment
          197
         2576
Variational space of the embedded problem: 
NOcc (active)  = 35
NOcc (fixed)   = 588
NVir (total)   = 2148
Read converged orbitals from disk
=========================================================
       Doing SPADE partition for the orbital space       
     D. CLaudino and N. Mayhall JCTC 15, 1053 (2019)     
=========================================================
SPADE singular values:
 1.0000 1.0000 1.0000 1.0000 1.0000 1.0000 1.0000 1.0000 1.0000 0.9999
 0.9998 0.9998 0.9997 0.9996 0.9996 0.9995 0.9994 0.9989 0.9988 0.9983
 0.9982 0.9968 0.9962 0.9961 0.9952 0.9948 0.9943 0.9941 0.9928 0.9919
 0.9910 0.9905 0.9893 0.9864 0.9799 0.2162 0.1948 0.1646 0.1563 0.1543
 0.1479 0.1260 0.1210 0.1141 0.1063 0.0940 0.0897 0.0862 0.0730 0.0640
 0.0551 0.0528 0.0484 0.0438 0.0374 0.0359 0.0348 0.0319 0.0311 0.0290
 0.0277 0.0247 0.0240 0.0227 0.0218 0.0201 0.0200 0.0187 0.0173 0.0166
 0.0156 0.0152 0.0151 0.0148 0.0135 0.0128 0.0121 0.0115 0.0105 0.0100
 0.0091 0.0088 0.0082 0.0079 0.0076 0.0073 0.0069 0.0067 0.0065 0.0063
 0.0061 0.0060 0.0053 0.0052 0.0049 0.0045 0.0044 0.0043 0.0041 0.0036
 0.0035 0.0034 0.0031 0.0029 0.0028 0.0027 0.0025 0.0024 0.0023 0.0022
 0.0021 0.0021 0.0020 0.0019 0.0019 0.0018 0.0017 0.0017 0.0016 0.0016
 0.0015 0.0014 0.0014 0.0013 0.0012 0.0012 0.0011 0.0010 0.0010 0.0010
 0.0010 0.0009 0.0009 0.0008 0.0008 0.0008 0.0008 0.0007 0.0007 0.0007
 0.0007 0.0006 0.0006 0.0006 0.0006 0.0005 0.0005 0.0005 0.0005 0.0004
 0.0004 0.0004 0.0004 0.0004 0.0004 0.0003 0.0003 0.0003 0.0003 0.0003
 0.0003 0.0003 0.0003 0.0003 0.0003 0.0002 0.0002 0.0002 0.0002 0.0002
 0.0002 0.0002 0.0002 0.0002 0.0002 0.0002 0.0002 0.0002 0.0001 0.0001
 0.0001 0.0001 0.0001 0.0001 0.0001 0.0001 0.0001 0.0001 0.0001 0.0001
 0.0001 0.0001 0.0001 0.0001 0.0001 0.0001 0.0000
Early stop requested!
588 environment occs will be part of frozen-core in future post-HF calculations
 
 --------------------------------------------------------------
 
                    Orbital Energies (a.u.)
 --------------------------------------------------------------
 
 Alpha MOs
 -- Occupied --
 -0.5625  -0.5342  -0.4028  -0.4963  -0.4829  -0.4692  -0.5000  -0.4614
 -0.4720  -0.4850  -0.4733  -0.4642  -0.4599  -0.4424  -0.4483  -0.4862
 -0.5375  -0.4628  -0.4807  -0.6649  -0.4699  -0.4889  -0.5613  -0.6430
 -0.4956  -0.6388  -0.5150  -0.5797  -0.5841  -0.5255  -0.5563  -0.5342
 -0.5484  -0.5388  -0.5004  -0.5606  -0.5171  -0.5753  -0.5949  -0.5291
 -0.5076  -0.5666  -0.5134  -0.4685  -0.7433  -0.5975  -0.5165  -0.5789
 -0.5425  -0.5810  -0.5466  -0.5447  -0.5777  -0.5397  -0.5709  -0.5235
 -0.5239  -0.5796  -0.6678  -0.6413  -0.6104  -0.8050  -0.6673  -0.6789
 -0.8856  -0.6708  -0.7292  -0.8545  -0.6404  -1.1128  -0.8657  -0.7574
 -0.7877  -0.8125  -0.9370  -0.8630  -0.8859  -0.8319  -1.3150  -0.8843
 -0.9412  -1.0910  -1.2119  -1.3410  -0.8308  -0.7326  -1.8315  -1.1187
 -0.8754  -0.8375  -2.9765  -2.0836  -1.3430  -1.5129  -2.9969  -1.4473
 -2.4347  -0.9109  -1.0585  -1.9282  -1.5293  -1.4474  -1.3288  -0.8951
 -0.9455  -0.9943  -1.2468  -1.3562  -1.3007  -1.0082  -1.5629  -1.1825
 -1.0695  -1.0002  -0.8060  -0.9703  -1.3323  -1.2016  -0.9182  -1.2366
 -1.0973  -1.0030  -1.1047  -1.7830  -1.1637  -1.1838  -1.0677  -1.3662
 -1.2540  -1.0338  -1.1251  -1.1876  -1.0493  -1.2587  -1.2598  -1.5218
 -1.3164  -1.2592  -1.0822  -1.1789  -1.2576  -1.2950  -1.4572  -2.0081
 -1.3740  -1.5426  -1.5647  -1.6010  -1.7613  -1.3124  -1.3282  -1.4231
 -1.8462  -2.0625  -1.9251  -1.4806  -1.6866  -1.4880  -1.5815  -1.7051
 -1.5761  -1.8398  -5.9479  -5.9644  -5.9625  -5.9345  -6.0853  -5.9106
 -5.9883  -5.9428  -5.8318  -5.9759  -5.9579  -5.9586  -5.9668  -5.8964
 -5.9835  -6.0119  -5.9812  -5.9848  -5.9445  -5.9702  -5.4843  -5.9376
 -5.9753  -5.9236  -5.9725  -5.8033  -5.9875  -5.9642  -5.8779  -5.9031
 -5.9633  -5.9586  -5.8160  -5.9586  -5.8997  -5.9598  -1.6536  -8.9395
 -1.8242  -2.0400  -1.9054 -17.7224 -26.7531  -5.0397  -2.4998  -3.5199
-38.8978  -1.9953  -4.1793  -6.8581 -10.1020  -5.4633  -5.2700  -2.2424
 -5.0431  -4.0999  -6.1887  -3.2764  -7.1583  -1.5408  -1.2369  -1.6651
 -3.3373  -2.9013  -1.2722 -76.4349  -1.2049  -5.6186  -1.7997  -1.1106
 -1.3439 -78.1784 -12.9956 -18.9871  -7.3300  -3.0646  -7.4367  -2.1492
 -6.4455  -2.1271 -20.6883  -7.4173  -9.6345 -16.2502  -3.1323  -9.9530
 -5.3756  -4.4381  -1.7300  -8.7838  -0.9647  -1.3060  -1.1958  -1.1059
 -1.3378  -4.3256  -1.1013  -5.7308  -4.6912  -1.3049 -68.8208 -18.3260
-70.0237 -11.7796  -7.2872  -1.4134  -9.9264  -1.4698  -2.4395 -16.6158
-10.4607  -7.0275 -15.1295  -9.1393  -3.5556 -14.7877 -11.1077  -5.7644
 -7.6470  -1.5886  -1.2112  -5.3318  -1.6241  -1.3838  -3.8934  -1.5148
 -6.1208  -1.3092  -1.3329 -11.6482  -1.5774 -60.8166  -8.8436 -18.3758
 -5.4984  -1.2861 -52.3377  -9.7600 -16.5484 -12.2400 -20.7296  -8.3544
 -8.4013 -13.0279  -7.7936  -3.3604  -1.6638  -5.8808  -1.2383  -7.8641
 -6.6999 -38.2195 -25.5886  -4.2403  -0.9597  -1.3710 -60.9452  -1.8204
-68.4937  -4.7271  -1.4140  -1.3966  -1.1515  -1.7908  -2.0764  -5.0002
 -1.3257  -4.7861  -7.8330  -2.5861  -3.1641  -1.5690  -1.2971  -3.4432
-17.8925  -4.1588  -8.0684 -18.9795  -7.7954  -9.2060  -8.3542 -13.0597
-11.4697 -31.8096 -18.9111  -5.0281  -8.3163  -7.8557  -5.5667  -5.7930
-16.8044  -6.1487  -3.2220  -7.6260  -8.2947  -6.4680  -6.3236  -7.6769
 -6.8943  -1.6694 -12.4697  -5.0706  -9.4708  -1.7605 -13.6841  -6.5591
-19.4844  -4.7658  -4.7995 -25.8241  -4.4967  -7.7804  -7.6149  -5.3619
 -4.7164  -8.4576 -11.1867  -8.4501  -7.1775  -6.1744  -6.6739 -12.1989
-16.4713  -6.0874 -14.7958 -10.2052  -4.5566  -7.6551  -9.1797 -10.0908
 -6.7393  -8.9123  -5.0463  -8.5599 -11.2602  -5.8535  -3.8176 -48.6409
-14.0445 -12.1689 -11.6244  -2.0148  -6.5689  -1.0748  -5.8272  -6.9207
 -5.2415  -8.7027  -5.3672  -6.5414 -11.9209  -5.8915  -3.6594  -4.2555
 -2.0260  -4.3063  -7.1496  -4.2451  -6.4993  -4.3329  -4.7440  -5.1482
 -7.8126  -3.9432  -4.6190  -7.1675  -2.9175  -3.3201  -6.0253  -3.9092
-11.5115  -8.0469  -9.9238  -9.0767  -9.7942  -5.7745 -21.8420  -4.5949
 -6.5886  -7.0494  -5.2825  -8.3908  -3.2618  -9.9942  -9.0427  -6.6966
 -2.9352 -12.7463 -16.5550 -11.2739  -5.0189  -3.4439  -7.0086 -10.8230
 -8.9127 -11.2631 -21.9748 -15.5537 -10.9173  -4.8941  -4.9241 -40.9779
-14.0290 -12.8023  -1.5213 -10.3312  -8.5727  -4.2457  -7.9905 -14.5436
 -4.8339 -10.2175  -8.1581 -19.9374  -6.3275  -3.8555  -8.9669  -9.4394
-16.5120 -14.3860  -1.7827  -7.1241 -11.0353  -6.6906 -17.8503 -11.0215
-21.6541  -8.2336  -5.7645  -2.1419  -7.5537 -62.6303 -20.0455  -2.9141
 -6.5767 -16.2416 -10.9516 -33.7277  -5.0963  -5.2129  -8.5288  -6.1121
 -4.8451 -11.9860  -1.8293 -14.3273  -4.0103 -11.4891 -11.2079 -73.8935
 -2.6533 -17.4960 -46.2669  -2.1817 -30.7369 -14.1818  -1.5595  -9.0308
 -5.1230  -2.6415 -16.4380  -2.5921 -61.4423  -4.2273  -5.0178  -1.6083
 -1.8348 -79.7474 -10.2342  -2.6388  -3.2184 -60.1051  -2.1320 -29.0690
-20.5130 -11.2083  -9.3045 -12.5051  -3.3866 -10.0235  -5.0499  -8.2961
 -2.9732  -6.3387 -13.1172 -11.7002  -4.6948  -3.0476 -18.0511 -26.5808
 -8.7231 -19.5526 -16.8863  -8.1876  -6.0764 -13.0150 -53.6633 -11.2114
-10.4909 -10.0362  -9.7657  -3.2812  -9.8169  -9.2206  -8.1239  -3.9114
-57.6885 -32.9165  -4.3342 -17.6118  -2.9425 -11.7058  -5.8706 -12.0406
 -6.9416 -25.7048 -14.1418  -6.6541 -12.5963 -11.3407  -2.0311  -5.3083
-11.1685  -8.1941  -8.8731  -3.0623 -10.2089 -10.9519 -12.0351 -16.7417
-12.2712 -10.9706 -10.1402 -10.4962 -10.1479  -0.8478  -0.7479  -0.7024
 -0.9191  -0.8690  -0.6358  -0.6362  -0.6814  -0.4087  -0.4308  -0.4915
 -0.4072  -0.4071  -0.4319  -0.3779  -0.4892  -0.4732  -0.4151  -0.3858
 -0.4603  -0.3875  -0.4475  -0.4528  -0.5166  -0.5601  -0.5012
 -- Virtual --
 -0.0564  -0.0498  -0.0455  -0.0397  -0.0361  -0.0338  -0.0317  -0.0306
 -0.0282  -0.0251  -0.0236  -0.0224  -0.0213  -0.0189  -0.0175  -0.0163
 -0.0147  -0.0139  -0.0123  -0.0108  -0.0099  -0.0097  -0.0089  -0.0082
 -0.0077  -0.0073  -0.0064  -0.0053  -0.0029  -0.0020  -0.0018  -0.0007
  0.0001   0.0011   0.0019   0.0036   0.0052   0.0060   0.0069   0.0073
  0.0089   0.0092   0.0105   0.0112   0.0113   0.0125   0.0134   0.0139
  0.0142   0.0144   0.0146   0.0159   0.0160   0.0181   0.0190   0.0200
  0.0206   0.0211   0.0219   0.0230   0.0238   0.0247   0.0253   0.0255
  0.0268   0.0274   0.0279   0.0296   0.0299   0.0301   0.0307   0.0311
  0.0317   0.0322   0.0326   0.0332   0.0338   0.0347   0.0357   0.0362
  0.0363   0.0368   0.0376   0.0385   0.0388   0.0397   0.0401   0.0407
  0.0414   0.0420   0.0428   0.0436   0.0439   0.0445   0.0451   0.0456
  0.0462   0.0473   0.0474   0.0482   0.0485   0.0488   0.0501   0.0504
  0.0505   0.0510   0.0512   0.0528   0.0533   0.0538   0.0544   0.0556
  0.0559   0.0567   0.0578   0.0584   0.0587   0.0596   0.0604   0.0611
  0.0616   0.0624   0.0626   0.0632   0.0645   0.0650   0.0658   0.0666
  0.0669   0.0676   0.0680   0.0685   0.0689   0.0701   0.0702   0.0710
  0.0714   0.0721   0.0722   0.0731   0.0737   0.0739   0.0745   0.0758
  0.0761   0.0764   0.0768   0.0772   0.0782   0.0787   0.0796   0.0800
  0.0803   0.0811   0.0815   0.0816   0.0826   0.0827   0.0836   0.0843
  0.0850   0.0858   0.0866   0.0868   0.0873   0.0883   0.0892   0.0894
  0.0898   0.0906   0.0911   0.0912   0.0914   0.0925   0.0936   0.0940
  0.0943   0.0945   0.0949   0.0953   0.0962   0.0970   0.0980   0.0982
  0.1000   0.1001   0.1009   0.1020   0.1023   0.1028   0.1039   0.1048
  0.1053   0.1059   0.1062   0.1062   0.1070   0.1072   0.1078   0.1082
  0.1091   0.1100   0.1103   0.1109   0.1112   0.1119   0.1127   0.1128
  0.1137   0.1142   0.1146   0.1154   0.1162   0.1177   0.1177   0.1180
  0.1182   0.1191   0.1198   0.1202   0.1211   0.1215   0.1220   0.1226
  0.1235   0.1237   0.1245   0.1253   0.1257   0.1264   0.1273   0.1283
  0.1288   0.1295   0.1299   0.1305   0.1310   0.1316   0.1318   0.1325
  0.1329   0.1339   0.1346   0.1352   0.1358   0.1365   0.1375   0.1382
  0.1387   0.1390   0.1403   0.1410   0.1416   0.1421   0.1426   0.1429
  0.1435   0.1446   0.1454   0.1458   0.1464   0.1468   0.1470   0.1472
  0.1481   0.1490   0.1495   0.1499   0.1503   0.1510   0.1512   0.1522
  0.1528   0.1533   0.1541   0.1548   0.1550   0.1564   0.1569   0.1574
  0.1578   0.1584   0.1596   0.1602   0.1607   0.1610   0.1622   0.1627
  0.1629   0.1638   0.1640   0.1647   0.1652   0.1658   0.1665   0.1670
  0.1675   0.1678   0.1687   0.1689   0.1696   0.1702   0.1715   0.1718
  0.1724   0.1733   0.1736   0.1738   0.1746   0.1751   0.1759   0.1763
  0.1770   0.1775   0.1783   0.1787   0.1791   0.1800   0.1807   0.1809
  0.1815   0.1823   0.1826   0.1829   0.1846   0.1849   0.1857   0.1858
  0.1868   0.1872   0.1876   0.1884   0.1887   0.1892   0.1898   0.1901
  0.1906   0.1912   0.1916   0.1924   0.1928   0.1935   0.1945   0.1948
  0.1952   0.1964   0.1968   0.1972   0.1983   0.1983   0.1995   0.1997
  0.2001   0.2007   0.2009   0.2018   0.2020   0.2030   0.2035   0.2044
  0.2051   0.2054   0.2062   0.2067   0.2075   0.2078   0.2081   0.2087
  0.2097   0.2106   0.2111   0.2116   0.2125   0.2128   0.2130   0.2140
  0.2144   0.2148   0.2158   0.2160   0.2164   0.2170   0.2178   0.2182
  0.2196   0.2205   0.2207   0.2208   0.2218   0.2222   0.2230   0.2242
  0.2244   0.2249   0.2257   0.2259   0.2262   0.2268   0.2276   0.2283
  0.2293   0.2295   0.2298   0.2303   0.2308   0.2320   0.2324   0.2330
  0.2343   0.2347   0.2354   0.2366   0.2369   0.2375   0.2378   0.2384
  0.2385   0.2387   0.2402   0.2407   0.2417   0.2423   0.2431   0.2437
  0.2439   0.2447   0.2457   0.2467   0.2474   0.2477   0.2486   0.2491
  0.2496   0.2509   0.2511   0.2516   0.2526   0.2533   0.2538   0.2545
  0.2549   0.2556   0.2560   0.2580   0.2585   0.2590   0.2595   0.2602
  0.2604   0.2607   0.2620   0.2629   0.2644   0.2645   0.2646   0.2658
  0.2661   0.2666   0.2672   0.2680   0.2693   0.2696   0.2699   0.2708
  0.2712   0.2718   0.2719   0.2728   0.2732   0.2736   0.2747   0.2757
  0.2758   0.2772   0.2773   0.2778   0.2779   0.2788   0.2802   0.2811
  0.2812   0.2814   0.2833   0.2843   0.2847   0.2849   0.2856   0.2863
  0.2868   0.2890   0.2898   0.2904   0.2912   0.2923   0.2929   0.2940
  0.2945   0.2949   0.2957   0.2966   0.2968   0.2973   0.2984   0.2991
  0.3003   0.3008   0.3020   0.3023   0.3030   0.3031   0.3054   0.3056
  0.3063   0.3071   0.3073   0.3080   0.3092   0.3101   0.3111   0.3130
  0.3133   0.3142   0.3148   0.3156   0.3158   0.3169   0.3175   0.3189
  0.3192   0.3205   0.3214   0.3221   0.3231   0.3241   0.3245   0.3249
  0.3263   0.3269   0.3273   0.3289   0.3298   0.3306   0.3316   0.3331
  0.3334   0.3343   0.3346   0.3351   0.3352   0.3359   0.3379   0.3393
  0.3400   0.3406   0.3415   0.3419   0.3431   0.3441   0.3448   0.3455
  0.3461   0.3467   0.3474   0.3487   0.3494   0.3508   0.3515   0.3521
  0.3523   0.3535   0.3541   0.3544   0.3548   0.3570   0.3573   0.3580
  0.3587   0.3591   0.3606   0.3609   0.3619   0.3628   0.3633   0.3641
  0.3650   0.3662   0.3667   0.3676   0.3677   0.3684   0.3694   0.3713
  0.3715   0.3723   0.3724   0.3732   0.3756   0.3761   0.3766   0.3771
  0.3789   0.3793   0.3802   0.3810   0.3813   0.3828   0.3836   0.3845
  0.3858   0.3862   0.3870   0.3879   0.3886   0.3893   0.3899   0.3912
  0.3919   0.3925   0.3929   0.3944   0.3948   0.3962   0.3966   0.3989
  0.3992   0.3997   0.4011   0.4020   0.4027   0.4035   0.4041   0.4049
  0.4057   0.4062   0.4077   0.4088   0.4098   0.4104   0.4117   0.4121
  0.4129   0.4144   0.4161   0.4163   0.4170   0.4176   0.4188   0.4197
  0.4207   0.4211   0.4228   0.4236   0.4244   0.4250   0.4260   0.4272
  0.4275   0.4289   0.4292   0.4310   0.4312   0.4332   0.4341   0.4351
  0.4356   0.4366   0.4371   0.4380   0.4395   0.4400   0.4406   0.4424
  0.4431   0.4438   0.4444   0.4465   0.4472   0.4480   0.4497   0.4510
  0.4512   0.4524   0.4535   0.4550   0.4562   0.4565   0.4572   0.4581
  0.4593   0.4601   0.4610   0.4619   0.4630   0.4646   0.4651   0.4659
  0.4670   0.4683   0.4691   0.4702   0.4709   0.4720   0.4731   0.4744
  0.4762   0.4773   0.4778   0.4803   0.4819   0.4833   0.4850   0.4861
  0.4869   0.4887   0.4889   0.4909   0.4927   0.4930   0.4948   0.4954
  0.4965   0.4967   0.4988   0.5004   0.5019   0.5025   0.5051   0.5059
  0.5066   0.5080   0.5103   0.5120   0.5126   0.5142   0.5146   0.5165
  0.5173   0.5193   0.5202   0.5228   0.5240   0.5253   0.5260   0.5267
  0.5283   0.5303   0.5319   0.5327   0.5353   0.5357   0.5379   0.5397
  0.5406   0.5429   0.5447   0.5467   0.5475   0.5480   0.5507   0.5516
  0.5543   0.5555   0.5575   0.5581   0.5592   0.5601   0.5622   0.5648
  0.5656   0.5663   0.5673   0.5698   0.5720   0.5728   0.5746   0.5764
  0.5779   0.5795   0.5821   0.5829   0.5838   0.5852   0.5866   0.5891
  0.5897   0.5911   0.5927   0.5939   0.5943   0.5954   0.5971   0.5991
  0.6003   0.6023   0.6026   0.6040   0.6052   0.6055   0.6078   0.6099
  0.6104   0.6121   0.6125   0.6136   0.6145   0.6175   0.6181   0.6196
  0.6206   0.6214   0.6233   0.6251   0.6257   0.6270   0.6279   0.6284
  0.6291   0.6323   0.6332   0.6344   0.6349   0.6361   0.6375   0.6388
  0.6401   0.6417   0.6428   0.6436   0.6440   0.6452   0.6471   0.6483
  0.6496   0.6511   0.6519   0.6532   0.6533   0.6543   0.6555   0.6570
  0.6586   0.6596   0.6610   0.6626   0.6646   0.6648   0.6655   0.6659
  0.6670   0.6688   0.6691   0.6704   0.6712   0.6721   0.6727   0.6731
  0.6742   0.6758   0.6760   0.6782   0.6791   0.6794   0.6803   0.6812
  0.6818   0.6829   0.6842   0.6852   0.6860   0.6865   0.6878   0.6882
  0.6899   0.6915   0.6927   0.6931   0.6938   0.6944   0.6969   0.6975
  0.6991   0.7004   0.7009   0.7029   0.7034   0.7054   0.7062   0.7078
  0.7084   0.7100   0.7106   0.7127   0.7138   0.7142   0.7161   0.7172
  0.7184   0.7189   0.7194   0.7208   0.7219   0.7226   0.7248   0.7250
  0.7264   0.7276   0.7286   0.7301   0.7312   0.7327   0.7329   0.7356
  0.7357   0.7372   0.7382   0.7400   0.7420   0.7434   0.7449   0.7451
  0.7471   0.7482   0.7493   0.7502   0.7506   0.7519   0.7549   0.7560
  0.7565   0.7591   0.7595   0.7616   0.7636   0.7652   0.7666   0.7673
  0.7691   0.7701   0.7714   0.7736   0.7750   0.7757   0.7766   0.7786
  0.7803   0.7811   0.7823   0.7853   0.7872   0.7877   0.7890   0.7892
  0.7907   0.7922   0.7941   0.7952   0.7971   0.7984   0.7999   0.8011
  0.8039   0.8054   0.8058   0.8063   0.8070   0.8081   0.8098   0.8117
  0.8141   0.8160   0.8162   0.8181   0.8187   0.8208   0.8213   0.8231
  0.8243   0.8251   0.8258   0.8266   0.8275   0.8302   0.8309   0.8320
  0.8332   0.8370   0.8391   0.8408   0.8421   0.8431   0.8435   0.8455
  0.8473   0.8488   0.8499   0.8504   0.8515   0.8526   0.8555   0.8571
  0.8582   0.8586   0.8608   0.8623   0.8633   0.8653   0.8659   0.8668
  0.8684   0.8696   0.8701   0.8719   0.8725   0.8748   0.8757   0.8767
  0.8780   0.8809   0.8811   0.8814   0.8839   0.8846   0.8854   0.8878
  0.8879   0.8909   0.8920   0.8938   0.8946   0.8949   0.8956   0.8971
  0.8976   0.9002   0.9016   0.9023   0.9035   0.9043   0.9064   0.9068
  0.9078   0.9089   0.9102   0.9109   0.9123   0.9132   0.9146   0.9150
  0.9162   0.9174   0.9180   0.9188   0.9206   0.9210   0.9222   0.9236
  0.9242   0.9262   0.9275   0.9292   0.9297   0.9306   0.9318   0.9341
  0.9345   0.9356   0.9365   0.9373   0.9386   0.9402   0.9412   0.9420
  0.9429   0.9442   0.9449   0.9455   0.9463   0.9466   0.9479   0.9497
  0.9515   0.9524   0.9538   0.9553   0.9565   0.9567   0.9577   0.9582
  0.9599   0.9613   0.9642   0.9645   0.9667   0.9677   0.9679   0.9689
  0.9701   0.9710   0.9721   0.9731   0.9745   0.9758   0.9759   0.9768
  0.9791   0.9798   0.9812   0.9821   0.9829   0.9838   0.9852   0.9856
  0.9876   0.9887   0.9902   0.9905   0.9915   0.9920   0.9927   0.9949
  0.9963   0.9968   0.9982   0.9984   0.9993   1.0015   1.0035   1.0042
  1.0045   1.0059   1.0065   1.0072   1.0085   1.0099   1.0107   1.0112
  1.0131   1.0135   1.0155   1.0169   1.0172   1.0190   1.0200   1.0205
  1.0211   1.0229   1.0231   1.0251   1.0257   1.0271   1.0285   1.0289
  1.0297   1.0308   1.0321   1.0329   1.0342   1.0355   1.0377   1.0384
  1.0390   1.0405   1.0410   1.0420   1.0425   1.0439   1.0452   1.0465
  1.0467   1.0483   1.0495   1.0505   1.0509   1.0514   1.0541   1.0548
  1.0555   1.0565   1.0575   1.0583   1.0596   1.0627   1.0630   1.0634
  1.0642   1.0654   1.0669   1.0686   1.0703   1.0711   1.0720   1.0742
  1.0742   1.0755   1.0762   1.0777   1.0785   1.0799   1.0807   1.0811
  1.0822   1.0826   1.0850   1.0862   1.0871   1.0874   1.0896   1.0896
  1.0903   1.0927   1.0942   1.0955   1.0974   1.0979   1.0985   1.0989
  1.1006   1.1016   1.1038   1.1052   1.1061   1.1081   1.1083   1.1092
  1.1110   1.1145   1.1160   1.1168   1.1193   1.1195   1.1214   1.1220
  1.1237   1.1252   1.1274   1.1287   1.1291   1.1308   1.1316   1.1330
  1.1333   1.1355   1.1358   1.1373   1.1394   1.1405   1.1408   1.1417
  1.1429   1.1438   1.1465   1.1471   1.1487   1.1511   1.1517   1.1523
  1.1544   1.1557   1.1569   1.1581   1.1591   1.1616   1.1645   1.1648
  1.1668   1.1693   1.1701   1.1708   1.1713   1.1732   1.1746   1.1756
  1.1766   1.1782   1.1796   1.1807   1.1818   1.1830   1.1858   1.1866
  1.1881   1.1891   1.1917   1.1919   1.1936   1.1947   1.1952   1.1972
  1.1975   1.1982   1.1987   1.2001   1.2034   1.2051   1.2057   1.2088
  1.2119   1.2127   1.2146   1.2174   1.2192   1.2200   1.2209   1.2241
  1.2254   1.2275   1.2281   1.2295   1.2334   1.2344   1.2353   1.2363
  1.2393   1.2408   1.2421   1.2431   1.2442   1.2464   1.2474   1.2517
  1.2535   1.2544   1.2556   1.2586   1.2590   1.2618   1.2628   1.2639
  1.2673   1.2683   1.2693   1.2706   1.2718   1.2743   1.2763   1.2777
  1.2805   1.2828   1.2845   1.2862   1.2876   1.2888   1.2916   1.2921
  1.2935   1.2978   1.3005   1.3020   1.3036   1.3047   1.3053   1.3071
  1.3095   1.3139   1.3172   1.3190   1.3217   1.3239   1.3253   1.3265
  1.3280   1.3301   1.3327   1.3340   1.3353   1.3364   1.3399   1.3417
  1.3439   1.3450   1.3482   1.3490   1.3500   1.3532   1.3544   1.3569
  1.3580   1.3585   1.3617   1.3624   1.3637   1.3664   1.3685   1.3688
  1.3705   1.3710   1.3737   1.3756   1.3771   1.3781   1.3792   1.3795
  1.3845   1.3860   1.3872   1.3889   1.3893   1.3907   1.3933   1.3955
  1.3958   1.3969   1.3994   1.3996   1.4021   1.4038   1.4051   1.4059
  1.4077   1.4088   1.4111   1.4117   1.4124   1.4144   1.4164   1.4185
  1.4192   1.4203   1.4208   1.4225   1.4257   1.4268   1.4284   1.4287
  1.4311   1.4314   1.4335   1.4346   1.4358   1.4381   1.4387   1.4401
  1.4412   1.4435   1.4440   1.4447   1.4477   1.4490   1.4495   1.4519
  1.4525   1.4538   1.4559   1.4568   1.4586   1.4591   1.4602   1.4630
  1.4653   1.4665   1.4686   1.4692   1.4713   1.4729   1.4735   1.4763
  1.4792   1.4805   1.4813   1.4830   1.4844   1.4854   1.4871   1.4890
  1.4900   1.4916   1.4933   1.4943   1.4979   1.4995   1.4998   1.5024
  1.5027   1.5055   1.5077   1.5082   1.5116   1.5127   1.5140   1.5164
  1.5195   1.5216   1.5234   1.5238   1.5280   1.5291   1.5301   1.5344
  1.5358   1.5369   1.5387   1.5416   1.5426   1.5441   1.5455   1.5497
  1.5521   1.5547   1.5558   1.5587   1.5621   1.5643   1.5656   1.5706
  1.5737   1.5775   1.5794   1.5834   1.5845   1.5878   1.5911   1.5962
  1.5975   1.6001   1.6027   1.6075   1.6107   1.6164   1.6180   1.6196
  1.6210   1.6231   1.6308   1.6325   1.6342   1.6369   1.6404   1.6489
  1.6523   1.6545   1.6559   1.6581   1.6590   1.6599   1.6626   1.6638
  1.6674   1.6689   1.6695   1.6706   1.6733   1.6745   1.6767   1.6776
  1.6803   1.6815   1.6837   1.6862   1.6880   1.6895   1.6906   1.6924
  1.6935   1.6950   1.6954   1.6972   1.6985   1.7005   1.7009   1.7021
  1.7029   1.7034   1.7063   1.7077   1.7084   1.7087   1.7107   1.7119
  1.7131   1.7147   1.7161   1.7166   1.7173   1.7195   1.7199   1.7206
  1.7223   1.7241   1.7257   1.7272   1.7277   1.7290   1.7300   1.7321
  1.7328   1.7349   1.7362   1.7374   1.7384   1.7393   1.7395   1.7408
  1.7418   1.7429   1.7445   1.7463   1.7481   1.7490   1.7498   1.7511
  1.7539   1.7547   1.7562   1.7574   1.7579   1.7593   1.7613   1.7623
  1.7644   1.7647   1.7661   1.7692   1.7710   1.7714   1.7738   1.7750
  1.7767   1.7785   1.7806   1.7827   1.7843   1.7854   1.7870   1.7881
  1.7915   1.7932   1.7943   1.7958   1.7967   1.7992   1.8001   1.8032
  1.8044   1.8075   1.8082   1.8118   1.8144   1.8164   1.8167   1.8186
  1.8212   1.8235   1.8240   1.8262   1.8276   1.8310   1.8338   1.8356
  1.8382   1.8401   1.8462   1.8472   1.8494   1.8532   1.8550   1.8558
  1.8589   1.8600   1.8619   1.8627   1.8652   1.8664   1.8678   1.8696
  1.8709   1.8742   1.8757   1.8765   1.8780   1.8807   1.8840   1.8853
  1.8874   1.8894   1.8922   1.8932   1.8938   1.8951   1.8977   1.8991
  1.9003   1.9013   1.9018   1.9026   1.9040   1.9060   1.9061   1.9078
  1.9094   1.9104   1.9118   1.9138   1.9149   1.9172   1.9180   1.9192
  1.9195   1.9220   1.9226   1.9243   1.9247   1.9261   1.9266   1.9279
  1.9298   1.9314   1.9341   1.9347   1.9349   1.9362   1.9383   1.9405
  1.9415   1.9424   1.9434   1.9456   1.9471   1.9496   1.9503   1.9517
  1.9525   1.9539   1.9570   1.9596   1.9621   1.9667   1.9679   1.9714
  1.9745   1.9747   1.9812   1.9843   1.9867   1.9881   1.9904   1.9972
  1.9985   2.0022   2.0080   2.0156   2.0187   2.0254   2.0284   2.0358
  2.0367   2.0382   2.0429   2.0465   2.0535   2.0555   2.0576   2.0590
  2.0602   2.0626   2.0641   2.0647   2.0671   2.0684   2.0691   2.0715
  2.0727   2.0754   2.0778   2.0803   2.0832   2.0850   2.0859   2.0876
  2.0879   2.0918   2.0922   2.0933   2.0939   2.0949   2.0960   2.0980
  2.0993   2.1003   2.1016   2.1034   2.1051   2.1060   2.1068   2.1074
  2.1080   2.1086   2.1104   2.1109   2.1114   2.1172   2.1184   2.1199
  2.1233   2.1253   2.1301   2.1309   2.1325   2.1345   2.1353   2.1372
  2.1408   2.1413   2.1461   2.1479   2.1493   2.1509   2.1533   2.1619
  2.1639   2.1661   2.1700   2.1784   2.1836   2.1870   2.1917   2.1928
  2.1941   2.1952   2.1960   2.1985   2.2002   2.2022   2.2047   2.2048
  2.2072   2.2078   2.2092   2.2106   2.2143   2.2151   2.2161   2.2179
  2.2197   2.2226   2.2236   2.2261   2.2267   2.2277   2.2281   2.2299
  2.2300   2.2310   2.2322   2.2335   2.2343   2.2353   2.2381   2.2392
  2.2401   2.2418   2.2441   2.2448   2.2452   2.2458   2.2481   2.2488
  2.2496   2.2504   2.2514   2.2524   2.2537   2.2568   2.2570   2.2587
  2.2599   2.2600   2.2610   2.2620   2.2633   2.2640   2.2664   2.2675
  2.2679   2.2689   2.2717   2.2726   2.2735   2.2744   2.2747   2.2759
  2.2764   2.2775   2.2789   2.2798   2.2805   2.2813   2.2824   2.2835
  2.2844   2.2852   2.2867   2.2873   2.2882   2.2889   2.2898   2.2902
  2.2917   2.2921   2.2933   2.2937   2.2949   2.2955   2.2960   2.2968
  2.2970   2.2989   2.2998   2.3010   2.3016   2.3030   2.3034   2.3049
  2.3053   2.3060   2.3075   2.3079   2.3089   2.3102   2.3115   2.3127
  2.3138   2.3147   2.3161   2.3180   2.3206   2.3218   2.3230   2.3243
  2.3251   2.3256   2.3276   2.3289   2.3294   2.3297   2.3315   2.3341
  2.3349   2.3349   2.3388   2.3391   2.3425   2.3427   2.3441   2.3462
  2.3470   2.3494   2.3505   2.3522   2.3552   2.3561   2.3586   2.3594
  2.3609   2.3634   2.3651   2.3664   2.3675   2.3693   2.3711   2.3721
  2.3739   2.3760   2.3773   2.3790   2.3817   2.3830   2.3855   2.3869
  2.3896   2.3905   2.3931   2.3963   2.3976   2.3982   2.4007   2.4061
  2.4135   2.4148   2.4194   2.4222   2.4317   2.4558   2.4699   2.4764
  2.4999   2.5561   2.5740   2.6060   2.6764   2.7074   2.7546   2.7938
  2.8085   2.8100   2.8156   2.8233   2.8403   2.8415   2.8424   2.8454
  2.8462   2.8483   2.8557   2.8570   2.8578   2.8602   2.8638   2.8650
  2.8660   2.8677   2.8706   2.8742   2.8763   2.8773   2.8798   2.8810
  2.8848   2.8868   2.8896   2.8907   2.8922   2.8985   2.8996   2.9244
  2.9728   3.1144   3.2460   3.9386   3.9465   3.9517   3.9685   3.9705
  3.9783   3.9803   3.9822   3.9855   3.9858   3.9884   3.9902   3.9917
  3.9921   3.9936   3.9979   4.0024   4.0046   4.0089   4.0114   4.0173
  4.0213   4.0230   4.0283   4.0284   4.0324   4.0360   4.0563   4.2005
  4.2234   4.2277   4.2329   4.2444   4.2485   4.2503   4.2532   4.2563
  4.2605   4.2621   4.2637   4.2666   4.2686   4.2709   4.2759   4.2771
  4.2812   4.2829   4.2853   4.2890   4.2907   4.2928   4.2967   4.2994
  4.3024   4.3031   4.3075   4.3093   4.3117   4.3131   4.3137   4.3149
  4.3160   4.3208   4.3242   4.3283   4.3315   4.3319   4.3332   4.3353
  4.3392   4.3409   4.3433   4.3448   4.3471   4.3515   4.3545   4.3562
  4.3610   4.3648   4.3660   4.3675   4.3733   4.3750   4.3765   4.3796
  4.3851   4.3856   4.3900   4.3923   4.3978   4.3997   4.4023   4.4102
  4.4155   4.4166   4.4223   4.4267   4.4302   4.4349   4.4433   4.4528
  4.4587   4.4625   4.4643   4.4720   4.4906   4.5066   4.5168   4.5302
  4.5381   4.5438   4.5758   4.5785   4.6044   4.6139   4.6256   4.6407
  4.7322   4.7551   4.7792   4.9477
 --------------------------------------------------------------
 
          Ground-State Mulliken Net Atomic Charges

     Atom                 Charge (a.u.)
  ----------------------------------------
      1 C                    -0.424834
      2 C                    -0.782781
      3 C                    -0.673497
      4 C                    -0.546237
      5 C                     0.235862
      6 C                    -0.237794
      7 H                     0.241158
      8 H                     0.219855
      9 H                     0.260662
     10 H                     0.225426
     11 H                     0.201089
     12 H                     0.215347
     13 H                     0.192224
     14 H                     0.238981
     15 H                     0.210489
     16 H                     0.241411
     17 H                     0.222007
     18 N                    -0.085781
     19 H                     0.544881
     20 C                    -0.457060
     21 H                     0.172773
     22 O                    -0.216071
     23 C                    -0.963477
     24 H                     0.339144
     25 H                     0.256657
     26 H                     0.228929
     27 S                     0.856195
     28 C                    -0.908012
     29 H                     0.242700
     30 H                     0.269056
     31 H                     0.241112
     32 O                    -0.563011
     33 C                    -0.928059
     34 H                     0.263106
     35 H                     0.261378
     36 H                     0.232092
     37 S                     1.070585
     38 C                    -1.113558
     39 H                     0.282211
     40 H                     0.256573
     41 H                     0.268625
     42 O                    -0.682534
     43 C                    -0.950064
     44 H                     0.296916
     45 H                     0.274539
     46 H                     0.250735
     47 S                     1.068313
     48 C                    -1.093140
     49 H                     0.225710
     50 H                     0.286618
     51 H                     0.276730
     52 O                    -0.711604
     53 C                    -0.868730
     54 H                     0.243060
     55 H                     0.248432
     56 H                     0.281815
     57 S                     0.857121
     58 C                    -0.771842
     59 H                     0.237036
     60 H                     0.283752
     61 H                     0.227916
     62 O                    -0.708570
     63 C                    -0.939118
     64 H                     0.252515
     65 H                     0.238648
     66 H                     0.250664
     67 S                     1.151532
     68 C                    -1.007910
     69 H                     0.216294
     70 H                     0.266609
     71 H                     0.295107
     72 O                    -0.695646
     73 C                    -0.960403
     74 H                     0.242877
     75 H                     0.252625
     76 H                     0.247270
     77 S                     0.966425
     78 C                    -0.812213
     79 H                     0.238873
     80 H                     0.236313
     81 H                     0.262181
     82 O                    -0.731846
     83 C                    -0.810474
     84 H                     0.198794
     85 H                     0.268742
     86 H                     0.252660
     87 S                     0.798232
     88 C                    -0.875714
     89 H                     0.274755
     90 H                     0.249166
     91 H                     0.262037
     92 O                    -0.737133
     93 C                    -0.795314
     94 H                     0.233381
     95 H                     0.230138
     96 H                     0.308195
     97 S                     0.910531
     98 C                    -0.917195
     99 H                     0.280441
    100 H                     0.242088
    101 H                     0.267302
    102 O                    -0.686730
    103 C                    -0.479708
    104 H                     0.276564
    105 H                     0.252566
    106 H                     0.274639
    107 S                     0.048208
    108 C                    -0.909369
    109 H                     0.275695
    110 H                     0.263427
    111 H                     0.295977
    112 O                    -0.508609
    113 C                    -0.994736
    114 H                     0.234447
    115 H                     0.260932
    116 H                     0.323041
    117 S                     1.266421
    118 C                    -1.120971
    119 H                     0.279765
    120 H                     0.238851
    121 H                     0.251206
    122 O                    -0.613386
    123 C                    -0.886801
    124 H                     0.256296
    125 H                     0.265341
    126 H                     0.234004
    127 S                     1.021834
    128 C                    -0.871130
    129 H                     0.258592
    130 H                     0.223217
    131 H                     0.250633
    132 O                    -0.696627
    133 C                    -0.933318
    134 H                     0.249332
    135 H                     0.264907
    136 H                     0.264162
    137 S                     0.981468
    138 C                    -0.878562
    139 H                     0.226675
    140 H                     0.254495
    141 H                     0.309185
    142 O                    -0.717248
    143 C                    -0.844333
    144 H                     0.264087
    145 H                     0.290453
    146 H                     0.233517
    147 S                     0.885788
    148 C                    -0.883286
    149 H                     0.236911
    150 H                     0.241688
    151 H                     0.272035
    152 O                    -0.704387
    153 C                    -0.999313
    154 H                     0.257385
    155 H                     0.267739
    156 H                     0.268942
    157 S                     1.292059
    158 C                    -1.025545
    159 H                     0.264259
    160 H                     0.253310
    161 H                     0.235640
    162 O                    -0.732086
    163 C                    -0.785583
    164 H                     0.308450
    165 H                     0.236563
    166 H                     0.255660
    167 S                     0.773615
    168 C                    -0.857589
    169 H                     0.236838
    170 H                     0.264579
    171 H                     0.258131
    172 O                    -0.641145
    173 C                    -0.735826
    174 H                     0.295547
    175 H                     0.228050
    176 H                     0.256127
    177 S                     0.582832
    178 C                    -0.706232
    179 H                     0.268676
    180 H                     0.265334
    181 H                     0.243811
    182 O                    -0.628041
    183 C                    -1.020949
    184 H                     0.281707
    185 H                     0.247195
    186 H                     0.285315
    187 S                     1.016975
    188 C                    -1.116183
    189 H                     0.255919
    190 H                     0.290463
    191 H                     0.290076
    192 O                    -0.698948
    193 C                    -0.849853
    194 H                     0.247386
    195 H                     0.278158
    196 H                     0.233454
    197 S                     0.890226
    198 C                    -0.759186
    199 H                     0.236314
    200 H                     0.212374
    201 H                     0.296807
    202 O                    -0.706754
    203 C                    -0.824620
    204 H                     0.261749
    205 H                     0.271591
    206 H                     0.224772
    207 S                     0.730059
    208 C                    -0.681196
    209 H                     0.271434
    210 H                     0.252746
    211 H                     0.240593
    212 O                    -0.706855
    213 C                    -0.969848
    214 H                     0.249768
    215 H                     0.296647
    216 H                     0.250511
    217 S                     0.832709
    218 C                    -0.891563
    219 H                     0.277259
    220 H                     0.259607
    221 H                     0.293463
    222 O                    -0.673049
    223 C                    -1.209926
    224 H                     0.249019
    225 H                     0.322801
    226 H                     0.246827
    227 S                     0.796810
    228 C                    -0.776504
    229 H                     0.254493
    230 H                     0.240647
    231 H                     0.267783
    232 O                    -0.591733
    233 C                    -0.940476
    234 H                     0.245686
    235 H                     0.245650
    236 H                     0.253845
    237 S                     1.256483
    238 C                    -1.049190
    239 H                     0.277334
    240 H                     0.250682
    241 H                     0.243948
    242 O                    -0.693750
    243 C                    -0.832029
    244 H                     0.266629
    245 H                     0.221400
    246 H                     0.260790
    247 S                     0.830992
    248 C                    -0.738277
    249 H                     0.294397
    250 H                     0.233465
    251 H                     0.250690
    252 O                    -0.630298
    253 C                    -0.845224
    254 H                     0.249585
    255 H                     0.230591
    256 H                     0.299598
    257 S                     0.922738
    258 C                    -0.861903
    259 H                     0.265031
    260 H                     0.242614
    261 H                     0.233854
    262 O                    -0.710259
    263 C                    -0.897288
    264 H                     0.246573
    265 H                     0.259265
    266 H                     0.266476
    267 S                     0.906992
    268 C                    -1.030372
    269 H                     0.267604
    270 H                     0.299944
    271 H                     0.294364
    272 O                    -0.586686
    273 C                    -0.808588
    274 H                     0.273580
    275 H                     0.239064
    276 H                     0.265797
    277 S                     0.782341
    278 C                    -0.785822
    279 H                     0.239099
    280 H                     0.259032
    281 H                     0.258099
    282 O                    -0.710711
    283 C                    -0.656146
    284 H                     0.232112
    285 H                     0.253300
    286 H                     0.297192
    287 S                     0.750859
    288 C                    -0.995843
    289 H                     0.294669
    290 H                     0.236129
    291 H                     0.303140
    292 O                    -0.719368
    293 C                    -0.793970
    294 H                     0.280399
    295 H                     0.277060
    296 H                     0.230529
    297 S                     0.673038
    298 C                    -0.757265
[...]
    2  -0.0096591  -0.0068532   0.0039410  -0.0162409   0.0279248   0.0045134
    3   0.0358470  -0.1041026   0.0003447  -0.0222774   0.0150918  -0.0066923
          157         158         159         160         161         162
    1  -0.0456382   0.0015695  -0.0191098   0.0108119   0.0220605   0.0789976
    2  -0.0280630   0.0052325   0.0310286  -0.0254280   0.0127104  -0.0511058
    3   0.0216790   0.0061507   0.0116737   0.0223380  -0.0118201  -0.0568949
          163         164         165         166         167         168
    1   0.0000536  -0.0054276   0.0292673   0.0159214  -0.0158956   0.0039923
    2   0.0056961   0.0212710   0.0131944  -0.0153097   0.0392994  -0.0066116
    3  -0.0069264  -0.0330911   0.0153864  -0.0216141   0.0385096   0.0041674
          169         170         171         172         173         174
    1   0.0242370  -0.0146562   0.0182542  -0.0637008  -0.0004566   0.0197231
    2   0.0106421  -0.0204385  -0.0127188  -0.0696593   0.0034854  -0.0080844
    3   0.0218962   0.0205891  -0.0231449  -0.0515677   0.0080120   0.0227713
          175         176         177         178         179         180
    1  -0.0006852  -0.0189316   0.0416253  -0.0098066  -0.0005909  -0.0036375
    2   0.0365333  -0.0152365   0.0159537   0.0015475   0.0284695  -0.0149539
    3  -0.0012069   0.0209361  -0.0343960  -0.0007512  -0.0143466  -0.0260042
          181         182         183         184         185         186
    1  -0.0215650  -0.0032544   0.0081591   0.0265613  -0.0308345   0.0250093
    2  -0.0067456  -0.1036102  -0.0018579  -0.0250131   0.0076100   0.0225725
    3   0.0235657   0.0421518  -0.0090792   0.0009723  -0.0144311  -0.0133788
          187         188         189         190         191         192
    1  -0.0072275   0.0109565   0.0365640   0.0182668  -0.0009742  -0.0521434
    2   0.0405888  -0.0033524   0.0157048   0.0056370  -0.0252559  -0.0959239
    3   0.0170883   0.0041821  -0.0025334   0.0285089  -0.0261284   0.0151095
          193         194         195         196         197         198
    1  -0.0031433  -0.0177331  -0.0050104   0.0265552   0.0450068  -0.0015465
    2   0.0065936   0.0181667   0.0008548   0.0216121  -0.0268996   0.0000671
    3   0.0024543  -0.0223823   0.0328275  -0.0005669   0.0252801  -0.0074922
          199         200         201         202         203         204
    1  -0.0180061   0.0295898  -0.0164891  -0.1031005  -0.0009477   0.0222855
    2   0.0225164   0.0069176  -0.0249150  -0.0358553  -0.0016039   0.0127944
    3  -0.0159499  -0.0054829  -0.0107410   0.0197347  -0.0103414  -0.0214831
          205         206         207         208         209         210
    1   0.0036383  -0.0280402  -0.0534692   0.0019610   0.0104630   0.0218313
    2  -0.0289941   0.0102757   0.0020736   0.0064515   0.0158231   0.0129721
    3  -0.0003074  -0.0159834   0.0233332  -0.0053746   0.0229165  -0.0210240
          211         212         213         214         215         216
    1  -0.0203327   0.0796244  -0.0065330   0.0100328  -0.0359252  -0.0184313
    2   0.0224541  -0.0598825  -0.0019341  -0.0032346  -0.0215103   0.0244113
    3  -0.0147407   0.0425717  -0.0036230  -0.0290085  -0.0062499  -0.0030883
          217         218         219         220         221         222
    1   0.0275304  -0.0040501  -0.0183028   0.0034971  -0.0270369   0.0445092
    2  -0.0512519  -0.0011396  -0.0316601   0.0126311   0.0137537   0.0975402
    3  -0.0016989   0.0075307   0.0070535   0.0292300  -0.0060111  -0.0016793
          223         224         225         226         227         228
    1   0.0108242   0.0145927   0.0222855   0.0019551  -0.0287772   0.0018559
    2  -0.0026979  -0.0152118  -0.0157992   0.0288116   0.0109726  -0.0035574
    3  -0.0011213   0.0258590  -0.0170779   0.0062805   0.0524243  -0.0034859
          229         230         231         232         233         234
    1   0.0216602  -0.0304275   0.0202328  -0.0142735  -0.0050623   0.0136123
    2  -0.0199975  -0.0074316  -0.0143533   0.0625763   0.0031361   0.0292927
    3   0.0148679  -0.0097204  -0.0243886  -0.0887225  -0.0041206  -0.0079574
          235         236         237         238         239         240
    1  -0.0268387  -0.0268131   0.0500900  -0.0007037  -0.0271638   0.0216746
    2  -0.0168362   0.0132827   0.0266557  -0.0023382  -0.0124519  -0.0073191
    3  -0.0086161   0.0134708   0.0019353  -0.0002244   0.0070008  -0.0249552
          241         242         243         244         245         246
    1   0.0155469  -0.0543635   0.0097099  -0.0040188   0.0030046   0.0300618
    2  -0.0305312  -0.0383403  -0.0024937  -0.0177370   0.0294855   0.0011957
    3   0.0095528   0.0881382  -0.0034381  -0.0276408  -0.0111750   0.0056905
          247         248         249         250         251         252
    1  -0.0583792   0.0021311   0.0265972  -0.0037905  -0.0226908   0.0132426
    2   0.0152116   0.0049230  -0.0009539   0.0275028   0.0033585  -0.0996817
    3  -0.0297389   0.0072637   0.0176437  -0.0116306   0.0234502   0.0409686
          253         254         255         256         257         258
    1   0.0051114  -0.0095496   0.0186251   0.0173670  -0.0282641   0.0054332
    2  -0.0015539  -0.0098374   0.0288979  -0.0282130   0.0395641   0.0008735
    3  -0.0053802  -0.0315743  -0.0154745  -0.0012264  -0.0008044   0.0041198
          259         260         261         262         263         264
    1   0.0041555   0.0143653  -0.0054371  -0.0294920   0.0063950   0.0135912
    2  -0.0343980   0.0326228  -0.0010703  -0.1055597   0.0010779  -0.0230268
    3  -0.0064900  -0.0037280   0.0318680   0.0122548  -0.0007980   0.0104203
          265         266         267         268         269         270
    1   0.0100405   0.0222029  -0.0241566   0.0021032   0.0097979  -0.0271073
    2  -0.0063284   0.0268528   0.0443278  -0.0006538   0.0289765   0.0042900
    3  -0.0297792   0.0105648  -0.0202986   0.0084669   0.0170115   0.0083264
          271         272         273         274         275         276
    1   0.0177339  -0.0247531   0.0005008  -0.0115578   0.0166333   0.0135845
    2  -0.0233567  -0.1022318  -0.0102424  -0.0332660  -0.0008661  -0.0053434
    3   0.0112750  -0.0300954   0.0038044  -0.0110690  -0.0261318   0.0317597
          277         278         279         280         281         282
    1   0.0304234  -0.0081972  -0.0272433  -0.0252950   0.0096892  -0.0265821
    2   0.0416747  -0.0033711   0.0142156  -0.0184216  -0.0089536   0.0100043
    3   0.0287702   0.0000320   0.0051907  -0.0167668   0.0271046  -0.1068328
          283         284         285         286         287         288
    1  -0.0020546  -0.0321914   0.0005215  -0.0169547  -0.0039524   0.0066782
    2   0.0040040  -0.0148750  -0.0177339   0.0231105   0.0250884  -0.0047879
    3   0.0062335  -0.0097241   0.0240833   0.0160760  -0.0476246   0.0028547
          289         290         291         292         293         294
    1   0.0069158  -0.0137938   0.0264122   0.0999165   0.0074769  -0.0141290
    2  -0.0049180  -0.0195993  -0.0082200   0.0258486   0.0027246  -0.0086003
    3   0.0293104  -0.0212193  -0.0121774   0.0772697  -0.0053958  -0.0243483
          295         296         297         298         299         300
    1   0.0147485   0.0290275  -0.0321705   0.0014049   0.0276390  -0.0142538
    2   0.0305165  -0.0154863   0.0464197  -0.0022379   0.0221137  -0.0054742
    3  -0.0128229   0.0030096  -0.0025620   0.0028680   0.0137941   0.0291567
          301         302
    1   0.0273074  -0.0346683
    2  -0.0206618  -0.1018733
    3   0.0063309  -0.0050305
  --- DONE ESP SUMMARY ---
Archival summary:
1\1\node029\SP\ProcedureUnspecified\6-31+G*\282856h22\ymao90\FriDec316:36:242021FriDec316:36:242021\0\\#,ProcedureUnspecified,6-31+G*,\\0,1\S\O,1,1.49713\C,1,1.80605,2,106.864\H,3,1.09287,1,115.745,2,168.816,0\H,3,1.09326,1,105.087,2,56.6503,0\H,3,1.09384,1,112.334,2,-58.781,0\C,1,1.80771,2,100.482,3,-100.802,0\H,7,1.09225,1,107.301,2,54.3164,0\H,7,1.0925,1,117.381,2,-74.1007,0\H,7,1.09333,1,104.322,2,162.711,0\H,8,2.10236,7,123.743,1,-57.057,0\C,11,1.09296,8,136.674,7,-79.474,0\H,12,1.09229,11,117.094,8,-166.139,0\H,12,1.09385,11,104.075,8,-39.9528,0\S,12,1.80755,11,112.455,8,75.287,0\O,15,1.49673,12,103.047,11,163.22,0\C,15,1.80727,12,95.2046,11,-99.237,0\H,17,1.09267,15,106.532,12,-48.3612,0\H,17,1.09284,15,110.434,12,70.9611,0\H,17,1.09293,15,97.2949,12,-164.861,0\H,10,2.26572,7,123.262,1,122.743,0\C,21,1.09297,10,140.901,7,12.473,0\H,22,1.09233,21,110.166,10,56.7665,0\H,22,1.09233,21,113.928,10,-60.5978,0\S,22,1.80724,21,107.114,10,171.127,0\O,25,1.49688,22,100.772,21,175.306,0\C,25,1.80763,22,95.9162,21,67.4847,0\H,27,1.09296,25,103.633,22,68.6098,0\H,27,1.09298,25,110.041,22,-175.833,0\H,27,1.09305,25,103.805,22,-56.8956,0\H,23,2.03668,22,114.422,21,-154.26,0\C,31,1.09319,23,106.52,22,-153.016,0\H,32,1.0931,31,107.968,23,86.1026,0\H,32,1.09325,31,104.676,23,-39.2632,0\S,32,1.80581,31,109.318,23,-155.365,0\O,35,1.49764,32,108.206,31,-69.6131,0\C,35,1.80745,32,95.8059,31,35.234,0\H,37,1.09217,35,115.101,32,-55.076,0\H,37,1.093,35,112.878,32,78.3978,0\H,37,1.09345,35,107.732,32,-163.399,0\H,39,2.08262,37,132.832,35,23.0013,0\C,41,1.09289,39,141.184,37,108.88,0\H,42,1.09284,41,110.912,39,-144.12,0\H,42,1.09317,41,120.261,39,96.2092,0\S,42,1.80698,41,107.468,39,-28.7866,0\O,45,1.49704,42,97.1602,41,-30.9227,0\C,45,1.80793,42,99.0412,41,76.388,0\H,47,1.09241,45,104.163,42,63.2905,0\H,47,1.09245,45,112.746,42,-61.141,0\H,47,1.09264,45,114.087,42,173.626,0\H,33,2.14283,32,110.266,31,59.3865,0\C,51,1.09311,33,121.451,32,172.324,0\H,52,1.09262,51,116.204,33,-143.298,0\H,52,1.09335,51,114.459,33,91.4324,0\S,52,1.8082,51,106.607,33,-21.908,0\O,55,1.49647,52,106.023,51,153.746,0\C,55,1.80706,52,94.4462,51,-96.0388,0\H,57,1.09257,55,116.363,52,-43.868,0\H,57,1.09327,55,100.257,52,76.4726,0\H,57,1.09373,55,107.066,52,-167.664,0\H,30,2.30785,27,133.968,25,-88.788,0\C,61,1.09336,30,177.081,27,41.4972,0\H,62,1.0928,61,112.658,30,-52.642,0\H,62,1.09305,61,114.547,30,-179.54,0\S,62,1.80691,61,105.941,30,62.4942,0\O,65,1.49777,62,100.955,61,-50.752,0\C,65,1.80646,62,92.0362,61,55.8537,0\H,67,1.09277,65,103.7,62,61.7219,0\H,67,1.09321,65,116.943,62,-177.521,0\H,67,1.0933,65,107.625,62,-52.1724,0\H,5,2.32003,3,124.539,1,177.591,0\C,71,1.09275,5,128.776,3,-160.542,0\H,72,1.09265,71,110.115,5,-170.607,0\H,72,1.093,71,106.366,5,67.8475,0\S,72,1.80705,71,110.708,5,-53.1609,0\O,75,1.49666,72,103.722,71,-48.139,0\C,75,1.80723,72,98.9393,71,-155.972,0\H,77,1.09298,75,109.575,72,51.1919,0\H,77,1.09311,75,107.368,72,-77.4972,0\H,77,1.09334,75,106.486,72,161.979,0\H,74,2.0634,72,130.687,71,75.4597,0\C,81,1.09281,74,114.824,72,-132.692,0\H,82,1.09293,81,118.066,74,-125.623,0\H,82,1.09312,81,109.039,74,-2.40681,0\S,82,1.80689,81,106.644,74,113.053,0\O,85,1.49686,82,103.322,81,176.222,0\C,85,1.80729,82,89.2407,81,70.7526,0\H,87,1.0926,85,102.487,82,-62.6461,0\H,87,1.09274,85,110.128,82,51.2014,0\H,87,1.09319,85,111.47,82,-174.439,0\H,13,2.33234,12,114.95,11,9.53849,0\C,91,1.09312,13,138.525,12,145.359,0\H,92,1.09243,91,112.996,13,-69.8785,0\H,92,1.09361,91,109.637,13,59.7479,0\S,92,1.80665,91,109.84,13,178.078,0\O,95,1.49635,92,100.051,91,143.631,0\C,95,1.80651,92,96.4721,91,38.9483,0\H,97,1.09268,95,113.729,92,63.8776,0\H,97,1.09299,95,112.433,92,-178.244,0\H,97,1.0931,95,103.674,92,-65.8762,0\H,13,2.35444,12,119.072,11,-92.5558,0\C,101,1.09287,13,161.333,12,87.7205,0\H,102,1.09308,101,106.685,13,-166.412,0\H,102,1.09323,101,115.409,13,63.935,0\S,102,1.8071,101,110.689,13,-53.2719,0\O,105,1.49753,102,97.5649,101,172.474,0\C,105,1.80662,102,89.8324,101,67.1982,0\H,107,1.09275,105,104.066,102,-70.3186,0\H,107,1.09295,105,110.271,102,54.7293,0\H,107,1.09359,105,106.142,102,166.806,0\O,24,2.35983,22,134.024,21,74.5308,0\S,111,1.49657,24,108.488,22,-115.629,0\C,112,1.80657,111,102.732,24,-116.249,0\H,113,1.09288,112,107.006,111,-55.2118,0\H,113,1.0932,112,107.665,111,-173.529,0\H,113,1.09331,112,112.275,111,59.5613,0\C,112,1.80737,111,110.371,24,-18.3968,0\H,117,1.0931,112,102.834,111,77.8895,0\H,117,1.09312,112,105.122,111,-173.572,0\H,117,1.09338,112,109.696,111,-47.3517,0\O,118,2.34354,117,153.868,112,176.227,0\S,121,1.49675,118,131.41,117,-67.5723,0\C,122,1.80652,121,103.297,118,106.853,0\H,123,1.09258,122,102.95,121,170.942,0\H,123,1.09292,122,113.43,121,52.1227,0\H,123,1.09315,122,105.475,121,-68.1635,0\C,122,1.80726,121,99.7689,118,6.2262,0\H,127,1.09214,122,102.878,121,-64.7522,0\H,127,1.09282,122,105.318,121,176.315,0\H,127,1.09344,122,100.123,121,48.7887,0\H,33,2.3643,32,119.944,31,-140.61,0\C,131,1.09335,33,167.965,32,17.9202,0\H,132,1.09208,131,116.889,33,65.2072,0\H,132,1.09274,131,114.15,33,-177.62,0\S,132,1.80744,131,107.322,33,-53.8923,0\O,135,1.49658,132,104.34,131,-178.661,0\C,135,1.80799,132,99.1037,131,-66.5442,0\H,137,1.0925,135,111.596,132,-177.145,0\H,137,1.09272,135,105.484,132,63.8568,0\H,137,1.09273,135,101.653,132,-55.7612,0\H,138,2.18239,137,109.889,135,97.7531,0\C,141,1.09329,138,107.747,137,171.387,0\H,142,1.09313,141,102.033,138,-170.657,0\H,142,1.09338,141,107.835,138,-57.3614,0\S,142,1.80653,141,117.677,138,66.4665,0\O,145,1.49755,142,105.4,141,-40.5988,0\C,145,1.80724,142,93.5543,141,57.1584,0\H,147,1.09277,145,107.882,142,74.7792,0\H,147,1.09293,145,116.515,142,-164.227,0\H,147,1.09331,145,104.664,142,-39.3319,0\H,144,2.07814,142,143.466,141,88.0368,0\C,151,1.09251,144,129.743,142,88.8278,0\H,152,1.09274,151,106.646,144,54.1824,0\H,152,1.09326,151,109.208,144,173.715,0\S,152,1.80759,151,115.095,144,-64.9834,0\O,155,1.49746,152,97.3235,151,-173.412,0\C,155,1.80718,152,97.469,151,-71.2171,0\H,157,1.09225,155,113.689,152,-171.165,0\H,157,1.09316,155,110.761,152,64.0548,0\H,157,1.09338,155,103.912,152,-64.2486,0\O,133,2.37166,132,155.304,131,147.364,0\S,161,1.49713,133,155.996,132,-175.95,0\C,162,1.80633,161,109.27,133,-15.9641,0\H,163,1.09288,162,113.275,161,52.2861,0\H,163,1.09308,162,102.676,161,-72.6298,0\H,163,1.09309,162,107.65,161,173.482,0\C,162,1.80751,161,107.804,133,94.987,0\H,167,1.09225,162,105.128,161,67.2555,0\H,167,1.09258,162,112.218,161,-171.853,0\H,167,1.09298,162,109.307,161,-42.8731,0\H,170,1.94802,167,139.702,162,12.1071,0\C,171,1.09309,170,129.659,167,117.742,0\H,172,1.09273,171,110.911,170,-174.944,0\H,172,1.09355,171,113.696,170,-50.0868,0\S,172,1.80792,171,102.743,170,59.396,0\O,175,1.49694,172,105.891,171,-72.5381,0\C,175,1.80709,172,97.5582,171,-179.921,0\H,177,1.09308,175,106.066,172,33.9875,0\H,177,1.09322,175,115.51,172,164.294,0\H,177,1.09356,175,106.67,172,-75.6251,0\H,165,2.11794,163,134.435,162,10.6099,0\C,181,1.09348,165,153.226,163,46.766,0\H,182,1.09238,181,115.248,165,68.016,0\H,182,1.0927,181,104.61,165,-51.4445,0\S,182,1.80706,181,109.747,165,-164.989,0\O,185,1.49658,182,104.656,181,49.1096,0\C,185,1.80696,182,96.9904,181,159.112,0\H,187,1.09259,185,105.003,182,-179.735,0\H,187,1.09334,185,101.089,182,-67.1258,0\H,187,1.09409,185,111.038,182,61.9256,0\H,183,2.1775,182,125.093,181,123.603,0\C,191,1.09287,183,143.618,182,-39.0219,0\H,192,1.09224,191,107.136,183,-147.017,0\H,192,1.09346,191,116.49,183,91.9319,0\S,192,1.80705,191,107.789,183,-27.5559,0\O,195,1.49698,192,98.2855,191,-68.5428,0\Gh,196,1.72202,195,140.323,192,61.8274,0\Gh,197,1.01326,196,174.622,195,-139.483,0\Gh,198,1.37916,197,116.905,196,86.1781,0\Gh,199,1.10513,198,112.281,197,5.0201,0\Gh,199,1.21835,198,120.328,197,-178.32,0\Gh,198,1.46146,197,118.06,196,-111.159,0\Gh,202,1.09728,198,120.636,197,160.406,0\Gh,202,1.5376,198,108.921,197,-83.3357,0\Gh,204,1.09639,202,108.261,198,-54.296,0\Gh,204,1.09649,202,113.381,198,55.928,0\Gh,202,1.53768,198,108.547,197,31.6827,0\Gh,207,1.09639,202,111.088,198,-59.3792,0\Gh,207,1.09671,202,113.428,198,62.968,0\Gh,207,1.53721,202,108.988,198,-179.249,0\Gh,210,1.09685,207,109.67,202,172.622,0\Gh,210,1.09706,207,113.067,202,-72.7563,0\Gh,210,1.53791,207,114.684,202,57.9768,0\Gh,213,1.0969,210,108.205,207,-173.672,0\Gh,213,1.09745,210,102.963,207,67.0689,0\Gh,213,1.5374,210,111.452,207,-48.0574,0\Gh,216,1.09644,213,104.62,210,166.19,0\Gh,216,1.09688,213,109.266,210,-71.2948,0\C,195,1.80713,192,93.7815,191,-175.218,0\H,219,1.09223,195,108.489,192,55.7981,0\H,219,1.09305,195,101.406,192,-70.4702,0\H,219,1.09332,195,105.315,192,172.637,0\H,215,2.37411,213,150.51,210,-100.685,0\C,223,1.0938,215,134.254,213,102.305,0\H,224,1.09278,223,110.002,215,48.22,0\H,224,1.09311,223,115.2,215,-63.8669,0\S,224,1.80722,223,111.036,215,178.225,0\O,227,1.49743,224,99.6582,223,19.3305,0\C,227,1.80712,224,98.9718,223,-89.3937,0\H,229,1.09276,227,111.599,224,-73.5031,0\H,229,1.09308,227,110.537,224,154.717,0\H,229,1.09319,227,102.921,224,39.1768,0\H,223,2.15836,215,71.2163,213,-80.8457,0\C,233,1.09278,223,117.308,215,-90.9501,0\H,234,1.09236,233,118.984,223,-27.8325,0\H,234,1.09372,233,104.877,223,97.4458,0\S,234,1.80722,233,101.5,223,-157.872,0\O,237,1.49677,234,108.524,233,-156.576,0\C,237,1.80743,234,94.2244,233,98.3207,0\H,239,1.0928,237,101.462,234,-47.3579,0\H,239,1.09299,237,108.863,234,-165.877,0\H,239,1.09315,237,103.262,234,73.8105,0\O,225,2.29499,224,123.814,223,-15.4933,0\S,243,1.49645,225,108.993,224,91.4814,0\C,244,1.80672,243,99.761,225,156.332,0\H,245,1.09261,244,105.742,243,-169.494,0\H,245,1.09315,244,112.77,243,71.6219,0\H,245,1.09359,244,110.029,243,-56.0691,0\C,244,1.80693,243,106.753,225,60.9408,0\H,249,1.09226,244,109.794,243,168.578,0\H,249,1.09331,244,115.488,243,-66.2062,0\H,249,1.0938,244,106.198,243,51.7317,0\H,238,2.30823,237,124.967,234,69.8937,0\C,253,1.09292,238,129.122,237,-100.494,0\H,254,1.09333,253,97.7878,238,-40.928,0\H,254,1.09363,253,112.406,238,-156.438,0\S,254,1.80647,253,109.432,238,76.6843,0\O,257,1.49727,254,106.384,253,86.0081,0\C,257,1.80675,254,89.0063,253,-172.148,0\H,259,1.09285,257,109.064,254,-27.5534,0\H,259,1.09332,257,110.762,254,92.788,0\H,259,1.09348,257,111.911,254,-146.81,0\H,255,2.03114,254,126.731,253,101.49,0\C,263,1.09235,255,133.218,254,136.307,0\H,264,1.09291,263,103.764,255,15.5938,0\H,264,1.09342,263,114.492,255,-100.908,0\S,264,1.80696,263,117.115,255,136.741,0\O,267,1.49776,264,101.524,263,46.6049,0\C,267,1.80709,264,92.4452,263,-54.6797,0\H,269,1.09182,267,105.216,264,-65.3295,0\H,269,1.09271,267,103.858,264,178.264,0\H,269,1.09293,267,109.646,264,51.4007,0\H,222,2.38689,219,125.031,195,-18.6516,0\C,273,1.09301,222,111.845,219,172.003,0\H,274,1.09274,273,109.196,222,-169.726,0\H,274,1.09318,273,101.937,222,-51.1392,0\S,274,1.80657,273,108.407,222,74.3003,0\O,277,1.49676,274,104.498,273,-54.4712,0\C,277,1.80675,274,87.6744,273,44.4294,0\H,279,1.0928,277,105.125,274,177.808,0\H,279,1.0929,277,103.603,274,56.3149,0\H,279,1.09369,277,114.96,274,-65.7606,0\H,282,2.0539,279,120.545,277,-121.675,0\C,283,1.09241,282,145.287,279,-102.571,0\H,284,1.09275,283,112.172,282,-38.0936,0\H,284,1.09295,283,112.181,282,92.619,0\S,284,1.80777,283,105.881,282,-148.067,0\O,287,1.49682,284,107.302,283,179.249,0\C,287,1.80613,284,97.1765,283,75.1615,0\H,289,1.0929,287,115.247,284,34.1358,0\H,289,1.093,287,109.235,284,-87.6509,0\H,289,1.09346,287,105.669,284,157.388,0\O,280,2.22831,279,132.571,277,-107.792,0\S,293,1.49702,280,99.1826,279,99.1433,0\C,294,1.8069,293,105.23,280,-173.06,0\H,295,1.09304,294,116.603,293,-160.549,0\H,295,1.09308,294,108.332,293,-46.2487,0\H,295,1.09364,294,108.06,293,63.9781,0\C,294,1.80734,293,105.411,280,-74.431,0\H,299,1.09265,294,110.873,293,74.1027,0\H,299,1.09314,294,105.991,293,-52.4627,0\H,299,1.09314,294,100.508,293,-162.494,0\\\@

 Total job time:  63.21s(wall), 212.27s(cpu) 
 Fri Dec  3 16:36:24 2021

        *************************************************************
        *                                                           *
        *  Thank you very much for using Q-Chem.  Have a nice day.  *
        *                                                           *
        *************************************************************


