                  Welcome to Q-Chem
     A Quantum Leap Into The Future Of Chemistry


 Q-Chem 5.2 (devel), Q-Chem, Inc., Pleasanton, CA (2019)

 Yihan Shao,  Zhengting Gan,  E. Epifanovsky,  A. T. B. Gilbert,  M. Wormit,  
 J. Kussmann,  A. W. Lange,  A. Behn,  Jia Deng,  Xintian Feng,  D. Ghosh,  
 M. Goldey,  P. R. Horn,  L. D. Jacobson,  I. Kaliman,  T. Kus,  A. Landau,  
 Jie Liu,  E. I. Proynov,  R. M. Richard,  R. P. Steele,  E. J. Sundstrom,  
 H. L. Woodcock III,  P. M. Zimmerman,  D. Zuev,  B. Alam,  B. Albrecht,  
 E. Alguire,  S. A. Baeppler,  D. Barton,  Z. Benda,  Y. A. Bernard,  
 E. J. Berquist,  K. B. Bravaya,  H. Burton,  K. Carter-Fenk,  D. Casanova,  
 Chun-Min Chang,  Yunqing Chen,  A. Chien,  K. D. Closser,  M. P. Coons,  
 S. Coriani,  S. Dasgupta,  A. L. Dempwolff,  M. Diedenhofen,  Hainam Do,  
 R. G. Edgar,  Po-Tung Fang,  S. Faraji,  S. Fatehi,  Qingguo Feng,  
 J. Fosso-Tande,  J. Gayvert,  Qinghui Ge,  A. Ghysels,  G. Gidofalvi,  
 J. Gomes,  J. Gonthier,  A. Gunina,  D. Hait,  M. W. D. Hanson-Heine,  
 P. H. P. Harbach,  A. W. Hauser,  M. F. Herbst,  J. E. Herr,  
 E. G. Hohenstein,  Z. C. Holden,  Kerwin Hui,  B. C. Huynh,  T.-C. Jagau,  
 Hyunjun Ji,  B. Kaduk,  K. Khistyaev,  Jaehoon Kim,  P. Klunzinger,  K. Koh,  
 D. Kosenkov,  L. Koulias,  T. Kowalczyk,  C. M. Krauter,  A. Kunitsa,  
 Ka Un Lao,  A. Laurent,  K. V. Lawler,  Joonho Lee,  D. Lefrancois,  
 S. Lehtola,  D. S. Levine,  Yi-Pei Li,  You-Sheng Lin,  Fenglai Liu,  
 Kuan-Yu Liu,  E. Livshits,  M. Loipersberger,  A. Luenser,  P. Manohar,  
 E. Mansoor,  S. F. Manzer,  Shan-Ping Mao,  Yuezhi Mao,  N. Mardirossian,  
 A. V. Marenich,  T. Markovich,  L. A. Martinez-Martinez,  S. A. Maurer,  
 N. J. Mayhall,  S. C. McKenzie,  J.-M. Mewes,  P. Morgante,  A. F. Morrison,  
 J. W. Mullinax,  K. Nanda,  T. S. Nguyen-Beck,  R. Olivares-Amaya,  
 J. A. Parkhill,  S. K. Paul,  F. Pavosevic,  Zheng Pei,  T. M. Perrine,  
 F. Plasser,  P. Pokhilko,  S. Prager,  A. Prociuk,  E. Ramos,  B. Rana,  
 D. R. Rehn,  F. Rob,  M. Scheurer,  M. Schneider,  N. Sergueev,  
 S. M. Sharada,  S. Sharma,  D. W. Small,  T. Stauch,  C. J. Stein,  
 T. Stein,  Yu-Chuan Su,  S. P. Veccham,  Zhen Tao,  A. J. W. Thom,  
 A. Tkatchenko,  T. Tsuchimochi,  N. M. Tubman,  L. Vogt,  M. L. Vidal,  
 O. Vydrov,  M. A. Watson,  J. Wenzel,  M. de Wergifosse,  T. A. Wesolowski,  
 A. White,  J. Witte,  A. Yamada,  Jun Yang,  K. Yao,  S. Yeganeh,  
 S. R. Yost,  Zhi-Qiang You,  A. Zech,  Igor Ying Zhang,  Xing Zhang,  
 Yan Zhao,  Ying Zhu,  B. R. Brooks,  G. K. L. Chan,  C. J. Cramer,  
 M. S. Gordon,  W. J. Hehre,  A. Klamt,  M. W. Schmidt,  C. D. Sherrill,  
 D. G. Truhlar,  A. Aspuru-Guzik,  R. Baer,  A. T. Bell,  N. A. Besley,  
 Jeng-Da Chai,  A. E. DePrince, III,  R. A. DiStasio Jr.,  A. Dreuw,  
 B. D. Dunietz,  T. R. Furlani,  Chao-Ping Hsu,  Yousung Jung,  Jing Kong,  
 D. S. Lambrecht,  WanZhen Liang,  C. Ochsenfeld,  V. A. Rassolov,  
 L. V. Slipchenko,  J. E. Subotnik,  T. Van Voorhis,  J. M. Herbert,  
 A. I. Krylov,  P. M. W. Gill,  M. Head-Gordon

 Contributors to earlier versions of Q-Chem not listed above: 
 R. D. Adamson,  B. Austin,  J. Baker,  G. J. O. Beran,  K. Brandhorst,  
 S. T. Brown,  E. F. C. Byrd,  A. K. Chakraborty,  C.-L. Cheng,  
 Siu Hung Chien,  D. M. Chipman,  D. L. Crittenden,  H. Dachsel,  
 R. J. Doerksen,  A. D. Dutoi,  L. Fusti-Molnar,  W. A. Goddard III,  
 A. Golubeva-Zadorozhnaya,  S. R. Gwaltney,  G. Hawkins,  A. Heyden,  
 S. Hirata,  G. Kedziora,  F. J. Keil,  C. Kelley,  Jihan Kim,  R. A. King,  
 R. Z. Khaliullin,  P. P. Korambath,  W. Kurlancheek,  A. M. Lee,  M. S. Lee,  
 S. V. Levchenko,  Ching Yeh Lin,  D. Liotard,  R. C. Lochan,  I. Lotan,  
 P. E. Maslen,  N. Nair,  D. P. O'Neill,  D. Neuhauser,  E. Neuscamman,  
 C. M. Oana,  R. Olson,  B. Peters,  R. Peverati,  P. A. Pieniazek,  
 Y. M. Rhee,  J. Ritchie,  M. A. Rohrdanz,  E. Rosta,  N. J. Russ,  
 H. F. Schaefer III,  N. E. Schultz,  N. Shenvi,  A. C. Simmonett,  A. Sodt,  
 D. Stuck,  K. S. Thanthiriwatte,  V. Vanovschi,  Tao Wang,  A. Warshel,  
 C. F. Williams,  Q. Wu,  X. Xu,  W. Zhang

 Please cite Q-Chem as follows:
 Y. Shao et al., Mol. Phys. 113, 184-215 (2015)
 DOI: 10.1080/00268976.2014.952696

 Q-Chem 5.2.2 for Intel X86 EM64T Linux

 Parts of Q-Chem use Armadillo 9.800.1 (Horizon Scraper).
 http://arma.sourceforge.net/

 Q-Chem begins on Fri Dec  3 19:21:35 2021  

Host: node023
0

     Scratch files written to /home/ymao90/scratch/r7.00_frame_0054_spade_B3LYP_dp20211203120852//

Checking the input file for inconsistencies... 	...done.

--------------------------------------------------------------
User input:
--------------------------------------------------------------
$molecule
0 1
--
0 1
C    24.29400   20.67200   25.12100  
C    24.17200   22.15200   25.52100  
C    25.52400   22.86000   25.70500  
C    26.57500   22.48100   24.64800  
C    26.65700   20.98400   24.30700  
C    25.26700   20.42800   23.95600  
H    25.30200   23.93100   25.78600  
H    23.72900   22.62600   24.63700  
H    24.68400   20.20600   26.03400  
H    23.30500   20.23500   24.93800  
H    26.55600   23.09000   23.73600  
H    27.55700   22.65100   25.10500  
H    27.39900   20.64800   23.57200  
H    27.03500   20.56300   25.24600  
H    24.88900   20.84200   23.01300  
H    25.46200   19.37500   23.71700  
H    25.91100   22.52000   26.67400  
N    23.38000   22.35900   26.73200  
H    23.79600   22.08900   27.61500  
C    22.03600   22.65600   26.80600  
H    21.67900   22.78900   27.84400  
O    21.40100   22.91800   25.79900  
--
0 1
C    22.43600   26.06900   25.91000  
H    23.20400   26.64800   25.39300  
H    22.89700   25.66500   26.81500  
H    21.96000   25.24700   25.36900  
S    21.16900   27.12700   26.64600  
C    21.08300   28.03100   25.08300  
H    20.44100   28.89600   25.26800  
H    22.09100   28.37100   24.83600  
H    20.72700   27.41600   24.25200  
O    21.96100   27.81200   27.71600  
C    26.24500   15.67400   19.34600  
H    25.76000   14.69500   19.32300  
H    26.93900   15.79200   18.51000  
H    26.85300   15.75500   20.25000  
S    25.02300   17.00600   19.32700  
C    26.09500   18.34700   19.89000  
H    26.70000   18.72000   19.05900  
H    25.43600   19.15700   20.21300  
H    26.70600   17.91400   20.68500  
O    24.08500   16.73400   20.46200  
C    27.87700   24.04500   29.80400  
H    28.49600   24.77600   29.27800  
H    28.32600   23.05200   29.88900  
H    26.90800   23.92400   29.31200  
S    27.64500   24.44900   31.55000  
C    26.60800   25.89500   31.23700  
H    25.67400   25.67500   31.76000  
H    27.10100   26.71200   31.77000  
H    26.48600   25.92500   30.15100  
O    28.87700   25.07400   32.12700  
C    29.50400   19.99100   28.82000  
H    28.62000   19.93900   29.46000  
H    30.03100   19.03900   28.92100  
H    30.12300   20.77900   29.25500  
S    29.24300   20.19500   27.04300  
C    28.56400   18.53700   26.81100  
H    28.28700   18.53900   25.75300  
H    29.28800   17.72300   26.90900  
H    27.67000   18.29300   27.39100  
O    30.59300   20.15000   26.39800  
C    32.38400   18.01400   28.57100  
H    31.90600   18.68000   27.84800  
H    32.26000   18.51700   29.53400  
H    33.46100   17.99000   28.38600  
S    31.71300   16.33900   28.66200  
C    32.21800   15.53400   27.12500  
H    31.79800   15.99700   26.22800  
H    33.30000   15.58800   26.98300  
H    31.96600   14.47200   27.07100  
O    30.22300   16.27500   28.79500  
C    25.06900   19.65100   28.99900  
H    23.99900   19.87000   28.94700  
H    25.44200   19.64800   27.97200  
H    25.21900   18.78800   29.65300  
S    25.82400   21.06000   29.84000  
C    25.08500   20.75700   31.46100  
H    24.93700   21.65500   32.06600  
H    24.07600   20.38000   31.27700  
H    25.87500   20.09900   31.83100  
O    25.00200   22.22800   29.39000  
C    24.21100   24.30500   19.71400  
H    23.32700   23.93500   19.18900  
H    23.99200   24.89500   20.60800  
H    24.91300   24.83300   19.06400  
S    25.00300   22.77400   20.25600  
C    26.07700   22.44300   18.84100  
H    25.53400   22.79400   17.96000  
H    26.96100   23.05900   19.02400  
H    26.12400   21.35700   18.72600  
O    24.02300   21.64600   20.16900  
C    25.04200   28.43400   28.52900  
H    25.35900   29.28500   29.13700  
H    24.18300   28.65100   27.88900  
H    24.78400   27.55300   29.12200  
S    26.44700   27.94300   27.50400  
C    25.85400   26.30100   27.03900  
H    24.95100   26.35800   26.42700  
H    26.71400   25.90700   26.49100  
H    25.68800   25.75800   27.97300  
O    27.46100   27.71200   28.58000  
C    22.61400   19.14600   21.63600  
H    22.39400   18.59600   20.71800  
H    22.38400   20.20000   21.46100  
H    23.67100   18.97700   21.85500  
S    21.51300   18.44000   22.88300  
C    22.50100   16.99700   23.33800  
H    22.73700   16.53500   22.37600  
H    23.42600   17.27800   23.84700  
H    21.91400   16.36900   24.01300  
O    20.29400   17.81200   22.28200  
C    25.03000   12.42900   25.15900  
H    26.01000   12.53800   24.68900  
H    25.18100   12.73200   26.19800  
H    24.63200   11.41200   25.10100  
S    23.77400   13.46900   24.38000  
C    22.27200   12.96500   25.24800  
H    21.56000   13.78700   25.13900  
H    21.92000   12.01700   24.83500  
H    22.58200   12.83400   26.28800  
O    23.59400   12.77100   23.06700  
C    26.67400   26.40000   22.18400  
H    26.75500   26.04600   21.15300  
H    27.27700   27.28800   22.38900  
H    26.94100   25.58700   22.86300  
S    24.93800   26.84900   22.41200  
C    25.19000   28.05200   23.73600  
H    25.47000   29.00800   23.28600  
H    24.24300   28.22700   24.25200  
H    25.91400   27.62500   24.43500  
O    24.43000   25.67500   23.19100  
C    17.47200   18.89800   22.89200  
H    16.55000   18.98200   23.47200  
H    17.36100   17.97100   22.32400  
H    18.43800   19.06200   23.37800  
S    17.31200   20.09600   21.54900  
C    17.00200   21.42300   22.73600  
H    16.29700   21.05600   23.48600  
H    17.96300   21.66900   23.19500  
H    16.83000   22.40500   22.28700  
O    15.98400   19.71900   20.97000  
C    30.27000   25.58500   26.98100  
H    31.21500   25.92800   26.55000  
H    29.72600   26.41800   27.43200  
H    30.56500   24.82800   27.71200  
S    29.25000   24.70800   25.77400  
C    30.42700   23.51900   25.09000  
H    30.93900   22.92200   25.84900  
H    29.86300   22.87400   24.41100  
H    31.17800   24.08700   24.53600  
O    28.98600   25.69000   24.67600  
C    19.36200   19.02300   26.01400  
H    19.17900   17.97300   25.77300  
H    19.74400   19.42200   25.07100  
H    20.20900   19.05200   26.70400  
S    18.04200   19.97600   26.79800  
C    17.44400   18.69200   27.92000  
H    17.24300   17.71400   27.47600  
H    18.26000   18.62800   28.64400  
H    16.58600   19.03900   28.50200  
O    16.98900   19.94100   25.73400  
C    27.14000   16.71700   30.19100  
H    27.06800   16.95200   31.25600  
H    28.06100   17.08100   29.72700  
H    26.27900   17.01300   29.58800  
S    27.21000   14.91700   30.04800  
C    27.10700   14.97700   28.24500  
H    26.11100   15.40200   28.10400  
H    27.87200   15.61300   27.79200  
H    27.22200   14.01700   27.73500  
O    25.86200   14.39600   30.43600  
C    29.46800   16.59100   18.90400  
H    29.16700   17.64200   18.90100  
H    29.31100   15.95100   18.03300  
H    28.94800   16.11500   19.73900  
S    31.22900   16.64600   19.31000  
C    30.99900   15.48600   20.67700  
H    30.67700   14.48700   20.37500  
H    31.99000   15.28500   21.09200  
H    30.34600   15.97500   21.40400  
O    31.37700   17.91400   20.09000  
C    33.27800   19.45600   25.08900  
H    34.29800   19.75800   25.34100  
H    32.59500   20.30700   25.02900  
H    32.80800   18.69100   25.71300  
S    33.21300   18.69200   23.45300  
C    31.51500   18.08800   23.57700  
H    31.35800   17.53600   24.50700  
H    30.97000   19.03200   23.66300  
H    31.18300   17.69100   22.61500  
O    33.92800   17.41000   23.74900  
C    28.63800   23.36600   21.73700  
H    28.84000   24.41100   21.48700  
H    27.64300   23.10900   21.36600  
H    28.76700   23.16400   22.80300  
S    29.92900   22.37600   20.94900  
C    29.05600   20.79600   20.87600  
H    28.78100   20.57800   21.91100  
H    28.12800   20.87900   20.30400  
H    29.71500   19.97600   20.57900  
O    30.89400   22.26400   22.08800  
C    19.60600   27.13600   30.10800  
H    19.09200   26.89200   29.17500  
H    19.03500   27.89000   30.65600  
H    20.61300   27.50100   29.88700  
S    19.59000   25.80400   31.32900  
C    17.80200   25.70900   31.57800  
H    17.40300   25.64000   30.56300  
H    17.52900   24.83600   32.17700  
H    17.51500   26.67500   32.00000  
O    19.97500   26.46200   32.61700  
C    25.66700   16.28100   23.76900  
H    26.12000   17.12200   24.30000  
H    25.09800   16.49700   22.86100  
H    24.97100   15.77400   24.44300  
S    27.01300   15.16600   23.31100  
C    27.78800   14.99700   24.93500  
H    28.73300   14.50200   24.69600  
H    27.96400   16.01600   25.28900  
H    27.11900   14.45000   25.60400  
O    27.97900   16.06000   22.59600  
C    21.74600   22.36400   30.44500  
H    22.75100   22.51900   30.04300  
H    21.03200   23.11300   30.09400  
H    21.72300   22.35500   31.53700  
S    21.21700   20.79200   29.72800  
C    19.56600   20.54800   30.42300  
H    18.89100   21.33600   30.08000  
H    19.06300   19.60700   30.18800  
H    19.67100   20.51000   31.51000  
O    21.97800   19.72400   30.45100  
C    17.33300   28.53900   22.36800  
H    17.96000   28.77200   21.50400  
H    16.40300   28.14300   21.95100  
H    17.12100   29.39200   23.01700  
S    18.14600   27.31400   23.41800  
C    18.19000   26.06300   22.11400  
H    17.26100   26.12900   21.54200  
H    19.06300   26.33000   21.51200  
H    18.44600   25.11200   22.58800  
O    17.05000   26.80900   24.30400  
C    17.15800   25.33400   27.57800  
H    16.44900   24.61400   27.99400  
H    17.34500   26.20500   28.21100  
H    16.83800   25.70000   26.59900  
S    18.70700   24.44400   27.30200  
C    18.05700   23.35700   26.01300  
H    17.73900   23.98000   25.17300  
H    18.83300   22.60600   25.84500  
H    17.22200   22.75200   26.37300  
O    18.74500   23.62300   28.55400  
C    20.63200   22.09400   22.72100  
H    20.24300   21.18100   22.26400  
H    21.64600   21.85100   23.05000  
H    20.07500   22.35400   23.62500  
S    20.82300   23.26300   21.35700  
C    21.45600   24.57300   22.42800  
H    22.47500   24.21600   22.59700  
H    21.38100   25.51700   21.88200  
H    20.89100   24.65600   23.36000  
O    19.42900   23.68100   21.00400  
C    35.66300   22.85200   25.50000  
H    35.95800   23.30700   26.44800  
H    35.88000   21.79100   25.35300  
H    36.07500   23.43800   24.67400  
S    33.89100   23.15600   25.31600  
C    34.07500   22.85400   23.54300  
H    34.44000   21.83500   23.38800  
H    33.06500   22.89400   23.12600  
H    34.74800   23.55600   23.04600  
O    33.85500   24.64800   25.43200  
C    22.97900   24.83300   32.39800  
H    21.91500   24.65600   32.57800  
H    23.23600   25.88100   32.57000  
H    23.16300   24.66100   31.33400  
S    23.85500   23.55900   33.33300  
C    23.28600   23.85900   35.02100  
H    23.55800   24.85500   35.38000  
H    22.20200   23.72800   34.97800  
H    23.74600   23.03800   35.57700  
O    25.27800   24.01700   33.40500  
C    22.78400   14.91300   28.49900  
H    22.55700   14.88900   29.56800  
H    21.91100   14.82200   27.84800  
H    23.33500   14.00300   28.24700  
S    23.65800   16.46200   28.18200  
C    22.25000   17.58700   28.05800  
H    21.58900   17.60100   28.92900  
H    22.68800   18.57400   27.89000  
H    21.66900   17.47100   27.14000  
O    24.04800   16.41600   26.73800  
C    29.76800   23.63200   17.63900  
H    30.65100   23.84600   18.24600  
H    29.29400   22.76000   18.09600  
H    29.99800   23.55100   16.57300  
S    28.56100   24.95200   17.89300  
C    29.50300   26.36200   17.26900  
H    29.75700   26.20100   16.21800  
H    28.84100   27.22500   17.36800  
H    30.42200   26.50000   17.84600  
O    28.49000   25.24000   19.36000  
$end

$rem
JOBTYPE  SP
METHOD  B3LYP
BASIS  6-31+G(D)
SYMMETRY  FALSE
SYM_IGNORE  TRUE
MEM_TOTAL  16000
MEM_STATIC  8000
MAX_SUB_FILE_NUM  16000
BASIS_LIN_DEP_THRESH  6
THRESH  14
SCF_CONVERGENCE  8
GEN_SCFMAN  TRUE
SCF_GUESS  SAD
FD_MAT_VEC_PROD  FALSE
XC_GRID  000075000302
NL_GRID  1
MAX_SCF_CYCLES  200
ENV_METHOD  B3LYP
GEN_SCFMAN_EMBED  TRUE
SPADE_PARTITION  TRUE
$end

$development
embedding_early_stop  1
$end

--------------------------------------------------------------
 ----------------------------------------------------------------
             Standard Nuclear Orientation (Angstroms)
    I     Atom           X                Y                Z
 ----------------------------------------------------------------
    1      C      24.2940000000    20.6720000000    25.1210000000
    2      C      24.1720000000    22.1520000000    25.5210000000
    3      C      25.5240000000    22.8600000000    25.7050000000
    4      C      26.5750000000    22.4810000000    24.6480000000
    5      C      26.6570000000    20.9840000000    24.3070000000
    6      C      25.2670000000    20.4280000000    23.9560000000
    7      H      25.3020000000    23.9310000000    25.7860000000
    8      H      23.7290000000    22.6260000000    24.6370000000
    9      H      24.6840000000    20.2060000000    26.0340000000
   10      H      23.3050000000    20.2350000000    24.9380000000
   11      H      26.5560000000    23.0900000000    23.7360000000
   12      H      27.5570000000    22.6510000000    25.1050000000
   13      H      27.3990000000    20.6480000000    23.5720000000
   14      H      27.0350000000    20.5630000000    25.2460000000
   15      H      24.8890000000    20.8420000000    23.0130000000
   16      H      25.4620000000    19.3750000000    23.7170000000
   17      H      25.9110000000    22.5200000000    26.6740000000
   18      N      23.3800000000    22.3590000000    26.7320000000
   19      H      23.7960000000    22.0890000000    27.6150000000
   20      C      22.0360000000    22.6560000000    26.8060000000
   21      H      21.6790000000    22.7890000000    27.8440000000
   22      O      21.4010000000    22.9180000000    25.7990000000
   23      C      22.4360000000    26.0690000000    25.9100000000
   24      H      23.2040000000    26.6480000000    25.3930000000
   25      H      22.8970000000    25.6650000000    26.8150000000
   26      H      21.9600000000    25.2470000000    25.3690000000
   27      S      21.1690000000    27.1270000000    26.6460000000
   28      C      21.0830000000    28.0310000000    25.0830000000
   29      H      20.4410000000    28.8960000000    25.2680000000
   30      H      22.0910000000    28.3710000000    24.8360000000
   31      H      20.7270000000    27.4160000000    24.2520000000
   32      O      21.9610000000    27.8120000000    27.7160000000
   33      C      26.2450000000    15.6740000000    19.3460000000
   34      H      25.7600000000    14.6950000000    19.3230000000
   35      H      26.9390000000    15.7920000000    18.5100000000
   36      H      26.8530000000    15.7550000000    20.2500000000
   37      S      25.0230000000    17.0060000000    19.3270000000
   38      C      26.0950000000    18.3470000000    19.8900000000
   39      H      26.7000000000    18.7200000000    19.0590000000
   40      H      25.4360000000    19.1570000000    20.2130000000
   41      H      26.7060000000    17.9140000000    20.6850000000
   42      O      24.0850000000    16.7340000000    20.4620000000
   43      C      27.8770000000    24.0450000000    29.8040000000
   44      H      28.4960000000    24.7760000000    29.2780000000
   45      H      28.3260000000    23.0520000000    29.8890000000
   46      H      26.9080000000    23.9240000000    29.3120000000
   47      S      27.6450000000    24.4490000000    31.5500000000
   48      C      26.6080000000    25.8950000000    31.2370000000
   49      H      25.6740000000    25.6750000000    31.7600000000
   50      H      27.1010000000    26.7120000000    31.7700000000
   51      H      26.4860000000    25.9250000000    30.1510000000
   52      O      28.8770000000    25.0740000000    32.1270000000
   53      C      29.5040000000    19.9910000000    28.8200000000
   54      H      28.6200000000    19.9390000000    29.4600000000
   55      H      30.0310000000    19.0390000000    28.9210000000
   56      H      30.1230000000    20.7790000000    29.2550000000
   57      S      29.2430000000    20.1950000000    27.0430000000
   58      C      28.5640000000    18.5370000000    26.8110000000
   59      H      28.2870000000    18.5390000000    25.7530000000
   60      H      29.2880000000    17.7230000000    26.9090000000
   61      H      27.6700000000    18.2930000000    27.3910000000
   62      O      30.5930000000    20.1500000000    26.3980000000
   63      C      32.3840000000    18.0140000000    28.5710000000
   64      H      31.9060000000    18.6800000000    27.8480000000
   65      H      32.2600000000    18.5170000000    29.5340000000
   66      H      33.4610000000    17.9900000000    28.3860000000
   67      S      31.7130000000    16.3390000000    28.6620000000
   68      C      32.2180000000    15.5340000000    27.1250000000
   69      H      31.7980000000    15.9970000000    26.2280000000
   70      H      33.3000000000    15.5880000000    26.9830000000
   71      H      31.9660000000    14.4720000000    27.0710000000
   72      O      30.2230000000    16.2750000000    28.7950000000
   73      C      25.0690000000    19.6510000000    28.9990000000
   74      H      23.9990000000    19.8700000000    28.9470000000
   75      H      25.4420000000    19.6480000000    27.9720000000
   76      H      25.2190000000    18.7880000000    29.6530000000
   77      S      25.8240000000    21.0600000000    29.8400000000
   78      C      25.0850000000    20.7570000000    31.4610000000
   79      H      24.9370000000    21.6550000000    32.0660000000
   80      H      24.0760000000    20.3800000000    31.2770000000
   81      H      25.8750000000    20.0990000000    31.8310000000
   82      O      25.0020000000    22.2280000000    29.3900000000
   83      C      24.2110000000    24.3050000000    19.7140000000
   84      H      23.3270000000    23.9350000000    19.1890000000
   85      H      23.9920000000    24.8950000000    20.6080000000
   86      H      24.9130000000    24.8330000000    19.0640000000
   87      S      25.0030000000    22.7740000000    20.2560000000
   88      C      26.0770000000    22.4430000000    18.8410000000
   89      H      25.5340000000    22.7940000000    17.9600000000
   90      H      26.9610000000    23.0590000000    19.0240000000
   91      H      26.1240000000    21.3570000000    18.7260000000
   92      O      24.0230000000    21.6460000000    20.1690000000
   93      C      25.0420000000    28.4340000000    28.5290000000
   94      H      25.3590000000    29.2850000000    29.1370000000
   95      H      24.1830000000    28.6510000000    27.8890000000
   96      H      24.7840000000    27.5530000000    29.1220000000
   97      S      26.4470000000    27.9430000000    27.5040000000
   98      C      25.8540000000    26.3010000000    27.0390000000
   99      H      24.9510000000    26.3580000000    26.4270000000
  100      H      26.7140000000    25.9070000000    26.4910000000
  101      H      25.6880000000    25.7580000000    27.9730000000
  102      O      27.4610000000    27.7120000000    28.5800000000
  103      C      22.6140000000    19.1460000000    21.6360000000
  104      H      22.3940000000    18.5960000000    20.7180000000
  105      H      22.3840000000    20.2000000000    21.4610000000
  106      H      23.6710000000    18.9770000000    21.8550000000
  107      S      21.5130000000    18.4400000000    22.8830000000
  108      C      22.5010000000    16.9970000000    23.3380000000
  109      H      22.7370000000    16.5350000000    22.3760000000
  110      H      23.4260000000    17.2780000000    23.8470000000
  111      H      21.9140000000    16.3690000000    24.0130000000
  112      O      20.2940000000    17.8120000000    22.2820000000
  113      C      25.0300000000    12.4290000000    25.1590000000
  114      H      26.0100000000    12.5380000000    24.6890000000
  115      H      25.1810000000    12.7320000000    26.1980000000
  116      H      24.6320000000    11.4120000000    25.1010000000
  117      S      23.7740000000    13.4690000000    24.3800000000
  118      C      22.2720000000    12.9650000000    25.2480000000
  119      H      21.5600000000    13.7870000000    25.1390000000
  120      H      21.9200000000    12.0170000000    24.8350000000
  121      H      22.5820000000    12.8340000000    26.2880000000
  122      O      23.5940000000    12.7710000000    23.0670000000
  123      C      26.6740000000    26.4000000000    22.1840000000
  124      H      26.7550000000    26.0460000000    21.1530000000
  125      H      27.2770000000    27.2880000000    22.3890000000
  126      H      26.9410000000    25.5870000000    22.8630000000
  127      S      24.9380000000    26.8490000000    22.4120000000
  128      C      25.1900000000    28.0520000000    23.7360000000
  129      H      25.4700000000    29.0080000000    23.2860000000
  130      H      24.2430000000    28.2270000000    24.2520000000
  131      H      25.9140000000    27.6250000000    24.4350000000
  132      O      24.4300000000    25.6750000000    23.1910000000
  133      C      17.4720000000    18.8980000000    22.8920000000
  134      H      16.5500000000    18.9820000000    23.4720000000
  135      H      17.3610000000    17.9710000000    22.3240000000
  136      H      18.4380000000    19.0620000000    23.3780000000
  137      S      17.3120000000    20.0960000000    21.5490000000
  138      C      17.0020000000    21.4230000000    22.7360000000
  139      H      16.2970000000    21.0560000000    23.4860000000
  140      H      17.9630000000    21.6690000000    23.1950000000
  141      H      16.8300000000    22.4050000000    22.2870000000
  142      O      15.9840000000    19.7190000000    20.9700000000
  143      C      30.2700000000    25.5850000000    26.9810000000
  144      H      31.2150000000    25.9280000000    26.5500000000
  145      H      29.7260000000    26.4180000000    27.4320000000
  146      H      30.5650000000    24.8280000000    27.7120000000
  147      S      29.2500000000    24.7080000000    25.7740000000
  148      C      30.4270000000    23.5190000000    25.0900000000
  149      H      30.9390000000    22.9220000000    25.8490000000
  150      H      29.8630000000    22.8740000000    24.4110000000
  151      H      31.1780000000    24.0870000000    24.5360000000
  152      O      28.9860000000    25.6900000000    24.6760000000
  153      C      19.3620000000    19.0230000000    26.0140000000
  154      H      19.1790000000    17.9730000000    25.7730000000
  155      H      19.7440000000    19.4220000000    25.0710000000
  156      H      20.2090000000    19.0520000000    26.7040000000
  157      S      18.0420000000    19.9760000000    26.7980000000
  158      C      17.4440000000    18.6920000000    27.9200000000
  159      H      17.2430000000    17.7140000000    27.4760000000
  160      H      18.2600000000    18.6280000000    28.6440000000
  161      H      16.5860000000    19.0390000000    28.5020000000
  162      O      16.9890000000    19.9410000000    25.7340000000
  163      C      27.1400000000    16.7170000000    30.1910000000
  164      H      27.0680000000    16.9520000000    31.2560000000
  165      H      28.0610000000    17.0810000000    29.7270000000
  166      H      26.2790000000    17.0130000000    29.5880000000
  167      S      27.2100000000    14.9170000000    30.0480000000
  168      C      27.1070000000    14.9770000000    28.2450000000
  169      H      26.1110000000    15.4020000000    28.1040000000
  170      H      27.8720000000    15.6130000000    27.7920000000
  171      H      27.2220000000    14.0170000000    27.7350000000
  172      O      25.8620000000    14.3960000000    30.4360000000
  173      C      29.4680000000    16.5910000000    18.9040000000
  174      H      29.1670000000    17.6420000000    18.9010000000
  175      H      29.3110000000    15.9510000000    18.0330000000
  176      H      28.9480000000    16.1150000000    19.7390000000
  177      S      31.2290000000    16.6460000000    19.3100000000
  178      C      30.9990000000    15.4860000000    20.6770000000
  179      H      30.6770000000    14.4870000000    20.3750000000
  180      H      31.9900000000    15.2850000000    21.0920000000
  181      H      30.3460000000    15.9750000000    21.4040000000
  182      O      31.3770000000    17.9140000000    20.0900000000
  183      C      33.2780000000    19.4560000000    25.0890000000
  184      H      34.2980000000    19.7580000000    25.3410000000
  185      H      32.5950000000    20.3070000000    25.0290000000
  186      H      32.8080000000    18.6910000000    25.7130000000
  187      S      33.2130000000    18.6920000000    23.4530000000
  188      C      31.5150000000    18.0880000000    23.5770000000
  189      H      31.3580000000    17.5360000000    24.5070000000
  190      H      30.9700000000    19.0320000000    23.6630000000
  191      H      31.1830000000    17.6910000000    22.6150000000
  192      O      33.9280000000    17.4100000000    23.7490000000
  193      C      28.6380000000    23.3660000000    21.7370000000
  194      H      28.8400000000    24.4110000000    21.4870000000
  195      H      27.6430000000    23.1090000000    21.3660000000
  196      H      28.7670000000    23.1640000000    22.8030000000
  197      S      29.9290000000    22.3760000000    20.9490000000
  198      C      29.0560000000    20.7960000000    20.8760000000
  199      H      28.7810000000    20.5780000000    21.9110000000
  200      H      28.1280000000    20.8790000000    20.3040000000
  201      H      29.7150000000    19.9760000000    20.5790000000
  202      O      30.8940000000    22.2640000000    22.0880000000
  203      C      19.6060000000    27.1360000000    30.1080000000
  204      H      19.0920000000    26.8920000000    29.1750000000
  205      H      19.0350000000    27.8900000000    30.6560000000
  206      H      20.6130000000    27.5010000000    29.8870000000
  207      S      19.5900000000    25.8040000000    31.3290000000
  208      C      17.8020000000    25.7090000000    31.5780000000
  209      H      17.4030000000    25.6400000000    30.5630000000
  210      H      17.5290000000    24.8360000000    32.1770000000
  211      H      17.5150000000    26.6750000000    32.0000000000
  212      O      19.9750000000    26.4620000000    32.6170000000
  213      C      25.6670000000    16.2810000000    23.7690000000
  214      H      26.1200000000    17.1220000000    24.3000000000
  215      H      25.0980000000    16.4970000000    22.8610000000
  216      H      24.9710000000    15.7740000000    24.4430000000
  217      S      27.0130000000    15.1660000000    23.3110000000
  218      C      27.7880000000    14.9970000000    24.9350000000
  219      H      28.7330000000    14.5020000000    24.6960000000
  220      H      27.9640000000    16.0160000000    25.2890000000
  221      H      27.1190000000    14.4500000000    25.6040000000
  222      O      27.9790000000    16.0600000000    22.5960000000
  223      C      21.7460000000    22.3640000000    30.4450000000
  224      H      22.7510000000    22.5190000000    30.0430000000
  225      H      21.0320000000    23.1130000000    30.0940000000
  226      H      21.7230000000    22.3550000000    31.5370000000
  227      S      21.2170000000    20.7920000000    29.7280000000
  228      C      19.5660000000    20.5480000000    30.4230000000
  229      H      18.8910000000    21.3360000000    30.0800000000
  230      H      19.0630000000    19.6070000000    30.1880000000
  231      H      19.6710000000    20.5100000000    31.5100000000
  232      O      21.9780000000    19.7240000000    30.4510000000
  233      C      17.3330000000    28.5390000000    22.3680000000
  234      H      17.9600000000    28.7720000000    21.5040000000
  235      H      16.4030000000    28.1430000000    21.9510000000
  236      H      17.1210000000    29.3920000000    23.0170000000
  237      S      18.1460000000    27.3140000000    23.4180000000
  238      C      18.1900000000    26.0630000000    22.1140000000
  239      H      17.2610000000    26.1290000000    21.5420000000
  240      H      19.0630000000    26.3300000000    21.5120000000
  241      H      18.4460000000    25.1120000000    22.5880000000
  242      O      17.0500000000    26.8090000000    24.3040000000
  243      C      17.1580000000    25.3340000000    27.5780000000
  244      H      16.4490000000    24.6140000000    27.9940000000
  245      H      17.3450000000    26.2050000000    28.2110000000
  246      H      16.8380000000    25.7000000000    26.5990000000
  247      S      18.7070000000    24.4440000000    27.3020000000
  248      C      18.0570000000    23.3570000000    26.0130000000
  249      H      17.7390000000    23.9800000000    25.1730000000
  250      H      18.8330000000    22.6060000000    25.8450000000
  251      H      17.2220000000    22.7520000000    26.3730000000
  252      O      18.7450000000    23.6230000000    28.5540000000
  253      C      20.6320000000    22.0940000000    22.7210000000
  254      H      20.2430000000    21.1810000000    22.2640000000
  255      H      21.6460000000    21.8510000000    23.0500000000
  256      H      20.0750000000    22.3540000000    23.6250000000
  257      S      20.8230000000    23.2630000000    21.3570000000
  258      C      21.4560000000    24.5730000000    22.4280000000
  259      H      22.4750000000    24.2160000000    22.5970000000
  260      H      21.3810000000    25.5170000000    21.8820000000
  261      H      20.8910000000    24.6560000000    23.3600000000
  262      O      19.4290000000    23.6810000000    21.0040000000
  263      C      35.6630000000    22.8520000000    25.5000000000
  264      H      35.9580000000    23.3070000000    26.4480000000
  265      H      35.8800000000    21.7910000000    25.3530000000
  266      H      36.0750000000    23.4380000000    24.6740000000
  267      S      33.8910000000    23.1560000000    25.3160000000
  268      C      34.0750000000    22.8540000000    23.5430000000
  269      H      34.4400000000    21.8350000000    23.3880000000
  270      H      33.0650000000    22.8940000000    23.1260000000
  271      H      34.7480000000    23.5560000000    23.0460000000
  272      O      33.8550000000    24.6480000000    25.4320000000
  273      C      22.9790000000    24.8330000000    32.3980000000
  274      H      21.9150000000    24.6560000000    32.5780000000
  275      H      23.2360000000    25.8810000000    32.5700000000
  276      H      23.1630000000    24.6610000000    31.3340000000
  277      S      23.8550000000    23.5590000000    33.3330000000
  278      C      23.2860000000    23.8590000000    35.0210000000
  279      H      23.5580000000    24.8550000000    35.3800000000
  280      H      22.2020000000    23.7280000000    34.9780000000
  281      H      23.7460000000    23.0380000000    35.5770000000
  282      O      25.2780000000    24.0170000000    33.4050000000
  283      C      22.7840000000    14.9130000000    28.4990000000
  284      H      22.5570000000    14.8890000000    29.5680000000
  285      H      21.9110000000    14.8220000000    27.8480000000
  286      H      23.3350000000    14.0030000000    28.2470000000
  287      S      23.6580000000    16.4620000000    28.1820000000
  288      C      22.2500000000    17.5870000000    28.0580000000
  289      H      21.5890000000    17.6010000000    28.9290000000
  290      H      22.6880000000    18.5740000000    27.8900000000
  291      H      21.6690000000    17.4710000000    27.1400000000
  292      O      24.0480000000    16.4160000000    26.7380000000
  293      C      29.7680000000    23.6320000000    17.6390000000
  294      H      30.6510000000    23.8460000000    18.2460000000
  295      H      29.2940000000    22.7600000000    18.0960000000
  296      H      29.9980000000    23.5510000000    16.5730000000
  297      S      28.5610000000    24.9520000000    17.8930000000
  298      C      29.5030000000    26.3620000000    17.2690000000
  299      H      29.7570000000    26.2010000000    16.2180000000
  300      H      28.8410000000    27.2250000000    17.3680000000
  301      H      30.4220000000    26.5000000000    17.8460000000
  302      O      28.4900000000    25.2400000000    19.3600000000
 ----------------------------------------------------------------
 Nuclear Repulsion Energy =       51148.30638830 hartrees
 There are      623 alpha and      623 beta electrons
 Requested basis set is 6-31+G(d)
 There are 995 shells and 2773 basis functions

 Total QAlloc Memory Limit  16000 MB
 Mega-Array Size      7821 MB
 MEM_STATIC part      8000 MB
 A cutoff of  1.0D-14 yielded 187288 shell pairs
 There are   1619955 function pairs
 Smallest overlap matrix eigenvalue = 3.78E-07
 Linear dependence detected in AO basis
 Tighter screening thresholds may be required for diffuse basis sets
 Use S2THRESH > 14 and THRESH = 14 in case of SCF convergence issues
 Number of orthogonalized atomic orbitals = 2771
 Maximum deviation from orthogonality = 1.427E-10

 Scale SEOQF with 1.000000e-03/1.000000e-03/1.000000e-03

 Standard Electronic Orientation quadrupole field applied
 Nucleus-field energy     =    -0.0000001711 hartrees
 Guess from superposition of atomic densities
 Warning:  Energy on first SCF cycle will be non-variational
 SAD guess density has 1246.000002 electrons

 -----------------------------------------------------------------------
  General SCF calculation program by
  Eric Jon Sundstrom, Paul Horn, Yuezhi Mao, Dmitri Zuev, Alec White,
  David Stuck, Shaama M.S., Shane Yost, Joonho Lee, David Small,
  Daniel Levine, Susi Lehtola, Hugh Burton, Evgeny Epifanovsky,
  Bang C. Huynh
 -----------------------------------------------------------------------
=================================================
        Doing projection-based embedding         
      F. Manby et al. JCTC, 8, 2564 (2012)       
=================================================

****************************************************
   Low-level SCF calculation for the whole system   
****************************************************
----------------------------------------------
 Summary of the low-level theory: 
 Exchange:     0.2000 Hartree-Fock + 0.0800 Slater + 0.7200 B88
 Correlation:  0.1900 VWN1RPA + 0.8100 LYP
 Using Euler-Maclaurin-Lebedev (75,302) quadrature formula
----------------------------------------------
 using 16 threads for integral computing
 -------------------------------------------------------
 OpenMP Integral computing Module                
 Release: version 2.0, May 2017, Q-Chem Inc. Pleasanton 
 -------------------------------------------------------
 A restricted SCF calculation will be
 performed using DIIS
 SCF converges when DIIS error is below 1.0e-08
 ---------------------------------------
  Cycle       Energy         DIIS error
 ---------------------------------------
    1  -15913.8744224920      1.33e-02  
    2  -15888.8755889516      2.47e-03  
    3  -15872.0155491447      4.97e-03  
    4  -15892.5463484264      1.20e-03  
    5  -15893.8736702961      1.92e-04  
    6  -15893.8838102160      1.76e-04  
    7  -15893.9065168208      5.85e-05  
    8  -15893.9092246502      1.40e-05  
    9  -15893.9093674341      6.34e-06  
   10  -15893.9093955777      2.24e-06  
   11  -15893.9093992754      5.90e-07  
   12  -15893.9093995235      2.51e-07  
   13  -15893.9093995735      7.76e-08  
   14  -15893.9093995778      3.22e-08  
   15  -15893.9093995784      8.57e-09  Convergence criterion met
 ---------------------------------------
 SCF time:   CPU 208918.04s  wall 13200.00s 
 SCF   energy in the final basis set =   -15893.9093995784
 Total energy in the final basis set =   -15893.9093995784

****************************************************
             Start embedding calculation            
****************************************************
----------------------------------------------
 Summary of the high-level theory: 
 Exchange:     0.2000 Hartree-Fock + 0.0800 Slater + 0.7200 B88
 Correlation:  0.1900 VWN1RPA + 0.8100 LYP
 Using Euler-Maclaurin-Lebedev (75,302) quadrature formula
----------------------------------------------
Doing R-in-R Embedding Calculation
Number of fragments: 2
Embedded fragment(s): 1 
NOcc for each fragment
           35
          588
NBasis for each fragment
          197
         2576
Variational space of the embedded problem: 
NOcc (active)  = 35
NOcc (fixed)   = 588
NVir (total)   = 2148
Read converged orbitals from disk
=========================================================
       Doing SPADE partition for the orbital space       
     D. CLaudino and N. Mayhall JCTC 15, 1053 (2019)     
=========================================================
SPADE singular values:
 1.0000 1.0000 1.0000 1.0000 1.0000 1.0000 1.0000 1.0000 1.0000 0.9999
 0.9998 0.9997 0.9996 0.9996 0.9995 0.9994 0.9993 0.9991 0.9987 0.9977
 0.9971 0.9965 0.9961 0.9953 0.9951 0.9948 0.9938 0.9936 0.9927 0.9919
 0.9912 0.9902 0.9882 0.9846 0.9792 0.2013 0.1780 0.1735 0.1638 0.1468
 0.1450 0.1370 0.1361 0.1194 0.1099 0.1034 0.0842 0.0810 0.0777 0.0750
 0.0623 0.0593 0.0548 0.0535 0.0483 0.0434 0.0411 0.0389 0.0367 0.0361
 0.0325 0.0300 0.0278 0.0268 0.0259 0.0249 0.0243 0.0229 0.0207 0.0198
 0.0182 0.0174 0.0157 0.0155 0.0145 0.0134 0.0120 0.0118 0.0116 0.0110
 0.0101 0.0094 0.0091 0.0086 0.0084 0.0074 0.0074 0.0070 0.0069 0.0065
 0.0063 0.0061 0.0058 0.0053 0.0053 0.0051 0.0048 0.0046 0.0042 0.0040
 0.0039 0.0035 0.0034 0.0033 0.0030 0.0030 0.0029 0.0028 0.0026 0.0025
 0.0025 0.0024 0.0023 0.0022 0.0021 0.0020 0.0019 0.0019 0.0017 0.0017
 0.0016 0.0016 0.0015 0.0015 0.0014 0.0013 0.0013 0.0013 0.0012 0.0012
 0.0012 0.0011 0.0010 0.0010 0.0010 0.0009 0.0009 0.0008 0.0008 0.0008
 0.0007 0.0007 0.0006 0.0006 0.0006 0.0006 0.0005 0.0005 0.0005 0.0005
 0.0005 0.0005 0.0004 0.0004 0.0004 0.0004 0.0004 0.0004 0.0003 0.0003
 0.0003 0.0003 0.0003 0.0003 0.0003 0.0003 0.0002 0.0002 0.0002 0.0002
 0.0002 0.0002 0.0002 0.0002 0.0002 0.0002 0.0002 0.0002 0.0002 0.0001
 0.0001 0.0001 0.0001 0.0001 0.0001 0.0001 0.0001 0.0001 0.0001 0.0001
 0.0001 0.0001 0.0001 0.0001 0.0001 0.0001 0.0001
Early stop requested!
588 environment occs will be part of frozen-core in future post-HF calculations
 
 --------------------------------------------------------------
 
                    Orbital Energies (a.u.)
 --------------------------------------------------------------
 
 Alpha MOs
 -- Occupied --
 -0.5108  -0.4638  -0.5033  -0.4952  -0.4721  -0.4996  -0.4805  -0.4838
 -0.4631  -0.4809  -0.4846  -0.4608  -0.4346  -0.4546  -0.4743  -0.4488
 -0.4260  -0.4754  -0.4865  -0.5139  -0.5712  -0.6576  -0.4920  -0.5384
 -0.5250  -0.4930  -0.6560  -0.6721  -0.5537  -0.5623  -0.5371  -0.5408
 -0.6152  -0.6040  -0.6336  -0.5693  -0.5429  -0.6006  -0.6524  -0.6157
 -0.5313  -0.5533  -0.5546  -0.5644  -0.6730  -0.6276  -0.5748  -0.5241
 -0.5531  -0.5423  -0.6561  -0.6279  -0.5776  -0.6011  -0.7212  -0.6615
 -0.6536  -0.6904  -0.6815  -0.6634  -0.7001  -0.7329  -0.8829  -0.6173
 -0.8183  -0.7356  -0.7268  -0.6951  -0.7468  -0.8489  -1.0010  -0.6958
 -0.7803  -0.9720  -0.9329  -1.2031  -0.8578  -0.8023  -0.8529  -0.9410
 -0.9206  -0.9354  -0.7777  -0.9024  -1.0499  -0.8985  -0.9605  -1.3384
 -0.9801  -0.9609  -0.9428  -0.9717  -1.0175  -1.2306  -1.4782  -1.2119
 -1.3705  -1.1018  -1.0163  -1.1376  -1.1398  -1.1353  -1.2558  -1.7169
 -1.3261  -0.9465  -1.1762  -1.2036  -0.9427  -1.2956  -1.1789  -1.3575
 -1.3279  -1.1556  -1.2148  -1.0482  -1.6430  -1.4580  -1.7628  -0.9769
 -1.2753  -1.0640  -1.0494  -1.1648  -1.3781  -1.3645  -1.1416  -1.4728
 -1.4461  -1.3546  -1.1443  -1.4337  -1.3174  -2.2177  -1.2405  -1.0749
 -1.1404  -2.1867  -1.4885  -1.3480  -1.4725  -1.5574  -1.6555  -1.3866
 -1.4283  -1.7499  -2.2377  -1.8309  -1.6007  -1.9854  -1.8022  -1.5391
 -1.5815  -1.5447  -1.4777  -1.6439  -1.8988  -1.5491  -1.6076  -1.6267
 -1.8335  -1.6249  -6.0014  -6.0018  -5.9993  -5.8072  -6.0057  -5.9075
 -5.9856  -6.0053  -5.9891  -5.9958  -5.9800  -5.9944  -5.8706  -6.0057
 -6.0128  -5.9622  -5.9614  -5.9953  -5.9250  -5.9504  -6.0038  -5.9714
 -6.0048  -6.0383  -6.3949  -5.9894  -5.9666  -6.0087  -5.9618  -6.2037
 -5.9350  -5.9570  -5.9411  -5.9512  -5.9268  -5.9588 -44.3824  -1.9720
 -7.7146 -15.0236  -2.4313  -8.3062 -10.3675  -5.5930  -4.3852  -9.8526
 -5.0270  -1.3044  -4.8819  -1.3333  -5.3126  -1.4011  -5.4063  -2.9619
 -1.8334  -1.8328  -1.5746  -5.6506  -1.8720  -5.0598  -8.9573 -11.1078
 -1.7281  -2.5617  -1.6795 -75.6393 -81.0854  -1.2311  -6.8719 -12.5178
-13.2785  -1.4248  -6.1358  -5.0938  -3.7082  -3.6736  -6.9929  -2.4599
-10.9004  -1.8430  -1.2889  -3.1884  -1.8694 -14.5046 -11.6588  -4.7918
 -1.3854  -1.3770  -1.8237 -10.2711  -1.4012 -28.2771 -10.9977  -4.6458
-71.6388  -7.3564 -77.8194  -2.7812  -4.4828  -2.5631 -17.1107  -6.9197
 -8.3765  -7.5356  -7.7508  -9.3623  -5.3576  -3.9163  -5.7892  -2.2557
 -1.3088  -1.9683 -10.5091  -2.5387 -13.8938  -1.2116  -7.0824 -10.5331
 -9.3676  -2.3734  -4.7377  -5.2334 -15.4935  -3.5272  -1.3840 -60.8852
 -7.0449  -1.3985  -8.0893 -74.6538  -8.0523  -9.0156  -8.0801  -4.7973
 -5.9391  -8.5662  -7.0770  -7.2673  -6.7385  -1.1818  -2.7947  -2.7347
 -4.7350 -15.8629  -2.7780  -3.6228  -1.9956  -9.2829  -1.1999 -58.6427
-10.7411  -1.5622 -15.1583 -13.7768 -62.3710  -3.3344  -0.9572 -58.6928
 -3.0663 -10.2147 -22.5092  -4.0197  -9.6838 -31.2659 -21.7659 -15.4230
-15.3571  -7.1272  -4.9182  -6.3090  -3.9725  -4.5114  -4.8397 -11.7134
 -9.6214  -4.5197  -2.5012  -6.6290 -11.6004  -4.7467  -1.9256  -3.5243
 -6.5772 -23.7891 -18.2962  -4.0791  -5.0522  -4.2309  -6.8141  -8.2441
 -5.1175  -5.6009  -7.1170  -5.2901 -12.3352  -5.9472  -6.6584  -5.2473
 -6.2222  -4.2362  -5.1471  -4.4183  -4.5563  -5.3801  -6.4802  -7.9911
 -9.1442  -8.3064  -3.6055  -5.3996  -4.3652  -4.3930  -6.8416  -7.7913
 -7.5742  -4.7506  -7.2027 -12.9041  -6.7252  -1.9963  -6.7724  -4.6096
 -3.5216  -4.8130  -2.8859  -6.4844 -12.9640  -8.5254  -4.4330  -7.4430
 -8.1812 -20.2977 -12.6183 -25.8288  -6.9847  -4.8058  -5.5672 -12.4647
-16.3586  -8.2088 -12.7861  -9.3471  -8.8049  -6.2887  -9.2623  -8.0543
 -7.6736  -5.9375  -8.7149 -16.8909 -25.7221  -9.5135  -5.2926 -10.9595
-19.7751  -4.8080  -8.8366 -15.5239 -17.1002  -6.5351 -12.0435  -8.2679
 -4.2176  -5.5344 -10.0170  -4.7728  -5.6456 -20.1442 -10.1772  -6.2481
 -6.8593  -1.8496  -7.2934  -6.5536  -9.9755  -6.9633  -4.1128  -7.3804
 -5.4458  -5.0766  -3.0070  -7.6824  -3.8137  -3.5259  -4.4041 -14.5868
-17.5092  -5.7593 -28.2450  -8.4653  -6.1501  -5.8711 -12.5837  -8.0009
 -9.2455  -9.2278  -7.3838  -5.4861 -17.6705  -4.8819  -3.6358  -6.6368
 -4.6911  -2.1389  -5.5926  -2.1280 -10.4510  -4.7674  -6.3325  -4.0076
 -4.6650  -3.4203  -5.8809  -5.2356 -12.2586  -8.8624 -16.4390 -38.2397
-13.3009  -7.1741  -8.3846  -7.3881 -29.7030  -7.1779 -11.3446 -12.5899
-16.3861 -14.7519 -13.7001  -1.7594  -2.0116 -27.5204  -9.3295  -8.1523
 -7.1375  -7.9360 -10.8212  -8.8858 -14.4914  -3.6736 -10.7415  -3.0527
 -4.8902  -3.9043  -1.3671  -7.0027  -2.5111 -65.6274  -8.3885  -8.0941
-37.7160  -5.5080  -3.9474 -30.7818 -34.4952  -4.1500  -2.1937  -3.9480
 -6.6620  -1.8506 -21.2793 -64.2090 -10.0490  -5.3779 -78.5008  -4.1010
 -2.4157  -1.5751 -56.4232 -26.3712 -12.2722 -17.9244  -8.8511 -24.2230
-23.0725  -7.5562 -12.0712  -7.9551 -12.4444 -46.4864  -3.6326  -2.3487
 -3.7774  -7.6676 -10.2449  -5.7261 -46.2693 -25.0971  -8.3091  -2.4738
-30.1434  -2.4478 -18.1338 -12.0100 -12.9833 -14.6552  -2.3634 -11.2848
-14.8452 -11.9598 -18.0768 -10.5594 -16.9545 -14.7758  -4.1064  -3.2886
 -4.6075  -3.5117  -7.8713  -7.6964  -4.6088  -9.8134 -13.9953  -5.6722
 -2.3189 -12.7321  -4.7981  -6.0909  -5.7298 -10.3370  -7.4969 -17.4955
 -5.4057 -52.7238  -4.7460  -8.1082 -12.1595 -12.0605 -10.1695 -10.5070
-13.9451 -14.0674 -10.3260 -10.3438 -10.6644  -0.8023  -0.7546  -0.6296
 -0.9105  -0.7422  -0.6703  -0.6639  -0.8448  -0.4644  -0.4677  -0.4172
 -0.5146  -0.4565  -0.4870  -0.4495  -0.4178  -0.4802  -0.3846  -0.4482
 -0.4326  -0.4452  -0.4623  -0.4942  -0.4822  -0.5532  -0.5857
 -- Virtual --
 -0.0337  -0.0311  -0.0303  -0.0284  -0.0270  -0.0263  -0.0243  -0.0242
 -0.0215  -0.0214  -0.0200  -0.0190  -0.0184  -0.0179  -0.0160  -0.0151
 -0.0141  -0.0135  -0.0127  -0.0117  -0.0111  -0.0106  -0.0095  -0.0091
 -0.0083  -0.0071  -0.0060  -0.0054  -0.0049  -0.0047  -0.0038  -0.0028
 -0.0019  -0.0010  -0.0007   0.0002   0.0012   0.0017   0.0023   0.0042
  0.0044   0.0053   0.0061   0.0064   0.0071   0.0079   0.0081   0.0093
  0.0097   0.0104   0.0107   0.0114   0.0118   0.0126   0.0136   0.0150
  0.0153   0.0157   0.0162   0.0171   0.0183   0.0187   0.0200   0.0201
  0.0202   0.0214   0.0223   0.0223   0.0234   0.0236   0.0249   0.0252
  0.0259   0.0264   0.0271   0.0280   0.0290   0.0301   0.0301   0.0310
  0.0319   0.0322   0.0336   0.0339   0.0346   0.0356   0.0363   0.0366
  0.0374   0.0377   0.0379   0.0389   0.0399   0.0402   0.0412   0.0414
  0.0423   0.0425   0.0431   0.0439   0.0446   0.0449   0.0453   0.0463
  0.0467   0.0474   0.0481   0.0482   0.0491   0.0498   0.0506   0.0509
  0.0520   0.0522   0.0529   0.0531   0.0539   0.0542   0.0550   0.0559
  0.0560   0.0564   0.0569   0.0577   0.0578   0.0588   0.0591   0.0600
  0.0603   0.0610   0.0616   0.0624   0.0625   0.0635   0.0641   0.0644
  0.0652   0.0656   0.0663   0.0669   0.0679   0.0681   0.0683   0.0688
  0.0702   0.0705   0.0717   0.0722   0.0728   0.0734   0.0741   0.0744
  0.0756   0.0761   0.0778   0.0780   0.0788   0.0801   0.0807   0.0808
  0.0814   0.0816   0.0824   0.0833   0.0836   0.0847   0.0849   0.0854
  0.0861   0.0866   0.0870   0.0875   0.0880   0.0883   0.0890   0.0900
  0.0905   0.0910   0.0910   0.0925   0.0930   0.0934   0.0943   0.0945
  0.0948   0.0956   0.0963   0.0971   0.0975   0.0977   0.0980   0.0984
  0.0994   0.0999   0.1008   0.1018   0.1024   0.1026   0.1033   0.1038
  0.1043   0.1048   0.1060   0.1067   0.1071   0.1085   0.1088   0.1097
  0.1101   0.1106   0.1113   0.1114   0.1119   0.1131   0.1136   0.1137
  0.1142   0.1147   0.1150   0.1157   0.1162   0.1165   0.1172   0.1185
  0.1192   0.1198   0.1204   0.1212   0.1220   0.1225   0.1228   0.1235
  0.1237   0.1243   0.1253   0.1256   0.1266   0.1271   0.1275   0.1278
  0.1287   0.1289   0.1295   0.1297   0.1304   0.1316   0.1323   0.1327
  0.1331   0.1332   0.1341   0.1348   0.1352   0.1356   0.1360   0.1363
  0.1377   0.1384   0.1387   0.1393   0.1395   0.1401   0.1405   0.1411
  0.1417   0.1421   0.1431   0.1438   0.1445   0.1449   0.1455   0.1461
  0.1475   0.1485   0.1488   0.1493   0.1494   0.1502   0.1514   0.1519
  0.1522   0.1530   0.1538   0.1543   0.1544   0.1549   0.1550   0.1555
  0.1564   0.1572   0.1577   0.1586   0.1588   0.1598   0.1601   0.1605
  0.1612   0.1612   0.1625   0.1632   0.1636   0.1641   0.1644   0.1649
  0.1657   0.1665   0.1672   0.1677   0.1685   0.1692   0.1694   0.1707
  0.1711   0.1714   0.1716   0.1718   0.1725   0.1733   0.1735   0.1742
  0.1754   0.1758   0.1764   0.1766   0.1774   0.1780   0.1786   0.1792
  0.1794   0.1803   0.1808   0.1812   0.1821   0.1829   0.1833   0.1841
  0.1843   0.1847   0.1863   0.1865   0.1868   0.1874   0.1878   0.1890
  0.1892   0.1902   0.1909   0.1915   0.1917   0.1923   0.1929   0.1931
  0.1936   0.1943   0.1949   0.1954   0.1956   0.1970   0.1975   0.1988
  0.1989   0.1993   0.1997   0.2003   0.2013   0.2014   0.2023   0.2029
  0.2039   0.2045   0.2050   0.2052   0.2057   0.2069   0.2073   0.2082
  0.2089   0.2100   0.2102   0.2109   0.2110   0.2121   0.2126   0.2132
  0.2134   0.2140   0.2143   0.2146   0.2153   0.2160   0.2175   0.2176
  0.2183   0.2191   0.2197   0.2200   0.2208   0.2211   0.2218   0.2226
  0.2229   0.2233   0.2243   0.2245   0.2252   0.2263   0.2267   0.2273
  0.2277   0.2283   0.2290   0.2302   0.2311   0.2315   0.2322   0.2334
  0.2337   0.2339   0.2346   0.2351   0.2361   0.2366   0.2373   0.2382
  0.2386   0.2396   0.2396   0.2407   0.2409   0.2418   0.2420   0.2427
  0.2434   0.2446   0.2449   0.2457   0.2459   0.2466   0.2481   0.2483
  0.2492   0.2494   0.2497   0.2509   0.2513   0.2521   0.2527   0.2540
  0.2544   0.2546   0.2561   0.2569   0.2578   0.2586   0.2590   0.2591
  0.2602   0.2607   0.2608   0.2612   0.2625   0.2628   0.2636   0.2647
  0.2652   0.2661   0.2672   0.2675   0.2679   0.2688   0.2696   0.2704
  0.2708   0.2715   0.2726   0.2727   0.2737   0.2737   0.2745   0.2748
  0.2768   0.2772   0.2775   0.2789   0.2798   0.2804   0.2806   0.2816
  0.2831   0.2835   0.2841   0.2842   0.2859   0.2865   0.2866   0.2885
  0.2888   0.2896   0.2901   0.2908   0.2919   0.2934   0.2937   0.2943
  0.2946   0.2955   0.2960   0.2964   0.2974   0.2980   0.2987   0.3001
  0.3005   0.3009   0.3014   0.3022   0.3027   0.3041   0.3044   0.3054
  0.3055   0.3073   0.3079   0.3089   0.3091   0.3107   0.3110   0.3117
  0.3126   0.3130   0.3146   0.3150   0.3157   0.3167   0.3179   0.3188
  0.3188   0.3195   0.3199   0.3208   0.3215   0.3225   0.3232   0.3239
  0.3252   0.3261   0.3266   0.3276   0.3284   0.3290   0.3296   0.3300
  0.3308   0.3317   0.3318   0.3330   0.3336   0.3343   0.3359   0.3361
  0.3372   0.3376   0.3392   0.3399   0.3406   0.3417   0.3422   0.3436
  0.3439   0.3446   0.3450   0.3455   0.3467   0.3474   0.3485   0.3493
  0.3500   0.3512   0.3523   0.3528   0.3542   0.3543   0.3553   0.3559
  0.3577   0.3579   0.3583   0.3593   0.3607   0.3612   0.3616   0.3619
  0.3633   0.3640   0.3644   0.3661   0.3669   0.3674   0.3686   0.3696
  0.3702   0.3712   0.3714   0.3722   0.3733   0.3741   0.3745   0.3749
  0.3756   0.3762   0.3786   0.3791   0.3795   0.3802   0.3807   0.3823
  0.3825   0.3830   0.3843   0.3854   0.3860   0.3864   0.3874   0.3875
  0.3889   0.3895   0.3902   0.3913   0.3916   0.3921   0.3930   0.3937
  0.3953   0.3960   0.3973   0.3980   0.3985   0.3995   0.4001   0.4006
  0.4016   0.4024   0.4031   0.4038   0.4046   0.4054   0.4057   0.4079
  0.4082   0.4100   0.4106   0.4120   0.4127   0.4134   0.4144   0.4150
  0.4152   0.4172   0.4181   0.4185   0.4199   0.4206   0.4214   0.4223
  0.4226   0.4238   0.4246   0.4262   0.4265   0.4283   0.4292   0.4295
  0.4308   0.4312   0.4327   0.4336   0.4346   0.4359   0.4364   0.4372
  0.4382   0.4387   0.4407   0.4424   0.4433   0.4444   0.4451   0.4456
  0.4474   0.4480   0.4502   0.4508   0.4532   0.4538   0.4545   0.4553
  0.4575   0.4587   0.4591   0.4605   0.4619   0.4635   0.4640   0.4651
  0.4676   0.4687   0.4699   0.4715   0.4724   0.4732   0.4744   0.4765
  0.4776   0.4783   0.4792   0.4801   0.4826   0.4835   0.4851   0.4859
  0.4881   0.4883   0.4903   0.4907   0.4911   0.4928   0.4951   0.4976
  0.4980   0.4986   0.4995   0.5027   0.5042   0.5050   0.5065   0.5078
  0.5085   0.5105   0.5110   0.5121   0.5141   0.5150   0.5159   0.5178
  0.5185   0.5227   0.5235   0.5251   0.5259   0.5291   0.5306   0.5318
  0.5328   0.5344   0.5357   0.5390   0.5409   0.5418   0.5424   0.5436
  0.5455   0.5467   0.5493   0.5512   0.5515   0.5533   0.5541   0.5563
  0.5575   0.5594   0.5606   0.5634   0.5640   0.5649   0.5662   0.5672
  0.5709   0.5724   0.5744   0.5758   0.5766   0.5781   0.5796   0.5801
  0.5809   0.5833   0.5840   0.5847   0.5861   0.5882   0.5901   0.5917
  0.5937   0.5947   0.5962   0.5964   0.5982   0.5999   0.6006   0.6027
  0.6031   0.6047   0.6067   0.6077   0.6085   0.6097   0.6127   0.6137
  0.6142   0.6149   0.6161   0.6172   0.6191   0.6199   0.6211   0.6212
  0.6225   0.6231   0.6248   0.6267   0.6274   0.6284   0.6302   0.6311
  0.6319   0.6328   0.6348   0.6356   0.6364   0.6385   0.6393   0.6403
  0.6409   0.6427   0.6433   0.6443   0.6451   0.6455   0.6473   0.6479
  0.6484   0.6489   0.6508   0.6512   0.6521   0.6538   0.6548   0.6555
  0.6565   0.6573   0.6576   0.6599   0.6604   0.6615   0.6635   0.6636
  0.6642   0.6658   0.6670   0.6679   0.6692   0.6708   0.6711   0.6725
  0.6737   0.6757   0.6764   0.6775   0.6782   0.6789   0.6801   0.6819
  0.6831   0.6849   0.6855   0.6862   0.6874   0.6884   0.6896   0.6910
  0.6922   0.6937   0.6943   0.6963   0.6972   0.6988   0.6997   0.7016
  0.7026   0.7033   0.7036   0.7042   0.7072   0.7078   0.7086   0.7117
  0.7122   0.7129   0.7141   0.7146   0.7161   0.7181   0.7189   0.7199
  0.7212   0.7215   0.7227   0.7236   0.7248   0.7262   0.7277   0.7286
  0.7299   0.7305   0.7311   0.7334   0.7345   0.7355   0.7375   0.7392
  0.7394   0.7404   0.7416   0.7418   0.7445   0.7463   0.7475   0.7486
  0.7493   0.7497   0.7513   0.7541   0.7550   0.7558   0.7573   0.7583
  0.7603   0.7607   0.7613   0.7620   0.7645   0.7672   0.7674   0.7682
  0.7705   0.7718   0.7725   0.7735   0.7755   0.7767   0.7786   0.7802
  0.7813   0.7819   0.7853   0.7862   0.7864   0.7890   0.7908   0.7919
  0.7953   0.7961   0.7971   0.7978   0.7986   0.8023   0.8039   0.8065
  0.8068   0.8078   0.8100   0.8108   0.8115   0.8121   0.8132   0.8141
  0.8161   0.8175   0.8197   0.8207   0.8214   0.8241   0.8255   0.8268
  0.8284   0.8313   0.8314   0.8342   0.8350   0.8359   0.8382   0.8385
  0.8413   0.8430   0.8430   0.8452   0.8459   0.8471   0.8485   0.8494
  0.8508   0.8520   0.8535   0.8545   0.8555   0.8570   0.8589   0.8592
  0.8601   0.8618   0.8635   0.8643   0.8650   0.8674   0.8681   0.8692
  0.8701   0.8715   0.8731   0.8750   0.8754   0.8764   0.8780   0.8786
  0.8792   0.8812   0.8815   0.8824   0.8845   0.8852   0.8860   0.8868
  0.8883   0.8898   0.8900   0.8934   0.8939   0.8949   0.8960   0.8965
  0.8976   0.8985   0.8999   0.9010   0.9022   0.9029   0.9047   0.9052
  0.9060   0.9070   0.9084   0.9098   0.9104   0.9121   0.9126   0.9154
  0.9155   0.9163   0.9173   0.9198   0.9208   0.9221   0.9230   0.9235
  0.9243   0.9248   0.9282   0.9285   0.9293   0.9300   0.9313   0.9320
  0.9352   0.9363   0.9371   0.9380   0.9386   0.9395   0.9405   0.9412
  0.9424   0.9437   0.9444   0.9456   0.9462   0.9476   0.9486   0.9490
  0.9491   0.9512   0.9518   0.9531   0.9535   0.9564   0.9571   0.9577
  0.9594   0.9604   0.9632   0.9635   0.9640   0.9643   0.9662   0.9664
  0.9680   0.9691   0.9695   0.9712   0.9721   0.9729   0.9742   0.9750
  0.9757   0.9764   0.9776   0.9788   0.9801   0.9815   0.9826   0.9829
  0.9843   0.9856   0.9860   0.9882   0.9885   0.9895   0.9902   0.9918
  0.9928   0.9942   0.9954   0.9960   0.9967   0.9980   0.9994   1.0005
  1.0010   1.0033   1.0035   1.0047   1.0063   1.0074   1.0087   1.0095
  1.0103   1.0107   1.0124   1.0130   1.0144   1.0152   1.0163   1.0166
  1.0182   1.0201   1.0213   1.0217   1.0229   1.0245   1.0247   1.0261
  1.0276   1.0291   1.0296   1.0313   1.0320   1.0334   1.0349   1.0358
  1.0370   1.0375   1.0383   1.0409   1.0411   1.0430   1.0438   1.0452
  1.0458   1.0472   1.0487   1.0503   1.0508   1.0520   1.0525   1.0534
  1.0550   1.0556   1.0573   1.0594   1.0599   1.0618   1.0625   1.0638
  1.0646   1.0666   1.0680   1.0694   1.0717   1.0722   1.0732   1.0744
  1.0757   1.0769   1.0787   1.0794   1.0805   1.0822   1.0843   1.0847
  1.0857   1.0863   1.0882   1.0895   1.0897   1.0930   1.0931   1.0950
  1.0962   1.0986   1.0996   1.1002   1.1005   1.1026   1.1031   1.1057
  1.1068   1.1075   1.1086   1.1090   1.1101   1.1125   1.1132   1.1150
  1.1162   1.1166   1.1177   1.1181   1.1218   1.1221   1.1234   1.1238
  1.1252   1.1262   1.1282   1.1294   1.1303   1.1318   1.1324   1.1349
  1.1366   1.1367   1.1388   1.1400   1.1410   1.1423   1.1435   1.1444
  1.1450   1.1461   1.1478   1.1487   1.1505   1.1510   1.1523   1.1539
  1.1546   1.1553   1.1556   1.1583   1.1589   1.1607   1.1616   1.1621
  1.1642   1.1658   1.1667   1.1690   1.1703   1.1712   1.1735   1.1748
  1.1755   1.1765   1.1785   1.1798   1.1807   1.1812   1.1835   1.1843
  1.1856   1.1868   1.1889   1.1895   1.1899   1.1922   1.1939   1.1955
  1.1961   1.1987   1.1998   1.2013   1.2031   1.2056   1.2066   1.2093
  1.2098   1.2110   1.2116   1.2132   1.2144   1.2177   1.2197   1.2219
  1.2234   1.2253   1.2262   1.2268   1.2303   1.2327   1.2349   1.2369
  1.2396   1.2428   1.2447   1.2466   1.2472   1.2494   1.2520   1.2544
  1.2560   1.2579   1.2607   1.2614   1.2629   1.2638   1.2676   1.2688
  1.2708   1.2738   1.2765   1.2777   1.2816   1.2832   1.2859   1.2871
  1.2880   1.2910   1.2929   1.2942   1.2976   1.2997   1.3018   1.3027
  1.3042   1.3075   1.3102   1.3117   1.3124   1.3132   1.3169   1.3173
  1.3189   1.3199   1.3242   1.3258   1.3291   1.3305   1.3317   1.3327
  1.3337   1.3370   1.3390   1.3408   1.3429   1.3444   1.3463   1.3492
  1.3508   1.3527   1.3543   1.3549   1.3569   1.3594   1.3596   1.3609
  1.3627   1.3635   1.3652   1.3664   1.3682   1.3694   1.3727   1.3739
  1.3748   1.3750   1.3789   1.3808   1.3818   1.3822   1.3838   1.3849
  1.3860   1.3861   1.3873   1.3907   1.3919   1.3939   1.3943   1.3955
  1.3963   1.3982   1.3983   1.3995   1.4015   1.4037   1.4038   1.4050
  1.4066   1.4093   1.4097   1.4118   1.4123   1.4129   1.4161   1.4167
  1.4174   1.4190   1.4199   1.4212   1.4233   1.4240   1.4255   1.4259
  1.4269   1.4288   1.4312   1.4337   1.4354   1.4365   1.4372   1.4375
  1.4386   1.4415   1.4419   1.4437   1.4459   1.4480   1.4490   1.4504
  1.4516   1.4528   1.4556   1.4567   1.4597   1.4614   1.4617   1.4641
  1.4652   1.4670   1.4692   1.4726   1.4742   1.4761   1.4772   1.4796
  1.4817   1.4828   1.4844   1.4849   1.4865   1.4885   1.4904   1.4916
  1.4934   1.4939   1.4961   1.4967   1.4977   1.5004   1.5022   1.5036
  1.5054   1.5075   1.5091   1.5102   1.5126   1.5140   1.5166   1.5174
  1.5220   1.5247   1.5267   1.5280   1.5286   1.5330   1.5345   1.5351
  1.5369   1.5402   1.5436   1.5455   1.5483   1.5529   1.5545   1.5575
  1.5596   1.5601   1.5627   1.5673   1.5710   1.5730   1.5751   1.5757
  1.5819   1.5869   1.5919   1.5953   1.5991   1.6021   1.6067   1.6101
  1.6130   1.6157   1.6201   1.6234   1.6261   1.6275   1.6322   1.6352
  1.6386   1.6441   1.6475   1.6504   1.6510   1.6532   1.6564   1.6594
  1.6606   1.6621   1.6631   1.6641   1.6658   1.6671   1.6679   1.6685
  1.6695   1.6706   1.6729   1.6736   1.6769   1.6776   1.6780   1.6808
  1.6816   1.6827   1.6834   1.6850   1.6856   1.6871   1.6878   1.6895
  1.6911   1.6924   1.6931   1.6945   1.6960   1.6978   1.6983   1.6995
  1.7000   1.7021   1.7025   1.7033   1.7059   1.7077   1.7085   1.7097
  1.7110   1.7125   1.7126   1.7140   1.7150   1.7156   1.7179   1.7199
  1.7206   1.7239   1.7244   1.7256   1.7269   1.7287   1.7293   1.7322
  1.7355   1.7370   1.7378   1.7380   1.7405   1.7407   1.7423   1.7432
  1.7443   1.7455   1.7464   1.7496   1.7512   1.7527   1.7533   1.7540
  1.7557   1.7570   1.7577   1.7602   1.7615   1.7641   1.7641   1.7656
  1.7673   1.7677   1.7702   1.7710   1.7727   1.7741   1.7786   1.7801
  1.7813   1.7832   1.7838   1.7865   1.7900   1.7914   1.7931   1.7944
  1.7956   1.7979   1.8007   1.8022   1.8044   1.8061   1.8087   1.8109
  1.8119   1.8149   1.8185   1.8206   1.8217   1.8232   1.8245   1.8279
  1.8296   1.8327   1.8353   1.8391   1.8410   1.8415   1.8445   1.8452
  1.8500   1.8510   1.8545   1.8555   1.8583   1.8620   1.8657   1.8668
  1.8675   1.8683   1.8717   1.8726   1.8734   1.8751   1.8772   1.8776
  1.8791   1.8798   1.8822   1.8837   1.8846   1.8854   1.8859   1.8882
  1.8898   1.8904   1.8919   1.8930   1.8935   1.8949   1.8964   1.8967
  1.8980   1.8982   1.8991   1.8998   1.9010   1.9021   1.9039   1.9046
  1.9069   1.9078   1.9091   1.9095   1.9103   1.9108   1.9121   1.9133
  1.9138   1.9151   1.9166   1.9175   1.9192   1.9202   1.9204   1.9223
  1.9231   1.9247   1.9269   1.9279   1.9307   1.9321   1.9327   1.9332
  1.9337   1.9408   1.9438   1.9482   1.9486   1.9546   1.9566   1.9584
  1.9601   1.9620   1.9634   1.9703   1.9727   1.9754   1.9769   1.9795
  1.9813   1.9946   2.0000   2.0077   2.0101   2.0195   2.0301   2.0321
  2.0356   2.0376   2.0423   2.0460   2.0475   2.0488   2.0511   2.0519
  2.0540   2.0553   2.0557   2.0571   2.0599   2.0605   2.0610   2.0623
  2.0634   2.0640   2.0660   2.0679   2.0701   2.0732   2.0738   2.0760
  2.0768   2.0770   2.0787   2.0804   2.0811   2.0844   2.0871   2.0889
  2.0899   2.0905   2.0920   2.0935   2.0942   2.0950   2.0967   2.0972
  2.0977   2.1002   2.1018   2.1029   2.1039   2.1046   2.1051   2.1094
  2.1103   2.1134   2.1171   2.1183   2.1196   2.1219   2.1257   2.1304
  2.1332   2.1365   2.1388   2.1424   2.1441   2.1479   2.1534   2.1563
  2.1582   2.1667   2.1731   2.1750   2.1787   2.1819   2.1825   2.1857
  2.1886   2.1891   2.1905   2.1924   2.1928   2.1947   2.1981   2.1996
  2.2011   2.2038   2.2061   2.2082   2.2146   2.2151   2.2199   2.2200
  2.2224   2.2234   2.2252   2.2279   2.2282   2.2305   2.2308   2.2320
  2.2325   2.2347   2.2350   2.2359   2.2366   2.2368   2.2379   2.2387
  2.2400   2.2411   2.2421   2.2432   2.2456   2.2463   2.2467   2.2473
  2.2482   2.2485   2.2496   2.2508   2.2512   2.2516   2.2527   2.2534
  2.2543   2.2552   2.2555   2.2561   2.2573   2.2577   2.2597   2.2606
  2.2614   2.2618   2.2625   2.2637   2.2645   2.2658   2.2661   2.2673
  2.2679   2.2695   2.2696   2.2710   2.2726   2.2729   2.2741   2.2749
  2.2751   2.2759   2.2778   2.2791   2.2805   2.2807   2.2822   2.2828
  2.2832   2.2842   2.2848   2.2855   2.2867   2.2883   2.2885   2.2893
  2.2906   2.2910   2.2919   2.2928   2.2935   2.2944   2.2952   2.2968
  2.2974   2.2977   2.2986   2.2993   2.3004   2.3018   2.3031   2.3033
  2.3055   2.3065   2.3066   2.3080   2.3090   2.3100   2.3117   2.3144
  2.3151   2.3161   2.3176   2.3183   2.3198   2.3201   2.3208   2.3215
  2.3232   2.3243   2.3248   2.3270   2.3287   2.3309   2.3321   2.3337
  2.3361   2.3368   2.3372   2.3402   2.3416   2.3425   2.3432   2.3447
  2.3461   2.3477   2.3512   2.3520   2.3540   2.3563   2.3574   2.3579
  2.3586   2.3596   2.3651   2.3676   2.3686   2.3707   2.3726   2.3735
  2.3748   2.3787   2.3800   2.3837   2.3870   2.3885   2.3910   2.3919
  2.3956   2.4009   2.4048   2.4073   2.4105   2.4166   2.4390   2.4607
  2.4974   2.5247   2.5432   2.5702   2.6468   2.7020   2.7553   2.7827
  2.7967   2.8102   2.8109   2.8225   2.8319   2.8336   2.8343   2.8356
  2.8374   2.8394   2.8413   2.8420   2.8437   2.8446   2.8468   2.8483
  2.8509   2.8520   2.8545   2.8560   2.8580   2.8595   2.8613   2.8630
  2.8681   2.8726   2.8742   2.8762   2.8840   2.8928   2.9010   2.9041
  2.9209   3.0964   3.2292   3.9419   3.9532   3.9551   3.9599   3.9624
  3.9652   3.9696   3.9707   3.9756   3.9772   3.9804   3.9840   3.9844
  3.9873   3.9887   3.9897   3.9921   3.9953   3.9993   4.0008   4.0031
  4.0051   4.0068   4.0073   4.0103   4.0164   4.0221   4.0280   4.2193
  4.2232   4.2277   4.2359   4.2377   4.2423   4.2430   4.2467   4.2476
  4.2478   4.2511   4.2529   4.2575   4.2612   4.2627   4.2643   4.2649
  4.2693   4.2700   4.2718   4.2749   4.2764   4.2787   4.2828   4.2853
  4.2867   4.2908   4.2925   4.2928   4.2955   4.2983   4.2998   4.3027
  4.3063   4.3079   4.3146   4.3163   4.3181   4.3198   4.3201   4.3207
  4.3234   4.3282   4.3303   4.3325   4.3358   4.3395   4.3431   4.3460
  4.3474   4.3500   4.3514   4.3557   4.3590   4.3603   4.3632   4.3691
  4.3718   4.3734   4.3751   4.3766   4.3811   4.3834   4.3864   4.3939
  4.3988   4.4004   4.4051   4.4090   4.4160   4.4193   4.4286   4.4467
  4.4533   4.4621   4.4652   4.4734   4.4822   4.4902   4.4984   4.5160
  4.5301   4.5329   4.5549   4.5651   4.5778   4.5846   4.6212   4.6721
  4.6967   4.7275   4.7700   4.9439
 --------------------------------------------------------------
 
          Ground-State Mulliken Net Atomic Charges

     Atom                 Charge (a.u.)
  ----------------------------------------
      1 C                     0.112907
      2 C                    -1.392457
      3 C                     0.250654
      4 C                    -0.746235
      5 C                    -0.534351
      6 C                    -0.333024
      7 H                     0.233976
      8 H                     0.242504
      9 H                     0.185213
     10 H                     0.223162
     11 H                     0.236982
     12 H                     0.211057
     13 H                     0.192084
     14 H                     0.201514
     15 H                     0.244138
     16 H                     0.201548
     17 H                     0.222379
     18 N                     0.231234
     19 H                     0.494272
     20 C                    -0.202497
     21 H                     0.171038
     22 O                    -0.248334
     23 C                    -1.210652
     24 H                     0.241026
     25 H                     0.263253
     26 H                     0.288285
     27 S                     1.268891
     28 C                    -0.990063
     29 H                     0.249961
     30 H                     0.232646
     31 H                     0.251103
     32 O                    -0.590282
     33 C                    -0.798721
     34 H                     0.277233
     35 H                     0.231854
     36 H                     0.264946
     37 S                     0.677693
     38 C                    -0.703822
     39 H                     0.229261
     40 H                     0.292409
     41 H                     0.283698
     42 O                    -0.715342
     43 C                    -1.063747
     44 H                     0.281075
     45 H                     0.218836
     46 H                     0.278275
     47 S                     1.209853
     48 C                    -0.893771
     49 H                     0.257283
     50 H                     0.276232
     51 H                     0.230754
     52 O                    -0.721917
     53 C                    -1.002121
     54 H                     0.256452
     55 H                     0.263752
     56 H                     0.275540
     57 S                     0.583026
     58 C                    -0.858962
     59 H                     0.265680
     60 H                     0.307758
     61 H                     0.259450
     62 O                    -0.507552
     63 C                    -0.953549
     64 H                     0.306007
     65 H                     0.270660
     66 H                     0.261811
     67 S                     0.914017
     68 C                    -0.881683
     69 H                     0.254146
     70 H                     0.271635
     71 H                     0.263179
     72 O                    -0.695915
     73 C                    -0.975158
     74 H                     0.316968
     75 H                     0.262352
     76 H                     0.249458
     77 S                     0.522297
     78 C                    -0.690548
     79 H                     0.285460
     80 H                     0.327184
     81 H                     0.222570
     82 O                    -0.655303
     83 C                    -1.083286
     84 H                     0.285469
     85 H                     0.274505
     86 H                     0.257847
     87 S                     1.259798
     88 C                    -1.085791
     89 H                     0.264252
     90 H                     0.232891
     91 H                     0.270692
     92 O                    -0.727182
     93 C                    -0.817155
     94 H                     0.255874
     95 H                     0.267170
     96 H                     0.245775
     97 S                     0.868915
     98 C                    -1.025369
     99 H                     0.233055
    100 H                     0.279572
    101 H                     0.261818
    102 O                    -0.682636
    103 C                    -0.989894
    104 H                     0.309637
    105 H                     0.290259
    106 H                     0.262041
    107 S                     0.728668
    108 C                    -0.950131
    109 H                     0.325674
    110 H                     0.251145
    111 H                     0.235770
    112 O                    -0.595406
    113 C                    -0.865292
    114 H                     0.255976
    115 H                     0.231937
    116 H                     0.259596
    117 S                     1.105129
    118 C                    -0.924442
    119 H                     0.253461
    120 H                     0.280351
    121 H                     0.215478
    122 O                    -0.715965
    123 C                    -0.886539
    124 H                     0.274026
    125 H                     0.258533
    126 H                     0.330920
    127 S                     0.986615
    128 C                    -0.871157
    129 H                     0.241108
    130 H                     0.232497
    131 H                     0.296628
    132 O                    -0.771624
    133 C                    -0.791383
    134 H                     0.265749
    135 H                     0.254699
    136 H                     0.219987
    137 S                     0.937808
    138 C                    -0.770611
    139 H                     0.266145
    140 H                     0.220615
    141 H                     0.252500
    142 O                    -0.734889
    143 C                    -1.008018
    144 H                     0.291134
    145 H                     0.303480
    146 H                     0.237646
    147 S                     0.710426
    148 C                    -0.754058
    149 H                     0.255324
    150 H                     0.254712
    151 H                     0.284670
    152 O                    -0.580006
    153 C                    -0.956638
    154 H                     0.275113
    155 H                     0.295512
    156 H                     0.228479
    157 S                     0.981958
    158 C                    -0.909005
    159 H                     0.267538
    160 H                     0.203795
    161 H                     0.263792
    162 O                    -0.681044
    163 C                    -0.798209
    164 H                     0.248477
    165 H                     0.298277
    166 H                     0.229569
    167 S                     0.704357
    168 C                    -0.768049
    169 H                     0.244495
    170 H                     0.272962
    171 H                     0.231144
    172 O                    -0.689715
    173 C                    -0.858682
    174 H                     0.253462
    175 H                     0.236911
    176 H                     0.275088
    177 S                     0.899361
    178 C                    -0.851928
    179 H                     0.234575
    180 H                     0.262287
    181 H                     0.292637
    182 O                    -0.784567
    183 C                    -0.883290
    184 H                     0.232023
    185 H                     0.279095
    186 H                     0.235552
    187 S                     1.000764
    188 C                    -0.773818
    189 H                     0.228284
    190 H                     0.253904
    191 H                     0.285852
    192 O                    -0.771200
    193 C                    -0.782129
    194 H                     0.315743
    195 H                     0.242873
    196 H                     0.264459
    197 S                     0.397666
    198 C                    -0.626803
    199 H                     0.259652
    200 H                     0.230130
    201 H                     0.315065
    202 O                    -0.665452
    203 C                    -0.815927
    204 H                     0.221324
    205 H                     0.244759
    206 H                     0.306068
    207 S                     0.863032
    208 C                    -0.805131
    209 H                     0.235813
    210 H                     0.245872
    211 H                     0.258955
    212 O                    -0.722400
    213 C                    -0.694031
    214 H                     0.240560
    215 H                     0.304252
    216 H                     0.277358
    217 S                     0.581951
    218 C                    -0.768318
    219 H                     0.253967
    220 H                     0.254823
    221 H                     0.228545
    222 O                    -0.647189
    223 C                    -1.019063
    224 H                     0.323718
    225 H                     0.311808
    226 H                     0.262008
    227 S                     0.878230
    228 C                    -1.022683
    229 H                     0.298618
    230 H                     0.240166
    231 H                     0.259296
    232 O                    -0.628869
    233 C                    -0.903506
    234 H                     0.235407
    235 H                     0.262645
    236 H                     0.243913
    237 S                     0.952974
    238 C                    -0.795526
    239 H                     0.246512
    240 H                     0.237335
    241 H                     0.285025
    242 O                    -0.704078
    243 C                    -0.966937
    244 H                     0.262885
    245 H                     0.232013
    246 H                     0.299981
    247 S                     1.087424
    248 C                    -1.021293
    249 H                     0.262441
    250 H                     0.271479
    251 H                     0.285625
    252 O                    -0.690744
    253 C                    -1.061268
    254 H                     0.275392
    255 H                     0.267272
    256 H                     0.284859
    257 S                     0.897387
    258 C                    -1.034042
    259 H                     0.282622
    260 H                     0.241743
    261 H                     0.263534
    262 O                    -0.575183
    263 C                    -0.905000
    264 H                     0.250530
    265 H                     0.220015
    266 H                     0.241323
    267 S                     0.988457
    268 C                    -0.838830
    269 H                     0.237683
    270 H                     0.303592
    271 H                     0.252874
    272 O                    -0.732017
    273 C                    -1.023048
    274 H                     0.257187
    275 H                     0.286844
    276 H                     0.276372
    277 S                     0.968054
    278 C                    -0.806485
    279 H                     0.267987
    280 H                     0.228387
    281 H                     0.248673
    282 O                    -0.683441
    283 C                    -0.812099
    284 H                     0.268934
    285 H                     0.253431
    286 H                     0.272527
    287 S                     0.041287
    288 C                    -0.238323
    289 H                     0.270419
    290 H                     0.263201
    291 H                     0.263795
    292 O                    -0.535048
    293 C                    -0.763709
    294 H                     0.281012
    295 H                     0.248171
    296 H                     0.239481
    297 S                     0.841809
    298 C                    -0.839684
    299 H                     0.233610
    300 H                     0.255112
[...]
    3  -0.0196665  -0.0792971  -0.0025101  -0.0032749  -0.0234321   0.0201092
          157         158         159         160         161         162
    1   0.0143950  -0.0011109  -0.0068997   0.0218130  -0.0288197  -0.0788603
    2   0.0416447  -0.0066845  -0.0238172  -0.0175474   0.0118109  -0.0049474
    3   0.0248893   0.0059315  -0.0201207   0.0276388   0.0093938  -0.0784581
          163         164         165         166         167         168
    1   0.0006621  -0.0043491   0.0297743  -0.0278126   0.0520740  -0.0018106
    2   0.0063159   0.0121716   0.0140821   0.0134572  -0.0216492   0.0047355
    3  -0.0022275   0.0281129  -0.0071698  -0.0087040   0.0210801  -0.0076964
          169         170         171         172         173         174
    1  -0.0273269   0.0243275  -0.0013106  -0.0964978  -0.0067918  -0.0115507
    2   0.0076778   0.0216804  -0.0324959  -0.0411724  -0.0001966   0.0280679
    3  -0.0174032  -0.0058499  -0.0026130   0.0314801   0.0035198  -0.0114565
          175         176         177         178         179         180
    1  -0.0087743  -0.0138738   0.0315650   0.0003718  -0.0199931   0.0288176
    2  -0.0085189  -0.0087001  -0.0189941  -0.0039520  -0.0284561   0.0018675
    3  -0.0331324   0.0252237  -0.0383266   0.0093948  -0.0098967   0.0211842
          181         182         183         184         185         186
    1  -0.0207862   0.0148517  -0.0073242   0.0273668  -0.0204389  -0.0033941
    2   0.0087631   0.0933918   0.0030557   0.0011562   0.0278846  -0.0143233
    3   0.0223256   0.0564448   0.0049290   0.0096048   0.0126977   0.0264896
          187         188         189         190         191         192
    1   0.0083112  -0.0081566  -0.0013526  -0.0309165  -0.0037221   0.0525026
    2   0.0305902   0.0024669  -0.0229048   0.0259112  -0.0189782  -0.0944759
    3  -0.0399579  -0.0019179   0.0185160   0.0069643  -0.0240988   0.0205072
          193         194         195         196         197         198
    1  -0.0056733   0.0045537  -0.0315949  -0.0010841   0.0122882  -0.0017026
    2   0.0072584   0.0283810  -0.0046769  -0.0007097   0.0212100  -0.0085275
    3   0.0065690  -0.0035602  -0.0029981   0.0270071  -0.0518726   0.0047369
          199         200         201         202         203         204
    1  -0.0095254  -0.0247124   0.0219900   0.0712857   0.0010184  -0.0109860
    2  -0.0092204  -0.0020693  -0.0217066  -0.0063292   0.0093377  -0.0071502
    3   0.0332121  -0.0190768  -0.0139849   0.0824504  -0.0024661  -0.0253005
          205         206         207         208         209         210
    1  -0.0106595   0.0300217   0.0234692  -0.0064004  -0.0249568  -0.0072691
    2   0.0344171   0.0084406  -0.0508528   0.0026958  -0.0097534  -0.0209351
    3   0.0094457  -0.0053481  -0.0168752  -0.0016980  -0.0246998   0.0188568
          211         212         213         214         215         216
    1  -0.0091881   0.0282973  -0.0098451   0.0077687  -0.0101348  -0.0190753
    2   0.0237469   0.0470743   0.0047977   0.0311191   0.0124205  -0.0091276
    3   0.0215124   0.0959821   0.0036212   0.0087525  -0.0279080   0.0240317
          217         218         219         220         221         222
    1  -0.0221577   0.0021133   0.0284794   0.0089014  -0.0125294   0.0703327
    2  -0.0493011   0.0023764  -0.0152606   0.0268745  -0.0151082   0.0647546
    3  -0.0182031   0.0047413   0.0037070   0.0123315   0.0222434  -0.0519031
          223         224         225         226         227         228
    1   0.0048538   0.0354609  -0.0150988   0.0045057   0.0027837  -0.0087774
    2   0.0094341   0.0080505   0.0272573  -0.0061495   0.0080350   0.0040203
    3  -0.0016161  -0.0147744  -0.0150374   0.0287034  -0.0596408   0.0066535
          229         230         231         232         233         234
    1  -0.0179180  -0.0004544   0.0050897   0.0554662  -0.0062254   0.0203020
    2   0.0296289  -0.0301051   0.0049482  -0.0774250   0.0048207   0.0167368
    3  -0.0055798  -0.0126599   0.0331755   0.0517452  -0.0040319  -0.0241355
          235         236         237         238         239         240
    1  -0.0309535  -0.0086930   0.0476578   0.0012616  -0.0260620   0.0202928
    2  -0.0127984   0.0302756   0.0137589  -0.0064805  -0.0120956  -0.0020446
    3  -0.0031212   0.0111166   0.0118472  -0.0055018  -0.0162645  -0.0319328
          241         242         243         244         245         246
    1  -0.0049966  -0.0823167  -0.0095924  -0.0208713  -0.0015563  -0.0193737
    2  -0.0309264  -0.0355558   0.0041438  -0.0178967   0.0231691   0.0181409
    3  -0.0024609   0.0647028  -0.0024694   0.0164854   0.0208293  -0.0272301
          247         248         249         250         251         252
    1   0.0365348  -0.0115780  -0.0125867   0.0130352  -0.0340270   0.0026116
    2   0.0358706  -0.0071833   0.0125977  -0.0158175  -0.0123489  -0.0587239
    3  -0.0154806  -0.0021615  -0.0312722  -0.0137157   0.0143788   0.0954649
          253         254         255         256         257         258
    1   0.0008056  -0.0159933   0.0338703  -0.0226991   0.0388597   0.0066323
    2  -0.0110648  -0.0291224  -0.0150325   0.0133571  -0.0162097   0.0043167
    3  -0.0012246  -0.0137875   0.0072398   0.0078845  -0.0379756  -0.0005137
          259         260         261         262         263         264
    1   0.0413970   0.0084116  -0.0137398  -0.1018622   0.0057389   0.0146555
    2   0.0135069   0.0281977   0.0029114   0.0292442   0.0028112   0.0074691
    3   0.0131282  -0.0176280   0.0182048  -0.0315759   0.0000217   0.0281224
          265         266         267         268         269         270
    1   0.0151331   0.0216980  -0.0305176  -0.0054910   0.0090613  -0.0270796
    2  -0.0301609   0.0177261  -0.0352346  -0.0007456  -0.0302513   0.0012932
    3   0.0030368  -0.0155287   0.0224280  -0.0098823  -0.0110228  -0.0233951
          271         272         273         274         275         276
    1   0.0147919  -0.0036218  -0.0056740  -0.0335500   0.0091610   0.0074707
    2   0.0263533   0.1102170   0.0069488   0.0082587   0.0271461  -0.0087567
    3  -0.0098990   0.0097581  -0.0046052   0.0028783   0.0165928  -0.0315303
          277         278         279         280         281         282
    1  -0.0139364  -0.0027341   0.0123693  -0.0350368   0.0128659   0.1060717
    2  -0.0480962   0.0023929   0.0265288  -0.0015076  -0.0173313   0.0318846
    3  -0.0172556   0.0054860   0.0090114   0.0115248   0.0242893   0.0051660
          283         284         285         286         287         288
    1  -0.0053591  -0.0102898  -0.0314624   0.0314233   0.0352095  -0.0079140
    2  -0.0080320  -0.0061997   0.0053164  -0.0179192   0.0146987   0.0077970
    3   0.0019026   0.0312188  -0.0134098   0.0008242   0.0429125   0.0002226
          289         290         291         292         293         294
    1  -0.0123903   0.0128051  -0.0110967   0.0291200   0.0076818   0.0282757
    2   0.0072957   0.0306263  -0.0210426  -0.0014891  -0.0047024   0.0043266
    3   0.0297569   0.0063867  -0.0274684  -0.1049483   0.0034858   0.0165700
          295         296         297         298         299         300
    1  -0.0055885   0.0082417  -0.0462478   0.0058662   0.0081758  -0.0142963
    2  -0.0326844  -0.0110549  -0.0089395   0.0065427   0.0008077   0.0283269
    3   0.0042783  -0.0296520  -0.0339664  -0.0015466  -0.0331840   0.0031899
          301         302
    1   0.0236452  -0.0058140
    2   0.0054464   0.0230758
    3   0.0210347   0.1076856
  --- DONE ESP SUMMARY ---
Archival summary:
1\1\node023\SP\ProcedureUnspecified\6-31+G*\282856h22\ymao90\FriDec323:13:502021FriDec323:13:502021\0\\#,ProcedureUnspecified,6-31+G*,\\0,1\S\O,1,1.49685\C,1,1.80661,2,104.836\H,3,1.09324,1,116.362,2,167.539,0\H,3,1.09366,1,102.577,2,-75.0041,0\H,3,1.09379,1,115.005,2,38.1448,0\C,1,1.80761,2,106.857,3,99.4057,0\H,7,1.0924,1,113.071,2,60.661,0\H,7,1.09259,1,117.671,2,-176.527,0\H,7,1.09281,1,104.999,2,-57.5253,0\H,10,2.18994,7,120.692,1,55.4023,0\C,11,1.09305,10,98.6392,7,148.662,0\H,12,1.09304,11,109.409,10,-160.732,0\H,12,1.09351,11,104.634,10,-47.8498,0\S,12,1.8067,11,115.836,10,73.2705,0\O,15,1.49729,12,114.437,11,-49.6388,0\C,15,1.80705,12,105.449,11,70.818,0\H,17,1.09261,15,111.424,12,54.7812,0\H,17,1.09282,15,114.236,12,174.43,0\H,17,1.09333,15,113.692,12,-63.1757,0\H,11,2.31775,10,141.606,7,-55.6121,0\C,21,1.09339,11,134.132,10,88.3577,0\H,22,1.09284,21,107.909,11,-53.8293,0\H,22,1.09321,21,117.568,11,74.4871,0\S,22,1.80677,21,101.855,11,-163.944,0\O,25,1.49745,22,99.5466,21,-55.9324,0\C,25,1.80649,22,96.4908,21,43.9247,0\H,27,1.09237,25,110.288,22,171.978,0\H,27,1.09282,25,111.244,22,-50.2009,0\H,27,1.09342,25,100.675,22,63.2615,0\H,28,2.26092,27,149.322,25,123.878,0\C,31,1.09273,28,118.345,27,-110.682,0\H,32,1.09219,31,114.652,28,160.377,0\H,32,1.09303,31,111.808,28,45.1957,0\S,32,1.80754,31,106.978,28,-71.4529,0\O,35,1.49604,32,99.3356,31,40.7995,0\C,35,1.80803,32,91.5109,31,-63.4914,0\H,37,1.0922,35,109.689,32,-102.261,0\H,37,1.0928,35,107.766,32,13.4158,0\H,37,1.09326,35,103.859,32,126.527,0\H,39,2.18626,37,134.935,35,173.9,0\C,41,1.09245,39,110.617,37,28.2134,0\H,42,1.09279,41,109.32,39,120.735,0\H,42,1.09291,41,105.757,39,0.866555,0\S,42,1.80772,41,109.286,39,-117.483,0\O,45,1.49735,42,106.359,41,-66.705,0\C,45,1.80677,42,98.1944,41,42.375,0\H,47,1.09217,45,105.337,42,-41.4331,0\H,47,1.09303,45,106.522,42,-163.525,0\H,47,1.09349,45,110.16,42,79.8463,0\H,46,2.34949,45,172.889,42,108.345,0\C,51,1.09297,46,143.621,45,3.85819,0\H,52,1.09255,51,109.631,46,-44.4946,0\H,52,1.09297,51,114.625,46,-166.575,0\S,52,1.80705,51,103.532,46,75.1857,0\O,55,1.49718,52,102.198,51,64.824,0\C,55,1.80711,52,98.7782,51,-50.6306,0\H,57,1.09253,55,105.097,52,82.7702,0\H,57,1.0926,55,112.996,52,-33.0509,0\H,57,1.0929,55,111.042,52,-160.728,0\H,53,2.09231,52,111.163,51,-9.46358,0\C,61,1.09311,53,95.6401,52,-143.023,0\H,62,1.09291,61,117.858,53,-74.7856,0\H,62,1.0935,61,105.801,53,47.0215,0\S,62,1.80685,61,107.407,53,164.646,0\O,65,1.49787,62,103.48,61,74.4674,0\C,65,1.80736,62,98.5905,61,179.106,0\H,67,1.09285,65,109.534,62,67.789,0\H,67,1.093,65,105.836,62,-52.5656,0\H,67,1.09324,65,102.507,62,-168.641,0\H,68,2.17698,67,132.053,65,-172.946,0\C,71,1.09313,68,106.084,67,67.3171,0\H,72,1.09203,71,112.179,68,66.7285,0\H,72,1.09313,71,104.122,68,-53.3778,0\S,72,1.80694,71,115.491,68,-178.047,0\O,75,1.49636,72,102.647,71,-77.9243,0\C,75,1.80703,72,92.5034,71,174.092,0\H,77,1.09204,75,104.883,72,50.3472,0\H,77,1.09299,75,107.087,72,173.359,0\H,77,1.09363,75,105.387,72,-65.5954,0\H,78,2.06844,77,128.264,75,161.138,0\C,81,1.09315,78,136.801,77,111.969,0\H,82,1.09264,81,120.885,78,8.48798,0\H,82,1.09342,81,108.714,78,132.495,0\S,82,1.80626,81,106.255,78,-113.855,0\O,85,1.49747,82,103.832,81,-149.591,0\C,85,1.80709,82,96.657,81,-47.4057,0\H,87,1.09269,85,96.2607,82,88.6929,0\H,87,1.09273,85,106.524,82,-36.3993,0\H,87,1.09286,85,114.468,82,-151.449,0\H,84,2.12499,82,120.347,81,-71.3529,0\C,91,1.09281,84,136.19,82,74.4073,0\H,92,1.09258,91,100.361,84,-179.557,0\H,92,1.09351,91,110.681,84,63.8013,0\S,92,1.80651,91,105.107,84,-61.0749,0\O,95,1.49645,92,98.9768,91,-73.8218,0\C,95,1.80659,92,99.7259,91,178.514,0\H,97,1.0928,95,110.692,92,43.2705,0\H,97,1.0931,95,106.911,92,-82.064,0\H,97,1.09325,95,115.431,92,157.575,0\Gh,86,2.15044,85,120.363,82,-19.4524,0\Gh,101,1.01274,86,158.876,85,-136.065,0\Gh,102,1.37841,101,114.277,86,-108.65,0\Gh,103,1.1057,102,113.025,101,13.8323,0\Gh,103,1.21898,102,120.656,101,-175.649,0\Gh,102,1.46172,101,117.518,86,82.476,0\Gh,106,1.09653,102,112.817,101,-169.951,0\Gh,106,1.53721,102,108.189,101,-54.6839,0\Gh,108,1.09676,106,106.294,102,-64.2103,0\Gh,108,1.09742,106,105.852,102,50.4568,0\Gh,106,1.53795,102,113.249,101,72.5206,0\Gh,111,1.09662,106,110.814,102,59.6282,0\Gh,111,1.09673,106,102.743,102,-54.2245,0\Gh,111,1.53736,106,113.58,102,-172.727,0\Gh,114,1.09705,111,111.926,106,-68.1594,0\Gh,114,1.09725,111,115.458,106,173.573,0\Gh,114,1.53767,111,109.984,106,56.7438,0\Gh,117,1.09629,114,111.614,111,55.4282,0\Gh,117,1.09713,114,110.347,111,169.18,0\Gh,117,1.53754,114,110.761,111,-57.0872,0\Gh,120,1.09639,117,101.282,114,166.46,0\Gh,120,1.09681,117,110.923,114,-81.3551,0\H,119,2.16188,117,163.131,114,102.316,0\C,123,1.09287,119,151.887,117,-42.6802,0\H,124,1.09311,123,105.033,119,-148.895,0\H,124,1.09328,123,107.28,119,-25.7978,0\S,124,1.80662,123,104.938,119,92.7917,0\O,127,1.49703,124,106.07,123,46.0284,0\C,127,1.80768,124,98.7123,123,-56.8438,0\H,129,1.09257,127,111.935,124,-38.6491,0\H,129,1.09261,127,103.871,124,83.927,0\H,129,1.09331,127,106.968,124,-157.23,0\H,131,1.96748,129,152.924,127,40.5557,0\C,133,1.09323,131,135.075,129,76.9394,0\H,134,1.09249,133,110.269,131,-57.7563,0\H,134,1.09299,133,110.531,131,-177.482,0\S,134,1.80746,133,106.691,131,58.4657,0\O,137,1.49654,134,105.597,133,-75.1288,0\C,137,1.80731,134,101.796,133,174.636,0\H,139,1.09235,137,111.39,134,174.748,0\H,139,1.0929,137,105.244,134,-62.7763,0\H,139,1.09382,137,112.123,134,50.0389,0\H,93,2.19574,92,116.358,91,-55.8978,0\C,143,1.09286,93,128.433,92,-162.512,0\H,144,1.09274,143,107.13,93,15.9386,0\H,144,1.09287,143,105.319,93,-92.8507,0\S,144,1.807,143,106.154,93,143.697,0\O,147,1.49737,144,101.133,143,176.38,0\C,147,1.80697,144,97.8393,143,-80.6471,0\H,149,1.09271,147,116.395,144,-49.6461,0\H,149,1.09276,147,101.881,144,70.9138,0\H,149,1.0933,147,111.391,144,-178.054,0\H,151,1.99679,149,141.617,147,74.4647,0\C,153,1.09257,151,140.689,149,-64.2871,0\H,154,1.09272,153,103.194,151,174.719,0\H,154,1.0928,153,105.615,151,55.4736,0\S,154,1.80786,153,117,151,-67.6007,0\O,157,1.49749,154,100.499,153,-65.7965,0\C,157,1.80696,154,103.428,153,-175.499,0\H,159,1.09228,157,112.542,154,56.6625,0\H,159,1.0927,157,106.115,154,-61.5479,0\H,159,1.09346,157,104.271,154,179.287,0\H,146,2.16829,144,113.739,143,166.324,0\C,163,1.09373,146,154.665,144,28.603,0\H,164,1.09249,163,119.864,146,6.04616,0\H,164,1.09283,163,116.606,146,-122.055,0\S,164,1.80678,163,108.004,146,126.887,0\O,167,1.49698,164,101.483,163,178.351,0\C,167,1.80721,164,90.7932,163,-74.4621,0\H,169,1.0928,167,108.351,164,-44.2292,0\H,169,1.09303,167,106.874,164,75.1775,0\H,169,1.09339,167,114.629,164,-179.52,0\H,171,2.26156,169,165.713,167,66.4932,0\C,173,1.09319,171,104.274,169,-36.7005,0\H,174,1.09258,173,111.298,171,-33.3007,0\H,174,1.09338,173,106.055,171,-147.764,0\S,174,1.80653,173,121.624,171,91.5205,0\O,177,1.49752,174,105.081,173,-54.0937,0\C,177,1.80661,174,93.3629,173,52.7167,0\H,179,1.09287,177,100.457,174,75.8368,0\H,179,1.09304,177,112.298,174,-43.3562,0\H,179,1.0931,177,107.822,174,-163.399,0\O,132,2.30952,129,121.714,127,72.1012,0\S,183,1.49669,132,145.735,129,-36.4058,0\C,184,1.80659,183,108.065,132,-23.6491,0\H,185,1.09266,184,103.56,183,67.7685,0\H,185,1.09267,184,108.584,183,-44.5046,0\H,185,1.09353,184,109.372,183,-167.87,0\C,184,1.80689,183,102.302,132,-128.583,0\H,189,1.09216,184,105.623,183,-69.6619,0\H,189,1.09318,184,109.769,183,171.622,0\H,189,1.09386,184,110.749,183,50.8429,0\H,178,2.35013,177,113.606,174,72.6873,0\C,193,1.09298,178,109.601,177,119.784,0\H,194,1.09297,193,118.593,178,81.5886,0\H,194,1.09354,193,105.319,178,-44.7797,0\S,194,1.80758,193,107.159,178,-155.466,0\O,197,1.49708,194,102.199,193,-61.8203,0\C,197,1.80668,194,93.4944,193,-167.04,0\H,199,1.09259,197,105.751,194,175.004,0\H,199,1.09266,197,110.238,194,-60.7287,0\H,199,1.09344,197,111.028,194,55.5577,0\H,181,2.3512,179,120.84,177,145.363,0\C,203,1.09313,181,144.084,179,71.3379,0\H,204,1.09195,203,118.078,181,-50.0014,0\H,204,1.09305,203,108.39,181,-171.693,0\S,204,1.8073,203,109.663,181,79.9781,0\O,207,1.49713,204,100.838,203,159.242,0\C,207,1.80765,204,88.5096,203,-86.1118,0\H,209,1.0921,207,107.899,204,-54.7578,0\H,209,1.09298,207,106.104,204,-172.056,0\H,209,1.0934,207,113.039,204,64.2027,0\H,205,2.05067,204,106.586,203,-116.69,0\C,213,1.09234,205,173.789,204,-92.5984,0\H,214,1.09305,213,112.279,205,87.0423,0\H,214,1.09322,213,112.847,205,-145.725,0\S,214,1.80666,213,111.599,205,-32.2518,0\O,217,1.49644,214,105.497,213,166.914,0\C,217,1.80713,214,97.9167,213,64.9579,0\H,219,1.09287,217,107.554,214,163.312,0\H,219,1.09287,217,105.8,214,42.0235,0\H,219,1.09296,217,109.442,214,-72.9354,0\H,205,2.20786,204,162.723,203,98.2299,0\C,223,1.09256,205,122.508,204,-159.854,0\H,224,1.09309,223,106.044,205,-178.665,0\H,224,1.09321,223,109.549,205,-53.0285,0\S,224,1.80657,223,109.383,205,64.5788,0\O,227,1.49773,224,100.842,223,-59.0478,0\C,227,1.80756,224,97.1164,223,-162.091,0\H,229,1.09238,227,109.951,224,87.7689,0\H,229,1.09278,227,107.725,224,-32.9353,0\H,229,1.09309,227,105.699,224,-154.616,0\H,215,2.32559,214,135.437,213,-145.406,0\C,233,1.09324,215,165.162,214,150.757,0\H,234,1.09283,233,112.678,215,-10.6557,0\H,234,1.09299,233,120.947,215,-139.923,0\S,234,1.80672,233,104.958,215,102.186,0\O,237,1.49712,234,101.828,233,115.717,0\C,237,1.80708,234,94.8893,233,2.9411,0\H,239,1.09279,237,112.845,234,69.1552,0\H,239,1.0931,237,100.41,234,-168.676,0\H,239,1.09347,237,110.225,234,-55.6534,0\O,235,2.36892,234,128.031,233,128.54,0\S,243,1.49662,235,109.86,234,-150.05,0\C,244,1.80641,243,101.754,235,-124.09,0\H,245,1.09273,244,104.82,243,169.195,0\H,245,1.09306,244,102.593,243,-75.5041,0\H,245,1.09311,244,112.324,243,47.7777,0\C,244,1.80684,243,105.67,235,-17.5238,0\H,249,1.09267,244,118.736,243,-39.1653,0\H,249,1.09341,244,108.123,243,80.6248,0\H,249,1.09354,244,105.808,243,-164.601,0\H,68,2.39225,67,116.724,65,42.755,0\C,253,1.09233,68,109.335,67,-147.862,0\H,254,1.09276,253,104.92,68,-36.3267,0\H,254,1.09364,253,113.358,68,-157.609,0\S,254,1.8072,253,112.373,68,83.4911,0\O,257,1.49786,254,101.14,253,70.9327,0\C,257,1.8065,254,102.133,253,174.921,0\H,259,1.09233,257,109.171,254,-78.6635,0\H,259,1.09294,257,106.493,254,157.954,0\H,259,1.0931,257,104.761,254,39.477,0\H,130,2.43979,129,125.827,127,-53.3743,0\C,263,1.09289,130,113.478,129,158.702,0\H,264,1.0928,263,110.847,130,153.098,0\H,264,1.09308,263,122.876,130,-82.0211,0\S,264,1.807,263,104.264,130,39.3457,0\O,267,1.49678,264,101.864,263,-164.382,0\C,267,1.80693,264,100.418,263,82.9274,0\H,269,1.09269,267,102.229,264,90.2549,0\H,269,1.09274,267,107.833,264,-29.5485,0\H,269,1.0933,267,107.444,264,-148.971,0\H,128,2.48749,127,149.445,124,149.691,0\C,273,1.09343,128,162.95,127,-115.868,0\H,274,1.09213,273,111.848,128,124.703,0\H,274,1.09344,273,106.76,128,5.31483,0\S,274,1.80792,273,105.895,128,-110.958,0\O,277,1.49694,274,104.178,273,-84.0781,0\C,277,1.80728,274,88.3931,273,175.43,0\H,279,1.09213,277,106.448,274,160.073,0\H,279,1.09289,277,110.138,274,-71.0592,0\H,279,1.09335,277,101.677,274,45.6725,0\H,173,2.55626,171,75.004,169,151.994,0\C,283,1.09289,173,123.109,171,-69.422,0\H,284,1.09218,283,102.29,173,126.501,0\H,284,1.09309,283,118.691,173,4.92625,0\S,284,1.80709,283,105.521,173,-116.319,0\O,287,1.49766,284,106.002,283,-68.4649,0\C,287,1.80767,284,95.5573,283,-169.962,0\H,289,1.09277,287,106.84,284,66.0824,0\H,289,1.09284,287,109.525,284,-169.3,0\H,289,1.09307,287,106.199,284,-53.407,0\H,291,2.11028,289,131.737,287,-3.67131,0\C,293,1.0928,291,148.439,289,-118.392,0\H,294,1.0931,293,109.654,291,-57.4156,0\H,294,1.09367,293,109.577,291,-179.003,0\S,294,1.80702,293,114.088,291,53.1749,0\O,297,1.49671,294,104.782,293,-164.29,0\C,297,1.80775,294,98.0806,293,-62.5456,0\H,299,1.09252,297,105.46,294,-63.4917,0\H,299,1.09279,297,103.681,294,50.5637,0\H,299,1.09337,297,111.369,294,170.639,0\\\@

 Total job time:  60.62s(wall), 191.19s(cpu) 
 Fri Dec  3 23:13:50 2021

        *************************************************************
        *                                                           *
        *  Thank you very much for using Q-Chem.  Have a nice day.  *
        *                                                           *
        *************************************************************


