                  Welcome to Q-Chem
     A Quantum Leap Into The Future Of Chemistry


 Q-Chem 6.0 (devel), Q-Chem, Inc., Pleasanton, CA (2022)

 E. Epifanovsky,  A. T. B. Gilbert,  Xintian Feng,  Joonho Lee,  Yuezhi Mao,  
 N. Mardirossian,  P. Pokhilko,  A. White,  M. Wormit,  M. P. Coons,  
 A. L. Dempwolff,  Zhengting Gan,  D. Hait,  P. R. Horn,  L. D. Jacobson,  
 I. Kaliman,  J. Kussmann,  A. W. Lange,  Ka Un Lao,  D. S. Levine,  Jie Liu,  
 S. C. McKenzie,  A. F. Morrison,  K. Nanda,  F. Plasser,  D. R. Rehn,  
 M. L. Vidal,  Zhi-Qiang You,  Ying Zhu,  B. Alam,  B. Albrecht,  
 A. Aldossary,  E. Alguire,  J. H. Andersen,  V. Athavale,  D. Barton,  
 K. Begam,  A. Behn,  N. Bellonzi,  Y. A. Bernard,  E. J. Berquist,  
 H. Burton,  A. Carreras,  K. Carter-Fenk,  Romit Chakraborty,  
 Chandrima Chakravarty,  Junhan Chen,  A. D. Chien,  K. D. Closser,  
 V. Cofer-Shabica,  L. Cunha,  S. Dasgupta,  Jia Deng,  M. de Wergifosse,  
 M. Diedenhofen,  Hainam Do,  S. Ehlert,  Po-Tung Fang,  S. Fatehi,  
 Qingguo Feng,  T. Friedhoff,  B. Ganoe,  J. Gayvert,  Qinghui Ge,  
 G. Gidofalvi,  M. Goldey,  J. Gomes,  C. Gonzalez-Espinoza,  S. Gulania,  
 A. Gunina,  J. A. Gyamfi,  M. W. D. Hanson-Heine,  P. H. P. Harbach,  
 A. W. Hauser,  M. F. Herbst,  M. Hernandez Vera,  M. Hodecker,  
 Z. C. Holden,  S. Houck,  Xunkun Huang,  Kerwin Hui,  B. C. Huynh,  
 K. Ikeda,  M. Ivanov,  Hyunjun Ji,  Zuxin Jin,  Hanjie Jiang,  B. Kaduk,  
 S. Kaehler,  R. Kang,  K. Khistyaev,  Jaehoon Kim,  Yongbin Kim,  
 P. Klunzinger,  Z. Koczor-Benda,  Joong Hoon Koh,  D. Kosenkov,  
 Saikiran Kotaru,  L. Koulias,  T. Kowalczyk,  C. M. Krauter,  K. Kue,  
 A. Kunitsa,  T. Kus,  A. Landau,  K. V. Lawler,  D. Lefrancois,  S. Lehtola,  
 Rain Li,  Shaozhi Li,  Yi-Pei Li,  Jiashu Liang,  M. Liebenthal,  
 Hung-Hsuan Lin,  You-Sheng Lin,  Fenglai Liu,  Kuan-Yu Liu,  
 M. Loipersberger,  A. Luenser,  C. Malbon,  A. Manjanath,  P. Manohar,  
 E. Mansoor,  S. F. Manzer,  Shan-Ping Mao,  A. V. Marenich,  T. Markovich,  
 S. Mason,  F. Matz,  S. A. Maurer,  P. F. McLaughlin,  M. F. S. J. Menger,  
 J.-M. Mewes,  S. A. Mewes,  P. Morgante,  Mohammad Mostafanejad,  
 J. W. Mullinax,  K. J. Oosterbaan,  G. Paran,  V. Parravicini,  
 Alexander C. Paul,  Suranjan K. Paul,  F. Pavosevic,  Zheng Pei,  S. Prager,  
 E. I. Proynov,  E. Ramos,  B. Rana,  A. E. Rask,  A. Rettig,  R. M. Richard,  
 F. Rob,  E. Rossomme,  T. Scheele,  M. Scheurer,  M. Schneider,  
 P. E. Schneider,  N. Sergueev,  S. M. Sharada,  Hengyuan Shen,  
 W. Skomorowski,  D. W. Small,  C. J. Stein,  Yingli Su,  Yu-Chuan Su,  
 E. J. Sundstrom,  Zhen Tao,  J. Thirman,  Hung-Yi Tsai,  T. Tsuchimochi,  
 N. M. Tubman,  C. Utku,  S. P. Veccham,  O. Vydrov,  J. Wenzel,  
 Jonathan Wong,  J. Witte,  A. Yamada,  Chou-Hsun Yang,  Kun Yao,  
 S. Yeganeh,  S. R. Yost,  A. Zech,  F. Zeller,  Igor Ying Zhang,  
 Xing Zhang,  Yu Zhang,  D. Zuev,  A. Aspuru-Guzik,  A. T. Bell,  
 N. A. Besley,  K. B. Bravaya,  B. R. Brooks,  D. Casanova,  Jeng-Da Chai,  
 Hsing-Ta Chen,  S. Coriani,  C. J. Cramer,  A. E. DePrince, III,  
 R. A. DiStasio Jr.,  A. Dreuw,  B. D. Dunietz,  T. R. Furlani,  
 W. A. Goddard III,  S. Grimme,  S. Hammes-Schiffer,  T. Head-Gordon,  
 W. J. Hehre,  Chao-Ping Hsu,  T.-C. Jagau,  Yousung Jung,  A. Klamt,  
 Jing Kong,  D. S. Lambrecht,  Xiangyuan Li,  WanZhen Liang,  N. J. Mayhall,  
 C. W. McCurdy,  J. B. Neaton,  T. Neudecker,  C. Ochsenfeld,  
 J. A. Parkhill,  R. Peverati,  V. A. Rassolov,  Haisheng Ren,  Yihan Shao,  
 L. V. Slipchenko,  R. P. Steele,  J. E. Subotnik,  A. J. W. Thom,  
 A. Tkatchenko,  D. G. Truhlar,  T. Van Voorhis,  Fan Wang,  
 T. A. Wesolowski,  K. B. Whaley,  H. L. Woodcock III,  P. M. Zimmerman,  
 S. Faraji,  P. M. W. Gill,  M. Head-Gordon,  J. M. Herbert,  A. I. Krylov

 Contributors to earlier versions of Q-Chem not listed above: 
 R. D. Adamson,  B. Austin,  R. Baer,  J. Baker,  G. J. O. Beran,  
 K. Brandhorst,  S. T. Brown,  E. F. C. Byrd,  Arup K. Chakraborty,  
 G. K. L. Chan,  Chun-Min Chang,  Yunqing Chen,  C.-L. Cheng,  
 Siu Hung Chien,  D. M. Chipman,  D. L. Crittenden,  H. Dachsel,  
 R. J. Doerksen,  A. D. Dutoi,  R. G. Edgar,  J. Fosso-Tande,  
 L. Fusti-Molnar,  D. Ghosh,  A. Ghysels,  A. Golubeva-Zadorozhnaya,  
 J. Gonthier,  M. S. Gordon,  S. R. Gwaltney,  G. Hawkins,  J. E. Herr,  
 A. Heyden,  S. Hirata,  E. G. Hohenstein,  G. Kedziora,  F. J. Keil,  
 C. Kelley,  Jihan Kim,  R. A. King,  R. Z. Khaliullin,  P. P. Korambath,  
 W. Kurlancheek,  A. Laurent,  A. M. Lee,  M. S. Lee,  S. V. Levchenko,  
 Ching Yeh Lin,  D. Liotard,  E. Livshits,  R. C. Lochan,  I. Lotan,  
 L. A. Martinez-Martinez,  P. E. Maslen,  N. Nair,  D. P. O'Neill,  
 D. Neuhauser,  E. Neuscamman,  C. M. Oana,  R. Olivares-Amaya,  R. Olson,  
 T. M. Perrine,  B. Peters,  P. A. Pieniazek,  A. Prociuk,  Y. M. Rhee,  
 J. Ritchie,  M. A. Rohrdanz,  E. Rosta,  N. J. Russ,  H. F. Schaefer III,  
 M. W. Schmidt,  N. E. Schultz,  S. Sharma,  N. Shenvi,  C. D. Sherrill,  
 A. C. Simmonett,  A. Sodt,  T. Stein,  D. Stuck,  K. S. Thanthiriwatte,  
 V. Vanovschi,  L. Vogt,  Tao Wang,  A. Warshel,  M. A. Watson,  
 C. F. Williams,  Q. Wu,  X. Xu,  Jun Yang,  W. Zhang,  Yan Zhao

   Please cite Q-Chem as follows:
  "Software for the frontiers of quantum chemistry:
   An overview of developments in the Q-Chem 5 package"
   J. Chem. Phys. 155, 084801 (2021)
   https://doi.org/10.1063/5.0055522 (open access)

 Q-Chem 6.0.0 for Intel X86 EM64T Linux

 Parts of Q-Chem use Armadillo 9.900.5 (Nocturnal Misbehaviour).
 http://arma.sourceforge.net/

 Q-Chem begins on Thu Jul 21 03:38:39 2022  

 Host: nid00521
0

     Scratch files written to /global/cscratch1/sd/ymao90/r7.00_frame_0014_spade_B3LYP_dp20220721031337//
 Processing $rem in /global/homes/y/ymao90/my_qchem/qchem_embedding_5p4/config/preferences:
 Processing $rem in /global/homes/y/ymao90/.qchemrc:
 No nuclear gradient supported for projection-based embedding or EMFT. Set max ideriv = 0.

 Checking the input file for inconsistencies... 	...done.

--------------------------------------------------------------
User input:
--------------------------------------------------------------
$molecule
0 1
--
0 1
C    22.10800   18.61400   30.51200  
C    23.36300   18.68000   29.62700  
C    23.06900   19.66100   28.47900  
C    22.63900   21.03600   29.01600  
C    21.33900   20.96900   29.83400  
C    21.67400   20.01000   30.98800  
H    23.89100   19.69100   27.75300  
H    24.19200   19.16500   30.15800  
H    21.38600   18.22000   29.78600  
H    22.13400   17.96900   31.39900  
H    23.50500   21.48000   29.52100  
H    22.52300   21.66900   28.12800  
H    20.96300   21.97000   30.07700  
H    20.52100   20.57800   29.21700  
H    22.42200   20.45300   31.65700  
H    20.74100   19.99600   31.56500  
H    22.22800   19.23700   27.91600  
N    23.59100   17.31700   29.15100  
H    23.53600   17.07300   28.17000  
C    24.18900   16.27500   29.82800  
H    24.33700   15.41200   29.15300  
O    24.45200   16.33200   31.01600  
--
0 1
C    24.65500   24.37600   27.67600  
H    25.66300   24.01100   27.46400  
H    24.24100   23.58700   28.30900  
H    23.99600   24.37600   26.80400  
S    24.68400   25.99900   28.46900  
C    25.69900   26.64600   27.12100  
H    26.71500   26.26300   27.24100  
H    25.24700   26.33700   26.17500  
H    25.68900   27.73900   27.11300  
O    25.70200   25.94300   29.56500  
C    16.93500   24.53700   25.60900  
H    16.03400   24.09200   25.18000  
H    17.52300   23.90100   26.27500  
H    16.65400   25.51800   26.00300  
S    18.10000   24.70100   24.23800  
C    17.04500   25.83300   23.30500  
H    17.29300   26.84700   23.63000  
H    17.19000   25.65800   22.23600  
H    16.00000   25.60800   23.53200  
O    17.93200   23.46600   23.40900  
C    19.03300   19.51400   25.47700  
H    18.44900   20.10400   24.76500  
H    19.20500   18.53900   25.01400  
H    18.59200   19.46100   26.47600  
S    20.52100   20.51800   25.68300  
C    19.61200   21.97700   26.24000  
H    20.22300   22.87700   26.14000  
H    18.80800   22.19400   25.53200  
H    19.25200   21.86500   27.26600  
O    20.95400   20.81300   24.28000  
C    28.51800   14.52300   33.48500  
H    27.95700   15.43800   33.69100  
H    28.07900   13.71100   34.07100  
H    29.55200   14.65100   33.81500  
S    28.50200   14.20300   31.70700  
C    26.76000   13.76200   31.51500  
H    26.51700   12.93600   32.18800  
H    26.12200   14.61100   31.77400  
H    26.53800   13.39500   30.50900  
O    29.20200   12.88900   31.55300  
C    26.48100   18.86000   28.23900  
H    26.58300   19.87600   27.85100  
H    25.82600   18.31600   27.55400  
H    26.12700   18.85700   29.27300  
S    28.06400   17.99000   28.17400  
C    27.45300   16.36900   28.68700  
H    26.60800   16.09200   28.05100  
H    28.29000   15.66600   28.70500  
H    27.07200   16.45000   29.70800  
O    28.74000   18.41600   29.44000  
C    19.91800   20.27800   35.17500  
H    20.50300   20.21100   34.25400  
H    20.39500   19.67500   35.95200  
H    18.89100   19.96200   34.97200  
S    19.68600   21.98500   35.71800  
C    18.51800   21.74400   37.07600  
H    17.71300   21.05400   36.81000  
H    19.08400   21.30800   37.90300  
H    18.18800   22.75400   37.33400  
O    18.82000   22.33500   34.54900  
C    14.40200   20.35300   28.58300  
H    13.77700   21.21500   28.83100  
H    13.91200   19.78000   27.79200  
H    14.54200   19.62800   29.38800  
S    15.98200   21.09200   28.11400  
C    15.54700   21.28300   26.37000  
H    14.96000   20.39000   26.14100  
H    15.04500   22.24200   26.22000  
H    16.27600   21.01600   25.60000  
O    16.95000   19.95000   28.10200  
C    27.70700   22.72900   32.48300  
H    28.73500   23.09800   32.44500  
H    27.05300   23.59800   32.37400  
H    27.65100   22.19100   33.43300  
S    27.37700   21.51700   31.18400  
C    27.11100   22.75800   29.89800  
H    26.08500   23.13500   29.90400  
H    27.76000   23.63000   30.01200  
H    27.22000   22.20900   28.95900  
O    26.06400   20.88900   31.53200  
C    24.58100   13.23200   27.87900  
H    25.29900   13.29600   28.70100  
H    25.08400   12.83700   26.99200  
H    24.01400   14.15700   27.75200  
S    23.36100   12.02000   28.43300  
C    24.50700   10.69800   28.88500  
H    24.80700   10.81200   29.93000  
H    24.01000   9.73200    28.77100  
H    25.36400   10.69800   28.20700  
O    22.57100   11.58100   27.24000  
C    23.57000   23.17200   32.31600  
H    23.50600   23.98900   31.59200  
H    24.42000   22.49200   32.22300  
H    22.60000   22.67200   32.25600  
S    23.81900   23.95600   33.92400  
C    24.04500   22.34000   34.70000  
H    24.98800   21.96800   34.29200  
H    24.12300   22.39200   35.78900  
H    23.20800   21.73800   34.33600  
O    22.48600   24.43700   34.40600  
C    30.33600   13.36500   28.51500  
H    30.89400   13.14200   29.42800  
H    31.01000   13.30900   27.65600  
H    29.79900   14.31200   28.42400  
S    28.95600   12.19800   28.50400  
C    29.79300   10.85600   27.63100  
H    28.97000   10.27600   27.20700  
H    30.37200   11.26700   26.80000  
H    30.38600   10.31900   28.37600  
O    27.97900   12.71500   27.49400  
C    21.98700   13.33800   32.36900  
H    21.67700   14.18800   32.98300  
H    22.58000   13.75300   31.55000  
H    21.11600   12.87400   31.90100  
S    22.97000   12.32000   33.49200  
C    24.20000   13.61900   33.74600  
H    23.85700   14.18400   34.61700  
H    25.11700   13.08000   33.99500  
H    24.26200   14.20500   32.82500  
O    23.65300   11.41500   32.51400  
C    20.44800   24.82300   31.64800  
H    21.01400   24.73300   32.57900  
H    19.62800   25.53200   31.78400  
H    20.07300   23.83500   31.37200  
S    21.30700   25.48500   30.20200  
C    19.81900   25.70100   29.20000  
H    19.17000   26.42500   29.69700  
H    20.13600   26.07900   28.22400  
H    19.31300   24.73800   29.09200  
O    21.78700   24.17300   29.66600  
C    17.12900   20.28500   31.91000  
H    16.69600   20.54300   32.88000  
H    17.88300   20.97100   31.51500  
H    16.40500   20.14200   31.10300  
S    18.03500   18.74300   32.16600  
C    18.41100   18.28500   30.45800  
H    18.92500   19.10200   29.94500  
H    19.06100   17.40900   30.39600  
H    17.52400   18.05900   29.86000  
O    16.99800   17.71600   32.49500  
C    19.62700   15.46200   33.76400  
H    20.16200   15.43500   32.81200  
H    19.12600   14.52900   34.03200  
H    18.86600   16.24200   33.68100  
S    20.73100   15.94000   35.11300  
C    21.77700   17.07900   34.17800  
H    22.66800   17.27000   34.78200  
H    21.98300   16.72400   33.16500  
H    21.22500   17.99800   33.96600  
O    21.57900   14.78800   35.55300  
C    22.59800   23.69800   22.67000  
H    23.00800   23.81200   21.66400  
H    22.05700   22.75500   22.78800  
H    22.07200   24.58200   23.03900  
S    24.22200   23.62200   23.45800  
C    23.59700   22.73300   24.90200  
H    22.83900   23.33500   25.40900  
H    23.22900   21.76700   24.54500  
H    24.40200   22.49200   25.60100  
O    24.55200   24.97700   24.00200  
C    20.53400   16.34800   27.95600  
H    20.98700   15.70500   28.71600  
H    21.26300   16.95700   27.41700  
H    19.65500   16.83300   28.38900  
S    19.82700   15.33600   26.63700  
C    21.28600   14.39700   26.13100  
H    21.68900   13.79100   26.94600  
H    20.98000   13.71200   25.33700  
H    22.06000   15.02100   25.67600  
O    19.58800   16.39600   25.60800  
C    23.29800   17.38000   38.00900  
H    23.36100   16.58600   37.26000  
H    23.72100   17.07400   38.96900  
H    22.22900   17.43800   38.23000  
S    23.79600   19.00000   37.38200  
C    22.95200   20.04300   38.59200  
H    21.87200   19.87800   38.60300  
H    23.36000   19.78800   39.57400  
H    23.07700   21.12700   38.51800  
O    22.94600   19.26400   36.17900  
C    25.18800   18.57200   33.66900  
H    24.99000   17.52300   33.43500  
H    24.83300   18.83400   34.66900  
H    24.73900   19.20300   32.89800  
S    26.99000   18.64800   33.76700  
C    27.32400   17.70400   32.26200  
H    26.82900   16.72900   32.27000  
H    27.02700   18.30500   31.39900  
H    28.34800   17.40900   32.01900  
O    27.26800   17.68100   34.87600  
C    24.67100   18.95400   24.72400  
H    25.72400   19.02300   25.00500  
H    24.58000   19.37800   23.72000  
H    24.19900   19.47800   25.55900  
S    24.15600   17.22300   24.65600  
C    22.46600   17.46300   24.06200  
H    22.21400   16.42000   23.85300  
H    21.87400   17.87400   24.88300  
H    22.37900   18.09900   23.17800  
O    23.99300   16.82300   26.08900  
C    20.34900   27.39200   23.92300  
H    19.30100   27.64700   23.74700  
H    21.00000   28.13800   23.46100  
H    20.50300   26.40100   23.48900  
S    20.56600   27.37900   25.71700  
C    21.77900   26.04400   25.82400  
H    21.62700   25.24400   25.09400  
H    22.74500   26.52000   25.63800  
H    21.81400   25.66000   26.84700  
O    19.20900   26.82000   26.01200  
C    28.77500   21.16200   25.26000  
H    29.22600   21.41700   26.22200  
H    28.55700   20.09100   25.24900  
H    29.52300   21.44700   24.51600  
S    27.16400   21.96600   25.10400  
C    27.75400   23.66800   24.96100  
H    28.26600   23.67100   23.99500  
H    26.81900   24.22400   24.85900  
H    28.38200   24.03000   25.78000  
O    26.52500   21.84300   26.45200  
C    29.41400   15.40600   25.66800  
H    30.17800   15.14900   24.93000  
H    29.80700   16.01800   26.48300  
H    29.02900   14.52500   26.18700  
S    28.14800   16.47300   24.94300  
C    27.43100   15.25500   23.81800  
H    26.69100   14.64500   24.34400  
H    26.93300   15.77200   22.99400  
H    28.16600   14.63100   23.30300  
O    28.95200   17.41200   24.09900  
C    16.65200   23.92600   32.26500  
H    16.56300   24.40700   33.24200  
H    16.00500   23.04400   32.28000  
H    17.68300   23.56600   32.21200  
S    16.17000   25.03500   30.92200  
C    14.72000   25.76500   31.71500  
H    14.39000   25.18500   32.58000  
H    14.83800   26.78700   32.08500  
H    13.88600   25.74900   31.00800  
O    15.67100   24.09800   29.86700  
C    17.88600   14.14800   30.19400  
H    18.34200   14.06100   31.18300  
H    18.03600   15.19300   29.91100  
H    16.84400   13.82300   30.24500  
S    19.02400   13.13400   29.22300  
C    18.75000   11.50600   29.95700  
H    19.42600   11.49000   30.81600  
H    17.71300   11.45700   30.30000  
H    18.99400   10.71700   29.24100  
O    20.38300   13.42500   29.77800  
C    22.57500   11.17400   23.94100  
H    22.06200   11.27300   24.90100  
H    22.00300   11.70800   23.17800  
H    22.62300   10.12500   23.63600  
S    24.19900   11.95300   23.79300  
C    23.70400   13.68900   23.85400  
H    22.75700   13.90200   23.35000  
H    23.48000   13.74600   24.92200  
H    24.54400   14.36100   23.65900  
O    24.55400   11.66600   22.36700  
$end

$rem
JOBTYPE  SP
METHOD  B3LYP
BASIS  6-31+G(D)
SYMMETRY  FALSE
SYM_IGNORE  TRUE
MEM_TOTAL  12000
MEM_STATIC  4000
BASIS_LIN_DEP_THRESH  6
THRESH  14
SCF_CONVERGENCE  8
FD_MAT_VEC_PROD  FALSE
XC_GRID  000075000302
NL_GRID  1
MAX_SCF_CYCLES  200
ENV_METHOD  B3LYP
GEN_SCFMAN_EMBED  TRUE
SPADE_PARTITION  TRUE
EMBEDDING_EARLY_STOP  TRUE
$end

--------------------------------------------------------------
 ----------------------------------------------------------------
             Standard Nuclear Orientation (Angstroms)
    I     Atom           X                Y                Z
 ----------------------------------------------------------------
    1      C      22.1080000000    18.6140000000    30.5120000000
    2      C      23.3630000000    18.6800000000    29.6270000000
    3      C      23.0690000000    19.6610000000    28.4790000000
    4      C      22.6390000000    21.0360000000    29.0160000000
    5      C      21.3390000000    20.9690000000    29.8340000000
    6      C      21.6740000000    20.0100000000    30.9880000000
    7      H      23.8910000000    19.6910000000    27.7530000000
    8      H      24.1920000000    19.1650000000    30.1580000000
    9      H      21.3860000000    18.2200000000    29.7860000000
   10      H      22.1340000000    17.9690000000    31.3990000000
   11      H      23.5050000000    21.4800000000    29.5210000000
   12      H      22.5230000000    21.6690000000    28.1280000000
   13      H      20.9630000000    21.9700000000    30.0770000000
   14      H      20.5210000000    20.5780000000    29.2170000000
   15      H      22.4220000000    20.4530000000    31.6570000000
   16      H      20.7410000000    19.9960000000    31.5650000000
   17      H      22.2280000000    19.2370000000    27.9160000000
   18      N      23.5910000000    17.3170000000    29.1510000000
   19      H      23.5360000000    17.0730000000    28.1700000000
   20      C      24.1890000000    16.2750000000    29.8280000000
   21      H      24.3370000000    15.4120000000    29.1530000000
   22      O      24.4520000000    16.3320000000    31.0160000000
   23      C      24.6550000000    24.3760000000    27.6760000000
   24      H      25.6630000000    24.0110000000    27.4640000000
   25      H      24.2410000000    23.5870000000    28.3090000000
   26      H      23.9960000000    24.3760000000    26.8040000000
   27      S      24.6840000000    25.9990000000    28.4690000000
   28      C      25.6990000000    26.6460000000    27.1210000000
   29      H      26.7150000000    26.2630000000    27.2410000000
   30      H      25.2470000000    26.3370000000    26.1750000000
   31      H      25.6890000000    27.7390000000    27.1130000000
   32      O      25.7020000000    25.9430000000    29.5650000000
   33      C      16.9350000000    24.5370000000    25.6090000000
   34      H      16.0340000000    24.0920000000    25.1800000000
   35      H      17.5230000000    23.9010000000    26.2750000000
   36      H      16.6540000000    25.5180000000    26.0030000000
   37      S      18.1000000000    24.7010000000    24.2380000000
   38      C      17.0450000000    25.8330000000    23.3050000000
   39      H      17.2930000000    26.8470000000    23.6300000000
   40      H      17.1900000000    25.6580000000    22.2360000000
   41      H      16.0000000000    25.6080000000    23.5320000000
   42      O      17.9320000000    23.4660000000    23.4090000000
   43      C      19.0330000000    19.5140000000    25.4770000000
   44      H      18.4490000000    20.1040000000    24.7650000000
   45      H      19.2050000000    18.5390000000    25.0140000000
   46      H      18.5920000000    19.4610000000    26.4760000000
   47      S      20.5210000000    20.5180000000    25.6830000000
   48      C      19.6120000000    21.9770000000    26.2400000000
   49      H      20.2230000000    22.8770000000    26.1400000000
   50      H      18.8080000000    22.1940000000    25.5320000000
   51      H      19.2520000000    21.8650000000    27.2660000000
   52      O      20.9540000000    20.8130000000    24.2800000000
   53      C      28.5180000000    14.5230000000    33.4850000000
   54      H      27.9570000000    15.4380000000    33.6910000000
   55      H      28.0790000000    13.7110000000    34.0710000000
   56      H      29.5520000000    14.6510000000    33.8150000000
   57      S      28.5020000000    14.2030000000    31.7070000000
   58      C      26.7600000000    13.7620000000    31.5150000000
   59      H      26.5170000000    12.9360000000    32.1880000000
   60      H      26.1220000000    14.6110000000    31.7740000000
   61      H      26.5380000000    13.3950000000    30.5090000000
   62      O      29.2020000000    12.8890000000    31.5530000000
   63      C      26.4810000000    18.8600000000    28.2390000000
   64      H      26.5830000000    19.8760000000    27.8510000000
   65      H      25.8260000000    18.3160000000    27.5540000000
   66      H      26.1270000000    18.8570000000    29.2730000000
   67      S      28.0640000000    17.9900000000    28.1740000000
   68      C      27.4530000000    16.3690000000    28.6870000000
   69      H      26.6080000000    16.0920000000    28.0510000000
   70      H      28.2900000000    15.6660000000    28.7050000000
   71      H      27.0720000000    16.4500000000    29.7080000000
   72      O      28.7400000000    18.4160000000    29.4400000000
   73      C      19.9180000000    20.2780000000    35.1750000000
   74      H      20.5030000000    20.2110000000    34.2540000000
   75      H      20.3950000000    19.6750000000    35.9520000000
   76      H      18.8910000000    19.9620000000    34.9720000000
   77      S      19.6860000000    21.9850000000    35.7180000000
   78      C      18.5180000000    21.7440000000    37.0760000000
   79      H      17.7130000000    21.0540000000    36.8100000000
   80      H      19.0840000000    21.3080000000    37.9030000000
   81      H      18.1880000000    22.7540000000    37.3340000000
   82      O      18.8200000000    22.3350000000    34.5490000000
   83      C      14.4020000000    20.3530000000    28.5830000000
   84      H      13.7770000000    21.2150000000    28.8310000000
   85      H      13.9120000000    19.7800000000    27.7920000000
   86      H      14.5420000000    19.6280000000    29.3880000000
   87      S      15.9820000000    21.0920000000    28.1140000000
   88      C      15.5470000000    21.2830000000    26.3700000000
   89      H      14.9600000000    20.3900000000    26.1410000000
   90      H      15.0450000000    22.2420000000    26.2200000000
   91      H      16.2760000000    21.0160000000    25.6000000000
   92      O      16.9500000000    19.9500000000    28.1020000000
   93      C      27.7070000000    22.7290000000    32.4830000000
   94      H      28.7350000000    23.0980000000    32.4450000000
   95      H      27.0530000000    23.5980000000    32.3740000000
   96      H      27.6510000000    22.1910000000    33.4330000000
   97      S      27.3770000000    21.5170000000    31.1840000000
   98      C      27.1110000000    22.7580000000    29.8980000000
   99      H      26.0850000000    23.1350000000    29.9040000000
  100      H      27.7600000000    23.6300000000    30.0120000000
  101      H      27.2200000000    22.2090000000    28.9590000000
  102      O      26.0640000000    20.8890000000    31.5320000000
  103      C      24.5810000000    13.2320000000    27.8790000000
  104      H      25.2990000000    13.2960000000    28.7010000000
  105      H      25.0840000000    12.8370000000    26.9920000000
  106      H      24.0140000000    14.1570000000    27.7520000000
  107      S      23.3610000000    12.0200000000    28.4330000000
  108      C      24.5070000000    10.6980000000    28.8850000000
  109      H      24.8070000000    10.8120000000    29.9300000000
  110      H      24.0100000000     9.7320000000    28.7710000000
  111      H      25.3640000000    10.6980000000    28.2070000000
  112      O      22.5710000000    11.5810000000    27.2400000000
  113      C      23.5700000000    23.1720000000    32.3160000000
  114      H      23.5060000000    23.9890000000    31.5920000000
  115      H      24.4200000000    22.4920000000    32.2230000000
  116      H      22.6000000000    22.6720000000    32.2560000000
  117      S      23.8190000000    23.9560000000    33.9240000000
  118      C      24.0450000000    22.3400000000    34.7000000000
  119      H      24.9880000000    21.9680000000    34.2920000000
  120      H      24.1230000000    22.3920000000    35.7890000000
  121      H      23.2080000000    21.7380000000    34.3360000000
  122      O      22.4860000000    24.4370000000    34.4060000000
  123      C      30.3360000000    13.3650000000    28.5150000000
  124      H      30.8940000000    13.1420000000    29.4280000000
  125      H      31.0100000000    13.3090000000    27.6560000000
  126      H      29.7990000000    14.3120000000    28.4240000000
  127      S      28.9560000000    12.1980000000    28.5040000000
  128      C      29.7930000000    10.8560000000    27.6310000000
  129      H      28.9700000000    10.2760000000    27.2070000000
  130      H      30.3720000000    11.2670000000    26.8000000000
  131      H      30.3860000000    10.3190000000    28.3760000000
  132      O      27.9790000000    12.7150000000    27.4940000000
  133      C      21.9870000000    13.3380000000    32.3690000000
  134      H      21.6770000000    14.1880000000    32.9830000000
  135      H      22.5800000000    13.7530000000    31.5500000000
  136      H      21.1160000000    12.8740000000    31.9010000000
  137      S      22.9700000000    12.3200000000    33.4920000000
  138      C      24.2000000000    13.6190000000    33.7460000000
  139      H      23.8570000000    14.1840000000    34.6170000000
  140      H      25.1170000000    13.0800000000    33.9950000000
  141      H      24.2620000000    14.2050000000    32.8250000000
  142      O      23.6530000000    11.4150000000    32.5140000000
  143      C      20.4480000000    24.8230000000    31.6480000000
  144      H      21.0140000000    24.7330000000    32.5790000000
  145      H      19.6280000000    25.5320000000    31.7840000000
  146      H      20.0730000000    23.8350000000    31.3720000000
  147      S      21.3070000000    25.4850000000    30.2020000000
  148      C      19.8190000000    25.7010000000    29.2000000000
  149      H      19.1700000000    26.4250000000    29.6970000000
  150      H      20.1360000000    26.0790000000    28.2240000000
  151      H      19.3130000000    24.7380000000    29.0920000000
  152      O      21.7870000000    24.1730000000    29.6660000000
  153      C      17.1290000000    20.2850000000    31.9100000000
  154      H      16.6960000000    20.5430000000    32.8800000000
  155      H      17.8830000000    20.9710000000    31.5150000000
  156      H      16.4050000000    20.1420000000    31.1030000000
  157      S      18.0350000000    18.7430000000    32.1660000000
  158      C      18.4110000000    18.2850000000    30.4580000000
  159      H      18.9250000000    19.1020000000    29.9450000000
  160      H      19.0610000000    17.4090000000    30.3960000000
  161      H      17.5240000000    18.0590000000    29.8600000000
  162      O      16.9980000000    17.7160000000    32.4950000000
  163      C      19.6270000000    15.4620000000    33.7640000000
  164      H      20.1620000000    15.4350000000    32.8120000000
  165      H      19.1260000000    14.5290000000    34.0320000000
  166      H      18.8660000000    16.2420000000    33.6810000000
  167      S      20.7310000000    15.9400000000    35.1130000000
  168      C      21.7770000000    17.0790000000    34.1780000000
  169      H      22.6680000000    17.2700000000    34.7820000000
  170      H      21.9830000000    16.7240000000    33.1650000000
  171      H      21.2250000000    17.9980000000    33.9660000000
  172      O      21.5790000000    14.7880000000    35.5530000000
  173      C      22.5980000000    23.6980000000    22.6700000000
  174      H      23.0080000000    23.8120000000    21.6640000000
  175      H      22.0570000000    22.7550000000    22.7880000000
  176      H      22.0720000000    24.5820000000    23.0390000000
  177      S      24.2220000000    23.6220000000    23.4580000000
  178      C      23.5970000000    22.7330000000    24.9020000000
  179      H      22.8390000000    23.3350000000    25.4090000000
  180      H      23.2290000000    21.7670000000    24.5450000000
  181      H      24.4020000000    22.4920000000    25.6010000000
  182      O      24.5520000000    24.9770000000    24.0020000000
  183      C      20.5340000000    16.3480000000    27.9560000000
  184      H      20.9870000000    15.7050000000    28.7160000000
  185      H      21.2630000000    16.9570000000    27.4170000000
  186      H      19.6550000000    16.8330000000    28.3890000000
  187      S      19.8270000000    15.3360000000    26.6370000000
  188      C      21.2860000000    14.3970000000    26.1310000000
  189      H      21.6890000000    13.7910000000    26.9460000000
  190      H      20.9800000000    13.7120000000    25.3370000000
  191      H      22.0600000000    15.0210000000    25.6760000000
  192      O      19.5880000000    16.3960000000    25.6080000000
  193      C      23.2980000000    17.3800000000    38.0090000000
  194      H      23.3610000000    16.5860000000    37.2600000000
  195      H      23.7210000000    17.0740000000    38.9690000000
  196      H      22.2290000000    17.4380000000    38.2300000000
  197      S      23.7960000000    19.0000000000    37.3820000000
  198      C      22.9520000000    20.0430000000    38.5920000000
  199      H      21.8720000000    19.8780000000    38.6030000000
  200      H      23.3600000000    19.7880000000    39.5740000000
  201      H      23.0770000000    21.1270000000    38.5180000000
  202      O      22.9460000000    19.2640000000    36.1790000000
  203      C      25.1880000000    18.5720000000    33.6690000000
  204      H      24.9900000000    17.5230000000    33.4350000000
  205      H      24.8330000000    18.8340000000    34.6690000000
  206      H      24.7390000000    19.2030000000    32.8980000000
  207      S      26.9900000000    18.6480000000    33.7670000000
  208      C      27.3240000000    17.7040000000    32.2620000000
  209      H      26.8290000000    16.7290000000    32.2700000000
  210      H      27.0270000000    18.3050000000    31.3990000000
  211      H      28.3480000000    17.4090000000    32.0190000000
  212      O      27.2680000000    17.6810000000    34.8760000000
  213      C      24.6710000000    18.9540000000    24.7240000000
  214      H      25.7240000000    19.0230000000    25.0050000000
  215      H      24.5800000000    19.3780000000    23.7200000000
  216      H      24.1990000000    19.4780000000    25.5590000000
  217      S      24.1560000000    17.2230000000    24.6560000000
  218      C      22.4660000000    17.4630000000    24.0620000000
  219      H      22.2140000000    16.4200000000    23.8530000000
  220      H      21.8740000000    17.8740000000    24.8830000000
  221      H      22.3790000000    18.0990000000    23.1780000000
  222      O      23.9930000000    16.8230000000    26.0890000000
  223      C      20.3490000000    27.3920000000    23.9230000000
  224      H      19.3010000000    27.6470000000    23.7470000000
  225      H      21.0000000000    28.1380000000    23.4610000000
  226      H      20.5030000000    26.4010000000    23.4890000000
  227      S      20.5660000000    27.3790000000    25.7170000000
  228      C      21.7790000000    26.0440000000    25.8240000000
  229      H      21.6270000000    25.2440000000    25.0940000000
  230      H      22.7450000000    26.5200000000    25.6380000000
  231      H      21.8140000000    25.6600000000    26.8470000000
  232      O      19.2090000000    26.8200000000    26.0120000000
  233      C      28.7750000000    21.1620000000    25.2600000000
  234      H      29.2260000000    21.4170000000    26.2220000000
  235      H      28.5570000000    20.0910000000    25.2490000000
  236      H      29.5230000000    21.4470000000    24.5160000000
  237      S      27.1640000000    21.9660000000    25.1040000000
  238      C      27.7540000000    23.6680000000    24.9610000000
  239      H      28.2660000000    23.6710000000    23.9950000000
  240      H      26.8190000000    24.2240000000    24.8590000000
  241      H      28.3820000000    24.0300000000    25.7800000000
  242      O      26.5250000000    21.8430000000    26.4520000000
  243      C      29.4140000000    15.4060000000    25.6680000000
  244      H      30.1780000000    15.1490000000    24.9300000000
  245      H      29.8070000000    16.0180000000    26.4830000000
  246      H      29.0290000000    14.5250000000    26.1870000000
  247      S      28.1480000000    16.4730000000    24.9430000000
  248      C      27.4310000000    15.2550000000    23.8180000000
  249      H      26.6910000000    14.6450000000    24.3440000000
  250      H      26.9330000000    15.7720000000    22.9940000000
  251      H      28.1660000000    14.6310000000    23.3030000000
  252      O      28.9520000000    17.4120000000    24.0990000000
  253      C      16.6520000000    23.9260000000    32.2650000000
  254      H      16.5630000000    24.4070000000    33.2420000000
  255      H      16.0050000000    23.0440000000    32.2800000000
  256      H      17.6830000000    23.5660000000    32.2120000000
  257      S      16.1700000000    25.0350000000    30.9220000000
  258      C      14.7200000000    25.7650000000    31.7150000000
  259      H      14.3900000000    25.1850000000    32.5800000000
  260      H      14.8380000000    26.7870000000    32.0850000000
  261      H      13.8860000000    25.7490000000    31.0080000000
  262      O      15.6710000000    24.0980000000    29.8670000000
  263      C      17.8860000000    14.1480000000    30.1940000000
  264      H      18.3420000000    14.0610000000    31.1830000000
  265      H      18.0360000000    15.1930000000    29.9110000000
  266      H      16.8440000000    13.8230000000    30.2450000000
  267      S      19.0240000000    13.1340000000    29.2230000000
  268      C      18.7500000000    11.5060000000    29.9570000000
  269      H      19.4260000000    11.4900000000    30.8160000000
  270      H      17.7130000000    11.4570000000    30.3000000000
  271      H      18.9940000000    10.7170000000    29.2410000000
  272      O      20.3830000000    13.4250000000    29.7780000000
  273      C      22.5750000000    11.1740000000    23.9410000000
  274      H      22.0620000000    11.2730000000    24.9010000000
  275      H      22.0030000000    11.7080000000    23.1780000000
  276      H      22.6230000000    10.1250000000    23.6360000000
  277      S      24.1990000000    11.9530000000    23.7930000000
  278      C      23.7040000000    13.6890000000    23.8540000000
  279      H      22.7570000000    13.9020000000    23.3500000000
  280      H      23.4800000000    13.7460000000    24.9220000000
  281      H      24.5440000000    14.3610000000    23.6590000000
  282      O      24.5540000000    11.6660000000    22.3670000000
 ----------------------------------------------------------------
 Nuclear Repulsion Energy =       45886.74767817 hartrees
 There are      581 alpha and      581 beta electrons
 Requested basis set is 6-31+G(d)
 There are 929 shells and 2589 basis functions

 Total QAlloc Memory Limit  12000 MB
 Mega-Array Size      3911 MB
 MEM_STATIC part      4000 MB

 A cutoff of  1.0D-14 yielded 172234 shell pairs
 There are   1484412 function pairs
 Smallest overlap matrix eigenvalue = 3.93E-07
 Linear dependence detected in AO basis
 Tighter screening thresholds may be required for diffuse basis sets
 Use S2THRESH > 14 and THRESH = 14 in case of SCF convergence issues
 Number of orthogonalized atomic orbitals = 2587
 Maximum deviation from orthogonality = 2.197E-10

 Scale SEOQF with 1.000000e-03/1.000000e-03/1.000000e-03

 Standard Electronic Orientation quadrupole field applied
 Nucleus-field energy     =    -0.0000005415 hartrees
 Guess from superposition of atomic densities
 Warning:  Energy on first SCF cycle will be non-variational
 SAD guess density has 1162.000002 electrons

 -----------------------------------------------------------------------
  General SCF calculation program by
  Eric Jon Sundstrom, Paul Horn, Yuezhi Mao, Dmitri Zuev, Alec White,
  David Stuck, Shaama M.S., Shane Yost, Joonho Lee, David Small,
  Daniel Levine, Susi Lehtola, Hugh Burton, Evgeny Epifanovsky,
  Bang C. Huynh
 -----------------------------------------------------------------------
=================================================
        Doing projection-based embedding         
      F. Manby et al. JCTC, 8, 2564 (2012)       
=================================================

****************************************************
   Low-level SCF calculation for the whole system   
****************************************************
----------------------------------------------
 Summary of the low-level theory: 
 Exchange:     0.2000 Hartree-Fock + 0.0800 Slater + 0.7200 B88
 Correlation:  0.1900 VWN1RPA + 0.8100 LYP
 Using Euler-Maclaurin-Lebedev (75,302) quadrature formula
----------------------------------------------
 using 16 threads for integral computing
 -------------------------------------------------------
 OpenMP Integral computing Module                
 Release: version 1.0, May 2013, Q-Chem Inc. Pittsburgh 
 -------------------------------------------------------
 A restricted SCF calculation will be
 performed using DIIS
 SCF converges when DIIS error is below 1.0e-08
 ---------------------------------------
  Cycle       Energy         DIIS error
 ---------------------------------------
    1  -14806.1182648655      1.37e-02  
    2  -14782.9554650202      2.54e-03  
    3  -14772.3341369705      4.69e-03  
    4  -14786.8890770232      9.33e-04  
    5  -14787.5471489073      1.83e-04  
    6  -14787.5672314671      9.11e-05  
    7  -14787.5722852390      4.00e-05  
    8  -14787.5733665017      7.30e-06  
    9  -14787.5734020096      3.07e-06  
   10  -14787.5734078701      1.08e-06  
   11  -14787.5734085645      4.15e-07  
   12  -14787.5734086835      1.15e-07  
   13  -14787.5734086926      4.32e-08  
   14  -14787.5734086938      1.83e-08  
   15  -14787.5734086940      6.10e-09  Convergence criterion met
 ---------------------------------------
 SCF time:   CPU 270357.99s  wall 19252.00s 
 SCF   energy in the final basis set =   -14787.5734086940
 Total energy in the final basis set =   -14787.5734086940

****************************************************
             Start embedding calculation            
****************************************************
----------------------------------------------
 Summary of the high-level theory: 
 Exchange:     0.2000 Hartree-Fock + 0.0800 Slater + 0.7200 B88
 Correlation:  0.1900 VWN1RPA + 0.8100 LYP
 Using Euler-Maclaurin-Lebedev (75,302) quadrature formula
----------------------------------------------
Doing R-in-R Embedding Calculation
Number of fragments: 2
Embedded fragment(s): 1 
NOcc for each fragment
           35
          546
NBasis for each fragment
          197
         2392
Variational space of the embedded problem: 
NOcc (active)  = 35
NOcc (fixed)   = 546
NVir (total)   = 2006
Read converged orbitals from disk
=========================================================
       Doing SPADE partition for the orbital space       
     D. Claudino and N. Mayhall JCTC 15, 1053 (2019)     
=========================================================
SPADE singular values:
 1.0000 1.0000 1.0000 1.0000 1.0000 1.0000 1.0000 1.0000 1.0000 0.9999
 0.9998 0.9997 0.9996 0.9995 0.9994 0.9994 0.9987 0.9986 0.9977 0.9972
 0.9968 0.9963 0.9959 0.9955 0.9953 0.9943 0.9942 0.9936 0.9926 0.9912
 0.9898 0.9892 0.9884 0.9858 0.9778 0.2267 0.2144 0.1816 0.1740 0.1577
 0.1522 0.1437 0.1319 0.1219 0.1158 0.1065 0.1001 0.0894 0.0825 0.0748
 0.0669 0.0622 0.0578 0.0544 0.0522 0.0474 0.0441 0.0426 0.0416 0.0385
 0.0332 0.0315 0.0297 0.0267 0.0261 0.0248 0.0237 0.0220 0.0200 0.0194
 0.0186 0.0179 0.0169 0.0162 0.0148 0.0145 0.0141 0.0129 0.0125 0.0117
 0.0115 0.0104 0.0101 0.0089 0.0088 0.0080 0.0077 0.0074 0.0073 0.0069
 0.0065 0.0062 0.0062 0.0058 0.0057 0.0052 0.0049 0.0048 0.0046 0.0044
 0.0042 0.0040 0.0038 0.0036 0.0034 0.0034 0.0033 0.0030 0.0029 0.0027
 0.0025 0.0025 0.0023 0.0022 0.0021 0.0020 0.0019 0.0019 0.0018 0.0017
 0.0017 0.0016 0.0016 0.0015 0.0014 0.0014 0.0013 0.0013 0.0012 0.0012
 0.0011 0.0011 0.0011 0.0010 0.0009 0.0009 0.0009 0.0009 0.0008 0.0008
 0.0007 0.0007 0.0007 0.0007 0.0006 0.0006 0.0006 0.0006 0.0005 0.0005
 0.0005 0.0005 0.0004 0.0004 0.0004 0.0004 0.0004 0.0004 0.0003 0.0003
 0.0003 0.0003 0.0003 0.0003 0.0003 0.0003 0.0002 0.0002 0.0002 0.0002
 0.0002 0.0002 0.0002 0.0002 0.0002 0.0002 0.0002 0.0002 0.0002 0.0002
 0.0001 0.0001 0.0001 0.0001 0.0001 0.0001 0.0001 0.0001 0.0001 0.0001
 0.0001 0.0001 0.0001 0.0001 0.0001 0.0001 0.0001
Early stop requested; no embedded SCF will be performed

 546 environment occs will be part of frozen-core in future post-HF calculations

 --------------------------------------------------------------

                    Orbital Energies (a.u.)
 --------------------------------------------------------------

 Alpha MOs
 -- Occupied --
-89.0194 -89.0158 -89.0146 -89.0131 -89.0115 -89.0077 -89.0052 -89.0020
-89.0016 -89.0007 -89.0000 -88.9997 -88.9954 -88.9927 -88.9926 -88.9922
-88.9916 -88.9904 -88.9901 -88.9886 -88.9847 -88.9840 -88.9828 -88.9793
-88.9737 -88.9705 -19.1377 -19.1357 -19.1293 -19.1274 -19.1262 -19.1258
-19.1219 -19.1197 -19.1192 -19.1163 -19.1146 -19.1125 -19.1123 -19.1104
-19.1084 -19.1078 -19.1071 -19.1070 -19.1070 -19.1063 -19.1034 -19.0974
-19.0968 -19.0932 -19.0864 -19.0800 -10.2333 -10.2330 -10.2319 -10.2286
-10.2271 -10.2267 -10.2264 -10.2256 -10.2250 -10.2241 -10.2219 -10.2217
-10.2212 -10.2210 -10.2210 -10.2200 -10.2186 -10.2161 -10.2154 -10.2154
-10.2127 -10.2124 -10.2122 -10.2119 -10.2115 -10.2113 -10.2110 -10.2108
-10.2097 -10.2094 -10.2088 -10.2087 -10.2080 -10.2071 -10.2068 -10.2067
-10.2049 -10.2032 -10.2024 -10.2015 -10.2005 -10.1980 -10.1968 -10.1962
-10.1962 -10.1945 -10.1936 -10.1904 -10.1861 -10.1824 -10.1806 -10.1799
 -8.0655  -8.0612  -8.0602  -8.0590  -8.0572  -8.0533  -8.0517  -8.0485
 -8.0472  -8.0470  -8.0459  -8.0450  -8.0406  -8.0391  -8.0382  -8.0373
 -8.0372  -8.0358  -8.0358  -8.0353  -8.0303  -8.0296  -8.0289  -8.0252
 -8.0187  -8.0164  -6.0298  -6.0286  -6.0256  -6.0249  -6.0244  -6.0235
 -6.0233  -6.0229  -6.0221  -6.0216  -6.0205  -6.0183  -6.0179  -6.0176
 -6.0164  -6.0163  -6.0161  -6.0147  -6.0145  -6.0128  -6.0117  -6.0116
 -6.0113  -6.0105  -6.0105  -6.0102  -6.0099  -6.0093  -6.0091  -6.0091
 -6.0082  -6.0056  -6.0050  -6.0047  -6.0046  -6.0036  -6.0033  -6.0033
 -6.0028  -6.0025  -6.0021  -6.0019  -6.0017  -6.0015  -6.0003  -6.0003
 -6.0002  -6.0002  -5.9996  -5.9990  -5.9990  -5.9984  -5.9983  -5.9965
 -5.9954  -5.9948  -5.9948  -5.9943  -5.9940  -5.9935  -5.9935  -5.9933
 -5.9931  -5.9928  -5.9923  -5.9918  -5.9898  -5.9884  -5.9877  -5.9869
 -5.9864  -5.9832  -5.9820  -5.9818  -5.9807  -5.9793  -5.9763  -5.9740
 -1.0454  -1.0430  -1.0427  -1.0381  -1.0362  -1.0333  -1.0325  -1.0321
 -1.0261  -1.0242  -1.0235  -1.0233  -1.0215  -1.0211  -1.0202  -1.0185
 -1.0177  -1.0172  -1.0169  -1.0116  -1.0109  -1.0099  -1.0069  -1.0026
 -0.9960  -0.9923  -0.8154  -0.8131  -0.8113  -0.8106  -0.8100  -0.8099
 -0.8081  -0.8039  -0.7998  -0.7996  -0.7981  -0.7966  -0.7966  -0.7962
 -0.7954  -0.7949  -0.7937  -0.7932  -0.7926  -0.7908  -0.7900  -0.7875
 -0.7869  -0.7806  -0.7708  -0.7667  -0.7478  -0.7411  -0.7395  -0.7380
 -0.7377  -0.7363  -0.7342  -0.7318  -0.7302  -0.7296  -0.7280  -0.7262
 -0.7245  -0.7240  -0.7226  -0.7220  -0.7186  -0.7175  -0.7165  -0.7142
 -0.7115  -0.7113  -0.7105  -0.7055  -0.6957  -0.6941  -0.6341  -0.6310
 -0.6271  -0.6252  -0.6228  -0.6218  -0.6174  -0.6144  -0.6134  -0.6122
 -0.6118  -0.6115  -0.6079  -0.6075  -0.6059  -0.6051  -0.6035  -0.6029
 -0.6019  -0.6012  -0.5970  -0.5951  -0.5933  -0.5923  -0.5855  -0.5823
 -0.5009  -0.4931  -0.4907  -0.4893  -0.4891  -0.4880  -0.4871  -0.4859
 -0.4852  -0.4848  -0.4841  -0.4833  -0.4832  -0.4824  -0.4814  -0.4802
 -0.4800  -0.4797  -0.4792  -0.4780  -0.4769  -0.4766  -0.4757  -0.4753
 -0.4744  -0.4733  -0.4728  -0.4728  -0.4721  -0.4713  -0.4709  -0.4707
 -0.4699  -0.4698  -0.4694  -0.4688  -0.4683  -0.4677  -0.4674  -0.4660
 -0.4654  -0.4652  -0.4646  -0.4640  -0.4631  -0.4627  -0.4621  -0.4615
 -0.4608  -0.4604  -0.4597  -0.4592  -0.4590  -0.4586  -0.4581  -0.4576
 -0.4571  -0.4563  -0.4551  -0.4549  -0.4540  -0.4528  -0.4527  -0.4516
 -0.4515  -0.4507  -0.4500  -0.4497  -0.4484  -0.4482  -0.4478  -0.4473
 -0.4462  -0.4448  -0.4423  -0.4407  -0.4392  -0.4387  -0.4381  -0.4376
 -0.4369  -0.4365  -0.4357  -0.4354  -0.4348  -0.4335  -0.4317  -0.4306
 -0.4292  -0.4283  -0.4262  -0.4258  -0.4248  -0.4237  -0.4232  -0.4218
 -0.4217  -0.4215  -0.4213  -0.4201  -0.4186  -0.4185  -0.4178  -0.4173
 -0.4169  -0.4163  -0.4148  -0.4146  -0.4142  -0.4140  -0.4124  -0.4121
 -0.4119  -0.4108  -0.4102  -0.4091  -0.4080  -0.4078  -0.4073  -0.4070
 -0.4065  -0.4047  -0.4044  -0.4038  -0.4025  -0.4011  -0.4007  -0.4004
 -0.4000  -0.3993  -0.3992  -0.3976  -0.3967  -0.3957  -0.3950  -0.3927
 -0.3907  -0.3906  -0.3894  -0.3889  -0.3876  -0.3872  -0.3863  -0.3848
 -0.3841  -0.3840  -0.3831  -0.3824  -0.3819  -0.3810  -0.3802  -0.3783
 -0.3780  -0.3765  -0.3761  -0.3754  -0.3749  -0.3728  -0.3724  -0.3709
 -0.3705  -0.3662  -0.3651  -0.3641  -0.3638  -0.3628  -0.3614  -0.3608
 -0.3605  -0.3593  -0.3576  -0.3562  -0.3557  -0.3554  -0.3533  -0.3502
 -0.3496  -0.3473  -0.3458  -0.3423  -0.3351  -0.3348  -0.2983  -0.2954
 -0.2900  -0.2897  -0.2891  -0.2853  -0.2837  -0.2832  -0.2809  -0.2792
 -0.2764  -0.2741  -0.2728  -0.2725  -0.2711  -0.2695  -0.2686  -0.2670
 -0.2666  -0.2655  -0.2625  -0.2615  -0.2611  -0.2597  -0.2594  -0.2583
 -0.2551  -0.2518  -0.2512  -0.2489  -0.2489  -0.2468  -0.2460  -0.2426
 -0.2412  -0.2399  -0.2391  -0.2385  -0.2366  -0.2359  -0.2341  -0.2325
 -0.2314  -0.2302  -0.2283  -0.2267  -0.2263  -0.2225  -0.2224  -0.2165
 -0.2120  -0.2102 -10.7256 -13.9990 -10.7878 -15.2518 -12.0311 -10.4733
-10.3759 -10.1860 -10.4125  -0.5991  -0.7020  -0.8577  -0.6695  -0.6248
 -0.7352  -0.6887  -0.7633  -0.4699  -0.4714  -0.4208  -0.4858  -0.4491
 -0.4690  -0.4413  -0.4711  -0.4775  -0.4053  -0.4146  -0.4101  -0.4334
 -0.4425  -0.4773  -0.4561  -0.5522  -0.5567
 -- Virtual --
 -0.0272  -0.0216  -0.0168  -0.0148  -0.0128  -0.0120  -0.0104  -0.0095
 -0.0083  -0.0075  -0.0073  -0.0067  -0.0060  -0.0044  -0.0041  -0.0028
 -0.0023  -0.0018  -0.0015  -0.0014  -0.0009   0.0002   0.0019   0.0024
  0.0031   0.0040   0.0052   0.0055   0.0059   0.0070   0.0080   0.0082
  0.0099   0.0103   0.0110   0.0116   0.0127   0.0138   0.0152   0.0154
  0.0159   0.0175   0.0178   0.0184   0.0192   0.0205   0.0210   0.0212
  0.0221   0.0224   0.0232   0.0246   0.0254   0.0258   0.0262   0.0268
  0.0272   0.0282   0.0283   0.0291   0.0296   0.0306   0.0310   0.0314
  0.0319   0.0326   0.0337   0.0340   0.0343   0.0348   0.0355   0.0357
  0.0364   0.0372   0.0381   0.0385   0.0396   0.0398   0.0410   0.0415
  0.0422   0.0432   0.0440   0.0445   0.0452   0.0455   0.0457   0.0467
  0.0470   0.0478   0.0483   0.0487   0.0496   0.0503   0.0512   0.0515
  0.0518   0.0527   0.0530   0.0542   0.0543   0.0558   0.0561   0.0570
  0.0577   0.0579   0.0585   0.0595   0.0597   0.0601   0.0608   0.0614
  0.0619   0.0628   0.0630   0.0642   0.0645   0.0651   0.0654   0.0658
  0.0672   0.0676   0.0684   0.0692   0.0699   0.0704   0.0714   0.0721
  0.0726   0.0739   0.0742   0.0743   0.0755   0.0762   0.0769   0.0776
  0.0786   0.0792   0.0801   0.0803   0.0809   0.0823   0.0828   0.0834
  0.0843   0.0846   0.0849   0.0854   0.0860   0.0864   0.0872   0.0879
  0.0888   0.0898   0.0902   0.0912   0.0920   0.0933   0.0935   0.0939
  0.0941   0.0946   0.0955   0.0971   0.0980   0.0986   0.0992   0.1002
  0.1006   0.1017   0.1022   0.1024   0.1031   0.1035   0.1048   0.1050
  0.1052   0.1072   0.1077   0.1082   0.1092   0.1103   0.1105   0.1108
  0.1117   0.1122   0.1129   0.1136   0.1142   0.1146   0.1153   0.1160
  0.1165   0.1171   0.1174   0.1184   0.1186   0.1189   0.1194   0.1201
  0.1209   0.1219   0.1222   0.1229   0.1236   0.1242   0.1252   0.1256
  0.1266   0.1273   0.1286   0.1287   0.1290   0.1302   0.1307   0.1319
  0.1323   0.1325   0.1330   0.1336   0.1344   0.1351   0.1357   0.1379
  0.1381   0.1384   0.1388   0.1394   0.1403   0.1408   0.1412   0.1416
  0.1428   0.1440   0.1444   0.1449   0.1451   0.1455   0.1461   0.1465
  0.1474   0.1483   0.1488   0.1496   0.1496   0.1504   0.1508   0.1521
  0.1525   0.1530   0.1536   0.1542   0.1544   0.1556   0.1558   0.1561
  0.1570   0.1577   0.1588   0.1594   0.1597   0.1602   0.1605   0.1610
  0.1615   0.1621   0.1626   0.1631   0.1641   0.1646   0.1659   0.1664
  0.1669   0.1674   0.1682   0.1689   0.1693   0.1697   0.1703   0.1707
  0.1712   0.1718   0.1726   0.1731   0.1740   0.1744   0.1747   0.1757
  0.1758   0.1768   0.1772   0.1775   0.1784   0.1788   0.1792   0.1805
  0.1807   0.1816   0.1825   0.1830   0.1840   0.1844   0.1851   0.1857
  0.1858   0.1874   0.1877   0.1880   0.1885   0.1896   0.1900   0.1903
  0.1908   0.1917   0.1929   0.1932   0.1945   0.1947   0.1956   0.1959
  0.1965   0.1971   0.1977   0.1985   0.1990   0.1999   0.2004   0.2009
  0.2013   0.2019   0.2022   0.2032   0.2037   0.2046   0.2047   0.2055
  0.2064   0.2071   0.2074   0.2086   0.2087   0.2100   0.2102   0.2108
  0.2117   0.2120   0.2127   0.2138   0.2140   0.2143   0.2149   0.2154
  0.2165   0.2170   0.2177   0.2182   0.2185   0.2190   0.2194   0.2198
  0.2207   0.2217   0.2224   0.2227   0.2232   0.2248   0.2249   0.2259
  0.2268   0.2272   0.2283   0.2288   0.2292   0.2300   0.2303   0.2307
  0.2313   0.2323   0.2330   0.2339   0.2344   0.2351   0.2360   0.2370
  0.2370   0.2379   0.2388   0.2397   0.2404   0.2411   0.2421   0.2425
  0.2430   0.2432   0.2438   0.2445   0.2455   0.2464   0.2469   0.2473
  0.2482   0.2486   0.2496   0.2502   0.2504   0.2514   0.2526   0.2529
  0.2539   0.2543   0.2553   0.2555   0.2568   0.2571   0.2582   0.2591
  0.2597   0.2602   0.2609   0.2616   0.2626   0.2629   0.2635   0.2644
  0.2651   0.2660   0.2665   0.2667   0.2683   0.2687   0.2695   0.2702
  0.2711   0.2712   0.2720   0.2731   0.2745   0.2758   0.2762   0.2765
  0.2768   0.2783   0.2792   0.2798   0.2807   0.2812   0.2817   0.2830
  0.2842   0.2848   0.2851   0.2863   0.2872   0.2877   0.2888   0.2896
  0.2897   0.2909   0.2914   0.2920   0.2931   0.2939   0.2945   0.2957
  0.2961   0.2971   0.2978   0.2985   0.2998   0.3007   0.3020   0.3026
  0.3035   0.3040   0.3049   0.3058   0.3066   0.3077   0.3083   0.3091
  0.3096   0.3098   0.3103   0.3116   0.3125   0.3131   0.3138   0.3154
  0.3160   0.3166   0.3184   0.3187   0.3195   0.3207   0.3214   0.3225
  0.3229   0.3245   0.3250   0.3256   0.3269   0.3282   0.3290   0.3297
  0.3301   0.3321   0.3322   0.3324   0.3334   0.3347   0.3354   0.3360
  0.3365   0.3371   0.3379   0.3380   0.3404   0.3411   0.3420   0.3434
  0.3440   0.3444   0.3451   0.3453   0.3461   0.3471   0.3491   0.3505
  0.3516   0.3518   0.3522   0.3526   0.3535   0.3553   0.3559   0.3572
  0.3581   0.3584   0.3599   0.3602   0.3614   0.3619   0.3626   0.3640
  0.3648   0.3650   0.3662   0.3665   0.3682   0.3692   0.3701   0.3713
  0.3725   0.3732   0.3742   0.3744   0.3752   0.3766   0.3774   0.3783
  0.3788   0.3797   0.3807   0.3819   0.3827   0.3833   0.3840   0.3846
  0.3864   0.3869   0.3874   0.3886   0.3899   0.3901   0.3912   0.3922
  0.3931   0.3941   0.3948   0.3964   0.3972   0.3976   0.3981   0.3985
  0.3996   0.4006   0.4012   0.4028   0.4032   0.4038   0.4044   0.4051
  0.4056   0.4075   0.4087   0.4094   0.4097   0.4113   0.4117   0.4130
  0.4139   0.4142   0.4155   0.4156   0.4164   0.4178   0.4189   0.4196
  0.4213   0.4219   0.4230   0.4233   0.4244   0.4257   0.4265   0.4270
  0.4276   0.4282   0.4301   0.4311   0.4320   0.4324   0.4348   0.4353
  0.4357   0.4375   0.4389   0.4393   0.4403   0.4408   0.4423   0.4442
  0.4454   0.4462   0.4463   0.4473   0.4495   0.4505   0.4511   0.4517
  0.4531   0.4550   0.4569   0.4574   0.4588   0.4607   0.4622   0.4646
  0.4651   0.4668   0.4676   0.4680   0.4694   0.4702   0.4721   0.4737
  0.4743   0.4754   0.4770   0.4780   0.4785   0.4812   0.4825   0.4839
  0.4863   0.4873   0.4895   0.4898   0.4916   0.4925   0.4932   0.4948
  0.4972   0.4991   0.5013   0.5016   0.5034   0.5050   0.5072   0.5104
  0.5106   0.5123   0.5143   0.5148   0.5151   0.5176   0.5185   0.5196
  0.5218   0.5252   0.5256   0.5285   0.5291   0.5296   0.5324   0.5347
  0.5353   0.5367   0.5383   0.5398   0.5442   0.5450   0.5457   0.5463
  0.5503   0.5525   0.5530   0.5536   0.5545   0.5579   0.5590   0.5601
  0.5628   0.5654   0.5665   0.5667   0.5695   0.5722   0.5737   0.5741
  0.5773   0.5788   0.5799   0.5810   0.5830   0.5844   0.5845   0.5855
  0.5876   0.5900   0.5905   0.5928   0.5952   0.5955   0.5966   0.5982
  0.5986   0.6000   0.6019   0.6033   0.6045   0.6056   0.6075   0.6084
  0.6113   0.6115   0.6124   0.6131   0.6160   0.6161   0.6174   0.6191
  0.6215   0.6227   0.6233   0.6242   0.6263   0.6269   0.6283   0.6292
  0.6306   0.6325   0.6333   0.6363   0.6371   0.6385   0.6388   0.6401
  0.6409   0.6427   0.6433   0.6442   0.6447   0.6471   0.6473   0.6488
  0.6497   0.6519   0.6527   0.6544   0.6553   0.6569   0.6573   0.6586
  0.6595   0.6609   0.6623   0.6625   0.6645   0.6655   0.6668   0.6675
  0.6695   0.6698   0.6706   0.6716   0.6734   0.6742   0.6756   0.6766
  0.6774   0.6780   0.6800   0.6810   0.6820   0.6823   0.6838   0.6849
  0.6868   0.6888   0.6890   0.6907   0.6911   0.6923   0.6931   0.6939
  0.6949   0.6967   0.6979   0.6987   0.7000   0.7015   0.7026   0.7030
  0.7041   0.7044   0.7061   0.7068   0.7079   0.7087   0.7118   0.7124
  0.7129   0.7139   0.7142   0.7157   0.7163   0.7187   0.7197   0.7208
  0.7226   0.7234   0.7242   0.7254   0.7263   0.7270   0.7299   0.7305
  0.7313   0.7328   0.7342   0.7356   0.7377   0.7390   0.7397   0.7417
  0.7428   0.7442   0.7453   0.7461   0.7476   0.7483   0.7492   0.7523
  0.7531   0.7547   0.7556   0.7587   0.7602   0.7605   0.7619   0.7638
  0.7647   0.7660   0.7666   0.7691   0.7706   0.7734   0.7745   0.7769
  0.7772   0.7795   0.7815   0.7823   0.7849   0.7852   0.7868   0.7897
  0.7910   0.7930   0.7938   0.7944   0.7953   0.7962   0.7988   0.8005
  0.8025   0.8032   0.8049   0.8054   0.8065   0.8089   0.8111   0.8124
  0.8136   0.8145   0.8161   0.8173   0.8186   0.8196   0.8211   0.8222
  0.8240   0.8265   0.8268   0.8289   0.8293   0.8305   0.8311   0.8325
  0.8357   0.8366   0.8373   0.8387   0.8400   0.8417   0.8435   0.8445
  0.8465   0.8480   0.8484   0.8514   0.8520   0.8537   0.8543   0.8578
  0.8578   0.8596   0.8612   0.8631   0.8654   0.8664   0.8683   0.8695
  0.8705   0.8710   0.8711   0.8735   0.8751   0.8759   0.8775   0.8778
  0.8798   0.8817   0.8820   0.8845   0.8857   0.8873   0.8887   0.8904
  0.8925   0.8925   0.8930   0.8951   0.8958   0.8975   0.8998   0.9001
  0.9020   0.9028   0.9043   0.9056   0.9068   0.9083   0.9096   0.9103
  0.9116   0.9134   0.9142   0.9152   0.9163   0.9187   0.9192   0.9219
  0.9227   0.9235   0.9252   0.9254   0.9267   0.9278   0.9289   0.9302
  0.9308   0.9329   0.9345   0.9359   0.9369   0.9383   0.9403   0.9416
  0.9437   0.9445   0.9461   0.9471   0.9474   0.9506   0.9517   0.9528
  0.9541   0.9544   0.9555   0.9562   0.9581   0.9585   0.9599   0.9610
  0.9624   0.9629   0.9651   0.9670   0.9686   0.9693   0.9706   0.9715
  0.9725   0.9738   0.9748   0.9754   0.9762   0.9774   0.9780   0.9793
  0.9805   0.9817   0.9834   0.9844   0.9856   0.9868   0.9872   0.9878
  0.9882   0.9894   0.9909   0.9914   0.9931   0.9944   0.9945   0.9964
  0.9977   0.9992   1.0001   1.0015   1.0017   1.0032   1.0039   1.0053
  1.0057   1.0069   1.0086   1.0091   1.0094   1.0105   1.0119   1.0126
  1.0142   1.0150   1.0164   1.0173   1.0185   1.0194   1.0209   1.0217
  1.0221   1.0230   1.0252   1.0269   1.0275   1.0278   1.0305   1.0314
  1.0326   1.0339   1.0344   1.0362   1.0370   1.0372   1.0391   1.0408
  1.0418   1.0431   1.0440   1.0450   1.0455   1.0464   1.0481   1.0486
  1.0519   1.0530   1.0539   1.0552   1.0561   1.0573   1.0582   1.0595
  1.0612   1.0637   1.0641   1.0648   1.0676   1.0688   1.0699   1.0705
  1.0725   1.0750   1.0755   1.0767   1.0782   1.0798   1.0811   1.0830
  1.0842   1.0871   1.0880   1.0886   1.0892   1.0905   1.0917   1.0947
  1.0966   1.0972   1.0976   1.0987   1.1010   1.1034   1.1049   1.1054
  1.1064   1.1079   1.1097   1.1099   1.1111   1.1132   1.1157   1.1166
  1.1181   1.1211   1.1224   1.1227   1.1248   1.1254   1.1267   1.1277
  1.1295   1.1304   1.1316   1.1322   1.1346   1.1355   1.1369   1.1380
  1.1388   1.1409   1.1416   1.1439   1.1449   1.1456   1.1480   1.1492
  1.1512   1.1518   1.1524   1.1545   1.1550   1.1565   1.1577   1.1592
  1.1602   1.1619   1.1631   1.1645   1.1651   1.1670   1.1672   1.1682
  1.1697   1.1709   1.1716   1.1754   1.1761   1.1774   1.1797   1.1812
  1.1814   1.1824   1.1841   1.1854   1.1872   1.1876   1.1901   1.1919
  1.1935   1.1939   1.1964   1.1989   1.2010   1.2021   1.2044   1.2054
  1.2076   1.2100   1.2117   1.2134   1.2150   1.2160   1.2191   1.2216
  1.2228   1.2263   1.2285   1.2297   1.2309   1.2336   1.2355   1.2361
  1.2381   1.2405   1.2413   1.2420   1.2449   1.2454   1.2474   1.2509
  1.2520   1.2536   1.2563   1.2591   1.2603   1.2621   1.2647   1.2674
  1.2687   1.2728   1.2734   1.2754   1.2769   1.2785   1.2831   1.2847
  1.2870   1.2892   1.2900   1.2936   1.2941   1.2977   1.3027   1.3034
  1.3047   1.3085   1.3088   1.3105   1.3145   1.3169   1.3200   1.3219
  1.3234   1.3261   1.3267   1.3292   1.3309   1.3319   1.3331   1.3380
  1.3400   1.3411   1.3441   1.3451   1.3463   1.3489   1.3497   1.3515
  1.3537   1.3555   1.3567   1.3584   1.3618   1.3625   1.3647   1.3670
  1.3676   1.3721   1.3725   1.3750   1.3759   1.3776   1.3790   1.3800
  1.3821   1.3828   1.3838   1.3856   1.3888   1.3896   1.3914   1.3924
  1.3946   1.3965   1.3982   1.4008   1.4020   1.4041   1.4044   1.4055
  1.4069   1.4081   1.4097   1.4108   1.4119   1.4134   1.4136   1.4149
  1.4172   1.4186   1.4195   1.4214   1.4216   1.4239   1.4257   1.4272
  1.4275   1.4289   1.4304   1.4329   1.4343   1.4351   1.4369   1.4384
  1.4397   1.4407   1.4446   1.4473   1.4480   1.4508   1.4523   1.4539
  1.4557   1.4578   1.4596   1.4621   1.4623   1.4642   1.4654   1.4675
  1.4678   1.4695   1.4715   1.4723   1.4732   1.4758   1.4783   1.4803
  1.4811   1.4833   1.4836   1.4861   1.4878   1.4896   1.4918   1.4941
  1.4976   1.4995   1.5023   1.5027   1.5050   1.5064   1.5078   1.5104
  1.5127   1.5136   1.5157   1.5170   1.5198   1.5232   1.5243   1.5270
  1.5286   1.5306   1.5329   1.5344   1.5375   1.5386   1.5416   1.5426
  1.5456   1.5462   1.5489   1.5516   1.5576   1.5603   1.5623   1.5651
  1.5679   1.5683   1.5767   1.5808   1.5826   1.5861   1.5880   1.5941
  1.5949   1.5990   1.6032   1.6043   1.6063   1.6149   1.6156   1.6222
  1.6272   1.6302   1.6317   1.6333   1.6412   1.6459   1.6479   1.6495
  1.6532   1.6562   1.6583   1.6605   1.6641   1.6653   1.6667   1.6675
  1.6700   1.6727   1.6734   1.6772   1.6778   1.6791   1.6803   1.6824
  1.6834   1.6844   1.6864   1.6866   1.6901   1.6908   1.6918   1.6927
  1.6932   1.6950   1.6969   1.6972   1.6985   1.7008   1.7018   1.7027
  1.7040   1.7050   1.7062   1.7074   1.7080   1.7089   1.7095   1.7110
  1.7130   1.7147   1.7153   1.7164   1.7184   1.7207   1.7215   1.7227
  1.7232   1.7253   1.7258   1.7295   1.7305   1.7314   1.7330   1.7348
  1.7374   1.7376   1.7398   1.7406   1.7421   1.7437   1.7467   1.7470
  1.7488   1.7496   1.7520   1.7529   1.7555   1.7564   1.7568   1.7583
  1.7603   1.7611   1.7640   1.7642   1.7690   1.7692   1.7696   1.7714
  1.7721   1.7730   1.7774   1.7780   1.7792   1.7796   1.7809   1.7822
  1.7843   1.7844   1.7852   1.7864   1.7881   1.7890   1.7905   1.7921
  1.7939   1.7949   1.7980   1.7991   1.8017   1.8026   1.8053   1.8065
  1.8081   1.8123   1.8135   1.8168   1.8189   1.8200   1.8223   1.8249
  1.8257   1.8285   1.8337   1.8388   1.8399   1.8445   1.8484   1.8503
  1.8523   1.8545   1.8570   1.8607   1.8643   1.8654   1.8689   1.8704
  1.8745   1.8753   1.8771   1.8796   1.8802   1.8833   1.8855   1.8856
  1.8879   1.8893   1.8913   1.8919   1.8926   1.8944   1.8949   1.8988
  1.8992   1.9009   1.9022   1.9029   1.9036   1.9052   1.9056   1.9062
  1.9077   1.9100   1.9115   1.9121   1.9140   1.9151   1.9168   1.9186
  1.9207   1.9216   1.9220   1.9233   1.9240   1.9245   1.9265   1.9273
  1.9307   1.9312   1.9316   1.9347   1.9351   1.9361   1.9366   1.9403
  1.9428   1.9436   1.9461   1.9468   1.9482   1.9500   1.9530   1.9545
  1.9586   1.9604   1.9617   1.9647   1.9665   1.9678   1.9684   1.9726
  1.9755   1.9813   1.9849   1.9875   1.9913   2.0047   2.0101   2.0155
  2.0316   2.0373   2.0420   2.0442   2.0449   2.0484   2.0504   2.0518
  2.0527   2.0560   2.0573   2.0643   2.0665   2.0694   2.0721   2.0728
  2.0748   2.0763   2.0775   2.0786   2.0793   2.0801   2.0819   2.0841
  2.0849   2.0859   2.0870   2.0878   2.0890   2.0896   2.0908   2.0911
  2.0927   2.0937   2.0944   2.0950   2.0958   2.0971   2.0995   2.1028
  2.1035   2.1042   2.1067   2.1084   2.1093   2.1121   2.1150   2.1161
  2.1167   2.1192   2.1212   2.1238   2.1274   2.1306   2.1337   2.1343
  2.1359   2.1380   2.1401   2.1447   2.1480   2.1482   2.1582   2.1615
  2.1720   2.1736   2.1758   2.1766   2.1786   2.1870   2.1876   2.1997
  2.2013   2.2049   2.2061   2.2066   2.2100   2.2120   2.2140   2.2177
  2.2181   2.2195   2.2205   2.2238   2.2252   2.2268   2.2278   2.2293
  2.2301   2.2326   2.2338   2.2350   2.2373   2.2385   2.2402   2.2417
  2.2447   2.2456   2.2462   2.2470   2.2486   2.2496   2.2502   2.2512
  2.2517   2.2526   2.2550   2.2556   2.2565   2.2581   2.2588   2.2590
  2.2599   2.2607   2.2620   2.2649   2.2668   2.2678   2.2685   2.2690
  2.2703   2.2706   2.2709   2.2713   2.2724   2.2730   2.2735   2.2755
  2.2767   2.2771   2.2787   2.2790   2.2791   2.2799   2.2810   2.2818
  2.2829   2.2834   2.2845   2.2856   2.2858   2.2866   2.2877   2.2887
  2.2896   2.2902   2.2921   2.2925   2.2926   2.2932   2.2955   2.2971
  2.2988   2.2993   2.3004   2.3028   2.3041   2.3045   2.3057   2.3059
  2.3084   2.3097   2.3114   2.3118   2.3133   2.3139   2.3166   2.3169
  2.3185   2.3199   2.3203   2.3210   2.3231   2.3235   2.3256   2.3263
  2.3271   2.3284   2.3300   2.3310   2.3320   2.3326   2.3339   2.3357
  2.3384   2.3399   2.3417   2.3429   2.3445   2.3455   2.3465   2.3493
  2.3500   2.3505   2.3532   2.3539   2.3546   2.3559   2.3564   2.3582
  2.3596   2.3641   2.3666   2.3688   2.3707   2.3717   2.3734   2.3749
  2.3765   2.3812   2.3853   2.3865   2.3907   2.3916   2.3953   2.3991
  2.4014   2.4056   2.4065   2.4170   2.4188   2.4256   2.4270   2.4469
  2.4476   2.4592   2.4701   2.4849   2.5285   2.5674   2.5753   2.5906
  2.6733   2.7082   2.7619   2.7752   2.8265   2.8282   2.8297   2.8324
  2.8370   2.8457   2.8474   2.8491   2.8533   2.8545   2.8554   2.8564
  2.8574   2.8604   2.8614   2.8626   2.8636   2.8655   2.8668   2.8715
  2.8722   2.8755   2.8768   2.8777   2.8792   2.8849   2.8915   2.8945
  2.9005   2.9043   2.9694   3.1194   3.2632   3.9507   3.9578   3.9689
  3.9704   3.9732   3.9748   3.9779   3.9821   3.9839   3.9864   3.9887
  3.9913   3.9950   3.9967   3.9980   3.9996   4.0022   4.0040   4.0089
  4.0109   4.0124   4.0190   4.0247   4.0299   4.0360   4.0376   4.2173
  4.2260   4.2379   4.2396   4.2418   4.2526   4.2553   4.2589   4.2624
  4.2668   4.2676   4.2700   4.2712   4.2751   4.2769   4.2794   4.2818
  4.2849   4.2887   4.2919   4.2944   4.2953   4.2987   4.2999   4.3008
  4.3016   4.3066   4.3081   4.3101   4.3134   4.3144   4.3157   4.3178
  4.3227   4.3240   4.3264   4.3283   4.3318   4.3364   4.3395   4.3411
  4.3449   4.3469   4.3485   4.3526   4.3572   4.3595   4.3599   4.3637
  4.3669   4.3738   4.3749   4.3805   4.3829   4.3860   4.3940   4.3974
  4.4022   4.4061   4.4080   4.4097   4.4175   4.4217   4.4279   4.4302
  4.4358   4.4420   4.4486   4.4513   4.4617   4.4629   4.4673   4.4776
  4.4861   4.4934   4.5122   4.5284   4.5382   4.5498   4.5658   4.5816
  4.6033   4.6432   4.7332   4.7873   4.8212   4.9469
 --------------------------------------------------------------

          Ground-State Mulliken Net Atomic Charges

     Atom                 Charge (a.u.)
  ----------------------------------------
      1 C                    -0.174064
      2 C                    -0.454305
      3 C                    -0.485446
      4 C                    -0.731124
      5 C                    -0.088281
      6 C                    -0.987946
      7 H                     0.221462
      8 H                     0.257126
      9 H                     0.231095
     10 H                     0.206614
     11 H                     0.252958
     12 H                     0.231953
     13 H                     0.251164
     14 H                     0.195823
     15 H                     0.232937
     16 H                     0.196080
     17 H                     0.239863
     18 N                     0.301197
     19 H                     0.489088
     20 C                    -0.491515
     21 H                     0.132870
     22 O                    -0.129805
     23 C                    -1.032061
     24 H                     0.295251
     25 H                     0.314333
     26 H                     0.242350
     27 S                     1.075269
     28 C                    -0.932093
     29 H                     0.260279
     30 H                     0.270021
     31 H                     0.240361
     32 O                    -0.691343
     33 C                    -0.742394
     34 H                     0.241671
     35 H                     0.245009
     36 H                     0.271776
     37 S                     0.972325
     38 C                    -0.976332
     39 H                     0.227516
     40 H                     0.264973
     41 H                     0.239292
     42 O                    -0.692725
     43 C                    -0.942682
     44 H                     0.248123
     45 H                     0.323655
     46 H                     0.289316
     47 S                     0.982774
     48 C                    -1.222130
     49 H                     0.259905
     50 H                     0.269011
     51 H                     0.268193
     52 O                    -0.584895
     53 C                    -0.972444
     54 H                     0.287784
     55 H                     0.251304
     56 H                     0.255987
     57 S                     1.099296
     58 C                    -0.918278
     59 H                     0.279309
     60 H                     0.269139
     61 H                     0.243489
     62 O                    -0.697264
     63 C                    -0.968211
     64 H                     0.319983
     65 H                     0.280319
     66 H                     0.292626
     67 S                     0.593801
     68 C                    -0.876747
     69 H                     0.277261
     70 H                     0.241220
     71 H                     0.303647
     72 O                    -0.614560
     73 C                    -0.903624
     74 H                     0.272226
     75 H                     0.258886
     76 H                     0.245211
     77 S                     0.959179
     78 C                    -0.813898
     79 H                     0.251502
     80 H                     0.226786
     81 H                     0.250183
     82 O                    -0.729129
     83 C                    -0.924115
     84 H                     0.252446
     85 H                     0.243267
     86 H                     0.259818
     87 S                     1.161633
     88 C                    -0.911953
     89 H                     0.239408
     90 H                     0.236393
     91 H                     0.288711
     92 O                    -0.741078
     93 C                    -0.972907
     94 H                     0.254647
     95 H                     0.272373
     96 H                     0.256724
     97 S                     0.978613
     98 C                    -0.684898
     99 H                     0.297177
    100 H                     0.258796
    101 H                     0.281923
    102 O                    -0.740530
    103 C                    -0.872321
    104 H                     0.248975
    105 H                     0.294104
    106 H                     0.240045
    107 S                     1.203918
    108 C                    -1.229247
    109 H                     0.294993
    110 H                     0.260001
    111 H                     0.256193
    112 O                    -0.665666
    113 C                    -1.141726
    114 H                     0.285071
    115 H                     0.282395
    116 H                     0.285442
    117 S                     0.759711
    118 C                    -0.761765
    119 H                     0.253139
    120 H                     0.238867
    121 H                     0.272738
    122 O                    -0.684109
    123 C                    -0.827491
    124 H                     0.282409
    125 H                     0.245725
    126 H                     0.231406
    127 S                     0.823582
    128 C                    -0.839710
    129 H                     0.255717
    130 H                     0.238519
    131 H                     0.241580
    132 O                    -0.699723
    133 C                    -0.937457
    134 H                     0.208883
    135 H                     0.280905
    136 H                     0.261291
    137 S                     0.989681
    138 C                    -0.864809
    139 H                     0.277024
    140 H                     0.240987
    141 H                     0.262073
    142 O                    -0.728991
    143 C                    -0.956697
    144 H                     0.339683
    145 H                     0.214284
    146 H                     0.268328
    147 S                     1.237825
    148 C                    -0.879065
    149 H                     0.242909
    150 H                     0.229956
    151 H                     0.269142
    152 O                    -0.799890
    153 C                    -1.124233
    154 H                     0.265105
    155 H                     0.256449
    156 H                     0.251544
    157 S                     1.256990
    158 C                    -1.071032
    159 H                     0.279074
    160 H                     0.246173
    161 H                     0.305010
    162 O                    -0.669563
    163 C                    -0.916182
    164 H                     0.256413
    165 H                     0.263227
    166 H                     0.292308
    167 S                     0.876540
    168 C                    -0.884417
    169 H                     0.288316
    170 H                     0.259609
    171 H                     0.251593
    172 O                    -0.667672
    173 C                    -0.913949
    174 H                     0.235680
    175 H                     0.311526
    176 H                     0.235246
    177 S                     1.112155
    178 C                    -1.323957
    179 H                     0.253629
    180 H                     0.284931
    181 H                     0.314845
    182 O                    -0.628173
    183 C                    -0.944545
    184 H                     0.314148
    185 H                     0.277940
    186 H                     0.243489
    187 S                     0.500707
    188 C                    -0.697908
    189 H                     0.280360
    190 H                     0.259301
    191 H                     0.257532
    192 O                    -0.700169
    193 C                    -0.846673
    194 H                     0.294863
    195 H                     0.251682
    196 H                     0.257752
    197 S                     0.885842
    198 C                    -0.804387
    199 H                     0.248491
    200 H                     0.231354
    201 H                     0.263063
    202 O                    -0.699356
    203 C                    -0.694001
    204 H                     0.266791
    205 H                     0.265683
    206 H                     0.279449
    207 S                     0.472051
    208 C                    -0.873795
    209 H                     0.250066
    210 H                     0.296703
    211 H                     0.298691
    212 O                    -0.670587
    213 C                    -0.573950
    214 H                     0.281244
    215 H                     0.244054
    216 H                     0.291718
    217 S                     0.301994
    218 C                    -0.720572
    219 H                     0.249630
    220 H                     0.294514
    221 H                     0.270540
    222 O                    -0.605152
    223 C                    -0.835607
    224 H                     0.257386
    225 H                     0.240443
    226 H                     0.249796
    227 S                     0.741801
    228 C                    -0.780233
    229 H                     0.241058
    230 H                     0.278724
    231 H                     0.273043
    232 O                    -0.700947
    233 C                    -0.795734
    234 H                     0.271329
    235 H                     0.287632
    236 H                     0.244489
    237 S                     0.814097
    238 C                    -0.866685
    239 H                     0.241792
    240 H                     0.290976
    241 H                     0.259478
    242 O                    -0.672188
    243 C                    -0.953394
    244 H                     0.259321
    245 H                     0.248960
    246 H                     0.300944
    247 S                     1.090377
    248 C                    -1.019674
    249 H                     0.242263
    250 H                     0.262298
    251 H                     0.259781
    252 O                    -0.661577
    253 C                    -0.902786
    254 H                     0.253348
    255 H                     0.260852
    256 H                     0.287986
    257 S                     1.067899
    258 C                    -1.006017
    259 H                     0.250847
    260 H                     0.246359
    261 H                     0.268401
    262 O                    -0.731680
    263 C                    -0.727160
    264 H                     0.261763
    265 H                     0.257210
    266 H                     0.243922
    267 S                     0.986847
    268 C                    -0.912933
    269 H                     0.275072
    270 H                     0.225623
    271 H                     0.264803
    272 O                    -0.709157
    273 C                    -0.888650
    274 H                     0.293220
    275 H                     0.239475
    276 H                     0.258390
    277 S                     0.984874
    278 C                    -0.944237
    279 H                     0.252190
    280 H                     0.260595
    281 H                     0.252554
    282 O                    -0.718061
  ----------------------------------------
  Sum of atomic charges =     0.000000

 -----------------------------------------------------------------
                    Cartesian Multipole Moments
 -----------------------------------------------------------------
    Charge (ESU x 10^10)
                -0.0000
    Dipole Moment (Debye)
         X     -10.6244      Y      13.8442      Z       2.3691
       Tot      17.6112
    Quadrupole Moments (Debye-Ang)
        XX   -1334.3085     XY      95.8986     YY    -403.4264
        XZ    -298.8269     YZ     416.8150     ZZ    -771.1568
    Octopole Moments (Debye-Ang^2)
       XXX  -75295.4669    XXY  -18784.1128    XYY  -14226.7622
       YYY  -37437.8242    XXZ  -39777.1876    XYZ    2206.8209
       YYZ  -12501.8912    XZZ  -29406.0918    YZZ   -4002.4605
       ZZZ  -72546.2382
    Hexadecapole Moments (Debye-Ang^3)
      XXXX ************   XXXY ************   XXYY -767154.8504
      XYYY -961797.9601   YYYY ************   XXXZ ************
      XXYZ -581760.3345   XYYZ -449499.8189   YYYZ ************
      XXZZ ************   XYZZ -329980.1122   YYZZ -722922.0065
      XZZZ ************   YZZZ ************   ZZZZ ************
 -----------------------------------------------------------------
 Total job time:  19557.22s(wall), 273339.16s(cpu) 
 Thu Jul 21 09:04:36 2022

        *************************************************************
        *                                                           *
        *  Thank you very much for using Q-Chem.  Have a nice day.  *
        *                                                           *
        *************************************************************


 
User input: 2 of 2 
 
                  Welcome to Q-Chem
     A Quantum Leap Into The Future Of Chemistry


 Q-Chem 6.0 (devel), Q-Chem, Inc., Pleasanton, CA (2022)

 E. Epifanovsky,  A. T. B. Gilbert,  Xintian Feng,  Joonho Lee,  Yuezhi Mao,  
 N. Mardirossian,  P. Pokhilko,  A. White,  M. Wormit,  M. P. Coons,  
 A. L. Dempwolff,  Zhengting Gan,  D. Hait,  P. R. Horn,  L. D. Jacobson,  
 I. Kaliman,  J. Kussmann,  A. W. Lange,  Ka Un Lao,  D. S. Levine,  Jie Liu,  
 S. C. McKenzie,  A. F. Morrison,  K. Nanda,  F. Plasser,  D. R. Rehn,  
 M. L. Vidal,  Zhi-Qiang You,  Ying Zhu,  B. Alam,  B. Albrecht,  
 A. Aldossary,  E. Alguire,  J. H. Andersen,  V. Athavale,  D. Barton,  
 K. Begam,  A. Behn,  N. Bellonzi,  Y. A. Bernard,  E. J. Berquist,  
 H. Burton,  A. Carreras,  K. Carter-Fenk,  Romit Chakraborty,  
 Chandrima Chakravarty,  Junhan Chen,  A. D. Chien,  K. D. Closser,  
 V. Cofer-Shabica,  L. Cunha,  S. Dasgupta,  Jia Deng,  M. de Wergifosse,  
 M. Diedenhofen,  Hainam Do,  S. Ehlert,  Po-Tung Fang,  S. Fatehi,  
 Qingguo Feng,  T. Friedhoff,  B. Ganoe,  J. Gayvert,  Qinghui Ge,  
 G. Gidofalvi,  M. Goldey,  J. Gomes,  C. Gonzalez-Espinoza,  S. Gulania,  
 A. Gunina,  J. A. Gyamfi,  M. W. D. Hanson-Heine,  P. H. P. Harbach,  
 A. W. Hauser,  M. F. Herbst,  M. Hernandez Vera,  M. Hodecker,  
[...]
    3   0.1560314  -1.3997967   0.6565101   1.4933160  -0.5415042   0.7791979
          187         188         189         190         191         192
    1  -2.0595192  -0.3362681  -0.1550201  -1.6810330   0.5263861  -2.2121839
    2  -1.6593209  -1.9324405  -2.3025390  -2.8393572  -0.5337827   0.3575541
    3  -0.8681660  -1.6388417   0.0106336  -3.0500592  -2.1287571  -3.0274477
          193         194         195         196         197         198
    1   0.1295385   0.5180948   1.0000898  -2.1147162   1.4318364  -0.2785695
    2  -1.7327768  -2.5427433  -1.5503398  -1.0699872   0.0600684   1.1747390
    3   3.0544184   1.6671026   4.1720218   3.2868644   2.7542634   3.4671859
          199         200         201         202         203         204
    1  -2.2375837   0.7458407   0.3439271  -0.8302015  -0.4562839  -0.3778236
    2   0.3347476   0.2303246   2.7537068   0.5517488  -0.0694874  -2.1091464
    3   3.1133056   4.5051600   2.7470711   0.5391610   1.2638523   0.8154814
          205         206         207         208         209         210
    1  -0.0233863  -0.8165983   1.8899597   1.8499945   0.3588129   0.9306449
    2   0.4123593   0.8800222   0.8391736  -0.6672363  -1.9839340   0.4826677
    3   2.8957826  -0.1350570   1.5669189   0.3239362   0.7964969  -0.5659371
          211         212         213         214         215         216
    1   3.8913803   2.1849943   0.7963196   2.4358406   0.5283092  -0.3151364
    2  -0.5683759  -1.4550952   1.0795577   0.5390622   1.0686139   1.3171958
    3   0.6520825   3.6835453  -1.9677570  -1.4660360  -4.1030358   0.0400307
          217         218         219         220         221         222
    1   0.5814405  -1.4317144  -1.4968744  -1.7630540  -0.8923360   0.0149798
    2  -0.6006408  -0.3067370  -2.1725394   0.2604147   0.5938860  -1.0535332
    3  -2.6520124  -2.9370941  -3.2329663  -0.9280371  -4.3608755   0.9409332
          223         224         225         226         227         228
    1  -0.3024227  -2.2616401   0.9314124   0.0359553   0.2019898   0.7140104
    2   2.4637120   2.9360427   3.5010407   0.5279600   3.2614341   1.3767330
    3  -2.8282748  -2.4596327  -2.7600915  -3.2845056  -0.4888435  -0.8222242
          229         230         231         232         233         234
    1  -0.1628457   2.0209401   0.1520798  -2.7447553   3.4018183   3.8358537
    2   0.2637504   2.9993440   1.1253089   1.8415847   0.2126962   1.0778216
    3  -2.2446108  -1.3167425   0.8607825   0.0935036  -1.3249271   0.7357469
          235         236         237         238         239         240
    1   2.3854661   3.8852103   1.6921979   2.5469247   3.0182156   0.8938074
    2  -1.1709440   0.9527021   0.6376110   2.5707538   1.8411170   3.0261392
    3  -1.5128192  -2.6090714  -2.2695828  -1.4878287  -3.2980373  -1.6379992
          241         242         243         244         245         246
    1   3.4466369   0.6076997   3.1253394   3.9571489   3.7530102   1.7966118
    2   2.5949748   0.5979877  -1.4304672  -1.4812414   0.1990676  -2.4153976
    3   0.3178074   0.9370681  -0.8749526  -2.3936433   0.4792061  -0.5455705
          247         248         249         250         251         252
    1   1.2357696   0.8708939  -0.0178526   0.1880194   2.4385320   3.0994836
    2  -0.4806788  -1.7249706  -2.3936371  -0.2015162  -2.3688544   1.2822144
    3  -1.2309688  -2.8649767  -1.3914260  -4.1568572  -3.2834470  -3.0905306
          253         254         255         256         257         258
    1  -1.3632980  -1.6405685  -2.9966756   0.1320574  -1.2361248  -2.7889373
    2   0.5467055   1.8601547  -0.8608668   0.4660975   2.2147998   2.0572275
    3   2.0327332   3.3338858   1.6218489   1.2695083   0.6717119   1.2441149
          259         260         261         262         263         264
    1  -2.9407081  -1.6939825  -3.8148631  -2.7351531  -3.0877136  -1.7959570
    2   0.4992255   3.4596542   1.5611853   0.0782835  -0.7634457  -1.2880685
    3   2.6196734   1.5189625  -0.4720450  -1.2518630   0.8363999   2.6617022
          265         266         267         268         269         270
    1  -2.3583869  -4.2749965  -2.3150302  -1.9200814  -0.5638567  -3.5799015
    2   0.6263820  -1.6682479  -1.9175028  -3.4364426  -3.0713660  -2.6606240
    3  -0.0378169   0.5179822  -0.7609358   0.6126601   2.2435681   1.0291598
          271         272         273         274         275         276
    1  -1.2068493   0.5731036  -1.6396317  -2.0362053  -2.4298647  -0.8440693
    2  -4.0876783  -1.2406548  -2.6882612  -2.4043358  -1.1906000  -4.0837636
    3  -1.0490421   0.9513283  -1.4740438  -0.1648733  -3.1113296  -1.8319902
          277         278         279         280         281         282
    1   0.6077115  -0.2689507  -2.0857124  -0.4132411   1.4765149   0.9416065
    2  -1.9589396  -0.2588619  -0.4444025  -0.8974398   0.0797362  -2.0316733
    3  -1.0790508  -2.1945456  -3.2837878  -0.1567252  -2.6815435  -3.9719928
 EField
            1           2           3           4           5           6
    1   0.0032578   0.0008787   0.0005429   0.0008056   0.0054076   0.0048156
    2   0.0036329   0.0034257   0.0004616   0.0046784   0.0079734   0.0041844
    3  -0.0051072  -0.0043122  -0.0014607   0.0011989  -0.0029831  -0.0043765
            7           8           9          10          11          12
    1  -0.0027343  -0.0004452   0.0057007   0.0025752  -0.0010771  -0.0012150
    2  -0.0009082   0.0095364   0.0033475   0.0062335   0.0017335   0.0027485
    3   0.0044872  -0.0001695  -0.0043099  -0.0074553   0.0027021   0.0068029
           13          14          15          16          17          18
    1   0.0115390   0.0074702   0.0042930   0.0057281   0.0030658  -0.0005512
    2   0.0144709   0.0050642   0.0021189   0.0038210   0.0012871   0.0012961
    3  -0.0073916  -0.0017436  -0.0065700  -0.0027451  -0.0021306  -0.0115529
           19          20          21          22          23          24
    1   0.0044168  -0.0039975  -0.0024077  -0.0054411   0.0000034   0.0280020
    2   0.0003342   0.0029053   0.0052077   0.0051302  -0.0136133  -0.0088233
    3  -0.0234044  -0.0091712  -0.0064942  -0.0090235  -0.0026219  -0.0125881
           25          26          27          28          29          30
    1  -0.0193548  -0.0098857  -0.0489270   0.0029146   0.0270995  -0.0048577
    2  -0.0156735   0.0032806   0.0212412   0.0015366  -0.0110847  -0.0122012
    3   0.0268666  -0.0262299   0.0015529  -0.0074472   0.0065168  -0.0339599
           31          32          33          34          35          36
    1   0.0047832   0.0734685  -0.0037275  -0.0218835  -0.0010416   0.0014862
    2   0.0318550  -0.0016330  -0.0002834  -0.0226038  -0.0157296   0.0261259
    3   0.0049272   0.0810405   0.0039773  -0.0090463   0.0344635   0.0212255
           37          38          39          40          41          42
    1   0.0506189  -0.0033520   0.0002641   0.0092704  -0.0305329  -0.0089590
    2   0.0215202   0.0032232   0.0329357  -0.0049802  -0.0055044  -0.0900418
    3   0.0149171  -0.0032043   0.0041108  -0.0290349   0.0040074  -0.0625609
           43          44          45          46          47          48
    1  -0.0080526  -0.0216516   0.0114155  -0.0260738   0.0340447  -0.0052203
    2  -0.0071396   0.0140679  -0.0314656  -0.0091639  -0.0238851   0.0068775
    3  -0.0015648  -0.0195878  -0.0016970   0.0247958   0.0424300  -0.0000906
           49          50          51          52          53          54
    1   0.0271360  -0.0247732  -0.0099263   0.0307103  -0.0001132  -0.0090628
    2   0.0209150  -0.0045991  -0.0036392   0.0193028   0.0026623   0.0285634
    3   0.0051398  -0.0230423   0.0299360  -0.1015419   0.0115141   0.0180107
           55          56          57          58          59          60
    1  -0.0097667   0.0314419   0.0161732  -0.0061513  -0.0019633  -0.0115641
    2  -0.0286821   0.0044961   0.0450611  -0.0082490  -0.0301158   0.0123029
    3   0.0138781   0.0080235  -0.0299040   0.0011311   0.0176644   0.0014301
           61          62          63          64          65          66
    1   0.0011731   0.0525219  -0.0115547   0.0010204  -0.0350794  -0.0136099
    2  -0.0101112  -0.0974868   0.0053937   0.0318522  -0.0137853   0.0047046
    3  -0.0331940  -0.0119713  -0.0016853  -0.0108345  -0.0173331   0.0236550
           67          68          69          70          71          72
    1   0.0204776  -0.0066936  -0.0247283   0.0167864  -0.0055176   0.0509040
    2   0.0010244  -0.0053192  -0.0196488  -0.0207035   0.0078403   0.0323127
    3  -0.0498211   0.0004514  -0.0244758  -0.0054363   0.0208763   0.0908590
           73          74          75          76          77          78
    1  -0.0004370   0.0162917   0.0182669  -0.0267068   0.0472864  -0.0041241
    2  -0.0101644   0.0077679  -0.0229422  -0.0132762   0.0264453  -0.0021673
    3   0.0009274  -0.0229429   0.0179709  -0.0090072   0.0136134   0.0032800
           79          80          81          82          83          84
    1  -0.0272784   0.0123144  -0.0166146  -0.0619160  -0.0070422  -0.0254977
    2  -0.0136521  -0.0105559   0.0255777   0.0260779  -0.0035774   0.0190609
    3  -0.0113188   0.0315464   0.0097569  -0.0871969   0.0003049   0.0168143
           85          86          87          88          89          90
    1  -0.0103855   0.0057772   0.0111910  -0.0028010  -0.0359380  -0.0162380
    2  -0.0147766  -0.0132171   0.0517700  -0.0021930  -0.0175982   0.0233063
    3  -0.0270712   0.0297681   0.0280550  -0.0096135  -0.0047829  -0.0119437
           91          92          93          94          95          96
    1   0.0438947   0.0717767   0.0000168   0.0320999  -0.0239586  -0.0093847
    2   0.0145982  -0.0823957   0.0054097   0.0101508   0.0230177  -0.0105640
    3  -0.0105086  -0.0002783   0.0054655  -0.0069725   0.0040899   0.0287426
           97          98          99         100         101         102
    1   0.0533614  -0.0068692  -0.0309674   0.0197843   0.0051687  -0.0949756
    2  -0.0302876   0.0048318   0.0100825   0.0238116  -0.0055585  -0.0471803
    3  -0.0152914  -0.0094234   0.0066090  -0.0029657  -0.0342917   0.0223388
          103         104         105         106         107         108
    1   0.0048989   0.0241667   0.0163947  -0.0068016  -0.0277503   0.0068198
    2   0.0057889   0.0127181  -0.0017064   0.0384536   0.0248070  -0.0072948
    3  -0.0038365   0.0135145  -0.0268496  -0.0101399   0.0543310   0.0010430
          109         110         111         112         113         114
    1   0.0068157  -0.0190673   0.0278646  -0.0604835  -0.0011238   0.0063526
    2   0.0028893  -0.0258853  -0.0005457  -0.0315047  -0.0033153   0.0123042
    3   0.0310254  -0.0030963  -0.0191679  -0.0845143  -0.0108098  -0.0322405
          115         116         117         118         119         120
    1   0.0206280  -0.0253770   0.0472710  -0.0001721   0.0260160  -0.0037136
    2  -0.0242691  -0.0178362   0.0283646  -0.0062037  -0.0206195   0.0026847
    3  -0.0257600   0.0000478  -0.0021655   0.0003872  -0.0091394   0.0291904
          121         122         123         124         125         126
    1  -0.0214008  -0.0956891   0.0057381   0.0129912   0.0169748  -0.0023763
    2  -0.0234216   0.0378202   0.0040137   0.0088155  -0.0056337   0.0328275
    3   0.0008209   0.0370661  -0.0000359   0.0322285  -0.0280472   0.0102395
          127         128         129         130         131         132
    1  -0.0143690   0.0012863  -0.0199125   0.0189020   0.0196879  -0.0742977
    2  -0.0174478  -0.0035574  -0.0239405   0.0082140  -0.0235306   0.0358342
    3   0.0572506  -0.0049903  -0.0114368  -0.0242704   0.0145017  -0.0724079
          133         134         135         136         137         138
    1  -0.0082491  -0.0155519   0.0165546  -0.0218604  -0.0266090   0.0022079
    2   0.0041845   0.0189811  -0.0021897  -0.0180814  -0.0163945   0.0014642
    3  -0.0065511   0.0149254  -0.0269442  -0.0134204   0.0434407   0.0056834
          139         140         141         142         143         144
    1  -0.0096734   0.0285596   0.0048903   0.0479752  -0.0032372   0.0219576
    2   0.0216226  -0.0147096   0.0083303  -0.0702195  -0.0045590   0.0009225
    3   0.0265695   0.0075522  -0.0142802  -0.0708999   0.0088232   0.0258334
          145         146         147         148         149         150
    1  -0.0305861  -0.0074290   0.0256639  -0.0054784  -0.0255199  -0.0043448
    2   0.0131905  -0.0287519   0.0403774  -0.0002377   0.0227984   0.0088376
    3   0.0187822  -0.0132871   0.0086304  -0.0049950   0.0060699  -0.0273294
          151         152         153         154         155         156
    1  -0.0106431   0.0333341  -0.0034710  -0.0111339   0.0167021  -0.0255710
    2  -0.0289220  -0.1010385   0.0059140   0.0153649   0.0331853  -0.0055109
    3  -0.0039417  -0.0373077  -0.0045939   0.0235028  -0.0033112  -0.0171841
          157         158         159         160         161         162
    1   0.0454470  -0.0008831   0.0133231   0.0195679  -0.0314554  -0.0772293
    2   0.0089503   0.0014802   0.0241505  -0.0231704   0.0009565  -0.0761252
    3   0.0293386  -0.0139364  -0.0213786   0.0071701  -0.0120555   0.0238915
          163         164         165         166         167         168
    1  -0.0073321   0.0084482  -0.0126829  -0.0298772  -0.0352347   0.0044663
    2  -0.0001534  -0.0100656  -0.0288618   0.0211960   0.0349043   0.0070920
    3  -0.0073961  -0.0282199   0.0046439  -0.0027162   0.0419118  -0.0036859
          169         170         171         172         173         174
    1   0.0209859   0.0134939  -0.0146368   0.0583106  -0.0060160  -0.0167231
    2   0.0152491  -0.0162763   0.0330934  -0.0846081  -0.0016247   0.0083743
    3   0.0138169  -0.0238295   0.0061086   0.0387590  -0.0034464  -0.0420997
          175         176         177         178         179         180
    1  -0.0215880  -0.0154535   0.0318512  -0.0004315  -0.0240174  -0.0244258
    2  -0.0255748   0.0228962  -0.0361112  -0.0088010   0.0107419  -0.0269035
    3   0.0038328   0.0049336  -0.0276788   0.0085840   0.0123206  -0.0042963
          181         182         183         184         185         186
    1   0.0236305   0.0267652   0.0090343   0.0170307   0.0247241  -0.0149241
    2  -0.0046556   0.0980650   0.0025256  -0.0167318   0.0281890   0.0275848
    3   0.0226397   0.0380704   0.0025838   0.0193877  -0.0086749   0.0068277
          187         188         189         190         191         192
    1  -0.0394699   0.0117544   0.0095875  -0.0117917   0.0215899  -0.0191822
    2  -0.0354574  -0.0027126  -0.0193513  -0.0220033   0.0282914   0.0774429
    3   0.0212688  -0.0010906   0.0211389  -0.0188824   0.0002587  -0.0740680
          193         194         195         196         197         198
    1  -0.0079077   0.0101305   0.0240925  -0.0360638   0.0596727  -0.0053758
    2  -0.0098754  -0.0210696  -0.0086142   0.0011562   0.0103260   0.0036936
    3   0.0041350  -0.0208944   0.0248550   0.0026981   0.0002354   0.0085224
          199         200         201         202         203         204
    1  -0.0311013   0.0075765   0.0118819  -0.0610939  -0.0091019  -0.0116485
    2  -0.0112743  -0.0062954   0.0294094   0.0228283   0.0039455  -0.0215563
    3  -0.0039129   0.0351174  -0.0159077  -0.0879871   0.0020964   0.0053384
          205         206         207         208         209         210
    1  -0.0168469  -0.0076936   0.0221659   0.0058860  -0.0179778  -0.0060625
    2   0.0107410   0.0292150   0.0559849   0.0004453  -0.0154398   0.0212713
    3   0.0264356  -0.0224346  -0.0015975  -0.0114982   0.0055549  -0.0269591
          211         212         213         214         215         216
    1   0.0414881   0.0238120   0.0019414   0.0321772  -0.0075431  -0.0267320
    2   0.0100205  -0.0671428   0.0073945  -0.0050891   0.0209652   0.0149346
    3   0.0024730   0.0842644   0.0052540   0.0053116  -0.0232026   0.0195753
          217         218         219         220         221         222
    1   0.0297742  -0.0100336  -0.0281169  -0.0199545  -0.0041726  -0.0132813
    2  -0.0262242   0.0010597  -0.0219481   0.0056230   0.0177207  -0.0299274
    3  -0.0386945   0.0027361  -0.0085173   0.0233720  -0.0247750   0.1151734
          223         224         225         226         227         228
    1  -0.0012306  -0.0262971   0.0191979   0.0054120   0.0198977   0.0065970
    2   0.0007236   0.0114773   0.0203739  -0.0270328   0.0461659  -0.0072442
    3  -0.0098568  -0.0002452  -0.0197018  -0.0112622   0.0199227  -0.0000182
          229         230         231         232         233         234
    1  -0.0076689   0.0331556  -0.0006678  -0.0999581   0.0076906   0.0071824
    2  -0.0217322   0.0058237  -0.0157897  -0.0383347  -0.0072588   0.0058267
    3  -0.0158767  -0.0106375   0.0278363   0.0214999   0.0039651   0.0328525
          235         236         237         238         239         240
    1   0.0057412   0.0168925  -0.0241999  -0.0018659   0.0178576  -0.0215967
    2  -0.0342628   0.0025536  -0.0136592   0.0080001   0.0122100   0.0299998
    3  -0.0051591  -0.0291471  -0.0511195  -0.0010452  -0.0280317  -0.0031433
          241         242         243         244         245         246
    1   0.0158761  -0.0494358   0.0046896   0.0211387   0.0240249  -0.0210454
    2   0.0069420  -0.0097465  -0.0070181  -0.0021744   0.0196418  -0.0318057
    3   0.0249066   0.0969222   0.0046722  -0.0224352   0.0174888   0.0063855
          247         248         249         250         251         252
    1  -0.0394091  -0.0031693  -0.0180911  -0.0174729   0.0247361   0.0587437
    2   0.0157748  -0.0058582  -0.0205469   0.0203623  -0.0198039   0.0699649
    3   0.0391196  -0.0068066   0.0163499  -0.0200902  -0.0084214  -0.0613581
          253         254         255         256         257         258
    1   0.0029534   0.0009752  -0.0208605   0.0298359   0.0438908  -0.0100559
    2  -0.0079533   0.0137684  -0.0232721  -0.0076836   0.0391422   0.0016408
    3   0.0089087   0.0307636  -0.0058685  -0.0040177  -0.0112491   0.0038507
          259         260         261         262         263         264
    1  -0.0099239   0.0106499  -0.0201242  -0.0338738  -0.0015371   0.0061402
    2  -0.0216031   0.0317023  -0.0012420  -0.0685225   0.0040365   0.0026889
    3   0.0237241   0.0053281  -0.0250489  -0.0794365   0.0078982   0.0349050
          265         266         267         268         269         270
    1  -0.0049047  -0.0316966  -0.0128360   0.0004782   0.0207423  -0.0307986
    2   0.0286237  -0.0055018  -0.0006015  -0.0057646  -0.0053058  -0.0127376
    3  -0.0115485  -0.0039571  -0.0620790   0.0057668   0.0216754   0.0106365
          271         272         273         274         275         276
    1   0.0079539   0.1002826  -0.0116656  -0.0054394  -0.0229686   0.0079907
    2  -0.0221967   0.0175328  -0.0013910   0.0026908   0.0081400  -0.0280018
    3  -0.0193757   0.0369592   0.0012647   0.0347703  -0.0258769  -0.0079234
          277         278         279         280         281         282
    1   0.0377482  -0.0039178  -0.0202436  -0.0059488   0.0198698   0.0282086
    2  -0.0121113   0.0044414   0.0072911   0.0161148   0.0164642  -0.0217131
    3   0.0432639   0.0042735  -0.0250381   0.0345857  -0.0127795  -0.1043937
  --- DONE ESP SUMMARY ---
 Total job time:  32.26s(wall), 79.87s(cpu) 
 Thu Jul 21 09:05:09 2022

        *************************************************************
        *                                                           *
        *  Thank you very much for using Q-Chem.  Have a nice day.  *
        *                                                           *
        *************************************************************


