                  Welcome to Q-Chem
     A Quantum Leap Into The Future Of Chemistry


 Q-Chem 5.2 (devel), Q-Chem, Inc., Pleasanton, CA (2019)

 Yihan Shao,  Zhengting Gan,  E. Epifanovsky,  A. T. B. Gilbert,  M. Wormit,  
 J. Kussmann,  A. W. Lange,  A. Behn,  Jia Deng,  Xintian Feng,  D. Ghosh,  
 M. Goldey,  P. R. Horn,  L. D. Jacobson,  I. Kaliman,  T. Kus,  A. Landau,  
 Jie Liu,  E. I. Proynov,  R. M. Richard,  R. P. Steele,  E. J. Sundstrom,  
 H. L. Woodcock III,  P. M. Zimmerman,  D. Zuev,  B. Alam,  B. Albrecht,  
 E. Alguire,  S. A. Baeppler,  D. Barton,  Z. Benda,  Y. A. Bernard,  
 E. J. Berquist,  K. B. Bravaya,  H. Burton,  K. Carter-Fenk,  D. Casanova,  
 Chun-Min Chang,  Yunqing Chen,  A. Chien,  K. D. Closser,  M. P. Coons,  
 S. Coriani,  S. Dasgupta,  A. L. Dempwolff,  M. Diedenhofen,  Hainam Do,  
 R. G. Edgar,  Po-Tung Fang,  S. Faraji,  S. Fatehi,  Qingguo Feng,  
 J. Fosso-Tande,  J. Gayvert,  Qinghui Ge,  A. Ghysels,  G. Gidofalvi,  
 J. Gomes,  J. Gonthier,  A. Gunina,  D. Hait,  M. W. D. Hanson-Heine,  
 P. H. P. Harbach,  A. W. Hauser,  M. F. Herbst,  J. E. Herr,  
 E. G. Hohenstein,  Z. C. Holden,  Kerwin Hui,  B. C. Huynh,  T.-C. Jagau,  
 Hyunjun Ji,  B. Kaduk,  K. Khistyaev,  Jaehoon Kim,  P. Klunzinger,  K. Koh,  
 D. Kosenkov,  L. Koulias,  T. Kowalczyk,  C. M. Krauter,  A. Kunitsa,  
 Ka Un Lao,  A. Laurent,  K. V. Lawler,  Joonho Lee,  D. Lefrancois,  
 S. Lehtola,  D. S. Levine,  Yi-Pei Li,  You-Sheng Lin,  Fenglai Liu,  
 Kuan-Yu Liu,  E. Livshits,  M. Loipersberger,  A. Luenser,  P. Manohar,  
 E. Mansoor,  S. F. Manzer,  Shan-Ping Mao,  Yuezhi Mao,  N. Mardirossian,  
 A. V. Marenich,  T. Markovich,  L. A. Martinez-Martinez,  S. A. Maurer,  
 N. J. Mayhall,  S. C. McKenzie,  J.-M. Mewes,  P. Morgante,  A. F. Morrison,  
 J. W. Mullinax,  K. Nanda,  T. S. Nguyen-Beck,  R. Olivares-Amaya,  
 J. A. Parkhill,  S. K. Paul,  F. Pavosevic,  Zheng Pei,  T. M. Perrine,  
 F. Plasser,  P. Pokhilko,  S. Prager,  A. Prociuk,  E. Ramos,  B. Rana,  
 D. R. Rehn,  F. Rob,  M. Scheurer,  M. Schneider,  N. Sergueev,  
 S. M. Sharada,  S. Sharma,  D. W. Small,  T. Stauch,  C. J. Stein,  
 T. Stein,  Yu-Chuan Su,  S. P. Veccham,  Zhen Tao,  A. J. W. Thom,  
 A. Tkatchenko,  T. Tsuchimochi,  N. M. Tubman,  L. Vogt,  M. L. Vidal,  
 O. Vydrov,  M. A. Watson,  J. Wenzel,  M. de Wergifosse,  T. A. Wesolowski,  
 A. White,  J. Witte,  A. Yamada,  Jun Yang,  K. Yao,  S. Yeganeh,  
 S. R. Yost,  Zhi-Qiang You,  A. Zech,  Igor Ying Zhang,  Xing Zhang,  
 Yan Zhao,  Ying Zhu,  B. R. Brooks,  G. K. L. Chan,  C. J. Cramer,  
 M. S. Gordon,  W. J. Hehre,  A. Klamt,  M. W. Schmidt,  C. D. Sherrill,  
 D. G. Truhlar,  A. Aspuru-Guzik,  R. Baer,  A. T. Bell,  N. A. Besley,  
 Jeng-Da Chai,  A. E. DePrince, III,  R. A. DiStasio Jr.,  A. Dreuw,  
 B. D. Dunietz,  T. R. Furlani,  Chao-Ping Hsu,  Yousung Jung,  Jing Kong,  
 D. S. Lambrecht,  WanZhen Liang,  C. Ochsenfeld,  V. A. Rassolov,  
 L. V. Slipchenko,  J. E. Subotnik,  T. Van Voorhis,  J. M. Herbert,  
 A. I. Krylov,  P. M. W. Gill,  M. Head-Gordon

 Contributors to earlier versions of Q-Chem not listed above: 
 R. D. Adamson,  B. Austin,  J. Baker,  G. J. O. Beran,  K. Brandhorst,  
 S. T. Brown,  E. F. C. Byrd,  A. K. Chakraborty,  C.-L. Cheng,  
 Siu Hung Chien,  D. M. Chipman,  D. L. Crittenden,  H. Dachsel,  
 R. J. Doerksen,  A. D. Dutoi,  L. Fusti-Molnar,  W. A. Goddard III,  
 A. Golubeva-Zadorozhnaya,  S. R. Gwaltney,  G. Hawkins,  A. Heyden,  
 S. Hirata,  G. Kedziora,  F. J. Keil,  C. Kelley,  Jihan Kim,  R. A. King,  
 R. Z. Khaliullin,  P. P. Korambath,  W. Kurlancheek,  A. M. Lee,  M. S. Lee,  
 S. V. Levchenko,  Ching Yeh Lin,  D. Liotard,  R. C. Lochan,  I. Lotan,  
 P. E. Maslen,  N. Nair,  D. P. O'Neill,  D. Neuhauser,  E. Neuscamman,  
 C. M. Oana,  R. Olson,  B. Peters,  R. Peverati,  P. A. Pieniazek,  
 Y. M. Rhee,  J. Ritchie,  M. A. Rohrdanz,  E. Rosta,  N. J. Russ,  
 H. F. Schaefer III,  N. E. Schultz,  N. Shenvi,  A. C. Simmonett,  A. Sodt,  
 D. Stuck,  K. S. Thanthiriwatte,  V. Vanovschi,  Tao Wang,  A. Warshel,  
 C. F. Williams,  Q. Wu,  X. Xu,  W. Zhang

 Please cite Q-Chem as follows:
 Y. Shao et al., Mol. Phys. 113, 184-215 (2015)
 DOI: 10.1080/00268976.2014.952696

 Q-Chem 5.2.2 for Intel X86 EM64T Linux

 Parts of Q-Chem use Armadillo 9.800.1 (Horizon Scraper).
 http://arma.sourceforge.net/

 Q-Chem begins on Fri Dec  3 02:37:25 2021  

Host: node001
0

     Scratch files written to /home/ymao90/scratch/r7.00_frame_0092_spade_B3LYP_dp20211203023711//

Checking the input file for inconsistencies... 	...done.

--------------------------------------------------------------
User input:
--------------------------------------------------------------
$molecule
0 1
--
0 1
C    24.28900   28.45400   25.85900  
C    25.31800   29.33500   26.58600  
C    26.64800   28.58800   26.77900  
C    27.28100   27.97800   25.51700  
C    26.21300   27.17000   24.76300  
C    24.89200   27.92700   24.54600  
H    27.41400   29.17400   27.30200  
H    25.56200   30.24000   26.01500  
H    24.15100   27.54800   26.46100  
H    23.28500   28.84500   25.65900  
H    27.72300   28.79600   24.93500  
H    28.06200   27.28600   25.85500  
H    26.75500   26.89900   23.84900  
H    25.95300   26.23400   25.27200  
H    25.13900   28.76300   23.88000  
H    24.19700   27.23200   24.05900  
H    26.51200   27.74100   27.46200  
N    24.71500   29.72300   27.86000  
H    24.18700   29.00300   28.33900  
C    24.92300   30.89500   28.55600  
H    24.27200   30.95300   29.44700  
O    25.70600   31.77800   28.25200  
--
0 1
C    25.08500   25.48200   20.47800  
H    25.28900   26.52000   20.20300  
H    25.58500   25.20300   21.40900  
H    25.42700   24.84100   19.66100  
S    23.35000   25.32500   20.95800  
C    22.84300   26.17200   19.44400  
H    23.13000   25.75400   18.47500  
H    21.76000   26.30700   19.49300  
H    23.34400   27.12700   19.62200  
O    23.22800   26.38400   22.00900  
C    30.70600   29.83200   23.45700  
H    30.34900   30.33100   22.55300  
H    29.93100   29.90300   24.22400  
H    31.69800   30.16000   23.78000  
S    30.68300   28.04800   23.17500  
C    31.70100   27.62700   24.60700  
H    30.86800   27.62100   25.31500  
H    32.12700   26.64400   24.39400  
H    32.53000   28.30900   24.81000  
O    31.59400   27.93600   21.99200  
C    24.59000   30.31900   16.54400  
H    23.77300   30.41900   15.82400  
H    24.40200   30.72300   17.54200  
H    25.46400   30.87100   16.18700  
S    24.83200   28.55600   16.85500  
C    23.06200   28.24400   16.66800  
H    22.47500   29.02600   17.15600  
H    22.80400   28.46100   15.62800  
H    22.75200   27.25000   16.99900  
O    24.93600   28.45700   18.34500  
C    28.30900   32.82900   25.31700  
H    28.21300   33.59000   26.09600  
H    27.35900   32.35300   25.06100  
H    28.94700   31.99100   25.60600  
S    29.09800   33.62400   23.89800  
C    30.67800   33.93600   24.71700  
H    30.44600   34.34100   25.70600  
H    31.19700   32.98700   24.87700  
H    31.31300   34.64400   24.17900  
O    28.49200   34.99200   23.90700  
C    25.37300   29.97100   21.47600  
H    25.06200   29.79300   20.44300  
H    25.88700   29.08300   21.85100  
H    24.54100   30.22900   22.13500  
S    26.48200   31.39600   21.54800  
C    27.85200   30.94800   20.45800  
H    28.33300   30.08200   20.92000  
H    27.50300   30.83400   19.42900  
H    28.52500   31.80700   20.38800  
O    27.15500   31.28600   22.88100  
C    28.22800   35.83200   34.18500  
H    27.37700   35.66500   34.85000  
H    28.83800   34.92900   34.10000  
H    28.84400   36.64200   34.58400  
S    27.64700   36.24500   32.52400  
C    26.23500   37.19500   33.13200  
H    25.82000   37.73500   32.27800  
H    25.52500   36.63000   33.74100  
H    26.74900   37.94700   33.73600  
O    27.05500   35.01900   31.90200  
C    31.76400   32.02600   27.89800  
H    32.21500   32.51100   28.76800  
H    32.42200   32.10300   27.02900  
H    30.87400   32.55900   27.55600  
S    31.30900   30.29800   28.16500  
C    33.04600   29.82400   28.32000  
H    33.41900   30.22500   29.26600  
H    33.11000   28.73600   28.40400  
H    33.61500   30.16900   27.45200  
O    30.96600   29.96700   26.74600  
C    25.01200   22.65300   32.47100  
H    24.53000   21.74800   32.09300  
H    26.06400   22.65500   32.76800  
H    24.40800   22.94700   33.33300  
S    24.62800   23.95700   31.28000  
C    23.06700   23.38800   30.56900  
H    22.26900   23.54200   31.30000  
H    22.87100   23.95000   29.65200  
H    23.21100   22.32300   30.37400  
O    25.57400   23.65000   30.16100  
C    23.13400   24.18000   24.36800  
H    22.31900   24.76000   24.80800  
H    24.06200   24.73400   24.20200  
H    22.67000   23.88200   23.42500  
S    23.50500   22.90000   25.58900  
C    24.32400   23.78200   26.93700  
H    23.49700   24.31200   27.41600  
H    24.78200   23.04800   27.60500  
H    24.96400   24.59000   26.57500  
O    24.62400   22.14700   24.94000  
C    28.62400   27.41800   19.66300  
H    29.21700   28.18100   20.17300  
H    27.81800   27.04400   20.29900  
H    29.29400   26.59500   19.40100  
S    27.82700   28.05800   18.17300  
C    28.09200   26.65300   17.06800  
H    29.15500   26.56500   16.83100  
H    27.70000   25.74100   17.52600  
H    27.53000   26.96500   16.18400  
O    28.83700   28.95800   17.53200  
C    24.04500   33.82100   25.82000  
H    24.99500   33.41400   26.17600  
H    23.90100   34.90000   25.92400  
H    23.25600   33.33500   26.39900  
S    23.95000   33.16400   24.14000  
C    24.47200   34.57400   23.13700  
H    25.52200   34.74800   23.38600  
H    24.36100   34.48100   22.05300  
H    23.86300   35.42400   23.45500  
O    22.49700   33.09100   23.79000  
C    18.14400   28.68500   31.21800  
H    17.40700   28.18600   30.58400  
H    17.68100   29.28800   32.00300  
H    18.77100   29.39900   30.67700  
S    19.04300   27.38300   32.09000  
C    19.41800   26.30400   30.68900  
H    19.60700   25.28700   31.04100  
H    18.72000   26.47000   29.86400  
H    20.38900   26.61300   30.29200  
O    17.93000   26.65300   32.77400  
C    28.42100   33.60300   29.33500  
H    28.77000   33.01600   30.18900  
H    27.33000   33.66900   29.36700  
H    28.64700   33.11300   28.38500  
S    29.25900   35.19500   29.50400  
C    28.44800   35.94600   28.07400  
H    29.06700   36.81400   27.83500  
H    28.45300   35.25100   27.22900  
H    27.45900   36.07000   28.52300  
O    30.55800   34.80100   28.87300  
C    21.00500   27.31200   25.08700  
H    21.67000   27.42200   25.94800  
H    21.55100   26.83300   24.27000  
H    20.60200   28.28400   24.79200  
S    19.70100   26.11400   25.44500  
C    18.95900   27.20000   26.68400  
H    18.58700   28.11800   26.22200  
H    18.25700   26.57500   27.24100  
H    19.83200   27.48600   27.27600  
O    20.29600   25.05500   26.32000  
C    19.48600   32.23300   32.67700  
H    19.25500   33.14900   33.22600  
H    19.96200   32.44500   31.71600  
H    18.54100   31.70700   32.52300  
S    20.43600   31.24600   33.85500  
C    21.93300   32.25300   33.94900  
H    22.88200   31.75100   34.15400  
H    22.00300   32.81400   33.01300  
H    21.71500   32.95500   34.75700  
O    20.92200   30.14600   32.96400  
C    20.01100   24.77700   22.03100  
H    19.01800   25.02900   22.41400  
H    20.82300   25.12800   22.67300  
H    19.99400   25.33600   21.09200  
S    20.14100   23.00300   21.71300  
C    19.68200   22.49200   23.38400  
H    18.65700   22.85300   23.50100  
H    19.78000   21.40500   23.32600  
H    20.35000   22.91400   24.13900  
O    21.62100   22.83400   21.56600  
C    22.77900   26.49500   31.98300  
H    21.92700   27.16800   32.11300  
H    22.41300   25.84400   31.18500  
H    22.95000   25.84400   32.84400  
S    24.29700   27.38100   31.56300  
C    23.73300   29.06700   31.88500  
H    24.56900   29.75700   31.73900  
H    22.89200   29.20200   31.20100  
H    23.39200   29.16700   32.91800  
O    24.14000   27.29300   30.07700  
C    28.83400   22.55400   17.21300  
H    29.74500   22.09500   16.82000  
H    28.08000   21.76300   17.24100  
H    28.45900   23.46100   16.73200  
S    29.25400   23.09900   18.88500  
C    29.18300   21.40500   19.51000  
H    30.03400   20.87600   19.07200  
H    29.28000   21.42600   20.59900  
H    28.22200   20.98400   19.20300  
O    28.01200   23.77700   19.37500  
C    32.51700   24.05300   28.66400  
H    31.80600   23.68800   29.41000  
H    32.19400   23.94200   27.62600  
H    33.49200   23.57900   28.79900  
S    32.81600   25.78400   29.09000  
C    31.44400   26.31900   28.04300  
H    30.59900   25.77300   28.47100  
H    31.36200   27.38000   28.29400  
H    31.51900   26.25000   26.95500  
O    34.05200   26.07200   28.29600  
C    21.38200   29.91400   22.22000  
H    22.34000   29.42300   22.41000  
H    21.53700   30.98100   22.40100  
H    20.59000   29.49900   22.84900  
S    20.76100   29.47100   20.58200  
C    22.08100   30.36900   19.73800  
H    22.32000   31.26700   20.31500  
H    22.93300   29.68500   19.71500  
H    21.80800   30.68700   18.72800  
O    19.55200   30.34100   20.43000  
C    26.66500   37.16700   25.46800  
H    27.04400   37.42800   26.45900  
H    26.80000   36.08500   25.39100  
H    27.27700   37.63200   24.69200  
S    24.92500   37.65600   25.45200  
C    25.20800   39.44100   25.44000  
H    25.44900   39.72700   24.41300  
H    24.26400   39.89500   25.74900  
H    25.98100   39.77400   26.13700  
O    24.44900   37.32000   26.83100  
C    21.59700   31.25700   26.94600  
H    22.63400   31.21100   27.28600  
H    21.43700   30.87300   25.93500  
H    21.32000   32.29500   27.14700  
S    20.86100   30.10700   28.12900  
C    21.04500   31.20500   29.55300  
H    22.10400   31.47500   29.55700  
H    20.33700   31.99700   29.29900  
H    20.71500   30.63100   30.42300  
O    21.88500   29.01700   28.20100  
C    18.39900   32.72800   25.42900  
H    18.65900   33.75600   25.16200  
H    17.30900   32.64600   25.44100  
H    18.85500   32.54700   26.40600  
S    19.22200   31.61100   24.27100  
C    17.91700   31.61900   23.02100  
H    18.13100   30.85700   22.26700  
H    16.96800   31.52700   23.55700  
H    17.90400   32.61500   22.57200  
O    19.04300   30.25500   24.88000  
C    28.58700   30.74700   34.76600  
H    28.57700   29.83800   35.37400  
H    29.11100   30.64300   33.81200  
H    28.88100   31.54300   35.45400  
S    26.86700   30.94800   34.25300  
C    26.97200   32.75200   34.22300  
H    27.35300   33.24900   35.11900  
H    27.66400   33.08000   33.44400  
H    26.00500   33.15600   33.91300  
O    25.98500   30.73700   35.44400  
C    28.17600   22.84500   25.67200  
H    27.12900   22.73700   25.38000  
H    28.80300   22.02500   25.31400  
H    28.29100   22.75700   26.75600  
S    28.60900   24.51800   25.14400  
C    28.72700   23.88400   23.45600  
H    29.02200   24.70300   22.79400  
H    29.56200   23.17800   23.44000  
H    27.81800   23.34100   23.18500  
O    30.07200   24.57400   25.45500  
C    27.62500   27.41900   30.31900  
H    27.25800   26.51900   30.81800  
H    27.11900   27.48700   29.35300  
H    28.69700   27.22900   30.22000  
S    27.38400   28.99800   31.16400  
C    28.37300   29.98300   30.01700  
H    29.27500   29.41400   29.77700  
H    27.72100   30.15900   29.15800  
H    28.69300   30.92700   30.46500  
O    28.41600   28.89400   32.24300  
C    23.68000   34.71200   31.36500  
H    23.89900   33.64700   31.47300  
H    24.34500   35.37500   31.92500  
H    22.64200   34.94800   31.61400  
S    23.65100   35.13700   29.60800  
C    23.12400   36.86100   29.73000  
H    22.40200   36.96000   30.54500  
H    23.96700   37.53500   29.90500  
H    22.67900   37.14900   28.77400  
O    22.49600   34.32600   29.10900  
$end

$rem
JOBTYPE  SP
METHOD  B3LYP
BASIS  6-31+G(D)
SYMMETRY  FALSE
SYM_IGNORE  TRUE
MEM_TOTAL  16000
MEM_STATIC  8000
MAX_SUB_FILE_NUM  16000
BASIS_LIN_DEP_THRESH  6
THRESH  14
SCF_CONVERGENCE  8
GEN_SCFMAN  TRUE
SCF_GUESS  SAD
FD_MAT_VEC_PROD  FALSE
XC_GRID  000075000302
NL_GRID  1
MAX_SCF_CYCLES  200
ENV_METHOD  B3LYP
GEN_SCFMAN_EMBED  TRUE
SPADE_PARTITION  TRUE
$end

$development
embedding_early_stop  1
$end

--------------------------------------------------------------
 ----------------------------------------------------------------
             Standard Nuclear Orientation (Angstroms)
    I     Atom           X                Y                Z
 ----------------------------------------------------------------
    1      C      24.2890000000    28.4540000000    25.8590000000
    2      C      25.3180000000    29.3350000000    26.5860000000
    3      C      26.6480000000    28.5880000000    26.7790000000
    4      C      27.2810000000    27.9780000000    25.5170000000
    5      C      26.2130000000    27.1700000000    24.7630000000
    6      C      24.8920000000    27.9270000000    24.5460000000
    7      H      27.4140000000    29.1740000000    27.3020000000
    8      H      25.5620000000    30.2400000000    26.0150000000
    9      H      24.1510000000    27.5480000000    26.4610000000
   10      H      23.2850000000    28.8450000000    25.6590000000
   11      H      27.7230000000    28.7960000000    24.9350000000
   12      H      28.0620000000    27.2860000000    25.8550000000
   13      H      26.7550000000    26.8990000000    23.8490000000
   14      H      25.9530000000    26.2340000000    25.2720000000
   15      H      25.1390000000    28.7630000000    23.8800000000
   16      H      24.1970000000    27.2320000000    24.0590000000
   17      H      26.5120000000    27.7410000000    27.4620000000
   18      N      24.7150000000    29.7230000000    27.8600000000
   19      H      24.1870000000    29.0030000000    28.3390000000
   20      C      24.9230000000    30.8950000000    28.5560000000
   21      H      24.2720000000    30.9530000000    29.4470000000
   22      O      25.7060000000    31.7780000000    28.2520000000
   23      C      25.0850000000    25.4820000000    20.4780000000
   24      H      25.2890000000    26.5200000000    20.2030000000
   25      H      25.5850000000    25.2030000000    21.4090000000
   26      H      25.4270000000    24.8410000000    19.6610000000
   27      S      23.3500000000    25.3250000000    20.9580000000
   28      C      22.8430000000    26.1720000000    19.4440000000
   29      H      23.1300000000    25.7540000000    18.4750000000
   30      H      21.7600000000    26.3070000000    19.4930000000
   31      H      23.3440000000    27.1270000000    19.6220000000
   32      O      23.2280000000    26.3840000000    22.0090000000
   33      C      30.7060000000    29.8320000000    23.4570000000
   34      H      30.3490000000    30.3310000000    22.5530000000
   35      H      29.9310000000    29.9030000000    24.2240000000
   36      H      31.6980000000    30.1600000000    23.7800000000
   37      S      30.6830000000    28.0480000000    23.1750000000
   38      C      31.7010000000    27.6270000000    24.6070000000
   39      H      30.8680000000    27.6210000000    25.3150000000
   40      H      32.1270000000    26.6440000000    24.3940000000
   41      H      32.5300000000    28.3090000000    24.8100000000
   42      O      31.5940000000    27.9360000000    21.9920000000
   43      C      24.5900000000    30.3190000000    16.5440000000
   44      H      23.7730000000    30.4190000000    15.8240000000
   45      H      24.4020000000    30.7230000000    17.5420000000
   46      H      25.4640000000    30.8710000000    16.1870000000
   47      S      24.8320000000    28.5560000000    16.8550000000
   48      C      23.0620000000    28.2440000000    16.6680000000
   49      H      22.4750000000    29.0260000000    17.1560000000
   50      H      22.8040000000    28.4610000000    15.6280000000
   51      H      22.7520000000    27.2500000000    16.9990000000
   52      O      24.9360000000    28.4570000000    18.3450000000
   53      C      28.3090000000    32.8290000000    25.3170000000
   54      H      28.2130000000    33.5900000000    26.0960000000
   55      H      27.3590000000    32.3530000000    25.0610000000
   56      H      28.9470000000    31.9910000000    25.6060000000
   57      S      29.0980000000    33.6240000000    23.8980000000
   58      C      30.6780000000    33.9360000000    24.7170000000
   59      H      30.4460000000    34.3410000000    25.7060000000
   60      H      31.1970000000    32.9870000000    24.8770000000
   61      H      31.3130000000    34.6440000000    24.1790000000
   62      O      28.4920000000    34.9920000000    23.9070000000
   63      C      25.3730000000    29.9710000000    21.4760000000
   64      H      25.0620000000    29.7930000000    20.4430000000
   65      H      25.8870000000    29.0830000000    21.8510000000
   66      H      24.5410000000    30.2290000000    22.1350000000
   67      S      26.4820000000    31.3960000000    21.5480000000
   68      C      27.8520000000    30.9480000000    20.4580000000
   69      H      28.3330000000    30.0820000000    20.9200000000
   70      H      27.5030000000    30.8340000000    19.4290000000
   71      H      28.5250000000    31.8070000000    20.3880000000
   72      O      27.1550000000    31.2860000000    22.8810000000
   73      C      28.2280000000    35.8320000000    34.1850000000
   74      H      27.3770000000    35.6650000000    34.8500000000
   75      H      28.8380000000    34.9290000000    34.1000000000
   76      H      28.8440000000    36.6420000000    34.5840000000
   77      S      27.6470000000    36.2450000000    32.5240000000
   78      C      26.2350000000    37.1950000000    33.1320000000
   79      H      25.8200000000    37.7350000000    32.2780000000
   80      H      25.5250000000    36.6300000000    33.7410000000
   81      H      26.7490000000    37.9470000000    33.7360000000
   82      O      27.0550000000    35.0190000000    31.9020000000
   83      C      31.7640000000    32.0260000000    27.8980000000
   84      H      32.2150000000    32.5110000000    28.7680000000
   85      H      32.4220000000    32.1030000000    27.0290000000
   86      H      30.8740000000    32.5590000000    27.5560000000
   87      S      31.3090000000    30.2980000000    28.1650000000
   88      C      33.0460000000    29.8240000000    28.3200000000
   89      H      33.4190000000    30.2250000000    29.2660000000
   90      H      33.1100000000    28.7360000000    28.4040000000
   91      H      33.6150000000    30.1690000000    27.4520000000
   92      O      30.9660000000    29.9670000000    26.7460000000
   93      C      25.0120000000    22.6530000000    32.4710000000
   94      H      24.5300000000    21.7480000000    32.0930000000
   95      H      26.0640000000    22.6550000000    32.7680000000
   96      H      24.4080000000    22.9470000000    33.3330000000
   97      S      24.6280000000    23.9570000000    31.2800000000
   98      C      23.0670000000    23.3880000000    30.5690000000
   99      H      22.2690000000    23.5420000000    31.3000000000
  100      H      22.8710000000    23.9500000000    29.6520000000
  101      H      23.2110000000    22.3230000000    30.3740000000
  102      O      25.5740000000    23.6500000000    30.1610000000
  103      C      23.1340000000    24.1800000000    24.3680000000
  104      H      22.3190000000    24.7600000000    24.8080000000
  105      H      24.0620000000    24.7340000000    24.2020000000
  106      H      22.6700000000    23.8820000000    23.4250000000
  107      S      23.5050000000    22.9000000000    25.5890000000
  108      C      24.3240000000    23.7820000000    26.9370000000
  109      H      23.4970000000    24.3120000000    27.4160000000
  110      H      24.7820000000    23.0480000000    27.6050000000
  111      H      24.9640000000    24.5900000000    26.5750000000
  112      O      24.6240000000    22.1470000000    24.9400000000
  113      C      28.6240000000    27.4180000000    19.6630000000
  114      H      29.2170000000    28.1810000000    20.1730000000
  115      H      27.8180000000    27.0440000000    20.2990000000
  116      H      29.2940000000    26.5950000000    19.4010000000
  117      S      27.8270000000    28.0580000000    18.1730000000
  118      C      28.0920000000    26.6530000000    17.0680000000
  119      H      29.1550000000    26.5650000000    16.8310000000
  120      H      27.7000000000    25.7410000000    17.5260000000
  121      H      27.5300000000    26.9650000000    16.1840000000
  122      O      28.8370000000    28.9580000000    17.5320000000
  123      C      24.0450000000    33.8210000000    25.8200000000
  124      H      24.9950000000    33.4140000000    26.1760000000
  125      H      23.9010000000    34.9000000000    25.9240000000
  126      H      23.2560000000    33.3350000000    26.3990000000
  127      S      23.9500000000    33.1640000000    24.1400000000
  128      C      24.4720000000    34.5740000000    23.1370000000
  129      H      25.5220000000    34.7480000000    23.3860000000
  130      H      24.3610000000    34.4810000000    22.0530000000
  131      H      23.8630000000    35.4240000000    23.4550000000
  132      O      22.4970000000    33.0910000000    23.7900000000
  133      C      18.1440000000    28.6850000000    31.2180000000
  134      H      17.4070000000    28.1860000000    30.5840000000
  135      H      17.6810000000    29.2880000000    32.0030000000
  136      H      18.7710000000    29.3990000000    30.6770000000
  137      S      19.0430000000    27.3830000000    32.0900000000
  138      C      19.4180000000    26.3040000000    30.6890000000
  139      H      19.6070000000    25.2870000000    31.0410000000
  140      H      18.7200000000    26.4700000000    29.8640000000
  141      H      20.3890000000    26.6130000000    30.2920000000
  142      O      17.9300000000    26.6530000000    32.7740000000
  143      C      28.4210000000    33.6030000000    29.3350000000
  144      H      28.7700000000    33.0160000000    30.1890000000
  145      H      27.3300000000    33.6690000000    29.3670000000
  146      H      28.6470000000    33.1130000000    28.3850000000
  147      S      29.2590000000    35.1950000000    29.5040000000
  148      C      28.4480000000    35.9460000000    28.0740000000
  149      H      29.0670000000    36.8140000000    27.8350000000
  150      H      28.4530000000    35.2510000000    27.2290000000
  151      H      27.4590000000    36.0700000000    28.5230000000
  152      O      30.5580000000    34.8010000000    28.8730000000
  153      C      21.0050000000    27.3120000000    25.0870000000
  154      H      21.6700000000    27.4220000000    25.9480000000
  155      H      21.5510000000    26.8330000000    24.2700000000
  156      H      20.6020000000    28.2840000000    24.7920000000
  157      S      19.7010000000    26.1140000000    25.4450000000
  158      C      18.9590000000    27.2000000000    26.6840000000
  159      H      18.5870000000    28.1180000000    26.2220000000
  160      H      18.2570000000    26.5750000000    27.2410000000
  161      H      19.8320000000    27.4860000000    27.2760000000
  162      O      20.2960000000    25.0550000000    26.3200000000
  163      C      19.4860000000    32.2330000000    32.6770000000
  164      H      19.2550000000    33.1490000000    33.2260000000
  165      H      19.9620000000    32.4450000000    31.7160000000
  166      H      18.5410000000    31.7070000000    32.5230000000
  167      S      20.4360000000    31.2460000000    33.8550000000
  168      C      21.9330000000    32.2530000000    33.9490000000
  169      H      22.8820000000    31.7510000000    34.1540000000
  170      H      22.0030000000    32.8140000000    33.0130000000
  171      H      21.7150000000    32.9550000000    34.7570000000
  172      O      20.9220000000    30.1460000000    32.9640000000
  173      C      20.0110000000    24.7770000000    22.0310000000
  174      H      19.0180000000    25.0290000000    22.4140000000
  175      H      20.8230000000    25.1280000000    22.6730000000
  176      H      19.9940000000    25.3360000000    21.0920000000
  177      S      20.1410000000    23.0030000000    21.7130000000
  178      C      19.6820000000    22.4920000000    23.3840000000
  179      H      18.6570000000    22.8530000000    23.5010000000
  180      H      19.7800000000    21.4050000000    23.3260000000
  181      H      20.3500000000    22.9140000000    24.1390000000
  182      O      21.6210000000    22.8340000000    21.5660000000
  183      C      22.7790000000    26.4950000000    31.9830000000
  184      H      21.9270000000    27.1680000000    32.1130000000
  185      H      22.4130000000    25.8440000000    31.1850000000
  186      H      22.9500000000    25.8440000000    32.8440000000
  187      S      24.2970000000    27.3810000000    31.5630000000
  188      C      23.7330000000    29.0670000000    31.8850000000
  189      H      24.5690000000    29.7570000000    31.7390000000
  190      H      22.8920000000    29.2020000000    31.2010000000
  191      H      23.3920000000    29.1670000000    32.9180000000
  192      O      24.1400000000    27.2930000000    30.0770000000
  193      C      28.8340000000    22.5540000000    17.2130000000
  194      H      29.7450000000    22.0950000000    16.8200000000
  195      H      28.0800000000    21.7630000000    17.2410000000
  196      H      28.4590000000    23.4610000000    16.7320000000
  197      S      29.2540000000    23.0990000000    18.8850000000
  198      C      29.1830000000    21.4050000000    19.5100000000
  199      H      30.0340000000    20.8760000000    19.0720000000
  200      H      29.2800000000    21.4260000000    20.5990000000
  201      H      28.2220000000    20.9840000000    19.2030000000
  202      O      28.0120000000    23.7770000000    19.3750000000
  203      C      32.5170000000    24.0530000000    28.6640000000
  204      H      31.8060000000    23.6880000000    29.4100000000
  205      H      32.1940000000    23.9420000000    27.6260000000
  206      H      33.4920000000    23.5790000000    28.7990000000
  207      S      32.8160000000    25.7840000000    29.0900000000
  208      C      31.4440000000    26.3190000000    28.0430000000
  209      H      30.5990000000    25.7730000000    28.4710000000
  210      H      31.3620000000    27.3800000000    28.2940000000
  211      H      31.5190000000    26.2500000000    26.9550000000
  212      O      34.0520000000    26.0720000000    28.2960000000
  213      C      21.3820000000    29.9140000000    22.2200000000
  214      H      22.3400000000    29.4230000000    22.4100000000
  215      H      21.5370000000    30.9810000000    22.4010000000
  216      H      20.5900000000    29.4990000000    22.8490000000
  217      S      20.7610000000    29.4710000000    20.5820000000
  218      C      22.0810000000    30.3690000000    19.7380000000
  219      H      22.3200000000    31.2670000000    20.3150000000
  220      H      22.9330000000    29.6850000000    19.7150000000
  221      H      21.8080000000    30.6870000000    18.7280000000
  222      O      19.5520000000    30.3410000000    20.4300000000
  223      C      26.6650000000    37.1670000000    25.4680000000
  224      H      27.0440000000    37.4280000000    26.4590000000
  225      H      26.8000000000    36.0850000000    25.3910000000
  226      H      27.2770000000    37.6320000000    24.6920000000
  227      S      24.9250000000    37.6560000000    25.4520000000
  228      C      25.2080000000    39.4410000000    25.4400000000
  229      H      25.4490000000    39.7270000000    24.4130000000
  230      H      24.2640000000    39.8950000000    25.7490000000
  231      H      25.9810000000    39.7740000000    26.1370000000
  232      O      24.4490000000    37.3200000000    26.8310000000
  233      C      21.5970000000    31.2570000000    26.9460000000
  234      H      22.6340000000    31.2110000000    27.2860000000
  235      H      21.4370000000    30.8730000000    25.9350000000
  236      H      21.3200000000    32.2950000000    27.1470000000
  237      S      20.8610000000    30.1070000000    28.1290000000
  238      C      21.0450000000    31.2050000000    29.5530000000
  239      H      22.1040000000    31.4750000000    29.5570000000
  240      H      20.3370000000    31.9970000000    29.2990000000
  241      H      20.7150000000    30.6310000000    30.4230000000
  242      O      21.8850000000    29.0170000000    28.2010000000
  243      C      18.3990000000    32.7280000000    25.4290000000
  244      H      18.6590000000    33.7560000000    25.1620000000
  245      H      17.3090000000    32.6460000000    25.4410000000
  246      H      18.8550000000    32.5470000000    26.4060000000
  247      S      19.2220000000    31.6110000000    24.2710000000
  248      C      17.9170000000    31.6190000000    23.0210000000
  249      H      18.1310000000    30.8570000000    22.2670000000
  250      H      16.9680000000    31.5270000000    23.5570000000
  251      H      17.9040000000    32.6150000000    22.5720000000
  252      O      19.0430000000    30.2550000000    24.8800000000
  253      C      28.5870000000    30.7470000000    34.7660000000
  254      H      28.5770000000    29.8380000000    35.3740000000
  255      H      29.1110000000    30.6430000000    33.8120000000
  256      H      28.8810000000    31.5430000000    35.4540000000
  257      S      26.8670000000    30.9480000000    34.2530000000
  258      C      26.9720000000    32.7520000000    34.2230000000
  259      H      27.3530000000    33.2490000000    35.1190000000
  260      H      27.6640000000    33.0800000000    33.4440000000
  261      H      26.0050000000    33.1560000000    33.9130000000
  262      O      25.9850000000    30.7370000000    35.4440000000
  263      C      28.1760000000    22.8450000000    25.6720000000
  264      H      27.1290000000    22.7370000000    25.3800000000
  265      H      28.8030000000    22.0250000000    25.3140000000
  266      H      28.2910000000    22.7570000000    26.7560000000
  267      S      28.6090000000    24.5180000000    25.1440000000
  268      C      28.7270000000    23.8840000000    23.4560000000
  269      H      29.0220000000    24.7030000000    22.7940000000
  270      H      29.5620000000    23.1780000000    23.4400000000
  271      H      27.8180000000    23.3410000000    23.1850000000
  272      O      30.0720000000    24.5740000000    25.4550000000
  273      C      27.6250000000    27.4190000000    30.3190000000
  274      H      27.2580000000    26.5190000000    30.8180000000
  275      H      27.1190000000    27.4870000000    29.3530000000
  276      H      28.6970000000    27.2290000000    30.2200000000
  277      S      27.3840000000    28.9980000000    31.1640000000
  278      C      28.3730000000    29.9830000000    30.0170000000
  279      H      29.2750000000    29.4140000000    29.7770000000
  280      H      27.7210000000    30.1590000000    29.1580000000
  281      H      28.6930000000    30.9270000000    30.4650000000
  282      O      28.4160000000    28.8940000000    32.2430000000
  283      C      23.6800000000    34.7120000000    31.3650000000
  284      H      23.8990000000    33.6470000000    31.4730000000
  285      H      24.3450000000    35.3750000000    31.9250000000
  286      H      22.6420000000    34.9480000000    31.6140000000
  287      S      23.6510000000    35.1370000000    29.6080000000
  288      C      23.1240000000    36.8610000000    29.7300000000
  289      H      22.4020000000    36.9600000000    30.5450000000
  290      H      23.9670000000    37.5350000000    29.9050000000
  291      H      22.6790000000    37.1490000000    28.7740000000
  292      O      22.4960000000    34.3260000000    29.1090000000
 ----------------------------------------------------------------
 Nuclear Repulsion Energy =       47737.23766119 hartrees
 There are      602 alpha and      602 beta electrons
 Requested basis set is 6-31+G(d)
 There are 962 shells and 2681 basis functions

 Total QAlloc Memory Limit  16000 MB
 Mega-Array Size      7821 MB
 MEM_STATIC part      8000 MB
 A cutoff of  1.0D-14 yielded 173180 shell pairs
 There are   1512014 function pairs
 Smallest overlap matrix eigenvalue = 5.14E-07
 Linear dependence detected in AO basis
 Tighter screening thresholds may be required for diffuse basis sets
 Use S2THRESH > 14 and THRESH = 14 in case of SCF convergence issues
 Number of orthogonalized atomic orbitals = 2679
 Maximum deviation from orthogonality = 1.337E-10

 Scale SEOQF with 1.000000e-03/1.000000e-03/1.000000e-03

 Standard Electronic Orientation quadrupole field applied
 Nucleus-field energy     =     0.0000001177 hartrees
 Guess from superposition of atomic densities
 Warning:  Energy on first SCF cycle will be non-variational
 SAD guess density has 1204.000002 electrons

 -----------------------------------------------------------------------
  General SCF calculation program by
  Eric Jon Sundstrom, Paul Horn, Yuezhi Mao, Dmitri Zuev, Alec White,
  David Stuck, Shaama M.S., Shane Yost, Joonho Lee, David Small,
  Daniel Levine, Susi Lehtola, Hugh Burton, Evgeny Epifanovsky,
  Bang C. Huynh
 -----------------------------------------------------------------------
=================================================
        Doing projection-based embedding         
      F. Manby et al. JCTC, 8, 2564 (2012)       
=================================================

****************************************************
   Low-level SCF calculation for the whole system   
****************************************************
----------------------------------------------
 Summary of the low-level theory: 
 Exchange:     0.2000 Hartree-Fock + 0.0800 Slater + 0.7200 B88
 Correlation:  0.1900 VWN1RPA + 0.8100 LYP
 Using Euler-Maclaurin-Lebedev (75,302) quadrature formula
----------------------------------------------
 using 16 threads for integral computing
 -------------------------------------------------------
 OpenMP Integral computing Module                
 Release: version 2.0, May 2017, Q-Chem Inc. Pleasanton 
 -------------------------------------------------------
 A restricted SCF calculation will be
 performed using DIIS
 SCF converges when DIIS error is below 1.0e-08
 ---------------------------------------
  Cycle       Energy         DIIS error
 ---------------------------------------
    1  -15359.9538281817      1.35e-02  
    2  -15335.8011937779      2.52e-03  
    3  -15323.5046757533      4.79e-03  
    4  -15339.9548001006      9.47e-04  
    5  -15340.6831295647      1.96e-04  
    6  -15340.7080353808      9.64e-05  
    7  -15340.7137515824      4.26e-05  
    8  -15340.7150622116      7.86e-06  
    9  -15340.7151055452      3.74e-06  
   10  -15340.7151154534      1.36e-06  
   11  -15340.7151167349      3.81e-07  
   12  -15340.7151168363      1.25e-07  
   13  -15340.7151168470      4.85e-08  
   14  -15340.7151168483      2.04e-08  
   15  -15340.7151168488      5.83e-09  Convergence criterion met
 ---------------------------------------
 SCF time:   CPU 176834.13s  wall 11145.00s 
 SCF   energy in the final basis set =   -15340.7151168488
 Total energy in the final basis set =   -15340.7151168488

****************************************************
             Start embedding calculation            
****************************************************
----------------------------------------------
 Summary of the high-level theory: 
 Exchange:     0.2000 Hartree-Fock + 0.0800 Slater + 0.7200 B88
 Correlation:  0.1900 VWN1RPA + 0.8100 LYP
 Using Euler-Maclaurin-Lebedev (75,302) quadrature formula
----------------------------------------------
Doing R-in-R Embedding Calculation
Number of fragments: 2
Embedded fragment(s): 1 
NOcc for each fragment
           35
          567
NBasis for each fragment
          197
         2484
Variational space of the embedded problem: 
NOcc (active)  = 35
NOcc (fixed)   = 567
NVir (total)   = 2077
Read converged orbitals from disk
=========================================================
       Doing SPADE partition for the orbital space       
     D. CLaudino and N. Mayhall JCTC 15, 1053 (2019)     
=========================================================
SPADE singular values:
 1.0000 1.0000 1.0000 1.0000 1.0000 1.0000 1.0000 1.0000 1.0000 0.9999
 0.9999 0.9998 0.9996 0.9995 0.9995 0.9994 0.9993 0.9990 0.9989 0.9978
 0.9976 0.9969 0.9964 0.9961 0.9956 0.9952 0.9945 0.9939 0.9933 0.9918
 0.9911 0.9900 0.9874 0.9866 0.9812 0.2191 0.1915 0.1852 0.1659 0.1475
 0.1338 0.1282 0.1081 0.1045 0.1023 0.0966 0.0813 0.0752 0.0728 0.0643
 0.0605 0.0543 0.0484 0.0463 0.0441 0.0405 0.0378 0.0345 0.0331 0.0325
 0.0288 0.0267 0.0260 0.0254 0.0234 0.0218 0.0212 0.0208 0.0198 0.0191
 0.0166 0.0152 0.0149 0.0138 0.0136 0.0130 0.0114 0.0108 0.0102 0.0100
 0.0094 0.0091 0.0088 0.0086 0.0076 0.0073 0.0071 0.0064 0.0061 0.0060
 0.0056 0.0054 0.0052 0.0050 0.0044 0.0044 0.0040 0.0038 0.0036 0.0034
 0.0033 0.0031 0.0030 0.0029 0.0028 0.0026 0.0024 0.0024 0.0023 0.0023
 0.0021 0.0020 0.0019 0.0018 0.0017 0.0017 0.0017 0.0016 0.0015 0.0014
 0.0013 0.0013 0.0013 0.0012 0.0012 0.0011 0.0011 0.0010 0.0010 0.0010
 0.0009 0.0009 0.0009 0.0008 0.0008 0.0007 0.0007 0.0007 0.0007 0.0007
 0.0006 0.0006 0.0006 0.0006 0.0005 0.0005 0.0005 0.0005 0.0005 0.0004
 0.0004 0.0004 0.0004 0.0004 0.0004 0.0003 0.0003 0.0003 0.0003 0.0003
 0.0003 0.0003 0.0002 0.0002 0.0002 0.0002 0.0002 0.0002 0.0002 0.0002
 0.0002 0.0002 0.0002 0.0002 0.0002 0.0002 0.0002 0.0001 0.0001 0.0001
 0.0001 0.0001 0.0001 0.0001 0.0001 0.0001 0.0001 0.0001 0.0001 0.0001
 0.0001 0.0001 0.0001 0.0001 0.0001 0.0001 0.0000
Early stop requested!
567 environment occs will be part of frozen-core in future post-HF calculations
 
 --------------------------------------------------------------
 
                    Orbital Energies (a.u.)
 --------------------------------------------------------------
 
 Alpha MOs
 -- Occupied --
 -0.5202  -0.4369  -0.4734  -0.4770  -0.4506  -0.4673  -0.4540  -0.4506
 -0.4624  -0.4382  -0.4399  -0.4388  -0.4296  -0.4306  -0.4739  -0.4469
 -0.4452  -0.4399  -0.5954  -0.4839  -0.4455  -0.4445  -0.5242  -0.5425
 -0.5035  -0.5554  -0.5498  -0.5506  -0.5397  -0.5430  -0.5022  -0.6457
 -0.6045  -0.6604  -0.5337  -0.5518  -0.5255  -0.6079  -0.5425  -0.5897
 -0.5700  -0.5556  -0.4944  -0.4830  -0.5821  -0.5329  -0.5320  -0.5342
 -0.5024  -0.5262  -0.5074  -0.5555  -0.5576  -0.6181  -0.6172  -0.5519
 -0.6747  -0.7633  -0.6498  -0.7954  -0.6207  -0.5763  -0.7092  -0.6643
 -0.9191  -0.6886  -0.9800  -0.8964  -1.0605  -0.8485  -0.8804  -0.8220
 -1.2486  -0.9032  -1.1439  -0.8924  -0.7683  -0.9761  -0.8334  -1.1202
 -0.9626  -0.9173  -1.1331  -1.0550  -0.8536  -0.8351  -0.9744  -1.1234
 -0.8922  -0.8820  -0.8564  -1.2550  -1.0575  -0.9908  -1.1752  -0.9003
 -1.1391  -1.0649  -1.2468  -0.9887  -1.0860  -1.0944  -1.6616  -1.6264
 -1.0223  -1.0719  -1.0160  -1.1237  -1.1151  -1.1183  -1.0597  -1.4051
 -1.1869  -0.9838  -1.2659  -1.3659  -1.0250  -1.5996  -1.2877  -1.1841
 -1.3273  -1.6217  -1.4260  -1.2753  -1.6231  -1.7140  -1.1470  -1.4918
 -1.6417  -1.3484  -1.2915  -1.3987  -1.7698  -1.4182  -1.9111  -1.2683
 -1.9769  -1.8359  -2.0447  -1.5869  -1.6538  -1.5992  -1.4823  -1.7438
 -1.6787  -1.6613  -1.3820  -2.4105  -1.7244  -2.2926  -3.1238  -2.6753
 -1.7446  -1.8855  -1.4291  -1.7041  -2.2405  -2.0465  -1.8209  -1.5332
 -2.1825  -1.8518  -5.9862  -5.9094  -5.9826  -5.8423  -5.9304  -5.9279
 -5.9131  -5.9735  -5.9594  -5.5881  -5.9826  -5.9518  -5.8682  -7.2295
 -5.9414  -5.9848  -5.9746  -5.9242  -5.9745  -5.9638  -5.9281  -5.9759
 -5.8952  -5.9546  -5.9241  -5.9492  -6.0017  -5.9605  -1.5925  -1.7989
-29.7067  -1.4798  -1.7050  -1.4084  -4.3673  -6.2746  -2.8653 -12.0574
 -3.7233 -29.5925  -3.2142  -9.8012  -4.9854  -2.2545  -5.8441  -6.6823
 -7.5753  -3.6278  -6.8239  -5.8819  -9.7799  -1.4568  -3.1275  -1.3407
-10.3409  -4.8131 -75.5132  -1.5525  -1.5924  -1.0363  -1.4770 -80.6024
 -1.2026  -2.8495 -10.8504  -2.9537  -5.1308  -1.9449  -2.2048  -1.9545
 -4.1143  -5.5369  -6.9137  -9.0932  -2.4388  -5.5178 -14.0586  -9.2686
 -3.7397 -15.0095  -8.6877  -9.1683  -1.5121  -9.9573 -12.4797  -0.8365
 -1.1542  -0.9505  -3.8551  -2.8817 -76.4302  -1.7315  -0.8860 -61.8501
-24.6073  -3.3017  -5.8238  -4.5737  -2.0294 -13.2102  -6.5769  -1.4299
 -5.0894  -8.6097  -6.5453  -6.6496  -2.3256  -8.1761  -4.7673  -3.3524
-19.8354 -11.2071  -8.6589  -5.2077  -1.0552  -1.1405  -2.0651 -63.9523
 -1.1446  -0.7997  -4.2221  -5.4569  -3.4615  -5.2954  -5.3169  -4.8616
-20.2983 -19.4744  -7.2697  -6.8841  -8.6138 -25.4437  -1.3888  -6.1845
-11.7135  -6.8533 -20.3325 -13.7787  -1.2958 -21.9893  -4.3357 -14.0663
 -7.4485 -68.9610 -61.0230 -68.7860  -0.7835  -1.5556  -0.9153  -0.9512
 -1.3186  -1.9858  -2.2094  -0.9506  -4.3947  -8.4498  -1.1527  -1.0519
 -4.1885  -1.7648  -4.6953  -4.3931  -3.7741  -2.8038 -10.2705  -3.1154
 -6.1289  -9.6696  -5.6719 -11.9265  -5.5008 -44.0275  -4.7019  -1.2457
 -5.1593  -3.1993  -3.7961  -4.6767  -7.7704  -7.6051  -4.1555  -8.0795
 -4.6143  -4.6667  -5.3460  -9.3046  -6.5824  -5.9986  -5.2632  -5.7999
 -7.3325  -3.6415  -4.7725  -7.2740  -4.1195  -7.3380 -10.6473  -5.3920
 -9.3668  -8.9798  -6.3798  -8.2494 -12.4561  -8.5896  -8.0289  -2.1269
 -6.7928  -4.0832  -5.4604  -7.7934 -16.5836 -12.1690  -5.0951  -8.3421
-10.4348  -6.5429  -4.3349  -4.2137 -13.1375 -11.0579  -5.7556  -9.6266
 -7.3299  -4.4945  -3.9219  -4.0402  -4.0007  -8.3395  -9.1065  -2.8918
-14.5049 -19.1946 -13.3848 -28.7470  -3.1783  -2.2329 -23.2161  -0.7958
 -6.1932  -4.2317  -5.2036 -16.6411  -4.0710  -6.6501  -6.5533 -10.8665
 -6.0849  -7.6986 -10.1751  -7.1965  -6.0947  -4.1256  -5.4114  -7.0441
 -7.9269  -3.8289  -6.0651  -4.7070  -7.2814  -6.7363  -4.6594  -7.4162
-17.6189 -13.2520  -5.6664 -12.7289  -9.9615 -14.1559  -5.3321  -7.2823
-11.3457  -9.9219 -16.0865  -3.2891  -7.7349 -23.4936 -16.3111  -7.3677
 -9.8132  -4.0800 -12.6449  -8.4184  -6.1406  -6.3341  -8.2661  -9.3232
 -6.5583  -6.1704  -9.8751 -11.8587  -4.8434  -8.7788  -4.5281  -9.9928
-11.2617  -4.1200 -11.3723  -9.6334 -10.2342  -6.5396  -8.7550  -4.1401
-12.0069 -15.4038 -25.4085 -27.5221  -5.4981  -4.0393  -4.1467  -3.0007
 -3.7937 -40.8042  -2.1131  -6.0145 -11.6584  -3.8200 -26.8511  -6.3728
 -6.5425  -8.7164  -4.7783  -9.6896 -32.4652 -10.6408 -12.5359  -6.9185
-15.2479  -8.2755  -8.7207 -23.8848  -8.7385 -19.1139  -8.0919 -10.3302
-10.1156 -11.8130  -9.0222 -14.4413  -6.4296 -10.9957  -5.4819 -23.6996
-71.2704  -9.7588 -19.2089 -64.2648 -77.3766  -2.0064 -78.3949  -3.2370
-71.6765  -1.8464  -6.8719  -1.3682  -2.7573  -7.6531  -3.3045 -35.4111
-14.3332 -17.2058 -16.1958  -7.1105  -5.4669 -10.2876 -24.6632  -5.2729
-10.4764 -21.9961 -13.3836 -13.4397  -7.2440  -3.4192 -16.7234 -27.0410
 -8.0746  -2.4203  -2.2429 -10.0357  -5.8520  -7.2883 -57.7325 -13.8711
 -8.7343  -7.3228  -6.2787  -8.8573 -15.3534 -12.0055 -10.0705 -13.1131
-13.8343 -10.6796 -12.4844 -11.4623 -10.8190 -17.2898 -25.8150 -12.6328
-21.6742  -5.6710 -20.0385  -5.2474  -2.5790 -16.5252 -18.9226 -11.1456
-11.5767 -13.5316 -14.2455 -11.4737 -10.0997 -10.5506 -10.1928 -11.1021
 -0.8096  -0.7476  -0.8084  -0.6457  -0.7925  -0.6772  -0.6785  -0.6228
 -0.4191  -0.4992  -0.4362  -0.3940  -0.4501  -0.3989  -0.4605  -0.4878
 -0.4575  -0.3632  -0.4458  -0.4027  -0.4369  -0.4282  -0.4051  -0.4758
 -0.4029  -0.5683
 -- Virtual --
 -0.0345  -0.0284  -0.0261  -0.0231  -0.0193  -0.0170  -0.0127  -0.0117
 -0.0101  -0.0086  -0.0076  -0.0075  -0.0061  -0.0055  -0.0044  -0.0043
 -0.0034   0.0006   0.0009   0.0015   0.0019   0.0030   0.0032   0.0044
  0.0049   0.0063   0.0070   0.0078   0.0084   0.0089   0.0099   0.0102
  0.0111   0.0115   0.0118   0.0126   0.0129   0.0135   0.0140   0.0154
  0.0155   0.0168   0.0174   0.0180   0.0184   0.0185   0.0188   0.0196
  0.0207   0.0211   0.0217   0.0223   0.0235   0.0243   0.0248   0.0253
  0.0258   0.0268   0.0272   0.0276   0.0283   0.0295   0.0297   0.0311
  0.0321   0.0322   0.0328   0.0333   0.0336   0.0343   0.0344   0.0352
  0.0364   0.0373   0.0377   0.0384   0.0387   0.0397   0.0403   0.0405
  0.0411   0.0419   0.0425   0.0429   0.0436   0.0441   0.0444   0.0450
  0.0453   0.0464   0.0471   0.0475   0.0477   0.0481   0.0489   0.0501
  0.0507   0.0508   0.0518   0.0528   0.0531   0.0535   0.0545   0.0549
  0.0567   0.0569   0.0574   0.0584   0.0586   0.0590   0.0594   0.0603
  0.0610   0.0626   0.0627   0.0633   0.0642   0.0645   0.0652   0.0654
  0.0656   0.0664   0.0670   0.0673   0.0685   0.0692   0.0693   0.0701
  0.0705   0.0709   0.0715   0.0717   0.0731   0.0738   0.0739   0.0748
  0.0757   0.0763   0.0764   0.0769   0.0779   0.0782   0.0797   0.0806
  0.0810   0.0822   0.0825   0.0828   0.0835   0.0845   0.0850   0.0857
  0.0868   0.0876   0.0879   0.0889   0.0890   0.0897   0.0901   0.0908
  0.0912   0.0921   0.0924   0.0938   0.0939   0.0949   0.0953   0.0962
  0.0965   0.0968   0.0978   0.0981   0.0992   0.0993   0.1004   0.1009
  0.1019   0.1020   0.1030   0.1035   0.1047   0.1051   0.1054   0.1058
  0.1068   0.1075   0.1081   0.1084   0.1096   0.1100   0.1105   0.1107
  0.1121   0.1125   0.1133   0.1142   0.1152   0.1157   0.1162   0.1167
  0.1173   0.1181   0.1184   0.1190   0.1200   0.1206   0.1211   0.1225
  0.1228   0.1236   0.1245   0.1246   0.1250   0.1259   0.1261   0.1275
  0.1281   0.1284   0.1292   0.1297   0.1302   0.1312   0.1317   0.1320
  0.1327   0.1332   0.1337   0.1339   0.1354   0.1355   0.1361   0.1370
  0.1372   0.1376   0.1384   0.1388   0.1391   0.1399   0.1402   0.1408
  0.1414   0.1424   0.1432   0.1437   0.1442   0.1444   0.1452   0.1458
  0.1468   0.1473   0.1476   0.1482   0.1491   0.1498   0.1501   0.1505
  0.1516   0.1520   0.1525   0.1527   0.1531   0.1537   0.1539   0.1547
  0.1556   0.1559   0.1562   0.1572   0.1574   0.1588   0.1597   0.1603
  0.1608   0.1612   0.1614   0.1621   0.1632   0.1636   0.1641   0.1646
  0.1652   0.1660   0.1665   0.1668   0.1673   0.1682   0.1690   0.1697
  0.1702   0.1709   0.1712   0.1718   0.1725   0.1736   0.1736   0.1741
  0.1749   0.1758   0.1760   0.1767   0.1777   0.1781   0.1784   0.1798
  0.1801   0.1804   0.1811   0.1825   0.1832   0.1836   0.1841   0.1847
  0.1848   0.1853   0.1863   0.1865   0.1874   0.1878   0.1880   0.1893
  0.1906   0.1908   0.1910   0.1919   0.1925   0.1931   0.1935   0.1948
  0.1953   0.1959   0.1965   0.1968   0.1973   0.1984   0.1989   0.1999
  0.2010   0.2011   0.2017   0.2021   0.2026   0.2037   0.2040   0.2042
  0.2049   0.2054   0.2062   0.2070   0.2074   0.2080   0.2089   0.2091
  0.2100   0.2106   0.2110   0.2118   0.2121   0.2133   0.2139   0.2145
  0.2150   0.2154   0.2166   0.2169   0.2171   0.2177   0.2185   0.2195
  0.2199   0.2206   0.2217   0.2222   0.2227   0.2234   0.2238   0.2247
  0.2255   0.2264   0.2266   0.2274   0.2278   0.2282   0.2288   0.2301
  0.2307   0.2317   0.2321   0.2325   0.2333   0.2342   0.2345   0.2348
  0.2351   0.2356   0.2359   0.2363   0.2373   0.2374   0.2382   0.2390
  0.2398   0.2407   0.2411   0.2416   0.2418   0.2430   0.2438   0.2440
  0.2446   0.2453   0.2462   0.2471   0.2472   0.2480   0.2487   0.2496
  0.2498   0.2502   0.2518   0.2528   0.2534   0.2535   0.2543   0.2545
  0.2556   0.2570   0.2577   0.2584   0.2589   0.2593   0.2598   0.2607
  0.2610   0.2613   0.2622   0.2623   0.2631   0.2641   0.2649   0.2651
  0.2667   0.2671   0.2683   0.2687   0.2690   0.2699   0.2704   0.2708
  0.2712   0.2720   0.2733   0.2739   0.2748   0.2755   0.2759   0.2770
  0.2783   0.2787   0.2790   0.2793   0.2807   0.2820   0.2825   0.2831
  0.2839   0.2849   0.2851   0.2856   0.2864   0.2874   0.2879   0.2890
  0.2897   0.2912   0.2914   0.2928   0.2939   0.2942   0.2946   0.2958
  0.2966   0.2973   0.2984   0.2991   0.2994   0.2998   0.3001   0.3017
  0.3023   0.3029   0.3041   0.3045   0.3057   0.3063   0.3071   0.3078
  0.3085   0.3097   0.3100   0.3109   0.3115   0.3124   0.3137   0.3140
  0.3143   0.3149   0.3161   0.3176   0.3181   0.3192   0.3204   0.3214
  0.3222   0.3234   0.3234   0.3255   0.3258   0.3266   0.3269   0.3283
  0.3289   0.3294   0.3301   0.3309   0.3316   0.3321   0.3336   0.3340
  0.3354   0.3364   0.3370   0.3377   0.3380   0.3389   0.3400   0.3405
  0.3418   0.3437   0.3449   0.3451   0.3459   0.3472   0.3475   0.3487
  0.3494   0.3500   0.3510   0.3518   0.3526   0.3530   0.3545   0.3551
  0.3558   0.3569   0.3573   0.3579   0.3583   0.3600   0.3608   0.3622
  0.3624   0.3641   0.3645   0.3656   0.3656   0.3665   0.3675   0.3687
  0.3688   0.3702   0.3712   0.3714   0.3718   0.3724   0.3732   0.3739
  0.3754   0.3764   0.3776   0.3782   0.3788   0.3798   0.3802   0.3809
  0.3826   0.3829   0.3839   0.3843   0.3847   0.3863   0.3868   0.3880
  0.3883   0.3888   0.3895   0.3910   0.3927   0.3929   0.3941   0.3948
  0.3962   0.3965   0.3971   0.3980   0.3989   0.4002   0.4008   0.4014
  0.4023   0.4028   0.4038   0.4048   0.4062   0.4067   0.4076   0.4081
  0.4091   0.4101   0.4105   0.4116   0.4134   0.4138   0.4145   0.4162
  0.4166   0.4170   0.4180   0.4201   0.4207   0.4218   0.4230   0.4233
  0.4246   0.4252   0.4266   0.4277   0.4280   0.4295   0.4304   0.4305
  0.4312   0.4315   0.4322   0.4339   0.4346   0.4366   0.4373   0.4374
  0.4404   0.4410   0.4418   0.4429   0.4436   0.4446   0.4460   0.4469
  0.4475   0.4484   0.4494   0.4515   0.4520   0.4542   0.4550   0.4564
  0.4572   0.4582   0.4586   0.4596   0.4612   0.4626   0.4641   0.4657
  0.4667   0.4678   0.4695   0.4707   0.4716   0.4730   0.4737   0.4756
  0.4768   0.4778   0.4798   0.4811   0.4831   0.4836   0.4846   0.4858
  0.4868   0.4875   0.4878   0.4898   0.4911   0.4916   0.4943   0.4954
  0.4972   0.4994   0.4998   0.5021   0.5027   0.5037   0.5056   0.5065
  0.5090   0.5120   0.5126   0.5133   0.5135   0.5156   0.5166   0.5178
  0.5210   0.5211   0.5231   0.5239   0.5259   0.5271   0.5278   0.5304
  0.5322   0.5339   0.5342   0.5349   0.5363   0.5388   0.5404   0.5426
  0.5433   0.5459   0.5469   0.5484   0.5500   0.5518   0.5534   0.5560
  0.5565   0.5596   0.5605   0.5619   0.5619   0.5632   0.5661   0.5664
  0.5708   0.5718   0.5730   0.5741   0.5753   0.5771   0.5793   0.5808
  0.5820   0.5836   0.5849   0.5861   0.5865   0.5896   0.5903   0.5909
  0.5920   0.5938   0.5949   0.5969   0.5980   0.5983   0.5994   0.6009
  0.6046   0.6053   0.6059   0.6063   0.6082   0.6086   0.6101   0.6120
  0.6121   0.6147   0.6164   0.6175   0.6180   0.6193   0.6212   0.6220
  0.6233   0.6247   0.6261   0.6264   0.6278   0.6282   0.6291   0.6313
  0.6318   0.6321   0.6347   0.6355   0.6365   0.6385   0.6392   0.6413
  0.6422   0.6436   0.6446   0.6465   0.6466   0.6485   0.6493   0.6503
  0.6512   0.6533   0.6537   0.6539   0.6549   0.6562   0.6567   0.6588
  0.6600   0.6614   0.6618   0.6638   0.6643   0.6653   0.6657   0.6668
  0.6676   0.6696   0.6702   0.6715   0.6728   0.6734   0.6751   0.6756
  0.6765   0.6780   0.6787   0.6795   0.6822   0.6830   0.6843   0.6852
  0.6859   0.6884   0.6890   0.6899   0.6912   0.6920   0.6924   0.6939
  0.6950   0.6967   0.6974   0.6986   0.7002   0.7007   0.7018   0.7024
  0.7036   0.7038   0.7057   0.7069   0.7078   0.7086   0.7101   0.7112
  0.7125   0.7139   0.7151   0.7165   0.7171   0.7193   0.7208   0.7225
  0.7235   0.7247   0.7251   0.7267   0.7275   0.7290   0.7299   0.7319
  0.7329   0.7339   0.7345   0.7351   0.7384   0.7392   0.7398   0.7430
  0.7437   0.7447   0.7470   0.7487   0.7490   0.7495   0.7498   0.7525
  0.7537   0.7553   0.7564   0.7581   0.7589   0.7593   0.7611   0.7624
  0.7640   0.7651   0.7658   0.7691   0.7693   0.7698   0.7725   0.7746
  0.7769   0.7779   0.7788   0.7799   0.7809   0.7825   0.7844   0.7852
  0.7874   0.7878   0.7886   0.7915   0.7931   0.7932   0.7957   0.7967
  0.7976   0.7993   0.8007   0.8023   0.8027   0.8044   0.8053   0.8061
  0.8101   0.8107   0.8116   0.8138   0.8140   0.8170   0.8182   0.8191
  0.8222   0.8239   0.8241   0.8267   0.8275   0.8301   0.8316   0.8326
  0.8339   0.8353   0.8377   0.8388   0.8396   0.8415   0.8427   0.8451
  0.8471   0.8485   0.8494   0.8500   0.8521   0.8529   0.8545   0.8557
  0.8567   0.8581   0.8596   0.8600   0.8615   0.8621   0.8634   0.8648
  0.8671   0.8680   0.8691   0.8703   0.8724   0.8734   0.8737   0.8753
  0.8763   0.8775   0.8781   0.8789   0.8807   0.8817   0.8840   0.8848
  0.8857   0.8869   0.8877   0.8904   0.8915   0.8919   0.8929   0.8940
  0.8956   0.8964   0.8967   0.8978   0.8996   0.9003   0.9018   0.9046
  0.9052   0.9058   0.9070   0.9079   0.9089   0.9094   0.9110   0.9118
  0.9127   0.9136   0.9155   0.9163   0.9176   0.9190   0.9202   0.9218
  0.9234   0.9248   0.9260   0.9273   0.9288   0.9297   0.9305   0.9327
  0.9340   0.9348   0.9367   0.9378   0.9387   0.9397   0.9412   0.9430
  0.9442   0.9455   0.9469   0.9476   0.9491   0.9500   0.9510   0.9526
  0.9532   0.9552   0.9567   0.9578   0.9583   0.9589   0.9599   0.9605
  0.9613   0.9624   0.9643   0.9645   0.9656   0.9665   0.9678   0.9689
  0.9698   0.9711   0.9718   0.9726   0.9732   0.9750   0.9761   0.9775
  0.9784   0.9787   0.9806   0.9816   0.9824   0.9834   0.9842   0.9857
  0.9866   0.9867   0.9883   0.9899   0.9911   0.9913   0.9923   0.9944
  0.9956   0.9963   0.9976   0.9985   0.9998   1.0001   1.0015   1.0020
  1.0031   1.0047   1.0063   1.0076   1.0087   1.0091   1.0105   1.0110
  1.0120   1.0137   1.0145   1.0156   1.0166   1.0186   1.0208   1.0212
  1.0221   1.0240   1.0252   1.0255   1.0278   1.0279   1.0291   1.0303
  1.0318   1.0320   1.0333   1.0342   1.0348   1.0359   1.0365   1.0386
  1.0397   1.0401   1.0415   1.0420   1.0431   1.0440   1.0461   1.0481
  1.0494   1.0499   1.0505   1.0519   1.0523   1.0549   1.0563   1.0574
  1.0577   1.0595   1.0608   1.0621   1.0634   1.0639   1.0654   1.0662
  1.0682   1.0692   1.0704   1.0718   1.0736   1.0740   1.0745   1.0763
  1.0790   1.0805   1.0813   1.0830   1.0831   1.0840   1.0860   1.0878
  1.0880   1.0906   1.0925   1.0935   1.0936   1.0948   1.0961   1.0970
  1.0979   1.0995   1.1010   1.1030   1.1034   1.1042   1.1064   1.1069
  1.1084   1.1101   1.1110   1.1121   1.1126   1.1150   1.1175   1.1183
  1.1192   1.1200   1.1211   1.1235   1.1241   1.1249   1.1274   1.1281
  1.1293   1.1306   1.1322   1.1323   1.1335   1.1345   1.1362   1.1375
  1.1389   1.1417   1.1428   1.1438   1.1443   1.1448   1.1477   1.1497
  1.1503   1.1506   1.1522   1.1527   1.1535   1.1560   1.1564   1.1578
  1.1583   1.1598   1.1624   1.1647   1.1651   1.1665   1.1682   1.1691
  1.1702   1.1706   1.1715   1.1743   1.1754   1.1774   1.1776   1.1783
  1.1793   1.1803   1.1860   1.1870   1.1883   1.1888   1.1898   1.1907
  1.1932   1.1952   1.1962   1.1976   1.1986   1.2017   1.2025   1.2039
  1.2047   1.2054   1.2079   1.2092   1.2108   1.2123   1.2154   1.2169
  1.2192   1.2209   1.2210   1.2238   1.2264   1.2274   1.2280   1.2300
  1.2312   1.2343   1.2362   1.2367   1.2397   1.2423   1.2423   1.2440
  1.2466   1.2477   1.2505   1.2535   1.2553   1.2558   1.2574   1.2613
  1.2633   1.2674   1.2690   1.2690   1.2721   1.2762   1.2775   1.2798
  1.2819   1.2835   1.2854   1.2876   1.2898   1.2950   1.2961   1.2986
  1.3011   1.3018   1.3040   1.3083   1.3110   1.3121   1.3143   1.3167
  1.3211   1.3228   1.3236   1.3278   1.3288   1.3311   1.3339   1.3358
  1.3376   1.3396   1.3404   1.3417   1.3460   1.3478   1.3488   1.3493
  1.3506   1.3527   1.3552   1.3570   1.3591   1.3619   1.3625   1.3643
  1.3671   1.3682   1.3696   1.3700   1.3716   1.3769   1.3770   1.3809
  1.3816   1.3826   1.3843   1.3856   1.3864   1.3879   1.3888   1.3898
  1.3912   1.3928   1.3943   1.3951   1.3974   1.3990   1.4005   1.4019
  1.4028   1.4054   1.4063   1.4072   1.4091   1.4103   1.4117   1.4131
  1.4145   1.4170   1.4181   1.4189   1.4208   1.4220   1.4228   1.4239
  1.4252   1.4265   1.4277   1.4297   1.4310   1.4314   1.4334   1.4338
  1.4342   1.4374   1.4395   1.4402   1.4415   1.4435   1.4444   1.4455
  1.4471   1.4483   1.4490   1.4492   1.4517   1.4525   1.4562   1.4569
  1.4578   1.4591   1.4604   1.4630   1.4641   1.4666   1.4673   1.4698
  1.4706   1.4728   1.4747   1.4770   1.4777   1.4783   1.4814   1.4829
  1.4833   1.4872   1.4884   1.4893   1.4923   1.4949   1.4963   1.4986
  1.5002   1.5008   1.5033   1.5052   1.5057   1.5087   1.5101   1.5114
  1.5125   1.5157   1.5180   1.5205   1.5217   1.5242   1.5255   1.5299
  1.5339   1.5352   1.5374   1.5402   1.5443   1.5456   1.5486   1.5505
  1.5538   1.5561   1.5594   1.5656   1.5666   1.5677   1.5714   1.5738
  1.5768   1.5799   1.5810   1.5868   1.5896   1.5935   1.5975   1.6008
  1.6072   1.6124   1.6179   1.6192   1.6224   1.6283   1.6313   1.6341
  1.6398   1.6420   1.6473   1.6496   1.6525   1.6544   1.6554   1.6589
  1.6600   1.6623   1.6636   1.6660   1.6685   1.6692   1.6745   1.6747
  1.6773   1.6804   1.6816   1.6843   1.6869   1.6887   1.6896   1.6899
  1.6912   1.6926   1.6942   1.6949   1.6954   1.6963   1.6976   1.6982
  1.6993   1.7000   1.7012   1.7016   1.7036   1.7040   1.7063   1.7065
  1.7083   1.7108   1.7120   1.7125   1.7132   1.7150   1.7157   1.7173
  1.7185   1.7201   1.7205   1.7225   1.7244   1.7250   1.7267   1.7283
  1.7299   1.7306   1.7310   1.7320   1.7334   1.7342   1.7352   1.7373
  1.7388   1.7398   1.7408   1.7437   1.7440   1.7453   1.7475   1.7486
  1.7522   1.7529   1.7551   1.7554   1.7570   1.7587   1.7602   1.7621
  1.7634   1.7656   1.7674   1.7676   1.7682   1.7702   1.7716   1.7723
  1.7733   1.7743   1.7759   1.7762   1.7777   1.7793   1.7799   1.7825
  1.7830   1.7855   1.7871   1.7885   1.7898   1.7929   1.7965   1.7987
  1.8006   1.8024   1.8061   1.8068   1.8088   1.8111   1.8131   1.8147
  1.8177   1.8216   1.8227   1.8238   1.8261   1.8275   1.8305   1.8333
  1.8380   1.8407   1.8417   1.8469   1.8469   1.8489   1.8521   1.8532
  1.8559   1.8615   1.8643   1.8655   1.8671   1.8691   1.8718   1.8721
  1.8737   1.8773   1.8790   1.8809   1.8818   1.8822   1.8837   1.8848
  1.8857   1.8879   1.8910   1.8921   1.8924   1.8950   1.8957   1.8979
  1.8980   1.8993   1.9003   1.9009   1.9021   1.9044   1.9048   1.9068
  1.9076   1.9119   1.9123   1.9137   1.9151   1.9161   1.9168   1.9188
  1.9198   1.9230   1.9239   1.9257   1.9264   1.9267   1.9277   1.9285
  1.9298   1.9302   1.9319   1.9328   1.9343   1.9360   1.9382   1.9395
  1.9400   1.9434   1.9455   1.9459   1.9472   1.9505   1.9524   1.9539
  1.9571   1.9580   1.9593   1.9620   1.9625   1.9634   1.9680   1.9720
  1.9734   1.9813   1.9842   1.9881   1.9929   1.9947   2.0021   2.0029
  2.0122   2.0281   2.0321   2.0356   2.0423   2.0492   2.0556   2.0575
  2.0576   2.0589   2.0605   2.0636   2.0651   2.0715   2.0730   2.0739
  2.0758   2.0766   2.0804   2.0810   2.0818   2.0830   2.0845   2.0863
  2.0868   2.0881   2.0892   2.0894   2.0907   2.0916   2.0922   2.0932
  2.0937   2.0944   2.0959   2.0981   2.1015   2.1027   2.1062   2.1081
  2.1087   2.1100   2.1111   2.1128   2.1144   2.1161   2.1163   2.1182
  2.1195   2.1198   2.1247   2.1255   2.1263   2.1279   2.1290   2.1303
  2.1331   2.1363   2.1391   2.1403   2.1444   2.1455   2.1489   2.1570
  2.1602   2.1611   2.1642   2.1653   2.1695   2.1745   2.1806   2.1833
  2.1894   2.1907   2.1916   2.1973   2.1990   2.2000   2.2015   2.2040
  2.2079   2.2091   2.2114   2.2128   2.2144   2.2159   2.2180   2.2188
  2.2197   2.2216   2.2242   2.2254   2.2279   2.2299   2.2307   2.2324
  2.2337   2.2348   2.2358   2.2392   2.2412   2.2420   2.2427   2.2445
  2.2451   2.2454   2.2473   2.2478   2.2500   2.2513   2.2521   2.2542
  2.2548   2.2554   2.2564   2.2582   2.2591   2.2596   2.2603   2.2604
  2.2619   2.2627   2.2629   2.2637   2.2647   2.2657   2.2671   2.2672
  2.2677   2.2683   2.2704   2.2713   2.2716   2.2725   2.2734   2.2758
  2.2771   2.2777   2.2780   2.2792   2.2801   2.2806   2.2817   2.2826
  2.2830   2.2844   2.2860   2.2863   2.2869   2.2878   2.2883   2.2894
  2.2897   2.2911   2.2917   2.2940   2.2943   2.2955   2.2969   2.2977
  2.2988   2.3002   2.3011   2.3020   2.3032   2.3038   2.3051   2.3069
  2.3082   2.3088   2.3099   2.3105   2.3109   2.3125   2.3134   2.3143
  2.3159   2.3165   2.3172   2.3176   2.3190   2.3201   2.3206   2.3242
  2.3264   2.3266   2.3274   2.3283   2.3293   2.3299   2.3320   2.3336
  2.3343   2.3355   2.3379   2.3394   2.3405   2.3414   2.3436   2.3437
  2.3444   2.3484   2.3499   2.3501   2.3520   2.3553   2.3579   2.3598
  2.3610   2.3611   2.3632   2.3656   2.3661   2.3683   2.3694   2.3715
  2.3740   2.3759   2.3762   2.3781   2.3821   2.3828   2.3849   2.3859
  2.3877   2.3912   2.3931   2.3958   2.3974   2.4019   2.4057   2.4075
  2.4147   2.4165   2.4388   2.4464   2.4668   2.4873   2.4980   2.5375
  2.5573   2.6388   2.6942   2.7536   2.7605   2.7999   2.8199   2.8212
  2.8321   2.8341   2.8346   2.8387   2.8489   2.8541   2.8564   2.8586
  2.8600   2.8611   2.8635   2.8641   2.8665   2.8670   2.8681   2.8697
  2.8743   2.8750   2.8773   2.8780   2.8804   2.8818   2.8844   2.8908
  2.8934   2.8980   2.9027   2.9070   2.9266   2.9535   3.1106   3.2900
  3.9527   3.9604   3.9616   3.9688   3.9695   3.9736   3.9754   3.9773
  3.9779   3.9809   3.9859   3.9878   3.9893   3.9948   3.9986   4.0059
  4.0078   4.0084   4.0110   4.0122   4.0171   4.0204   4.0213   4.0276
  4.0303   4.0336   4.0352   4.1893   4.2129   4.2229   4.2300   4.2413
  4.2456   4.2479   4.2522   4.2571   4.2580   4.2587   4.2670   4.2713
  4.2717   4.2747   4.2748   4.2791   4.2802   4.2817   4.2839   4.2854
  4.2866   4.2886   4.2917   4.2937   4.2953   4.2979   4.3035   4.3048
  4.3050   4.3087   4.3112   4.3148   4.3166   4.3189   4.3195   4.3218
  4.3245   4.3277   4.3290   4.3315   4.3360   4.3381   4.3402   4.3416
  4.3444   4.3494   4.3522   4.3552   4.3583   4.3586   4.3625   4.3660
  4.3688   4.3743   4.3753   4.3794   4.3806   4.3848   4.3858   4.3906
  4.3928   4.3963   4.4004   4.4053   4.4117   4.4156   4.4216   4.4255
  4.4291   4.4345   4.4426   4.4441   4.4482   4.4567   4.4717   4.4977
  4.5070   4.5106   4.5294   4.5527   4.5675   4.6008   4.6212   4.6381
  4.6646   4.7178   4.7558   4.8220   4.9356
 --------------------------------------------------------------
 
          Ground-State Mulliken Net Atomic Charges

     Atom                 Charge (a.u.)
  ----------------------------------------
      1 C                    -0.146030
      2 C                    -0.499392
      3 C                    -0.214863
      4 C                    -0.190051
      5 C                    -0.813003
      6 C                    -0.824422
      7 H                     0.215357
      8 H                     0.229579
      9 H                     0.244871
     10 H                     0.234794
     11 H                     0.223549
     12 H                     0.199580
     13 H                     0.203997
     14 H                     0.197026
     15 H                     0.189103
     16 H                     0.263799
     17 H                     0.213619
     18 N                     0.408651
     19 H                     0.513655
     20 C                    -0.578528
     21 H                     0.145699
     22 O                    -0.172164
     23 C                    -0.697867
     24 H                     0.262203
     25 H                     0.250673
     26 H                     0.272454
     27 S                     0.409837
     28 C                    -0.663505
     29 H                     0.222625
     30 H                     0.240850
     31 H                     0.277693
     32 O                    -0.554365
     33 C                    -0.871087
     34 H                     0.254769
     35 H                     0.256043
     36 H                     0.252891
     37 S                     1.053862
     38 C                    -0.966053
     39 H                     0.251774
     40 H                     0.278987
     41 H                     0.258151
     42 O                    -0.731478
     43 C                    -0.911801
     44 H                     0.233421
     45 H                     0.282582
     46 H                     0.267646
     47 S                     1.165423
     48 C                    -0.882745
     49 H                     0.267144
     50 H                     0.236590
     51 H                     0.248313
     52 O                    -0.756070
     53 C                    -0.984658
     54 H                     0.214730
     55 H                     0.309388
     56 H                     0.285270
     57 S                     0.952611
     58 C                    -0.883006
     59 H                     0.266961
     60 H                     0.247402
     61 H                     0.250353
     62 O                    -0.712727
     63 C                    -0.885171
     64 H                     0.274539
     65 H                     0.277219
     66 H                     0.261465
     67 S                     0.778636
     68 C                    -0.880374
     69 H                     0.244445
     70 H                     0.256037
     71 H                     0.267260
     72 O                    -0.640034
     73 C                    -0.869369
     74 H                     0.256065
     75 H                     0.258877
     76 H                     0.255854
     77 S                     0.895909
     78 C                    -0.830324
     79 H                     0.253397
     80 H                     0.263293
     81 H                     0.238925
     82 O                    -0.677671
     83 C                    -0.774253
     84 H                     0.262511
     85 H                     0.253621
     86 H                     0.278971
     87 S                     0.695392
     88 C                    -0.785624
     89 H                     0.237567
     90 H                     0.264184
     91 H                     0.253759
     92 O                    -0.636571
     93 C                    -0.905417
     94 H                     0.237617
     95 H                     0.267834
     96 H                     0.232542
     97 S                     0.882289
     98 C                    -0.868239
     99 H                     0.234317
    100 H                     0.294076
    101 H                     0.250894
    102 O                    -0.673488
    103 C                    -0.782163
    104 H                     0.245641
    105 H                     0.250553
    106 H                     0.316354
    107 S                     0.405564
    108 C                    -0.723834
    109 H                     0.241218
    110 H                     0.288441
    111 H                     0.241387
    112 O                    -0.681583
    113 C                    -0.969927
    114 H                     0.282847
    115 H                     0.243878
    116 H                     0.266894
    117 S                     1.131271
    118 C                    -1.115841
    119 H                     0.269937
    120 H                     0.250477
    121 H                     0.232595
    122 O                    -0.702993
    123 C                    -0.977164
    124 H                     0.273887
    125 H                     0.270073
    126 H                     0.293032
    127 S                     1.030274
    128 C                    -1.016657
    129 H                     0.275593
    130 H                     0.256085
    131 H                     0.253763
    132 O                    -0.659790
    133 C                    -0.937433
    134 H                     0.252332
    135 H                     0.248501
    136 H                     0.231895
    137 S                     1.089995
    138 C                    -0.938906
    139 H                     0.258726
    140 H                     0.240999
    141 H                     0.268609
    142 O                    -0.730150
    143 C                    -1.012969
    144 H                     0.231321
    145 H                     0.306815
    146 H                     0.274880
    147 S                     0.831176
    148 C                    -0.754316
    149 H                     0.249965
    150 H                     0.259694
    151 H                     0.243603
    152 O                    -0.746632
    153 C                    -1.014099
    154 H                     0.306061
    155 H                     0.280557
    156 H                     0.296174
    157 S                     0.927913
    158 C                    -1.054067
    159 H                     0.298934
    160 H                     0.232799
    161 H                     0.276204
    162 O                    -0.636187
    163 C                    -0.876753
    164 H                     0.230061
    165 H                     0.275021
    166 H                     0.256760
    167 S                     1.007101
    168 C                    -0.835119
    169 H                     0.298301
    170 H                     0.246616
    171 H                     0.231503
    172 O                    -0.765239
    173 C                    -0.910135
    174 H                     0.240270
    175 H                     0.285700
    176 H                     0.243571
    177 S                     0.955994
    178 C                    -0.839528
    179 H                     0.231200
    180 H                     0.249031
    181 H                     0.303116
    182 O                    -0.648520
    183 C                    -1.164783
    184 H                     0.273188
    185 H                     0.287733
    186 H                     0.246414
    187 S                     1.266599
    188 C                    -0.904655
    189 H                     0.250653
    190 H                     0.294226
    191 H                     0.281561
    192 O                    -0.672270
    193 C                    -0.825342
    194 H                     0.236735
    195 H                     0.241427
    196 H                     0.244156
    197 S                     1.006488
    198 C                    -0.826607
    199 H                     0.231159
    200 H                     0.254615
    201 H                     0.244435
    202 O                    -0.727652
    203 C                    -0.900585
    204 H                     0.223820
    205 H                     0.290693
    206 H                     0.247493
    207 S                     1.005158
    208 C                    -0.920752
    209 H                     0.228884
    210 H                     0.205645
    211 H                     0.312422
    212 O                    -0.719182
    213 C                    -1.306415
    214 H                     0.273987
    215 H                     0.325711
    216 H                     0.251634
    217 S                     1.165192
    218 C                    -0.915873
    219 H                     0.263819
    220 H                     0.268186
    221 H                     0.239113
    222 O                    -0.723324
    223 C                    -0.793652
    224 H                     0.249661
    225 H                     0.299855
    226 H                     0.252284
    227 S                     0.889673
    228 C                    -0.875892
    229 H                     0.241311
    230 H                     0.251045
    231 H                     0.248637
    232 O                    -0.687272
    233 C                    -0.961461
    234 H                     0.295818
    235 H                     0.293303
    236 H                     0.276717
    237 S                     0.418343
    238 C                    -0.777886
    239 H                     0.268262
    240 H                     0.243625
    241 H                     0.277304
    242 O                    -0.498845
    243 C                    -0.965096
    244 H                     0.251220
    245 H                     0.236292
    246 H                     0.261720
    247 S                     1.387807
    248 C                    -0.953699
    249 H                     0.309801
    250 H                     0.230128
    251 H                     0.239392
    252 O                    -0.762563
    253 C                    -0.967294
    254 H                     0.264294
    255 H                     0.278373
    256 H                     0.224802
    257 S                     1.028687
    258 C                    -0.854737
    259 H                     0.231055
    260 H                     0.251120
    261 H                     0.241929
    262 O                    -0.703264
    263 C                    -0.933910
    264 H                     0.295889
    265 H                     0.244679
    266 H                     0.248619
    267 S                     0.818913
    268 C                    -0.840656
    269 H                     0.259324
    270 H                     0.261430
    271 H                     0.261455
    272 O                    -0.677424
    273 C                    -1.098339
    274 H                     0.290047
    275 H                     0.277298
    276 H                     0.251637
    277 S                     1.003498
    278 C                    -0.781310
    279 H                     0.252247
    280 H                     0.265132
    281 H                     0.241246
    282 O                    -0.744789
    283 C                    -0.816668
    284 H                     0.261671
    285 H                     0.243831
    286 H                     0.232329
    287 S                     1.099240
    288 C                    -1.009515
    289 H                     0.221744
    290 H                     0.248423
    291 H                     0.300599
    292 O                    -0.723364
  ----------------------------------------
  Sum of atomic charges =     0.000000

 -----------------------------------------------------------------
                    Cartesian Multipole Moments
 -----------------------------------------------------------------
    Charge (ESU x 10^10)
                -0.0000
    Dipole Moment (Debye)
         X      -7.2660      Y      16.2787      Z      -0.3327
       Tot      17.8298
    Quadrupole Moments (Debye-Ang)
        XX   -1415.5898     XY     166.4242     YY     151.9362
        XZ    -149.0348     YZ     544.4789     ZZ    -843.5908
    Octopole Moments (Debye-Ang^2)
       XXX  -94136.4794    XXY  -32326.2935    XYY   -4018.4508
       YYY  -27511.2085    XXZ  -34782.0352    XYZ    8882.5136
       YYZ   11598.8637    XZZ  -23615.1908    YZZ   -6630.3979
       ZZZ  -66760.3501
    Hexadecapole Moments (Debye-Ang^3)
      XXXX ************   XXXY ************   XXYY ************
      XYYY -941564.8714   YYYY ************   XXXZ ************
      XXYZ -694576.9518   XYYZ  134062.6195   YYYZ -373023.9515
      XXZZ ************   XYZZ -255660.0504   YYZZ -220861.2487
      XZZZ ************   YZZZ ************   ZZZZ ************
 -----------------------------------------------------------------
Archival summary:
[...]
    2   0.0035741  -0.0089741   0.0095654   0.0130664   0.0172234  -0.0008884
    3  -0.0042136  -0.0162727   0.0227108  -0.0219788   0.0279266  -0.0082401
          139         140         141         142         143         144
    1  -0.0103690  -0.0232363   0.0305584  -0.0804646  -0.0020923   0.0102127
    2  -0.0302828  -0.0099997   0.0128229  -0.0546599  -0.0049219  -0.0191874
    3   0.0088558  -0.0209654  -0.0197743   0.0522458   0.0017543   0.0239427
          145         146         147         148         149         150
    1  -0.0247391   0.0237157  -0.0060922  -0.0007861   0.0095658   0.0030391
    2   0.0077333  -0.0081156   0.0246890   0.0022882   0.0317031  -0.0131646
    3   0.0142188  -0.0241664   0.0407740  -0.0038803  -0.0095243  -0.0217203
          151         152         153         154         155         156
    1  -0.0383634   0.0977978   0.0119586   0.0194294   0.0284575  -0.0120900
    2   0.0239622  -0.0280437   0.0056564   0.0028113   0.0002748   0.0280823
    3  -0.0088714  -0.0459271  -0.0003232   0.0290770  -0.0251631  -0.0075360
          157         158         159         160         161         162
    1  -0.0313038   0.0017233  -0.0177579  -0.0220041   0.0220526   0.0421720
    2  -0.0048625   0.0068818   0.0269603  -0.0106848   0.0058151  -0.0776033
    3  -0.0430638   0.0053613  -0.0111516   0.0182699   0.0280715   0.0643428
          163         164         165         166         167         168
    1  -0.0032317  -0.0134668   0.0193855  -0.0271089  -0.0239403   0.0060618
    2   0.0045159   0.0349294   0.0014354  -0.0153659  -0.0092002   0.0061324
    3  -0.0044767   0.0069388  -0.0231179  -0.0070387   0.0449540  -0.0001423
          169         170         171         172         173         174
    1   0.0188852   0.0069374   0.0047019   0.0373356  -0.0001463  -0.0260354
    2  -0.0269229   0.0131757   0.0271908  -0.0829995   0.0085541   0.0081498
    3   0.0079299  -0.0264665   0.0260954  -0.0647248   0.0031312   0.0232991
          175         176         177         178         179         180
    1   0.0231837   0.0105107  -0.0371631   0.0019162  -0.0318120  -0.0022802
    2   0.0094995   0.0142356  -0.0169861  -0.0009154   0.0020819  -0.0322872
    3   0.0162052  -0.0290724  -0.0349335   0.0074879   0.0153796   0.0118197
          181         182         183         184         185         186
    1   0.0177373   0.1093284  -0.0097596  -0.0180939   0.0086006  -0.0007553
    2   0.0109601  -0.0128088  -0.0024042   0.0252040  -0.0097827  -0.0123084
    3   0.0244631  -0.0133707  -0.0000914   0.0140622  -0.0340193   0.0303585
          187         188         189         190         191         192
    1   0.0423044  -0.0075903   0.0190331  -0.0202284  -0.0169445  -0.0157825
    2  -0.0133979   0.0057341   0.0162825   0.0090977   0.0048798  -0.0028921
    3   0.0241075  -0.0027073  -0.0127696  -0.0251132   0.0271829  -0.1166240
          193         194         195         196         197         198
    1  -0.0030517   0.0256571  -0.0285396  -0.0076191   0.0508344  -0.0024729
    2  -0.0017540  -0.0057425  -0.0161045   0.0195315   0.0209280  -0.0058337
    3  -0.0043726  -0.0262723  -0.0005833  -0.0253847   0.0023167   0.0042006
          199         200         201         202         203         204
    1   0.0230971   0.0003307  -0.0276020  -0.0896504   0.0008954  -0.0235656
    2  -0.0238313  -0.0026398  -0.0156680   0.0515171  -0.0068660  -0.0227213
    3  -0.0088135   0.0309454  -0.0011538   0.0380584  -0.0027961   0.0156296
          205         206         207         208         209         210
    1  -0.0117940   0.0265582  -0.0098908  -0.0058425  -0.0367015  -0.0167326
    2  -0.0023287  -0.0187711   0.0095845   0.0033785  -0.0109319   0.0296740
    3  -0.0288736   0.0023385   0.0458495  -0.0063471  -0.0009260  -0.0005723
          211         212         213         214         215         216
    1   0.0071378   0.0920417   0.0031374   0.0240482  -0.0035253  -0.0137625
    2  -0.0168251   0.0202287   0.0019074  -0.0239538   0.0332277  -0.0087497
    3  -0.0280610  -0.0579349   0.0105587   0.0111932   0.0027283   0.0321427
          217         218         219         220         221         222
    1   0.0034189   0.0064339   0.0056512   0.0301226  -0.0136601  -0.0891803
    2  -0.0536498   0.0035389   0.0254528  -0.0156552   0.0059015   0.0619338
    3  -0.0072584  -0.0006972   0.0148828  -0.0054327  -0.0268028  -0.0127780
          223         224         225         226         227         228
    1   0.0117024   0.0106527   0.0032072   0.0189644  -0.0261094   0.0006140
    2  -0.0039695   0.0123062  -0.0278826   0.0112499  -0.0159368   0.0077612
    3   0.0012583   0.0275344  -0.0130439  -0.0261576  -0.0499063   0.0008252
          229         230         231         232         233         234
    1   0.0073435  -0.0281746   0.0239940  -0.0372804   0.0063107   0.0310940
    2   0.0149705   0.0164468   0.0066317  -0.0245694   0.0000518  -0.0092940
    3  -0.0298147   0.0067965   0.0207862   0.0993362  -0.0032259  -0.0037147
          235         236         237         238         239         240
    1  -0.0017636  -0.0151629  -0.0565736   0.0040169   0.0277439  -0.0124326
    2  -0.0075524   0.0289844  -0.0111686  -0.0026939   0.0144026   0.0332312
    3  -0.0278297  -0.0024994  -0.0104687   0.0044818   0.0107906   0.0036552
          241         242         243         244         245         246
    1   0.0009940   0.0826005  -0.0026707   0.0075571  -0.0304304   0.0065799
    2  -0.0133815  -0.0850484   0.0040716   0.0317753  -0.0097146  -0.0085001
    3   0.0307317   0.0059144   0.0045812  -0.0080904   0.0044312   0.0284798
          247         248         249         250         251         252
    1   0.0510504  -0.0057092   0.0049019  -0.0284879   0.0002267  -0.0125225
    2   0.0214256  -0.0018945  -0.0197182  -0.0159742   0.0272329  -0.0994188
    3  -0.0215034  -0.0070755  -0.0245166   0.0098742  -0.0237209   0.0439552
          253         254         255         256         257         258
    1   0.0061560   0.0069944   0.0264979   0.0128254  -0.0085758   0.0007566
    2  -0.0046751  -0.0327323  -0.0124874   0.0247956  -0.0219892   0.0063980
    3   0.0024394   0.0093575  -0.0196178   0.0162177  -0.0500548  -0.0022868
          259         260         261         262         263         264
    1   0.0013868   0.0153041  -0.0276494  -0.0665436  -0.0071702  -0.0367434
    2   0.0010664   0.0075963   0.0116785  -0.0174186  -0.0080070  -0.0194914
    3   0.0372536  -0.0301609  -0.0042484   0.0867350   0.0047719  -0.0020433
          265         266         267         268         269         270
    1   0.0206750  -0.0057840  -0.0365397   0.0015705   0.0003339   0.0255107
    2  -0.0162056   0.0031676   0.0318043  -0.0027361   0.0216911  -0.0168161
    3  -0.0219665   0.0340673   0.0084664  -0.0081118  -0.0242797   0.0068928
          271         272         273         274         275         276
    1  -0.0284668   0.1064924  -0.0003490  -0.0224384  -0.0170919   0.0313112
    2  -0.0094162   0.0037766  -0.0112094  -0.0193657  -0.0091275   0.0000333
    3  -0.0177637   0.0223027  -0.0080337   0.0195805  -0.0314649  -0.0045408
          277         278         279         280         281         282
    1  -0.0495745   0.0052370   0.0230446  -0.0052312   0.0054611   0.0757405
    2   0.0121628  -0.0026740  -0.0185726   0.0037782   0.0204350  -0.0101493
    3   0.0056202  -0.0062572  -0.0066266  -0.0311290   0.0196888   0.0791347
          283         284         285         286         287         288
    1  -0.0039889   0.0068854   0.0239484  -0.0330736   0.0568444  -0.0062765
    2   0.0011293  -0.0281811   0.0107140  -0.0027400  -0.0023188   0.0088609
    3   0.0080088   0.0054439   0.0177099   0.0193608  -0.0255644  -0.0010638
          289         290         291         292
    1  -0.0273806   0.0259767  -0.0108528  -0.0855371
    2   0.0074031   0.0187316   0.0063731  -0.0604973
    3   0.0210406   0.0018450  -0.0290074  -0.0379122
  --- DONE ESP SUMMARY ---
Archival summary:
1\1\node001\SP\ProcedureUnspecified\6-31+G*\272754h22\ymao90\FriDec305:54:502021FriDec305:54:502021\0\\#,ProcedureUnspecified,6-31+G*,\\0,1\S\O,1,1.49728\C,1,1.80657,2,102.49\H,3,1.09228,1,98.983,2,-40.9206,0\H,3,1.09297,1,112.388,2,-148.961,0\H,3,1.09324,1,108.805,2,78.715,0\C,1,1.80755,2,109.555,3,-100.023,0\H,7,1.09227,1,101.027,2,173.152,0\H,7,1.09288,1,104.572,2,51.5401,0\H,7,1.09329,1,106.097,2,-70.1893,0\Gh,9,2.23267,7,152.005,1,-47.9727,0\Gh,11,1.10501,9,128.614,7,90.6101,0\Gh,12,1.21869,11,122.794,9,101.305,0\Gh,12,1.37886,11,111.269,9,-78.1709,0\Gh,14,1.01323,12,116.358,11,-13.4966,0\Gh,14,1.46193,12,127.103,11,175.345,0\Gh,16,1.09754,14,109.04,12,-27.5242,0\Gh,16,1.53738,14,106.745,12,-148.752,0\Gh,18,1.09585,16,119.674,14,56.751,0\Gh,18,1.09649,16,107.344,14,-64.2605,0\Gh,16,1.53758,14,112.107,12,89.3856,0\Gh,21,1.09654,16,110.253,14,53.3186,0\Gh,21,1.09712,16,113.846,14,-60.1837,0\Gh,18,1.53796,16,109.734,14,-176.193,0\Gh,24,1.09691,18,110.348,16,175.409,0\Gh,24,1.09702,18,110.209,16,-61.8337,0\Gh,24,1.53791,18,112.643,16,55.6989,0\Gh,27,1.09663,24,115.377,18,-171.645,0\Gh,27,1.09671,24,106.376,18,69.833,0\Gh,27,1.53688,24,114.038,18,-55.0086,0\Gh,30,1.09685,27,108.319,24,165.041,0\Gh,30,1.09691,27,114.316,24,-71.5385,0\H,22,2.00221,21,130.441,16,-107.766,0\C,33,1.09262,22,169.514,21,-45.8318,0\H,34,1.09256,33,107.428,22,-143.469,0\H,34,1.0932,33,112.636,22,-30.5549,0\S,34,1.80703,33,107.294,22,89.3549,0\O,37,1.49669,34,100.628,33,-164.944,0\C,37,1.80664,34,96.1148,33,-66.8396,0\H,39,1.09269,37,105.086,34,79.4965,0\H,39,1.09281,37,111.777,34,-160.051,0\H,39,1.09314,37,107.897,34,-42.2602,0\H,41,2.10856,39,144.375,37,-129.174,0\C,43,1.09347,41,128.493,39,-0.955924,0\H,44,1.09255,43,111.858,41,-40.2173,0\H,44,1.09346,43,109.147,41,75.5411,0\S,44,1.80701,43,104.589,41,-162.092,0\O,47,1.49693,44,97.5343,43,82.6899,0\C,47,1.80738,44,94.8179,43,-177.033,0\H,49,1.09257,47,104.416,44,-162.674,0\H,49,1.09321,47,97.3606,44,72.8166,0\H,49,1.09411,47,110.186,44,-45.2248,0\H,52,2.0249,49,162.3,47,52.5085,0\C,53,1.09324,52,163.596,49,-156.963,0\H,54,1.09216,53,113.381,52,96.9585,0\H,54,1.09298,53,113.186,52,-145.372,0\S,54,1.80779,53,106.949,52,-20.5741,0\O,57,1.49624,54,102.743,53,-37.4608,0\C,57,1.80679,54,95.8426,53,65.4031,0\H,59,1.09267,57,113.385,54,-165.664,0\H,59,1.09342,57,109.362,54,69.8618,0\H,59,1.0936,57,106.76,54,-45.391,0\H,19,2.17179,18,115.039,16,-139.742,0\C,63,1.09346,19,114.417,18,-126.442,0\H,64,1.0928,63,110.326,19,-55.1378,0\H,64,1.09318,63,109.196,19,68.1759,0\S,64,1.80659,63,110.466,19,-179.715,0\O,67,1.49704,64,107.34,63,-34.7289,0\C,67,1.80695,64,91.9328,63,67.2275,0\H,69,1.09256,67,105.641,64,-166.303,0\H,69,1.09288,67,101.577,64,-48.4397,0\H,69,1.09296,67,110.777,64,64.1772,0\H,26,2.18603,24,138.771,18,-175.509,0\C,73,1.09241,26,106.058,24,144.231,0\H,74,1.09228,73,110.078,26,-12.5523,0\H,74,1.09339,73,109.015,26,-137.107,0\S,74,1.80712,73,109.79,26,102.44,0\O,77,1.4973,74,104.677,73,-43.2861,0\C,77,1.80713,74,104.224,73,61.5608,0\H,79,1.09254,77,110.597,74,63.6825,0\H,79,1.09305,77,105.967,74,-64.2112,0\H,79,1.09349,77,108.087,74,175.277,0\H,81,2.22559,79,135.206,77,140.159,0\C,83,1.09267,81,122.517,79,-63.5817,0\H,84,1.09271,83,111.571,81,-59.8712,0\H,84,1.0931,83,107.757,81,179.888,0\S,84,1.80691,83,112.144,81,58.887,0\O,87,1.49699,84,105.572,83,39.6181,0\C,87,1.80701,84,99.4493,83,138.746,0\H,89,1.09265,87,109.751,84,-68.8974,0\H,89,1.093,87,101.375,84,174.412,0\H,89,1.09324,87,109.868,84,54.5114,0\H,76,2.25262,74,125.589,73,115.175,0\C,93,1.09284,76,134.429,74,58.0376,0\H,94,1.0935,93,110.929,76,113.921,0\H,94,1.09383,93,110.769,76,-5.55239,0\S,94,1.80586,93,105.573,76,-123.104,0\O,97,1.49723,94,104.705,93,-172.124,0\C,97,1.80691,94,92.8974,93,83.4956,0\H,99,1.09314,97,110.404,94,-67.8039,0\H,99,1.09322,97,100.342,94,174.61,0\H,99,1.09329,97,115.981,94,53.5248,0\H,66,2.27521,64,113.023,63,60.4686,0\C,103,1.09281,66,129.8,64,-158.002,0\H,104,1.09241,103,100.112,66,-73.7747,0\H,104,1.09346,103,115.161,66,45.9848,0\S,104,1.80745,103,104.889,66,162.932,0\O,107,1.49679,104,102.522,103,-179.732,0\C,107,1.80715,104,104.554,103,-72.2002,0\H,109,1.09248,107,112.29,104,-36.202,0\H,109,1.09283,107,102.75,104,74.1306,0\H,109,1.09304,107,108.543,104,-167.098,0\H,10,2.31549,7,128.32,1,-49.0372,0\C,113,1.09344,10,152.023,7,169.631,0\H,114,1.09276,113,113.445,10,-156.331,0\H,114,1.0928,113,103.771,10,81.2501,0\S,114,1.8066,113,115.092,10,-33.1046,0\O,117,1.4965,114,101.658,113,176.671,0\C,117,1.80767,114,99.1677,113,-78.3713,0\H,119,1.09266,117,109.985,114,-157.621,0\H,119,1.09334,117,111.208,114,-22.7185,0\H,119,1.09359,117,107.271,114,90.9529,0\H,5,2.32147,3,98.9081,1,148.271,0\C,123,1.09268,5,166.451,3,87.8747,0\H,124,1.09311,123,106.82,5,-139.976,0\H,124,1.09352,123,107.061,5,94.1882,0\S,124,1.8064,123,107.042,5,-30.9746,0\O,127,1.49634,124,106.639,123,41.8058,0\C,127,1.80737,124,102.544,123,147.367,0\H,129,1.09293,127,106.519,124,-51.2384,0\H,129,1.09306,127,105.974,124,66.11,0\H,129,1.09363,127,117.027,124,-171.251,0\H,122,2.34209,119,122.42,117,84.3459,0\C,133,1.09296,122,111.852,119,-90.0752,0\H,134,1.09287,133,105.832,122,126.381,0\H,134,1.0935,133,101.097,122,8.09475,0\S,134,1.80713,133,113.805,122,-112.582,0\O,137,1.49686,134,96.5343,133,22.3156,0\C,137,1.80676,134,98.8515,133,125.06,0\H,139,1.09241,137,104.126,134,-60.0677,0\H,139,1.09241,137,110.572,134,57.9303,0\H,139,1.09376,137,109.044,134,176.389,0\H,133,2.30936,122,107.001,119,50.6485,0\C,143,1.09311,133,93.5323,122,115.051,0\H,144,1.09224,143,110.671,133,-177.701,0\H,144,1.09323,143,110.955,133,-52.6828,0\S,144,1.80721,143,108.852,133,67.069,0\O,147,1.49711,144,100.788,143,179.223,0\C,147,1.80731,144,102.452,143,74.0718,0\H,149,1.09281,147,106.013,144,26.8662,0\H,149,1.09284,147,102.02,144,-82.342,0\H,149,1.09312,147,112.47,144,161.624,0\H,105,2.35147,104,117.719,103,19.8075,0\C,153,1.09303,105,126.955,104,-153.043,0\H,154,1.09293,153,110.606,105,-117.589,0\H,154,1.09373,153,113.254,105,131.436,0\S,154,1.80696,153,111.419,105,5.88288,0\O,157,1.49685,154,101.494,153,-38.5595,0\C,157,1.80667,154,95.5453,153,71.1756,0\H,159,1.09286,157,111.991,154,-57.7193,0\H,159,1.09295,157,102.089,154,-177.064,0\H,159,1.09299,157,104.113,154,63.2724,0\H,10,2.35148,7,97.4236,1,-151.011,0\C,163,1.09318,10,118.243,7,176.21,0\H,164,1.09244,163,110.25,10,-66.0332,0\H,164,1.09262,163,111.789,10,175.138,0\S,164,1.80675,163,116.754,10,55.6112,0\O,167,1.49669,164,100.608,163,-46.4189,0\C,167,1.80663,164,99.5042,163,55.6059,0\H,169,1.09233,167,103.376,164,89.2879,0\H,169,1.09299,167,118.243,164,-149.886,0\H,169,1.09349,167,107.126,164,-25.1307,0\H,98,2.37909,97,122.002,94,-132.588,0\C,173,1.09314,98,143.198,97,97.7806,0\H,174,1.09261,173,110.752,98,44.9885,0\H,174,1.09378,173,116.694,98,165.718,0\S,174,1.80709,173,109.43,98,-73.0661,0\O,177,1.49722,174,101.48,173,-64.795,0\C,177,1.8072,174,96.4091,173,-170.702,0\H,179,1.09315,177,114.504,174,32.9901,0\H,179,1.09326,177,106.281,174,158.711,0\H,179,1.09347,177,108.441,174,-87.7711,0\H,95,2.38222,94,109.684,93,26.228,0\C,183,1.09281,95,160.737,94,-37.1121,0\H,184,1.09256,183,111.305,95,92.2361,0\H,184,1.09328,183,98.9748,95,-147.881,0\S,184,1.80699,183,110.878,95,-35.5324,0\O,187,1.4969,184,99.1863,183,63.1391,0\C,187,1.8065,184,91.1157,183,-41.4328,0\H,189,1.09296,187,103.096,184,89.142,0\H,189,1.09357,187,107.618,184,-33.9957,0\H,189,1.09363,187,116.214,184,-157.314,0\H,185,2.13529,184,142.806,183,-89.8298,0\C,193,1.09364,185,107.351,184,65.1591,0\H,194,1.09248,193,110.311,185,68.0516,0\H,194,1.09303,193,110.974,185,-53.896,0\S,194,1.80739,193,119.306,185,-167.012,0\O,197,1.49699,194,103.517,193,160.539,0\C,197,1.80701,194,90.3499,193,58.3852,0\H,199,1.09298,197,100.999,194,168.044,0\H,199,1.09302,197,109.181,194,50.13,0\H,199,1.09331,197,116.609,194,-72.678,0\H,45,2.44002,44,125.877,43,-60.874,0\C,203,1.09232,45,138.423,44,53.0465,0\H,204,1.09273,203,101.962,45,177.813,0\H,204,1.0934,203,111.639,45,-63.9973,0\S,204,1.80674,203,107.925,45,62.3381,0\O,207,1.49692,204,97.4177,203,63.8831,0\C,207,1.80717,204,91.2306,203,168.269,0\H,209,1.09309,207,107.818,204,70.6435,0\H,209,1.09311,207,108.901,204,-174.559,0\H,209,1.09371,207,110.441,204,-53.4809,0\H,211,2.21503,209,124.007,207,2.73523,0\C,213,1.09336,211,123.112,209,158.737,0\H,214,1.09276,213,107.157,211,-80.8544,0\H,214,1.09331,213,109.681,211,154.565,0\S,214,1.80688,213,102.196,211,46.6368,0\O,217,1.49702,214,105.226,213,-86.4445,0\C,217,1.80755,214,91.2252,213,171.503,0\H,219,1.09249,217,103.813,214,154.003,0\H,219,1.09275,217,111.718,214,35.865,0\H,219,1.09328,217,105.455,214,-89.6866,0\H,215,2.23451,214,132.222,213,-23.8861,0\C,223,1.09325,215,104.874,214,137.092,0\H,224,1.09231,223,114.74,215,44.1253,0\H,224,1.09251,223,117.469,215,-83.7853,0\S,224,1.80671,223,94.8905,215,154.198,0\O,227,1.49732,224,105.425,223,-172.461,0\C,227,1.8063,224,95.6947,223,84.5339,0\H,229,1.09255,227,108.527,224,165.84,0\H,229,1.09268,227,99.4817,224,-80.7404,0\H,229,1.09361,227,110.725,224,40.2396,0\H,38,2.45026,37,127.417,34,172.136,0\C,233,1.09339,38,119.384,37,89.4886,0\H,234,1.09243,233,119.33,38,-178.47,0\H,234,1.09364,233,114.229,38,56.2668,0\S,234,1.80609,233,102.659,38,-55.6178,0\O,237,1.49697,234,108.629,233,165.015,0\C,237,1.8073,234,93.467,233,-92.3165,0\H,239,1.09238,237,110.387,234,65.4749,0\H,239,1.09289,237,108.801,234,179.375,0\H,239,1.09315,237,117.417,234,-52.2893,0\H,240,2.28635,239,111.315,237,-143.912,0\C,243,1.09304,240,113.819,239,-68.8334,0\H,244,1.09285,243,110.833,240,54.8317,0\H,244,1.09305,243,109.031,240,175.144,0\S,244,1.8075,243,107.259,240,-65.3944,0\O,247,1.4968,244,108.775,243,49.7871,0\C,247,1.80718,244,93.5601,243,157.108,0\H,249,1.09231,247,107.079,244,168.623,0\H,249,1.0928,247,115.045,244,-60.3224,0\H,249,1.09294,247,100.38,244,58.4977,0\H,58,2.50195,57,132.601,54,-0.563362,0\C,253,1.0931,58,123.898,57,161.071,0\H,254,1.09222,253,107.588,58,8.3299,0\H,254,1.09263,253,104.922,58,-109.228,0\S,254,1.80748,253,112.71,58,135.771,0\O,257,1.49703,254,103.722,253,76.4746,0\C,257,1.80733,254,96.6913,253,-175.084,0\H,259,1.09212,257,105.863,254,-162.315,0\H,259,1.09281,257,114.047,254,-44.0732,0\H,259,1.09298,257,107.41,254,79.7879,0\H,251,2.50305,249,99.2765,247,-76.5768,0\C,263,1.09334,251,164.233,249,178.922,0\H,264,1.09263,263,114.742,251,-71.0171,0\H,264,1.09323,263,109.265,251,56.0106,0\S,264,1.8079,263,111.406,251,164.299,0\O,267,1.49691,264,102.063,263,-168.539,0\C,267,1.80687,264,99.4018,263,-57.3611,0\H,269,1.09312,267,108.124,264,-157.715,0\H,269,1.0933,267,109.229,264,-36.7511,0\H,269,1.09341,267,111.968,264,84.7252,0\H,92,2.53079,89,120.836,87,-160.691,0\C,273,1.09299,92,135.433,89,130.139,0\H,274,1.09315,273,112.03,92,105.128,0\H,274,1.09318,273,118.433,92,-130.622,0\S,274,1.80804,273,103.682,92,-14.3607,0\O,277,1.49745,274,104.265,273,52.3987,0\C,277,1.80701,274,91.6127,273,159.546,0\H,279,1.09317,277,107.364,274,-51.9214,0\H,279,1.09351,277,108.842,274,-172.641,0\H,279,1.09357,277,106.522,274,69,0\H,108,2.61089,107,122.041,104,92.4743,0\C,283,1.09231,108,170.766,107,101.573,0\H,284,1.09256,283,112.847,108,67.1346,0\H,284,1.09363,283,110.966,108,-46.3536,0\S,284,1.80699,283,104.071,108,-164.402,0\O,287,1.49674,284,102.014,283,-175.296,0\C,287,1.80699,284,87.9233,283,-77.3062,0\H,289,1.09296,287,110.587,284,52.1469,0\H,289,1.09358,287,106.86,284,-65.2787,0\H,289,1.09363,287,108.683,284,-178.782,0\\\@

 Total job time:  45.46s(wall), 155.76s(cpu) 
 Fri Dec  3 05:54:50 2021

        *************************************************************
        *                                                           *
        *  Thank you very much for using Q-Chem.  Have a nice day.  *
        *                                                           *
        *************************************************************


