                  Welcome to Q-Chem
     A Quantum Leap Into The Future Of Chemistry


 Q-Chem 6.0 (devel), Q-Chem, Inc., Pleasanton, CA (2022)

 E. Epifanovsky,  A. T. B. Gilbert,  Xintian Feng,  Joonho Lee,  Yuezhi Mao,  
 N. Mardirossian,  P. Pokhilko,  A. White,  M. Wormit,  M. P. Coons,  
 A. L. Dempwolff,  Zhengting Gan,  D. Hait,  P. R. Horn,  L. D. Jacobson,  
 I. Kaliman,  J. Kussmann,  A. W. Lange,  Ka Un Lao,  D. S. Levine,  Jie Liu,  
 S. C. McKenzie,  A. F. Morrison,  K. Nanda,  F. Plasser,  D. R. Rehn,  
 M. L. Vidal,  Zhi-Qiang You,  Ying Zhu,  B. Alam,  B. Albrecht,  
 A. Aldossary,  E. Alguire,  J. H. Andersen,  V. Athavale,  D. Barton,  
 K. Begam,  A. Behn,  N. Bellonzi,  Y. A. Bernard,  E. J. Berquist,  
 H. Burton,  A. Carreras,  K. Carter-Fenk,  Romit Chakraborty,  
 Chandrima Chakravarty,  Junhan Chen,  A. D. Chien,  K. D. Closser,  
 V. Cofer-Shabica,  L. Cunha,  S. Dasgupta,  Jia Deng,  M. de Wergifosse,  
 M. Diedenhofen,  Hainam Do,  S. Ehlert,  Po-Tung Fang,  S. Fatehi,  
 Qingguo Feng,  T. Friedhoff,  B. Ganoe,  J. Gayvert,  Qinghui Ge,  
 G. Gidofalvi,  M. Goldey,  J. Gomes,  C. Gonzalez-Espinoza,  S. Gulania,  
 A. Gunina,  J. A. Gyamfi,  M. W. D. Hanson-Heine,  P. H. P. Harbach,  
 A. W. Hauser,  M. F. Herbst,  M. Hernandez Vera,  M. Hodecker,  
 Z. C. Holden,  S. Houck,  Xunkun Huang,  Kerwin Hui,  B. C. Huynh,  
 K. Ikeda,  M. Ivanov,  Hyunjun Ji,  Zuxin Jin,  Hanjie Jiang,  B. Kaduk,  
 S. Kaehler,  R. Kang,  K. Khistyaev,  Jaehoon Kim,  Yongbin Kim,  
 P. Klunzinger,  Z. Koczor-Benda,  Joong Hoon Koh,  D. Kosenkov,  
 Saikiran Kotaru,  L. Koulias,  T. Kowalczyk,  C. M. Krauter,  K. Kue,  
 A. Kunitsa,  T. Kus,  A. Landau,  K. V. Lawler,  D. Lefrancois,  S. Lehtola,  
 Rain Li,  Shaozhi Li,  Yi-Pei Li,  Jiashu Liang,  M. Liebenthal,  
 Hung-Hsuan Lin,  You-Sheng Lin,  Fenglai Liu,  Kuan-Yu Liu,  
 M. Loipersberger,  A. Luenser,  C. Malbon,  A. Manjanath,  P. Manohar,  
 E. Mansoor,  S. F. Manzer,  Shan-Ping Mao,  A. V. Marenich,  T. Markovich,  
 S. Mason,  F. Matz,  S. A. Maurer,  P. F. McLaughlin,  M. F. S. J. Menger,  
 J.-M. Mewes,  S. A. Mewes,  P. Morgante,  Mohammad Mostafanejad,  
 J. W. Mullinax,  K. J. Oosterbaan,  G. Paran,  V. Parravicini,  
 Alexander C. Paul,  Suranjan K. Paul,  F. Pavosevic,  Zheng Pei,  S. Prager,  
 E. I. Proynov,  E. Ramos,  B. Rana,  A. E. Rask,  A. Rettig,  R. M. Richard,  
 F. Rob,  E. Rossomme,  T. Scheele,  M. Scheurer,  M. Schneider,  
 P. E. Schneider,  N. Sergueev,  S. M. Sharada,  Hengyuan Shen,  
 W. Skomorowski,  D. W. Small,  C. J. Stein,  Yingli Su,  Yu-Chuan Su,  
 E. J. Sundstrom,  Zhen Tao,  J. Thirman,  Hung-Yi Tsai,  T. Tsuchimochi,  
 N. M. Tubman,  C. Utku,  S. P. Veccham,  O. Vydrov,  J. Wenzel,  
 Jonathan Wong,  J. Witte,  A. Yamada,  Chou-Hsun Yang,  Kun Yao,  
 S. Yeganeh,  S. R. Yost,  A. Zech,  F. Zeller,  Igor Ying Zhang,  
 Xing Zhang,  Yu Zhang,  D. Zuev,  A. Aspuru-Guzik,  A. T. Bell,  
 N. A. Besley,  K. B. Bravaya,  B. R. Brooks,  D. Casanova,  Jeng-Da Chai,  
 Hsing-Ta Chen,  S. Coriani,  C. J. Cramer,  A. E. DePrince, III,  
 R. A. DiStasio Jr.,  A. Dreuw,  B. D. Dunietz,  T. R. Furlani,  
 W. A. Goddard III,  S. Grimme,  S. Hammes-Schiffer,  T. Head-Gordon,  
 W. J. Hehre,  Chao-Ping Hsu,  T.-C. Jagau,  Yousung Jung,  A. Klamt,  
 Jing Kong,  D. S. Lambrecht,  Xiangyuan Li,  WanZhen Liang,  N. J. Mayhall,  
 C. W. McCurdy,  J. B. Neaton,  T. Neudecker,  C. Ochsenfeld,  
 J. A. Parkhill,  R. Peverati,  V. A. Rassolov,  Haisheng Ren,  Yihan Shao,  
 L. V. Slipchenko,  R. P. Steele,  J. E. Subotnik,  A. J. W. Thom,  
 A. Tkatchenko,  D. G. Truhlar,  T. Van Voorhis,  Fan Wang,  
 T. A. Wesolowski,  K. B. Whaley,  H. L. Woodcock III,  P. M. Zimmerman,  
 S. Faraji,  P. M. W. Gill,  M. Head-Gordon,  J. M. Herbert,  A. I. Krylov

 Contributors to earlier versions of Q-Chem not listed above: 
 R. D. Adamson,  B. Austin,  R. Baer,  J. Baker,  G. J. O. Beran,  
 K. Brandhorst,  S. T. Brown,  E. F. C. Byrd,  Arup K. Chakraborty,  
 G. K. L. Chan,  Chun-Min Chang,  Yunqing Chen,  C.-L. Cheng,  
 Siu Hung Chien,  D. M. Chipman,  D. L. Crittenden,  H. Dachsel,  
 R. J. Doerksen,  A. D. Dutoi,  R. G. Edgar,  J. Fosso-Tande,  
 L. Fusti-Molnar,  D. Ghosh,  A. Ghysels,  A. Golubeva-Zadorozhnaya,  
 J. Gonthier,  M. S. Gordon,  S. R. Gwaltney,  G. Hawkins,  J. E. Herr,  
 A. Heyden,  S. Hirata,  E. G. Hohenstein,  G. Kedziora,  F. J. Keil,  
 C. Kelley,  Jihan Kim,  R. A. King,  R. Z. Khaliullin,  P. P. Korambath,  
 W. Kurlancheek,  A. Laurent,  A. M. Lee,  M. S. Lee,  S. V. Levchenko,  
 Ching Yeh Lin,  D. Liotard,  E. Livshits,  R. C. Lochan,  I. Lotan,  
 L. A. Martinez-Martinez,  P. E. Maslen,  N. Nair,  D. P. O'Neill,  
 D. Neuhauser,  E. Neuscamman,  C. M. Oana,  R. Olivares-Amaya,  R. Olson,  
 T. M. Perrine,  B. Peters,  P. A. Pieniazek,  A. Prociuk,  Y. M. Rhee,  
 J. Ritchie,  M. A. Rohrdanz,  E. Rosta,  N. J. Russ,  H. F. Schaefer III,  
 M. W. Schmidt,  N. E. Schultz,  S. Sharma,  N. Shenvi,  C. D. Sherrill,  
 A. C. Simmonett,  A. Sodt,  T. Stein,  D. Stuck,  K. S. Thanthiriwatte,  
 V. Vanovschi,  L. Vogt,  Tao Wang,  A. Warshel,  M. A. Watson,  
 C. F. Williams,  Q. Wu,  X. Xu,  Jun Yang,  W. Zhang,  Yan Zhao

   Please cite Q-Chem as follows:
  "Software for the frontiers of quantum chemistry:
   An overview of developments in the Q-Chem 5 package"
   J. Chem. Phys. 155, 084801 (2021)
   https://doi.org/10.1063/5.0055522 (open access)

 Q-Chem 6.0.0 for Intel X86 EM64T Linux

 Parts of Q-Chem use Armadillo 9.900.5 (Nocturnal Misbehaviour).
 http://arma.sourceforge.net/

 Q-Chem begins on Thu Jul 21 03:14:54 2022  

 Host: nid00538
0

     Scratch files written to /global/cscratch1/sd/ymao90/r7.00_frame_0071_spade_B3LYP_dp20220721031331//
 Processing $rem in /global/homes/y/ymao90/my_qchem/qchem_embedding_5p4/config/preferences:
 Processing $rem in /global/homes/y/ymao90/.qchemrc:
 No nuclear gradient supported for projection-based embedding or EMFT. Set max ideriv = 0.

 Checking the input file for inconsistencies... 	...done.

--------------------------------------------------------------
User input:
--------------------------------------------------------------
$molecule
0 1
--
0 1
C    27.11700   24.85400   26.27800  
C    26.78700   26.30000   26.68300  
C    25.27600   26.56000   26.57300  
C    24.46200   25.42700   27.21900  
C    24.78300   24.01700   26.69700  
C    26.28000   23.71500   26.88100  
H    25.00400   27.43900   27.17000  
H    27.04000   26.27500   27.75000  
H    27.07100   24.74900   25.18700  
H    28.18200   24.71300   26.50000  
H    24.72500   25.37400   28.28200  
H    23.38300   25.62600   27.23300  
H    24.14100   23.40900   27.34500  
H    24.50400   23.91100   25.64100  
H    26.54100   23.63400   27.94300  
H    26.46300   22.72100   26.45500  
H    24.95800   26.60200   25.52400  
N    27.54700   27.24500   25.86600  
H    27.51600   27.11500   24.86200  
C    27.94100   28.50900   26.24800  
H    28.59400   28.94600   25.47100  
O    27.66100   28.99100   27.33200  
--
0 1
C    24.85200   30.59900   25.84700  
H    23.94500   30.24500   26.34500  
H    25.27200   29.81000   25.21800  
H    25.60700   30.92800   26.56500  
S    24.43200   31.96000   24.73500  
C    23.26900   31.01800   23.72100  
H    22.73400   31.56600   22.94200  
H    23.86800   30.18500   23.34500  
H    22.48700   30.77700   24.44600  
O    25.58900   32.10500   23.79600  
C    31.63900   29.40800   29.12800  
H    32.04100   28.97600   28.20800  
H    30.81500   28.87700   29.61000  
H    31.31300   30.43500   28.94200  
S    32.95600   29.52200   30.36000  
C    32.94400   27.75400   30.73100  
H    31.93000   27.35200   30.65200  
H    33.51500   27.20300   29.97900  
H    33.35000   27.54000   31.72300  
O    32.19800   30.21600   31.44900  
C    24.47400   28.84500   32.28500  
H    24.36200   28.78600   33.37000  
H    25.19300   29.65000   32.11200  
H    23.53000   28.99200   31.75400  
S    25.13600   27.32300   31.57100  
C    25.43500   27.99900   29.92300  
H    26.22700   28.71300   30.16600  
H    25.88400   27.19900   29.32800  
H    24.51200   28.45100   29.55200  
O    23.92200   26.44800   31.50700  
C    19.97800   26.64000   31.43500  
H    20.84900   26.40000   30.82000  
H    19.21500   25.86300   31.33500  
H    19.56700   27.57100   31.03800  
S    20.63600   26.93800   33.09100  
C    20.82800   25.18700   33.49300  
H    21.36400   24.55300   32.78200  
H    21.38600   25.02600   34.41900  
H    19.81200   24.84400   33.70800  
O    19.41300   27.29300   33.87700  
C    31.53400   17.05700   25.25700  
H    31.80100   16.01300   25.07800  
H    32.23000   17.85800   24.99500  
H    31.35900   17.13900   26.33300  
S    29.90000   17.31800   24.53000  
C    30.67500   17.77600   22.96400  
H    31.31000   16.97000   22.58700  
H    30.00500   18.11200   22.16800  
H    31.33300   18.61500   23.20600  
O    29.49400   18.63700   25.11200  
C    29.55400   21.50900   27.83500  
H    29.19100   20.91900   26.99000  
H    28.72800   22.16700   28.11700  
H    30.42000   22.10700   27.54100  
S    30.10400   20.46200   29.20200  
C    30.79100   19.15800   28.15700  
H    29.97400   18.47100   27.92400  
H    31.22600   19.63200   27.27400  
H    31.54600   18.67200   28.78100  
O    28.78600   19.88100   29.61100  
C    24.87000   23.13500   30.40700  
H    23.91400   23.01200   29.89000  
H    25.31000   24.11800   30.22500  
H    25.49600   22.28900   30.11100  
S    24.55300   23.05800   32.18400  
C    26.16400   23.68400   32.71100  
H    26.17300   24.73900   32.42400  
H    26.20200   23.54600   33.79500  
H    26.93300   23.09000   32.21100  
O    24.48700   21.59200   32.48100  
C    19.78700   22.88700   27.26400  
H    19.21500   22.76200   28.18700  
H    19.15400   23.01600   26.38200  
H    20.50500   22.07800   27.10500  
S    20.77600   24.38800   27.45100  
C    21.33400   24.01800   29.13000  
H    21.65500   22.97500   29.17000  
H    22.27600   24.56600   29.21300  
H    20.55200   24.19800   29.87200  
O    19.96400   25.64500   27.48900  
C    34.29200   24.07600   27.07500  
H    34.28600   24.09700   25.98200  
H    35.18100   24.50200   27.54700  
H    34.17600   23.04200   27.40700  
S    32.76600   24.88900   27.60000  
C    32.74900   24.06500   29.20700  
H    33.62400   24.28000   29.82600  
H    31.88500   24.33200   29.82100  
H    32.67800   23.02200   28.88800  
O    31.72700   24.14300   26.82200  
C    30.40300   25.48000   23.75100  
H    30.25400   26.51900   23.44400  
H    29.50000   25.22400   24.31100  
H    31.28000   25.33700   24.38800  
S    30.58700   24.47000   22.26400  
C    32.24900   24.93200   21.72400  
H    32.97700   24.77100   22.52400  
H    32.56000   24.31500   20.87700  
H    32.35600   25.99700   21.50100  
O    29.63400   25.16600   21.34300  
C    20.39400   27.64200   21.74100  
H    21.29000   27.17100   21.32800  
H    19.73200   26.85200   22.10600  
H    19.88600   28.30200   21.03400  
S    20.98500   28.62900   23.13400  
C    21.29400   27.31600   24.33700  
H    21.96000   26.57300   23.89100  
H    21.76600   27.77900   25.20700  
H    20.32700   26.91600   24.65400  
O    19.78400   29.49200   23.36400  
C    29.58100   32.12300   26.10400  
H    29.50000   32.21600   25.01800  
H    28.90400   31.40600   26.57500  
H    29.48000   33.03500   26.69700  
S    31.23800   31.47700   26.42600  
C    32.10900   32.63300   25.34500  
H    32.08300   33.65000   25.74600  
H    33.13200   32.37800   25.05700  
H    31.52400   32.66100   24.42200  
O    31.44500   30.12700   25.81300  
C    29.89400   29.22600   22.16000  
H    29.52400   29.97400   22.86600  
H    30.52400   28.61600   22.81300  
H    30.48600   29.62400   21.33200  
S    28.50000   28.18300   21.67400  
C    27.28600   29.46400   21.28900  
H    27.34500   30.24800   22.04900  
H    27.45000   29.74300   20.24500  
H    26.31900   28.98600   21.46400  
O    27.99200   27.69900   22.99600  
C    20.29300   19.41600   25.42200  
H    21.09500   20.15800   25.39200  
H    19.52000   19.66200   26.15500  
H    20.73000   18.43700   25.63600  
S    19.68400   19.55300   23.72700  
C    18.62700   18.11000   23.98300  
H    19.05200   17.21500   24.44300  
H    17.79500   18.51900   24.56200  
H    18.33000   17.69500   23.01700  
O    20.85000   19.13000   22.88900  
C    26.72500   33.51400   28.31300  
H    26.90500   32.80900   27.49800  
H    27.35800   34.38500   28.12500  
H    26.93800   33.14100   29.31800  
S    24.96700   33.90400   28.46100  
C    24.47100   32.27700   29.07100  
H    25.05900   31.56200   28.49000  
H    24.72000   32.15900   30.12800  
H    23.40800   32.07400   28.91400  
O    24.34300   33.86000   27.10100  
C    20.43100   22.87200   21.47100  
H    20.56600   21.81200   21.70400  
H    19.48600   23.04900   20.95200  
H    21.27700   23.17900   20.85200  
S    20.41600   23.64000   23.10600  
C    21.94000   22.92400   23.76100  
H    22.70900   23.09500   23.00300  
H    22.14500   23.34500   24.74900  
H    21.77800   21.84700   23.85400  
O    19.21800   22.98200   23.71700  
C    26.06800   18.95800   31.07900  
H    27.00100   18.57900   30.65400  
H    25.23700   18.33800   30.73200  
H    25.78100   19.91000   30.62500  
S    26.15300   18.95600   32.88400  
C    27.65400   19.96100   32.92200  
H    27.80400   20.00700   34.00400  
H    28.47100   19.56800   32.31100  
H    27.43700   20.92700   32.45900  
O    26.67200   17.62800   33.33900  
C    20.90400   29.23500   28.83500  
H    21.74100   29.61400   29.42700  
H    20.00600   28.90500   29.36300  
H    21.26000   28.43200   28.18400  
S    20.43400   30.44500   27.57700  
C    19.28600   29.38100   26.67500  
H    18.43200   29.27200   27.34800  
H    19.00100   29.98900   25.81300  
H    19.79800   28.49300   26.29500  
O    21.62200   30.59700   26.68000  
C    30.57600   32.50400   20.43700  
H    31.31600   33.30000   20.32200  
H    30.60200   32.21900   21.49200  
H    30.78200   31.64500   19.79400  
S    28.98900   33.28200   20.05800  
C    28.18400   33.41600   21.67000  
H    27.65100   34.36900   21.62300  
H    27.50800   32.56500   21.78800  
H    28.89400   33.58400   22.48300  
O    28.25600   32.12900   19.44600  
C    34.16300   27.57600   25.11500  
H    34.16000   26.52500   25.41600  
H    33.17200   28.03200   25.18300  
H    34.68100   27.77900   24.17500  
S    35.12600   28.36600   26.42400  
C    36.49300   27.22500   26.11800  
H    37.08000   27.55100   25.25600  
H    37.22100   27.20200   26.93300  
H    36.10000   26.22200   25.93600  
O    34.37800   27.84400   27.61100  
C    24.08300   20.29700   24.99900  
H    23.48400   21.09000   24.54400  
H    23.58200   19.45900   25.49200  
H    24.98400   20.52100   25.57600  
S    24.70900   19.48600   23.51100  
C    26.16400   18.67700   24.21300  
H    25.81800   18.18800   25.12700  
H    26.49900   18.00700   23.41700  
H    26.92000   19.43500   24.43400  
O    25.32800   20.56800   22.68200  
C    22.25700   18.38600   28.29300  
H    22.21200   17.80600   29.21800  
H    21.27800   18.71700   27.93700  
H    22.89800   17.86500   27.57800  
S    23.07700   19.84400   28.97800  
C    22.07700   20.05900   30.46700  
H    22.44700   19.38500   31.24400  
H    22.34800   21.04600   30.84900  
H    20.99400   19.96400   30.34800  
O    22.69200   21.00500   28.11500  
C    26.10300   24.02600   22.09800  
H    26.78400   23.44600   21.47000  
H    26.63000   24.23900   23.03100  
H    25.23800   23.43000   22.40000  
S    25.40800   25.48700   21.29200  
C    24.88500   26.28500   22.82700  
H    24.15100   27.06300   22.60500  
H    24.48200   25.60200   23.57900  
H    25.71900   26.86100   23.23600  
O    24.06600   25.03000   20.81100  
C    28.82000   21.19100   21.87100  
H    28.40800   22.06000   22.39000  
H    28.05600   20.62000   21.33800  
H    29.32200   20.57600   22.62200  
S    30.15700   21.63400   20.73900  
C    29.20700   22.36900   19.38900  
H    29.47300   21.95800   18.41200  
H    28.12800   22.31900   19.55200  
H    29.56000   23.40300   19.42700  
O    30.51800   20.25200   20.29200  
C    27.29300   17.47200   27.72400  
H    27.51100   18.06600   26.83300  
H    26.71400   18.05400   28.44600  
H    28.20400   17.17700   28.25100  
S    26.18900   16.10300   27.30700  
C    27.09600   15.60200   25.82700  
H    27.49400   16.39400   25.18700  
H    27.95700   14.98800   26.10200  
H    26.44500   14.95500   25.23400  
O    24.94500   16.74500   26.77800  
C    29.03900   31.01600   30.63400  
H    30.04900   30.68400   30.88900  
H    28.48900   30.18500   30.18400  
H    28.97600   31.87800   29.96500  
S    28.23200   31.62300   32.13200  
C    28.81100   30.19200   33.07100  
H    29.60600   29.55500   32.67300  
H    28.97800   30.51200   34.10300  
H    27.97700   29.48600   33.07900  
O    26.77800   31.48400   31.80400  
C    28.79200   27.06000   31.10100  
H    28.32800   27.78400   30.42600  
H    28.27700   26.92500   32.05600  
H    29.79100   27.44400   31.32100  
S    28.96500   25.43700   30.32700  
C    29.53600   26.25100   28.81800  
H    29.34200   25.62300   27.94400  
H    29.07900   27.23100   28.66000  
H    30.61700   26.41000   28.82500  
O    27.54100   25.09900   30.01200  
$end

$rem
JOBTYPE  SP
METHOD  B3LYP
BASIS  6-31+G(D)
SYMMETRY  FALSE
SYM_IGNORE  TRUE
MEM_TOTAL  12000
MEM_STATIC  4000
BASIS_LIN_DEP_THRESH  6
THRESH  14
SCF_CONVERGENCE  8
FD_MAT_VEC_PROD  FALSE
XC_GRID  000075000302
NL_GRID  1
MAX_SCF_CYCLES  200
ENV_METHOD  B3LYP
GEN_SCFMAN_EMBED  TRUE
SPADE_PARTITION  TRUE
EMBEDDING_EARLY_STOP  TRUE
$end

--------------------------------------------------------------
 ----------------------------------------------------------------
             Standard Nuclear Orientation (Angstroms)
    I     Atom           X                Y                Z
 ----------------------------------------------------------------
    1      C      27.1170000000    24.8540000000    26.2780000000
    2      C      26.7870000000    26.3000000000    26.6830000000
    3      C      25.2760000000    26.5600000000    26.5730000000
    4      C      24.4620000000    25.4270000000    27.2190000000
    5      C      24.7830000000    24.0170000000    26.6970000000
    6      C      26.2800000000    23.7150000000    26.8810000000
    7      H      25.0040000000    27.4390000000    27.1700000000
    8      H      27.0400000000    26.2750000000    27.7500000000
    9      H      27.0710000000    24.7490000000    25.1870000000
   10      H      28.1820000000    24.7130000000    26.5000000000
   11      H      24.7250000000    25.3740000000    28.2820000000
   12      H      23.3830000000    25.6260000000    27.2330000000
   13      H      24.1410000000    23.4090000000    27.3450000000
   14      H      24.5040000000    23.9110000000    25.6410000000
   15      H      26.5410000000    23.6340000000    27.9430000000
   16      H      26.4630000000    22.7210000000    26.4550000000
   17      H      24.9580000000    26.6020000000    25.5240000000
   18      N      27.5470000000    27.2450000000    25.8660000000
   19      H      27.5160000000    27.1150000000    24.8620000000
   20      C      27.9410000000    28.5090000000    26.2480000000
   21      H      28.5940000000    28.9460000000    25.4710000000
   22      O      27.6610000000    28.9910000000    27.3320000000
   23      C      24.8520000000    30.5990000000    25.8470000000
   24      H      23.9450000000    30.2450000000    26.3450000000
   25      H      25.2720000000    29.8100000000    25.2180000000
   26      H      25.6070000000    30.9280000000    26.5650000000
   27      S      24.4320000000    31.9600000000    24.7350000000
   28      C      23.2690000000    31.0180000000    23.7210000000
   29      H      22.7340000000    31.5660000000    22.9420000000
   30      H      23.8680000000    30.1850000000    23.3450000000
   31      H      22.4870000000    30.7770000000    24.4460000000
   32      O      25.5890000000    32.1050000000    23.7960000000
   33      C      31.6390000000    29.4080000000    29.1280000000
   34      H      32.0410000000    28.9760000000    28.2080000000
   35      H      30.8150000000    28.8770000000    29.6100000000
   36      H      31.3130000000    30.4350000000    28.9420000000
   37      S      32.9560000000    29.5220000000    30.3600000000
   38      C      32.9440000000    27.7540000000    30.7310000000
   39      H      31.9300000000    27.3520000000    30.6520000000
   40      H      33.5150000000    27.2030000000    29.9790000000
   41      H      33.3500000000    27.5400000000    31.7230000000
   42      O      32.1980000000    30.2160000000    31.4490000000
   43      C      24.4740000000    28.8450000000    32.2850000000
   44      H      24.3620000000    28.7860000000    33.3700000000
   45      H      25.1930000000    29.6500000000    32.1120000000
   46      H      23.5300000000    28.9920000000    31.7540000000
   47      S      25.1360000000    27.3230000000    31.5710000000
   48      C      25.4350000000    27.9990000000    29.9230000000
   49      H      26.2270000000    28.7130000000    30.1660000000
   50      H      25.8840000000    27.1990000000    29.3280000000
   51      H      24.5120000000    28.4510000000    29.5520000000
   52      O      23.9220000000    26.4480000000    31.5070000000
   53      C      19.9780000000    26.6400000000    31.4350000000
   54      H      20.8490000000    26.4000000000    30.8200000000
   55      H      19.2150000000    25.8630000000    31.3350000000
   56      H      19.5670000000    27.5710000000    31.0380000000
   57      S      20.6360000000    26.9380000000    33.0910000000
   58      C      20.8280000000    25.1870000000    33.4930000000
   59      H      21.3640000000    24.5530000000    32.7820000000
   60      H      21.3860000000    25.0260000000    34.4190000000
   61      H      19.8120000000    24.8440000000    33.7080000000
   62      O      19.4130000000    27.2930000000    33.8770000000
   63      C      31.5340000000    17.0570000000    25.2570000000
   64      H      31.8010000000    16.0130000000    25.0780000000
   65      H      32.2300000000    17.8580000000    24.9950000000
   66      H      31.3590000000    17.1390000000    26.3330000000
   67      S      29.9000000000    17.3180000000    24.5300000000
   68      C      30.6750000000    17.7760000000    22.9640000000
   69      H      31.3100000000    16.9700000000    22.5870000000
   70      H      30.0050000000    18.1120000000    22.1680000000
   71      H      31.3330000000    18.6150000000    23.2060000000
   72      O      29.4940000000    18.6370000000    25.1120000000
   73      C      29.5540000000    21.5090000000    27.8350000000
   74      H      29.1910000000    20.9190000000    26.9900000000
   75      H      28.7280000000    22.1670000000    28.1170000000
   76      H      30.4200000000    22.1070000000    27.5410000000
   77      S      30.1040000000    20.4620000000    29.2020000000
   78      C      30.7910000000    19.1580000000    28.1570000000
   79      H      29.9740000000    18.4710000000    27.9240000000
   80      H      31.2260000000    19.6320000000    27.2740000000
   81      H      31.5460000000    18.6720000000    28.7810000000
   82      O      28.7860000000    19.8810000000    29.6110000000
   83      C      24.8700000000    23.1350000000    30.4070000000
   84      H      23.9140000000    23.0120000000    29.8900000000
   85      H      25.3100000000    24.1180000000    30.2250000000
   86      H      25.4960000000    22.2890000000    30.1110000000
   87      S      24.5530000000    23.0580000000    32.1840000000
   88      C      26.1640000000    23.6840000000    32.7110000000
   89      H      26.1730000000    24.7390000000    32.4240000000
   90      H      26.2020000000    23.5460000000    33.7950000000
   91      H      26.9330000000    23.0900000000    32.2110000000
   92      O      24.4870000000    21.5920000000    32.4810000000
   93      C      19.7870000000    22.8870000000    27.2640000000
   94      H      19.2150000000    22.7620000000    28.1870000000
   95      H      19.1540000000    23.0160000000    26.3820000000
   96      H      20.5050000000    22.0780000000    27.1050000000
   97      S      20.7760000000    24.3880000000    27.4510000000
   98      C      21.3340000000    24.0180000000    29.1300000000
   99      H      21.6550000000    22.9750000000    29.1700000000
  100      H      22.2760000000    24.5660000000    29.2130000000
  101      H      20.5520000000    24.1980000000    29.8720000000
  102      O      19.9640000000    25.6450000000    27.4890000000
  103      C      34.2920000000    24.0760000000    27.0750000000
  104      H      34.2860000000    24.0970000000    25.9820000000
  105      H      35.1810000000    24.5020000000    27.5470000000
  106      H      34.1760000000    23.0420000000    27.4070000000
  107      S      32.7660000000    24.8890000000    27.6000000000
  108      C      32.7490000000    24.0650000000    29.2070000000
  109      H      33.6240000000    24.2800000000    29.8260000000
  110      H      31.8850000000    24.3320000000    29.8210000000
  111      H      32.6780000000    23.0220000000    28.8880000000
  112      O      31.7270000000    24.1430000000    26.8220000000
  113      C      30.4030000000    25.4800000000    23.7510000000
  114      H      30.2540000000    26.5190000000    23.4440000000
  115      H      29.5000000000    25.2240000000    24.3110000000
  116      H      31.2800000000    25.3370000000    24.3880000000
  117      S      30.5870000000    24.4700000000    22.2640000000
  118      C      32.2490000000    24.9320000000    21.7240000000
  119      H      32.9770000000    24.7710000000    22.5240000000
  120      H      32.5600000000    24.3150000000    20.8770000000
  121      H      32.3560000000    25.9970000000    21.5010000000
  122      O      29.6340000000    25.1660000000    21.3430000000
  123      C      20.3940000000    27.6420000000    21.7410000000
  124      H      21.2900000000    27.1710000000    21.3280000000
  125      H      19.7320000000    26.8520000000    22.1060000000
  126      H      19.8860000000    28.3020000000    21.0340000000
  127      S      20.9850000000    28.6290000000    23.1340000000
  128      C      21.2940000000    27.3160000000    24.3370000000
  129      H      21.9600000000    26.5730000000    23.8910000000
  130      H      21.7660000000    27.7790000000    25.2070000000
  131      H      20.3270000000    26.9160000000    24.6540000000
  132      O      19.7840000000    29.4920000000    23.3640000000
  133      C      29.5810000000    32.1230000000    26.1040000000
  134      H      29.5000000000    32.2160000000    25.0180000000
  135      H      28.9040000000    31.4060000000    26.5750000000
  136      H      29.4800000000    33.0350000000    26.6970000000
  137      S      31.2380000000    31.4770000000    26.4260000000
  138      C      32.1090000000    32.6330000000    25.3450000000
  139      H      32.0830000000    33.6500000000    25.7460000000
  140      H      33.1320000000    32.3780000000    25.0570000000
  141      H      31.5240000000    32.6610000000    24.4220000000
  142      O      31.4450000000    30.1270000000    25.8130000000
  143      C      29.8940000000    29.2260000000    22.1600000000
  144      H      29.5240000000    29.9740000000    22.8660000000
  145      H      30.5240000000    28.6160000000    22.8130000000
  146      H      30.4860000000    29.6240000000    21.3320000000
  147      S      28.5000000000    28.1830000000    21.6740000000
  148      C      27.2860000000    29.4640000000    21.2890000000
  149      H      27.3450000000    30.2480000000    22.0490000000
  150      H      27.4500000000    29.7430000000    20.2450000000
  151      H      26.3190000000    28.9860000000    21.4640000000
  152      O      27.9920000000    27.6990000000    22.9960000000
  153      C      20.2930000000    19.4160000000    25.4220000000
  154      H      21.0950000000    20.1580000000    25.3920000000
  155      H      19.5200000000    19.6620000000    26.1550000000
  156      H      20.7300000000    18.4370000000    25.6360000000
  157      S      19.6840000000    19.5530000000    23.7270000000
  158      C      18.6270000000    18.1100000000    23.9830000000
  159      H      19.0520000000    17.2150000000    24.4430000000
  160      H      17.7950000000    18.5190000000    24.5620000000
  161      H      18.3300000000    17.6950000000    23.0170000000
  162      O      20.8500000000    19.1300000000    22.8890000000
  163      C      26.7250000000    33.5140000000    28.3130000000
  164      H      26.9050000000    32.8090000000    27.4980000000
  165      H      27.3580000000    34.3850000000    28.1250000000
  166      H      26.9380000000    33.1410000000    29.3180000000
  167      S      24.9670000000    33.9040000000    28.4610000000
  168      C      24.4710000000    32.2770000000    29.0710000000
  169      H      25.0590000000    31.5620000000    28.4900000000
  170      H      24.7200000000    32.1590000000    30.1280000000
  171      H      23.4080000000    32.0740000000    28.9140000000
  172      O      24.3430000000    33.8600000000    27.1010000000
  173      C      20.4310000000    22.8720000000    21.4710000000
  174      H      20.5660000000    21.8120000000    21.7040000000
  175      H      19.4860000000    23.0490000000    20.9520000000
  176      H      21.2770000000    23.1790000000    20.8520000000
  177      S      20.4160000000    23.6400000000    23.1060000000
  178      C      21.9400000000    22.9240000000    23.7610000000
  179      H      22.7090000000    23.0950000000    23.0030000000
  180      H      22.1450000000    23.3450000000    24.7490000000
  181      H      21.7780000000    21.8470000000    23.8540000000
  182      O      19.2180000000    22.9820000000    23.7170000000
  183      C      26.0680000000    18.9580000000    31.0790000000
  184      H      27.0010000000    18.5790000000    30.6540000000
  185      H      25.2370000000    18.3380000000    30.7320000000
  186      H      25.7810000000    19.9100000000    30.6250000000
  187      S      26.1530000000    18.9560000000    32.8840000000
  188      C      27.6540000000    19.9610000000    32.9220000000
  189      H      27.8040000000    20.0070000000    34.0040000000
  190      H      28.4710000000    19.5680000000    32.3110000000
  191      H      27.4370000000    20.9270000000    32.4590000000
  192      O      26.6720000000    17.6280000000    33.3390000000
  193      C      20.9040000000    29.2350000000    28.8350000000
  194      H      21.7410000000    29.6140000000    29.4270000000
  195      H      20.0060000000    28.9050000000    29.3630000000
  196      H      21.2600000000    28.4320000000    28.1840000000
  197      S      20.4340000000    30.4450000000    27.5770000000
  198      C      19.2860000000    29.3810000000    26.6750000000
  199      H      18.4320000000    29.2720000000    27.3480000000
  200      H      19.0010000000    29.9890000000    25.8130000000
  201      H      19.7980000000    28.4930000000    26.2950000000
  202      O      21.6220000000    30.5970000000    26.6800000000
  203      C      30.5760000000    32.5040000000    20.4370000000
  204      H      31.3160000000    33.3000000000    20.3220000000
  205      H      30.6020000000    32.2190000000    21.4920000000
  206      H      30.7820000000    31.6450000000    19.7940000000
  207      S      28.9890000000    33.2820000000    20.0580000000
  208      C      28.1840000000    33.4160000000    21.6700000000
  209      H      27.6510000000    34.3690000000    21.6230000000
  210      H      27.5080000000    32.5650000000    21.7880000000
  211      H      28.8940000000    33.5840000000    22.4830000000
  212      O      28.2560000000    32.1290000000    19.4460000000
  213      C      34.1630000000    27.5760000000    25.1150000000
  214      H      34.1600000000    26.5250000000    25.4160000000
  215      H      33.1720000000    28.0320000000    25.1830000000
  216      H      34.6810000000    27.7790000000    24.1750000000
  217      S      35.1260000000    28.3660000000    26.4240000000
  218      C      36.4930000000    27.2250000000    26.1180000000
  219      H      37.0800000000    27.5510000000    25.2560000000
  220      H      37.2210000000    27.2020000000    26.9330000000
  221      H      36.1000000000    26.2220000000    25.9360000000
  222      O      34.3780000000    27.8440000000    27.6110000000
  223      C      24.0830000000    20.2970000000    24.9990000000
  224      H      23.4840000000    21.0900000000    24.5440000000
  225      H      23.5820000000    19.4590000000    25.4920000000
  226      H      24.9840000000    20.5210000000    25.5760000000
  227      S      24.7090000000    19.4860000000    23.5110000000
  228      C      26.1640000000    18.6770000000    24.2130000000
  229      H      25.8180000000    18.1880000000    25.1270000000
  230      H      26.4990000000    18.0070000000    23.4170000000
  231      H      26.9200000000    19.4350000000    24.4340000000
  232      O      25.3280000000    20.5680000000    22.6820000000
  233      C      22.2570000000    18.3860000000    28.2930000000
  234      H      22.2120000000    17.8060000000    29.2180000000
  235      H      21.2780000000    18.7170000000    27.9370000000
  236      H      22.8980000000    17.8650000000    27.5780000000
  237      S      23.0770000000    19.8440000000    28.9780000000
  238      C      22.0770000000    20.0590000000    30.4670000000
  239      H      22.4470000000    19.3850000000    31.2440000000
  240      H      22.3480000000    21.0460000000    30.8490000000
  241      H      20.9940000000    19.9640000000    30.3480000000
  242      O      22.6920000000    21.0050000000    28.1150000000
  243      C      26.1030000000    24.0260000000    22.0980000000
  244      H      26.7840000000    23.4460000000    21.4700000000
  245      H      26.6300000000    24.2390000000    23.0310000000
  246      H      25.2380000000    23.4300000000    22.4000000000
  247      S      25.4080000000    25.4870000000    21.2920000000
  248      C      24.8850000000    26.2850000000    22.8270000000
  249      H      24.1510000000    27.0630000000    22.6050000000
  250      H      24.4820000000    25.6020000000    23.5790000000
  251      H      25.7190000000    26.8610000000    23.2360000000
  252      O      24.0660000000    25.0300000000    20.8110000000
  253      C      28.8200000000    21.1910000000    21.8710000000
  254      H      28.4080000000    22.0600000000    22.3900000000
  255      H      28.0560000000    20.6200000000    21.3380000000
  256      H      29.3220000000    20.5760000000    22.6220000000
  257      S      30.1570000000    21.6340000000    20.7390000000
  258      C      29.2070000000    22.3690000000    19.3890000000
  259      H      29.4730000000    21.9580000000    18.4120000000
  260      H      28.1280000000    22.3190000000    19.5520000000
  261      H      29.5600000000    23.4030000000    19.4270000000
  262      O      30.5180000000    20.2520000000    20.2920000000
  263      C      27.2930000000    17.4720000000    27.7240000000
  264      H      27.5110000000    18.0660000000    26.8330000000
  265      H      26.7140000000    18.0540000000    28.4460000000
  266      H      28.2040000000    17.1770000000    28.2510000000
  267      S      26.1890000000    16.1030000000    27.3070000000
  268      C      27.0960000000    15.6020000000    25.8270000000
  269      H      27.4940000000    16.3940000000    25.1870000000
  270      H      27.9570000000    14.9880000000    26.1020000000
  271      H      26.4450000000    14.9550000000    25.2340000000
  272      O      24.9450000000    16.7450000000    26.7780000000
  273      C      29.0390000000    31.0160000000    30.6340000000
  274      H      30.0490000000    30.6840000000    30.8890000000
  275      H      28.4890000000    30.1850000000    30.1840000000
  276      H      28.9760000000    31.8780000000    29.9650000000
  277      S      28.2320000000    31.6230000000    32.1320000000
  278      C      28.8110000000    30.1920000000    33.0710000000
  279      H      29.6060000000    29.5550000000    32.6730000000
  280      H      28.9780000000    30.5120000000    34.1030000000
  281      H      27.9770000000    29.4860000000    33.0790000000
  282      O      26.7780000000    31.4840000000    31.8040000000
  283      C      28.7920000000    27.0600000000    31.1010000000
  284      H      28.3280000000    27.7840000000    30.4260000000
  285      H      28.2770000000    26.9250000000    32.0560000000
  286      H      29.7910000000    27.4440000000    31.3210000000
  287      S      28.9650000000    25.4370000000    30.3270000000
  288      C      29.5360000000    26.2510000000    28.8180000000
  289      H      29.3420000000    25.6230000000    27.9440000000
  290      H      29.0790000000    27.2310000000    28.6600000000
  291      H      30.6170000000    26.4100000000    28.8250000000
  292      O      27.5410000000    25.0990000000    30.0120000000
 ----------------------------------------------------------------
 Nuclear Repulsion Energy =       47470.45623817 hartrees
 There are      602 alpha and      602 beta electrons
 Requested basis set is 6-31+G(d)
 There are 962 shells and 2681 basis functions

 Total QAlloc Memory Limit  12000 MB
 Mega-Array Size      3911 MB
 MEM_STATIC part      4000 MB

 A cutoff of  1.0D-14 yielded 175387 shell pairs
 There are   1510033 function pairs
 Smallest overlap matrix eigenvalue = 4.68E-07
 Linear dependence detected in AO basis
 Tighter screening thresholds may be required for diffuse basis sets
 Use S2THRESH > 14 and THRESH = 14 in case of SCF convergence issues
 Number of orthogonalized atomic orbitals = 2679
 Maximum deviation from orthogonality = 9.489E-11

 Scale SEOQF with 1.000000e-03/1.000000e-03/1.000000e-03

 Standard Electronic Orientation quadrupole field applied
 Nucleus-field energy     =    -0.0000000537 hartrees
 Guess from superposition of atomic densities
 Warning:  Energy on first SCF cycle will be non-variational
 SAD guess density has 1204.000002 electrons

 -----------------------------------------------------------------------
  General SCF calculation program by
  Eric Jon Sundstrom, Paul Horn, Yuezhi Mao, Dmitri Zuev, Alec White,
  David Stuck, Shaama M.S., Shane Yost, Joonho Lee, David Small,
  Daniel Levine, Susi Lehtola, Hugh Burton, Evgeny Epifanovsky,
  Bang C. Huynh
 -----------------------------------------------------------------------
=================================================
        Doing projection-based embedding         
      F. Manby et al. JCTC, 8, 2564 (2012)       
=================================================

****************************************************
   Low-level SCF calculation for the whole system   
****************************************************
----------------------------------------------
 Summary of the low-level theory: 
 Exchange:     0.2000 Hartree-Fock + 0.0800 Slater + 0.7200 B88
 Correlation:  0.1900 VWN1RPA + 0.8100 LYP
 Using Euler-Maclaurin-Lebedev (75,302) quadrature formula
----------------------------------------------
 using 16 threads for integral computing
 -------------------------------------------------------
 OpenMP Integral computing Module                
 Release: version 1.0, May 2013, Q-Chem Inc. Pittsburgh 
 -------------------------------------------------------
 A restricted SCF calculation will be
 performed using DIIS
 SCF converges when DIIS error is below 1.0e-08
 ---------------------------------------
  Cycle       Energy         DIIS error
 ---------------------------------------
    1  -15359.8766971960      1.35e-02  
    2  -15335.9754131067      2.49e-03  
    3  -15322.6214033591      4.77e-03  
    4  -15339.7493298273      1.08e-03  
    5  -15340.7413072459      1.70e-04  
    6  -15340.7555682942      1.22e-04  
    7  -15340.7655250787      4.95e-05  
    8  -15340.7673094972      1.10e-05  
    9  -15340.7673973182      4.06e-06  
   10  -15340.7674087226      1.53e-06  
   11  -15340.7674102975      5.27e-07  
   12  -15340.7674104868      1.82e-07  
   13  -15340.7674105107      5.27e-08  
   14  -15340.7674105125      2.46e-08  
   15  -15340.7674105128      7.25e-09  Convergence criterion met
 ---------------------------------------
 SCF time:   CPU 267801.81s  wall 19059.00s 
 SCF   energy in the final basis set =   -15340.7674105128
 Total energy in the final basis set =   -15340.7674105128

****************************************************
             Start embedding calculation            
****************************************************
----------------------------------------------
 Summary of the high-level theory: 
 Exchange:     0.2000 Hartree-Fock + 0.0800 Slater + 0.7200 B88
 Correlation:  0.1900 VWN1RPA + 0.8100 LYP
 Using Euler-Maclaurin-Lebedev (75,302) quadrature formula
----------------------------------------------
Doing R-in-R Embedding Calculation
Number of fragments: 2
Embedded fragment(s): 1 
NOcc for each fragment
           35
          567
NBasis for each fragment
          197
         2484
Variational space of the embedded problem: 
NOcc (active)  = 35
NOcc (fixed)   = 567
NVir (total)   = 2077
Read converged orbitals from disk
=========================================================
       Doing SPADE partition for the orbital space       
     D. Claudino and N. Mayhall JCTC 15, 1053 (2019)     
=========================================================
SPADE singular values:
 1.0000 1.0000 1.0000 1.0000 1.0000 1.0000 1.0000 1.0000 1.0000 0.9999
 0.9998 0.9998 0.9997 0.9996 0.9994 0.9993 0.9991 0.9990 0.9983 0.9979
 0.9974 0.9966 0.9965 0.9958 0.9956 0.9951 0.9948 0.9940 0.9936 0.9930
 0.9920 0.9917 0.9894 0.9870 0.9777 0.2367 0.1799 0.1746 0.1696 0.1493
 0.1336 0.1207 0.1168 0.1145 0.1077 0.1008 0.0929 0.0799 0.0713 0.0609
 0.0583 0.0529 0.0470 0.0454 0.0418 0.0404 0.0373 0.0366 0.0345 0.0327
 0.0294 0.0275 0.0264 0.0243 0.0228 0.0211 0.0205 0.0197 0.0189 0.0172
 0.0162 0.0155 0.0146 0.0137 0.0131 0.0124 0.0119 0.0110 0.0100 0.0097
 0.0092 0.0087 0.0082 0.0077 0.0075 0.0072 0.0070 0.0068 0.0061 0.0056
 0.0055 0.0052 0.0051 0.0049 0.0047 0.0042 0.0040 0.0036 0.0035 0.0034
 0.0032 0.0032 0.0029 0.0028 0.0027 0.0026 0.0025 0.0022 0.0022 0.0021
 0.0021 0.0019 0.0019 0.0018 0.0017 0.0017 0.0016 0.0015 0.0015 0.0014
 0.0013 0.0013 0.0013 0.0012 0.0011 0.0011 0.0011 0.0010 0.0010 0.0010
 0.0010 0.0008 0.0008 0.0008 0.0008 0.0007 0.0007 0.0007 0.0007 0.0006
 0.0006 0.0006 0.0005 0.0005 0.0005 0.0005 0.0004 0.0004 0.0004 0.0004
 0.0004 0.0003 0.0003 0.0003 0.0003 0.0003 0.0003 0.0003 0.0003 0.0003
 0.0002 0.0002 0.0002 0.0002 0.0002 0.0002 0.0002 0.0002 0.0002 0.0002
 0.0002 0.0002 0.0002 0.0002 0.0002 0.0001 0.0001 0.0001 0.0001 0.0001
 0.0001 0.0001 0.0001 0.0001 0.0001 0.0001 0.0001 0.0001 0.0001 0.0001
 0.0001 0.0001 0.0001 0.0001 0.0001 0.0000 0.0000
Early stop requested; no embedded SCF will be performed

 567 environment occs will be part of frozen-core in future post-HF calculations

 --------------------------------------------------------------

                    Orbital Energies (a.u.)
 --------------------------------------------------------------

 Alpha MOs
 -- Occupied --
-89.0406 -89.0370 -89.0361 -89.0284 -89.0275 -89.0172 -89.0137 -89.0136
-89.0111 -89.0100 -89.0016 -89.0015 -89.0010 -89.0004 -88.9909 -88.9907
-88.9900 -88.9878 -88.9854 -88.9843 -88.9834 -88.9823 -88.9801 -88.9738
-88.9726 -88.9668 -88.9554 -19.1555 -19.1544 -19.1525 -19.1452 -19.1424
-19.1366 -19.1320 -19.1287 -19.1235 -19.1218 -19.1207 -19.1191 -19.1177
-19.1114 -19.1110 -19.1080 -19.1064 -19.1032 -19.1021 -19.1006 -19.0980
-19.0957 -19.0949 -19.0937 -19.0902 -19.0851 -19.0783 -10.2598 -10.2585
-10.2568 -10.2537 -10.2504 -10.2479 -10.2467 -10.2453 -10.2385 -10.2375
-10.2351 -10.2322 -10.2297 -10.2290 -10.2275 -10.2274 -10.2268 -10.2245
-10.2218 -10.2209 -10.2188 -10.2188 -10.2172 -10.2172 -10.2165 -10.2158
-10.2157 -10.2121 -10.2108 -10.2108 -10.2092 -10.2083 -10.2076 -10.2066
-10.2051 -10.2050 -10.2042 -10.2037 -10.2032 -10.2023 -10.2011 -10.1996
-10.1993 -10.1990 -10.1984 -10.1963 -10.1958 -10.1954 -10.1935 -10.1928
-10.1871 -10.1834 -10.1832 -10.1734  -8.0866  -8.0828  -8.0810  -8.0742
 -8.0737  -8.0629  -8.0598  -8.0597  -8.0568  -8.0558  -8.0482  -8.0473
 -8.0471  -8.0461  -8.0367  -8.0366  -8.0358  -8.0336  -8.0313  -8.0297
 -8.0293  -8.0279  -8.0266  -8.0205  -8.0189  -8.0124  -8.0013  -6.0509
 -6.0494  -6.0470  -6.0459  -6.0453  -6.0443  -6.0439  -6.0401  -6.0389
 -6.0388  -6.0380  -6.0374  -6.0365  -6.0315  -6.0314  -6.0273  -6.0259
 -6.0241  -6.0240  -6.0228  -6.0228  -6.0212  -6.0204  -6.0202  -6.0201
 -6.0189  -6.0174  -6.0173  -6.0140  -6.0132  -6.0124  -6.0120  -6.0117
 -6.0114  -6.0107  -6.0104  -6.0102  -6.0092  -6.0053  -6.0044  -6.0043
 -6.0037  -6.0010  -6.0009  -6.0001  -5.9997  -5.9997  -5.9990  -5.9979
 -5.9968  -5.9958  -5.9944  -5.9942  -5.9941  -5.9940  -5.9937  -5.9934
 -5.9929  -5.9925  -5.9921  -5.9911  -5.9910  -5.9910  -5.9895  -5.9885
 -5.9870  -5.9865  -5.9855  -5.9849  -5.9838  -5.9837  -5.9833  -5.9822
 -5.9776  -5.9766  -5.9758  -5.9756  -5.9698  -5.9659  -5.9643  -5.9583
 -1.0659  -1.0645  -1.0566  -1.0558  -1.0526  -1.0422  -1.0419  -1.0364
 -1.0349  -1.0348  -1.0330  -1.0279  -1.0256  -1.0222  -1.0166  -1.0139
 -1.0133  -1.0122  -1.0103  -1.0099  -1.0091  -1.0065  -1.0033  -1.0013
 -0.9999  -0.9916  -0.9861  -0.8460  -0.8431  -0.8377  -0.8342  -0.8288
 -0.8183  -0.8177  -0.8108  -0.8088  -0.8083  -0.8066  -0.8053  -0.8010
 -0.7996  -0.7983  -0.7944  -0.7936  -0.7927  -0.7889  -0.7887  -0.7870
 -0.7868  -0.7834  -0.7822  -0.7771  -0.7698  -0.7681  -0.7636  -0.7625
 -0.7591  -0.7496  -0.7452  -0.7448  -0.7419  -0.7400  -0.7370  -0.7361
 -0.7343  -0.7317  -0.7310  -0.7273  -0.7205  -0.7199  -0.7186  -0.7182
 -0.7172  -0.7142  -0.7141  -0.7129  -0.7127  -0.7093  -0.7076  -0.6972
 -0.6898  -0.6547  -0.6528  -0.6494  -0.6413  -0.6403  -0.6344  -0.6268
 -0.6264  -0.6261  -0.6207  -0.6181  -0.6121  -0.6115  -0.6079  -0.6059
 -0.6051  -0.6030  -0.6006  -0.5975  -0.5971  -0.5969  -0.5930  -0.5905
 -0.5861  -0.5845  -0.5825  -0.5712  -0.5349  -0.5246  -0.5197  -0.5161
 -0.5111  -0.5110  -0.5085  -0.5049  -0.5002  -0.4968  -0.4963  -0.4949
 -0.4928  -0.4911  -0.4903  -0.4902  -0.4892  -0.4889  -0.4867  -0.4856
 -0.4851  -0.4850  -0.4849  -0.4833  -0.4827  -0.4820  -0.4811  -0.4794
 -0.4788  -0.4775  -0.4772  -0.4760  -0.4755  -0.4741  -0.4725  -0.4724
 -0.4723  -0.4718  -0.4708  -0.4700  -0.4685  -0.4683  -0.4682  -0.4678
 -0.4675  -0.4673  -0.4670  -0.4656  -0.4652  -0.4647  -0.4643  -0.4642
 -0.4634  -0.4627  -0.4625  -0.4613  -0.4597  -0.4594  -0.4590  -0.4584
 -0.4572  -0.4568  -0.4565  -0.4542  -0.4541  -0.4540  -0.4532  -0.4529
 -0.4523  -0.4515  -0.4510  -0.4498  -0.4492  -0.4490  -0.4481  -0.4475
 -0.4472  -0.4466  -0.4464  -0.4462  -0.4459  -0.4456  -0.4451  -0.4430
 -0.4428  -0.4425  -0.4408  -0.4405  -0.4401  -0.4390  -0.4384  -0.4380
 -0.4376  -0.4375  -0.4367  -0.4363  -0.4352  -0.4331  -0.4316  -0.4312
 -0.4308  -0.4308  -0.4286  -0.4273  -0.4263  -0.4261  -0.4243  -0.4240
 -0.4221  -0.4220  -0.4207  -0.4191  -0.4187  -0.4180  -0.4165  -0.4155
 -0.4147  -0.4143  -0.4137  -0.4133  -0.4125  -0.4119  -0.4100  -0.4098
 -0.4094  -0.4080  -0.4075  -0.4074  -0.4070  -0.4048  -0.4042  -0.4008
 -0.4004  -0.3999  -0.3999  -0.3996  -0.3990  -0.3980  -0.3977  -0.3973
 -0.3969  -0.3962  -0.3953  -0.3948  -0.3940  -0.3932  -0.3927  -0.3924
 -0.3922  -0.3919  -0.3906  -0.3901  -0.3895  -0.3889  -0.3866  -0.3853
 -0.3850  -0.3843  -0.3834  -0.3814  -0.3804  -0.3776  -0.3750  -0.3750
 -0.3746  -0.3738  -0.3732  -0.3727  -0.3722  -0.3703  -0.3677  -0.3674
 -0.3670  -0.3628  -0.3603  -0.3593  -0.3571  -0.3552  -0.3540  -0.3525
 -0.3494  -0.3481  -0.3458  -0.3445  -0.3423  -0.3413  -0.3376  -0.3316
 -0.3232  -0.3170  -0.3150  -0.3138  -0.3046  -0.3005  -0.2960  -0.2909
 -0.2905  -0.2904  -0.2867  -0.2848  -0.2819  -0.2801  -0.2800  -0.2769
 -0.2749  -0.2737  -0.2711  -0.2694  -0.2682  -0.2681  -0.2680  -0.2650
 -0.2645  -0.2628  -0.2614  -0.2584  -0.2572  -0.2572  -0.2566  -0.2541
 -0.2531  -0.2524  -0.2509  -0.2496  -0.2469  -0.2450  -0.2436  -0.2408
 -0.2393  -0.2375  -0.2354  -0.2290  -0.2277  -0.2257  -0.2255  -0.2244
 -0.2236  -0.2202  -0.2199  -0.2157  -0.2101  -0.2076  -0.1948 -14.7611
-12.6970 -11.7617 -11.6735 -10.5718 -10.5134 -11.3989 -10.5483 -10.3794
 -0.7440  -0.6760  -0.7623  -0.5904  -0.8370  -0.5772  -0.7121  -0.4475
 -0.8082  -0.4971  -0.4147  -0.4731  -0.4408  -0.4440  -0.4348  -0.4596
 -0.4621  -0.3946  -0.4873  -0.4399  -0.4343  -0.5320  -0.4459  -0.4892
 -0.5239  -0.5015
 -- Virtual --
 -0.0490  -0.0444  -0.0396  -0.0377  -0.0356  -0.0346  -0.0276  -0.0263
 -0.0249  -0.0226  -0.0218  -0.0208  -0.0191  -0.0173  -0.0164  -0.0163
 -0.0148  -0.0127  -0.0120  -0.0103  -0.0101  -0.0090  -0.0082  -0.0076
 -0.0064  -0.0053  -0.0031  -0.0026  -0.0015  -0.0008   0.0002   0.0016
  0.0021   0.0027   0.0040   0.0043   0.0056   0.0064   0.0068   0.0072
  0.0079   0.0081   0.0093   0.0100   0.0115   0.0122   0.0129   0.0138
  0.0143   0.0150   0.0152   0.0164   0.0166   0.0181   0.0188   0.0193
  0.0199   0.0205   0.0214   0.0217   0.0220   0.0236   0.0237   0.0244
  0.0249   0.0255   0.0261   0.0268   0.0274   0.0284   0.0286   0.0292
  0.0301   0.0308   0.0310   0.0318   0.0324   0.0328   0.0336   0.0340
  0.0344   0.0352   0.0361   0.0365   0.0377   0.0379   0.0385   0.0390
  0.0396   0.0411   0.0416   0.0421   0.0430   0.0434   0.0439   0.0448
  0.0450   0.0462   0.0466   0.0469   0.0473   0.0478   0.0485   0.0488
  0.0504   0.0507   0.0509   0.0517   0.0522   0.0532   0.0537   0.0545
  0.0548   0.0556   0.0562   0.0564   0.0571   0.0575   0.0588   0.0594
  0.0600   0.0604   0.0619   0.0623   0.0629   0.0633   0.0643   0.0647
  0.0653   0.0660   0.0662   0.0665   0.0667   0.0674   0.0689   0.0699
  0.0703   0.0706   0.0710   0.0722   0.0731   0.0738   0.0742   0.0745
  0.0746   0.0758   0.0764   0.0767   0.0777   0.0786   0.0788   0.0794
  0.0802   0.0808   0.0812   0.0818   0.0828   0.0834   0.0839   0.0844
  0.0845   0.0861   0.0863   0.0869   0.0875   0.0881   0.0886   0.0886
  0.0895   0.0900   0.0906   0.0909   0.0921   0.0927   0.0934   0.0936
  0.0949   0.0956   0.0958   0.0962   0.0964   0.0968   0.0979   0.0987
  0.0989   0.1001   0.1011   0.1015   0.1018   0.1026   0.1028   0.1038
  0.1044   0.1050   0.1052   0.1066   0.1070   0.1075   0.1079   0.1083
  0.1091   0.1100   0.1106   0.1111   0.1117   0.1123   0.1124   0.1138
  0.1146   0.1148   0.1155   0.1163   0.1166   0.1176   0.1182   0.1184
  0.1190   0.1195   0.1201   0.1209   0.1215   0.1218   0.1220   0.1224
  0.1233   0.1242   0.1249   0.1256   0.1259   0.1265   0.1274   0.1278
  0.1284   0.1292   0.1296   0.1296   0.1308   0.1313   0.1316   0.1320
  0.1328   0.1337   0.1340   0.1346   0.1358   0.1358   0.1363   0.1372
  0.1379   0.1386   0.1392   0.1400   0.1403   0.1411   0.1413   0.1423
  0.1429   0.1433   0.1435   0.1445   0.1447   0.1455   0.1460   0.1469
  0.1473   0.1475   0.1480   0.1485   0.1504   0.1506   0.1510   0.1517
  0.1521   0.1531   0.1533   0.1542   0.1546   0.1555   0.1560   0.1562
  0.1571   0.1575   0.1580   0.1589   0.1590   0.1597   0.1607   0.1613
  0.1615   0.1622   0.1633   0.1638   0.1647   0.1655   0.1659   0.1666
  0.1667   0.1677   0.1686   0.1689   0.1693   0.1698   0.1701   0.1706
  0.1714   0.1719   0.1724   0.1734   0.1738   0.1743   0.1744   0.1752
  0.1756   0.1764   0.1767   0.1771   0.1775   0.1788   0.1789   0.1799
  0.1804   0.1806   0.1816   0.1823   0.1827   0.1829   0.1850   0.1852
  0.1854   0.1862   0.1868   0.1873   0.1880   0.1885   0.1891   0.1902
  0.1907   0.1911   0.1917   0.1923   0.1928   0.1936   0.1940   0.1947
  0.1953   0.1957   0.1960   0.1968   0.1973   0.1976   0.1984   0.1988
  0.1996   0.2000   0.2012   0.2016   0.2020   0.2024   0.2032   0.2045
  0.2047   0.2050   0.2058   0.2063   0.2073   0.2079   0.2084   0.2085
  0.2095   0.2098   0.2109   0.2118   0.2123   0.2127   0.2133   0.2135
  0.2143   0.2145   0.2151   0.2157   0.2161   0.2166   0.2169   0.2183
  0.2192   0.2196   0.2204   0.2207   0.2215   0.2230   0.2237   0.2245
  0.2248   0.2255   0.2263   0.2271   0.2278   0.2285   0.2287   0.2296
  0.2304   0.2311   0.2311   0.2322   0.2328   0.2333   0.2335   0.2343
  0.2349   0.2352   0.2362   0.2369   0.2374   0.2382   0.2385   0.2394
  0.2398   0.2403   0.2409   0.2415   0.2430   0.2433   0.2435   0.2440
  0.2450   0.2459   0.2466   0.2467   0.2477   0.2485   0.2495   0.2499
  0.2502   0.2510   0.2518   0.2522   0.2528   0.2538   0.2548   0.2556
  0.2562   0.2565   0.2574   0.2579   0.2584   0.2600   0.2604   0.2613
  0.2619   0.2623   0.2632   0.2635   0.2645   0.2648   0.2662   0.2664
  0.2669   0.2674   0.2678   0.2683   0.2695   0.2705   0.2713   0.2716
  0.2720   0.2727   0.2729   0.2735   0.2737   0.2744   0.2750   0.2754
  0.2764   0.2771   0.2783   0.2796   0.2806   0.2818   0.2826   0.2837
  0.2843   0.2847   0.2857   0.2865   0.2867   0.2872   0.2887   0.2900
  0.2909   0.2914   0.2914   0.2924   0.2943   0.2951   0.2951   0.2958
  0.2962   0.2967   0.2985   0.2987   0.2998   0.3007   0.3009   0.3023
  0.3031   0.3043   0.3047   0.3053   0.3067   0.3083   0.3084   0.3088
  0.3096   0.3109   0.3114   0.3121   0.3131   0.3140   0.3146   0.3158
  0.3170   0.3175   0.3184   0.3192   0.3197   0.3205   0.3219   0.3221
  0.3238   0.3253   0.3258   0.3260   0.3265   0.3280   0.3285   0.3294
  0.3300   0.3305   0.3317   0.3322   0.3337   0.3352   0.3361   0.3371
  0.3378   0.3383   0.3389   0.3395   0.3402   0.3417   0.3421   0.3433
  0.3438   0.3440   0.3450   0.3456   0.3475   0.3487   0.3492   0.3499
  0.3501   0.3510   0.3513   0.3528   0.3541   0.3547   0.3557   0.3561
  0.3581   0.3587   0.3588   0.3601   0.3608   0.3616   0.3618   0.3636
  0.3638   0.3644   0.3655   0.3665   0.3673   0.3678   0.3685   0.3689
  0.3696   0.3701   0.3706   0.3720   0.3735   0.3737   0.3743   0.3749
  0.3757   0.3768   0.3779   0.3779   0.3788   0.3797   0.3808   0.3811
  0.3825   0.3839   0.3845   0.3862   0.3864   0.3874   0.3884   0.3892
  0.3912   0.3914   0.3927   0.3930   0.3934   0.3941   0.3958   0.3966
  0.3975   0.3987   0.3992   0.3998   0.4002   0.4020   0.4036   0.4040
  0.4047   0.4056   0.4066   0.4070   0.4081   0.4093   0.4104   0.4107
  0.4124   0.4128   0.4134   0.4154   0.4163   0.4170   0.4190   0.4194
  0.4210   0.4213   0.4225   0.4228   0.4239   0.4254   0.4256   0.4274
  0.4276   0.4283   0.4302   0.4317   0.4327   0.4336   0.4346   0.4363
  0.4375   0.4390   0.4406   0.4412   0.4424   0.4430   0.4449   0.4456
  0.4464   0.4483   0.4490   0.4491   0.4498   0.4530   0.4538   0.4543
  0.4565   0.4573   0.4596   0.4598   0.4609   0.4619   0.4625   0.4650
  0.4658   0.4680   0.4687   0.4701   0.4708   0.4734   0.4746   0.4748
  0.4754   0.4758   0.4764   0.4785   0.4791   0.4806   0.4817   0.4837
  0.4869   0.4877   0.4896   0.4904   0.4916   0.4925   0.4940   0.4950
  0.4961   0.4977   0.4993   0.5001   0.5018   0.5028   0.5043   0.5059
  0.5082   0.5090   0.5112   0.5121   0.5133   0.5148   0.5178   0.5189
  0.5204   0.5217   0.5238   0.5243   0.5267   0.5278   0.5282   0.5297
  0.5304   0.5315   0.5344   0.5357   0.5371   0.5376   0.5399   0.5412
  0.5417   0.5444   0.5459   0.5466   0.5471   0.5489   0.5500   0.5516
  0.5525   0.5536   0.5567   0.5589   0.5605   0.5612   0.5625   0.5655
  0.5674   0.5679   0.5692   0.5718   0.5729   0.5743   0.5766   0.5767
  0.5784   0.5795   0.5807   0.5820   0.5831   0.5846   0.5857   0.5890
  0.5901   0.5912   0.5920   0.5940   0.5953   0.5963   0.5986   0.5999
  0.6010   0.6023   0.6035   0.6044   0.6053   0.6069   0.6087   0.6095
  0.6100   0.6115   0.6125   0.6143   0.6153   0.6159   0.6169   0.6185
  0.6202   0.6209   0.6226   0.6229   0.6239   0.6252   0.6266   0.6271
  0.6286   0.6301   0.6307   0.6317   0.6338   0.6349   0.6362   0.6368
  0.6386   0.6394   0.6409   0.6415   0.6426   0.6430   0.6436   0.6449
  0.6461   0.6474   0.6499   0.6503   0.6517   0.6527   0.6535   0.6548
  0.6553   0.6559   0.6578   0.6583   0.6594   0.6598   0.6615   0.6629
  0.6639   0.6644   0.6655   0.6668   0.6680   0.6686   0.6709   0.6718
  0.6723   0.6735   0.6747   0.6752   0.6764   0.6774   0.6783   0.6790
  0.6800   0.6821   0.6825   0.6847   0.6865   0.6875   0.6882   0.6900
  0.6918   0.6926   0.6942   0.6960   0.6972   0.6977   0.6984   0.6997
  0.7014   0.7023   0.7029   0.7037   0.7051   0.7080   0.7088   0.7102
  0.7112   0.7134   0.7145   0.7159   0.7163   0.7186   0.7200   0.7207
  0.7218   0.7230   0.7245   0.7257   0.7264   0.7295   0.7309   0.7314
  0.7335   0.7339   0.7356   0.7370   0.7374   0.7391   0.7409   0.7431
  0.7444   0.7459   0.7469   0.7492   0.7499   0.7502   0.7514   0.7543
  0.7556   0.7561   0.7579   0.7593   0.7597   0.7618   0.7624   0.7636
  0.7650   0.7667   0.7687   0.7687   0.7696   0.7710   0.7740   0.7754
  0.7784   0.7790   0.7800   0.7810   0.7825   0.7831   0.7853   0.7865
  0.7876   0.7891   0.7910   0.7910   0.7921   0.7931   0.7945   0.7979
  0.7986   0.7992   0.8018   0.8023   0.8040   0.8047   0.8067   0.8080
  0.8088   0.8118   0.8125   0.8152   0.8154   0.8177   0.8191   0.8203
  0.8229   0.8235   0.8240   0.8247   0.8262   0.8268   0.8285   0.8298
  0.8315   0.8325   0.8334   0.8352   0.8366   0.8371   0.8381   0.8391
  0.8401   0.8423   0.8450   0.8454   0.8461   0.8482   0.8492   0.8520
  0.8533   0.8543   0.8560   0.8564   0.8565   0.8579   0.8599   0.8614
  0.8634   0.8636   0.8648   0.8664   0.8677   0.8691   0.8718   0.8725
  0.8737   0.8746   0.8752   0.8765   0.8779   0.8800   0.8828   0.8831
  0.8837   0.8852   0.8856   0.8873   0.8875   0.8891   0.8897   0.8912
  0.8929   0.8950   0.8951   0.8969   0.8970   0.8992   0.9000   0.9014
  0.9020   0.9020   0.9051   0.9058   0.9072   0.9076   0.9085   0.9105
  0.9108   0.9115   0.9138   0.9146   0.9154   0.9169   0.9184   0.9200
  0.9201   0.9208   0.9220   0.9244   0.9254   0.9263   0.9270   0.9279
  0.9294   0.9310   0.9325   0.9335   0.9338   0.9351   0.9366   0.9372
  0.9383   0.9388   0.9406   0.9409   0.9418   0.9428   0.9451   0.9454
  0.9458   0.9469   0.9478   0.9496   0.9510   0.9520   0.9551   0.9558
  0.9560   0.9575   0.9588   0.9598   0.9626   0.9628   0.9654   0.9657
  0.9662   0.9672   0.9679   0.9683   0.9692   0.9714   0.9721   0.9730
  0.9751   0.9761   0.9775   0.9785   0.9792   0.9807   0.9814   0.9835
  0.9845   0.9858   0.9867   0.9879   0.9893   0.9906   0.9910   0.9921
  0.9940   0.9944   0.9957   0.9972   0.9987   0.9997   1.0000   1.0016
  1.0025   1.0038   1.0051   1.0059   1.0067   1.0078   1.0103   1.0115
  1.0134   1.0141   1.0151   1.0156   1.0168   1.0185   1.0192   1.0195
  1.0213   1.0225   1.0234   1.0240   1.0259   1.0274   1.0279   1.0294
  1.0303   1.0312   1.0319   1.0352   1.0362   1.0368   1.0383   1.0391
  1.0408   1.0417   1.0435   1.0452   1.0455   1.0467   1.0483   1.0509
  1.0521   1.0526   1.0536   1.0557   1.0570   1.0580   1.0588   1.0606
  1.0616   1.0619   1.0649   1.0660   1.0667   1.0673   1.0682   1.0702
  1.0710   1.0729   1.0736   1.0754   1.0774   1.0787   1.0792   1.0800
  1.0806   1.0807   1.0815   1.0848   1.0866   1.0867   1.0880   1.0902
  1.0908   1.0919   1.0940   1.0953   1.0962   1.0984   1.1003   1.1024
  1.1036   1.1045   1.1054   1.1058   1.1075   1.1089   1.1101   1.1115
  1.1129   1.1147   1.1161   1.1168   1.1184   1.1186   1.1204   1.1225
  1.1236   1.1253   1.1256   1.1269   1.1294   1.1301   1.1326   1.1337
  1.1350   1.1356   1.1359   1.1372   1.1376   1.1406   1.1420   1.1430
  1.1432   1.1439   1.1461   1.1472   1.1487   1.1506   1.1522   1.1529
  1.1543   1.1558   1.1581   1.1587   1.1600   1.1607   1.1617   1.1631
  1.1639   1.1659   1.1677   1.1689   1.1694   1.1704   1.1710   1.1714
  1.1717   1.1752   1.1772   1.1789   1.1791   1.1804   1.1829   1.1831
  1.1860   1.1862   1.1883   1.1889   1.1914   1.1921   1.1934   1.1945
  1.1972   1.1988   1.2009   1.2033   1.2047   1.2056   1.2081   1.2092
  1.2114   1.2140   1.2173   1.2178   1.2202   1.2222   1.2226   1.2242
  1.2277   1.2283   1.2329   1.2338   1.2357   1.2371   1.2381   1.2395
  1.2412   1.2447   1.2461   1.2472   1.2488   1.2501   1.2531   1.2556
  1.2565   1.2606   1.2634   1.2641   1.2655   1.2670   1.2700   1.2727
  1.2766   1.2767   1.2797   1.2810   1.2816   1.2848   1.2872   1.2902
  1.2920   1.2930   1.2943   1.2974   1.2984   1.3002   1.3013   1.3032
  1.3058   1.3101   1.3124   1.3131   1.3159   1.3174   1.3205   1.3219
  1.3229   1.3240   1.3270   1.3296   1.3301   1.3322   1.3327   1.3355
  1.3379   1.3388   1.3391   1.3419   1.3433   1.3442   1.3451   1.3481
  1.3515   1.3525   1.3545   1.3557   1.3566   1.3571   1.3592   1.3603
  1.3618   1.3629   1.3652   1.3666   1.3686   1.3702   1.3711   1.3719
  1.3731   1.3739   1.3760   1.3778   1.3790   1.3817   1.3835   1.3857
  1.3869   1.3880   1.3892   1.3909   1.3919   1.3946   1.3969   1.3990
  1.3998   1.4005   1.4043   1.4049   1.4056   1.4078   1.4091   1.4106
  1.4119   1.4126   1.4142   1.4159   1.4167   1.4198   1.4206   1.4219
  1.4233   1.4245   1.4252   1.4271   1.4298   1.4311   1.4322   1.4331
  1.4339   1.4365   1.4376   1.4393   1.4408   1.4429   1.4442   1.4455
  1.4480   1.4487   1.4499   1.4507   1.4542   1.4551   1.4574   1.4594
  1.4599   1.4616   1.4632   1.4649   1.4667   1.4671   1.4690   1.4711
  1.4736   1.4755   1.4783   1.4793   1.4810   1.4837   1.4850   1.4867
  1.4886   1.4902   1.4915   1.4939   1.4968   1.5020   1.5034   1.5047
  1.5074   1.5080   1.5098   1.5112   1.5128   1.5150   1.5174   1.5203
  1.5218   1.5231   1.5262   1.5276   1.5302   1.5334   1.5354   1.5375
  1.5404   1.5427   1.5442   1.5462   1.5506   1.5528   1.5554   1.5567
  1.5591   1.5622   1.5629   1.5676   1.5712   1.5739   1.5763   1.5801
  1.5812   1.5846   1.5900   1.5931   1.6009   1.6059   1.6108   1.6151
  1.6173   1.6245   1.6265   1.6276   1.6333   1.6364   1.6408   1.6443
  1.6476   1.6505   1.6590   1.6606   1.6635   1.6637   1.6653   1.6673
  1.6682   1.6693   1.6717   1.6733   1.6754   1.6759   1.6772   1.6777
  1.6784   1.6801   1.6829   1.6833   1.6845   1.6855   1.6865   1.6872
  1.6879   1.6885   1.6901   1.6910   1.6927   1.6945   1.6965   1.6983
  1.7000   1.7012   1.7023   1.7033   1.7043   1.7051   1.7054   1.7075
  1.7081   1.7092   1.7105   1.7112   1.7121   1.7141   1.7150   1.7169
  1.7183   1.7191   1.7196   1.7200   1.7212   1.7233   1.7249   1.7254
  1.7272   1.7280   1.7292   1.7301   1.7314   1.7318   1.7324   1.7340
  1.7354   1.7364   1.7382   1.7398   1.7409   1.7434   1.7453   1.7460
  1.7475   1.7500   1.7506   1.7514   1.7535   1.7543   1.7549   1.7566
  1.7575   1.7614   1.7624   1.7626   1.7638   1.7647   1.7668   1.7687
  1.7712   1.7726   1.7731   1.7753   1.7759   1.7769   1.7801   1.7825
  1.7828   1.7866   1.7882   1.7889   1.7897   1.7911   1.7965   1.7988
  1.8001   1.8035   1.8062   1.8090   1.8133   1.8137   1.8145   1.8169
  1.8205   1.8225   1.8277   1.8299   1.8319   1.8332   1.8368   1.8374
  1.8402   1.8424   1.8471   1.8481   1.8495   1.8509   1.8528   1.8541
  1.8581   1.8613   1.8633   1.8639   1.8663   1.8684   1.8706   1.8717
  1.8748   1.8771   1.8781   1.8792   1.8797   1.8811   1.8821   1.8863
  1.8867   1.8876   1.8890   1.8912   1.8919   1.8925   1.8940   1.8957
  1.8959   1.8973   1.8980   1.8988   1.8996   1.9008   1.9027   1.9035
  1.9052   1.9062   1.9068   1.9079   1.9089   1.9130   1.9135   1.9143
  1.9157   1.9171   1.9184   1.9187   1.9201   1.9224   1.9240   1.9242
  1.9270   1.9281   1.9301   1.9319   1.9342   1.9347   1.9373   1.9380
  1.9397   1.9435   1.9441   1.9450   1.9487   1.9507   1.9537   1.9545
  1.9591   1.9619   1.9636   1.9647   1.9700   1.9757   1.9807   1.9823
  1.9930   2.0029   2.0035   2.0149   2.0227   2.0287   2.0311   2.0341
  2.0346   2.0387   2.0444   2.0447   2.0485   2.0506   2.0541   2.0555
  2.0564   2.0568   2.0597   2.0622   2.0645   2.0663   2.0679   2.0704
  2.0713   2.0729   2.0763   2.0767   2.0780   2.0782   2.0795   2.0831
  2.0850   2.0857   2.0866   2.0871   2.0880   2.0896   2.0904   2.0913
  2.0937   2.0952   2.0954   2.0984   2.0991   2.1006   2.1023   2.1038
  2.1048   2.1053   2.1059   2.1124   2.1150   2.1178   2.1200   2.1217
  2.1233   2.1245   2.1270   2.1303   2.1325   2.1336   2.1363   2.1375
  2.1402   2.1422   2.1444   2.1527   2.1560   2.1606   2.1656   2.1739
  2.1790   2.1804   2.1838   2.1882   2.1919   2.1925   2.1928   2.1951
  2.1962   2.1972   2.1994   2.2017   2.2026   2.2029   2.2042   2.2057
  2.2086   2.2093   2.2133   2.2143   2.2160   2.2176   2.2200   2.2214
  2.2240   2.2269   2.2272   2.2299   2.2310   2.2320   2.2330   2.2355
  2.2368   2.2372   2.2380   2.2394   2.2406   2.2417   2.2437   2.2442
  2.2450   2.2472   2.2477   2.2480   2.2498   2.2504   2.2532   2.2540
  2.2549   2.2557   2.2566   2.2569   2.2583   2.2587   2.2593   2.2597
  2.2609   2.2615   2.2633   2.2637   2.2642   2.2652   2.2658   2.2664
  2.2672   2.2691   2.2700   2.2703   2.2716   2.2721   2.2730   2.2741
  2.2742   2.2757   2.2761   2.2787   2.2789   2.2823   2.2826   2.2836
  2.2852   2.2865   2.2866   2.2872   2.2883   2.2903   2.2907   2.2916
  2.2923   2.2929   2.2945   2.2951   2.2957   2.2965   2.2983   2.2990
  2.2997   2.3002   2.3011   2.3022   2.3029   2.3032   2.3043   2.3052
  2.3073   2.3082   2.3096   2.3106   2.3115   2.3129   2.3134   2.3155
  2.3178   2.3183   2.3205   2.3211   2.3216   2.3251   2.3256   2.3265
  2.3277   2.3295   2.3300   2.3305   2.3315   2.3327   2.3345   2.3354
  2.3366   2.3378   2.3392   2.3396   2.3408   2.3419   2.3423   2.3442
  2.3452   2.3456   2.3464   2.3472   2.3491   2.3529   2.3537   2.3542
  2.3573   2.3589   2.3609   2.3615   2.3651   2.3661   2.3699   2.3731
  2.3747   2.3750   2.3825   2.3843   2.3902   2.3925   2.3975   2.4024
  2.4035   2.4104   2.4214   2.4253   2.4327   2.4693   2.4999   2.5167
  2.5373   2.5865   2.6730   2.7275   2.7437   2.7632   2.8028   2.8126
  2.8183   2.8221   2.8291   2.8318   2.8331   2.8334   2.8344   2.8364
  2.8412   2.8457   2.8478   2.8494   2.8534   2.8591   2.8609   2.8625
  2.8630   2.8643   2.8667   2.8677   2.8708   2.8720   2.8740   2.8766
  2.8795   2.8819   2.8879   2.8947   2.8954   2.9423   3.0855   3.2344
  3.9362   3.9443   3.9524   3.9546   3.9576   3.9624   3.9645   3.9678
  3.9716   3.9751   3.9779   3.9785   3.9831   3.9841   3.9908   3.9937
  3.9964   4.0003   4.0053   4.0076   4.0093   4.0111   4.0152   4.0171
  4.0206   4.0308   4.0421   4.1931   4.2115   4.2136   4.2158   4.2197
  4.2245   4.2421   4.2446   4.2459   4.2480   4.2505   4.2546   4.2593
  4.2605   4.2632   4.2688   4.2703   4.2718   4.2751   4.2757   4.2777
  4.2786   4.2814   4.2832   4.2864   4.2877   4.2896   4.2914   4.2928
  4.2950   4.2987   4.3009   4.3029   4.3043   4.3064   4.3105   4.3126
  4.3163   4.3187   4.3192   4.3220   4.3253   4.3278   4.3295   4.3332
  4.3356   4.3390   4.3409   4.3456   4.3459   4.3491   4.3508   4.3545
  4.3570   4.3637   4.3649   4.3694   4.3722   4.3753   4.3789   4.3845
  4.3861   4.3921   4.3958   4.3981   4.3994   4.4032   4.4051   4.4118
  4.4214   4.4304   4.4339   4.4379   4.4455   4.4530   4.4645   4.4762
  4.4857   4.4942   4.5012   4.5145   4.5285   4.5400   4.5702   4.5803
  4.6153   4.6994   4.7337   4.7614   4.8866
 --------------------------------------------------------------

          Ground-State Mulliken Net Atomic Charges

     Atom                 Charge (a.u.)
  ----------------------------------------
      1 C                     0.347001
      2 C                    -1.187727
      3 C                    -0.372504
      4 C                    -0.768306
      5 C                    -0.155786
      6 C                    -0.683262
      7 H                     0.235375
      8 H                     0.259442
      9 H                     0.201568
     10 H                     0.212123
     11 H                     0.241970
     12 H                     0.220058
     13 H                     0.243385
     14 H                     0.201826
     15 H                     0.244259
     16 H                     0.207493
     17 H                     0.195983
     18 N                     0.295785
     19 H                     0.517679
     20 C                    -0.286847
     21 H                     0.183141
     22 O                    -0.180566
     23 C                    -0.826146
     24 H                     0.308112
     25 H                     0.240361
     26 H                     0.237009
     27 S                     0.612878
     28 C                    -0.606020
     29 H                     0.253062
     30 H                     0.224627
     31 H                     0.294317
     32 O                    -0.661348
     33 C                    -1.064908
     34 H                     0.309953
     35 H                     0.251627
     36 H                     0.262405
     37 S                     1.011253
     38 C                    -0.792470
     39 H                     0.205359
     40 H                     0.274398
     41 H                     0.253155
     42 O                    -0.705139
     43 C                    -0.894705
     44 H                     0.258024
     45 H                     0.290820
     46 H                     0.251394
     47 S                     0.729092
     48 C                    -0.854012
     49 H                     0.244350
     50 H                     0.306196
     51 H                     0.254929
     52 O                    -0.572590
     53 C                    -0.851739
     54 H                     0.263895
     55 H                     0.249039
     56 H                     0.234769
     57 S                     1.035144
     58 C                    -0.878310
     59 H                     0.246304
     60 H                     0.244582
     61 H                     0.261737
     62 O                    -0.742151
     63 C                    -0.809596
     64 H                     0.246891
     65 H                     0.252176
     66 H                     0.250004
     67 S                     0.846016
     68 C                    -0.809774
     69 H                     0.240140
     70 H                     0.294804
     71 H                     0.253722
     72 O                    -0.689656
     73 C                    -1.039425
     74 H                     0.296375
     75 H                     0.279695
     76 H                     0.269582
     77 S                     1.269629
     78 C                    -1.030283
     79 H                     0.280134
     80 H                     0.262490
     81 H                     0.237191
     82 O                    -0.790109
     83 C                    -1.089740
     84 H                     0.265001
     85 H                     0.281810
     86 H                     0.268497
     87 S                     0.564714
     88 C                    -0.678280
     89 H                     0.261198
     90 H                     0.249690
     91 H                     0.248119
     92 O                    -0.583880
     93 C                    -0.928943
     94 H                     0.233696
     95 H                     0.306197
     96 H                     0.283319
     97 S                     0.730477
     98 C                    -0.861140
     99 H                     0.281229
    100 H                     0.274825
    101 H                     0.251049
    102 O                    -0.553503
    103 C                    -0.910851
    104 H                     0.251060
    105 H                     0.253602
    106 H                     0.240004
    107 S                     0.903761
    108 C                    -0.830577
    109 H                     0.253302
    110 H                     0.267366
    111 H                     0.244418
    112 O                    -0.641137
    113 C                    -0.850214
    114 H                     0.252228
    115 H                     0.283769
    116 H                     0.240891
    117 S                     0.806404
    118 C                    -0.899430
    119 H                     0.230810
    120 H                     0.259222
    121 H                     0.253272
    122 O                    -0.628800
    123 C                    -0.975270
    124 H                     0.248024
    125 H                     0.250712
    126 H                     0.260797
    127 S                     0.833779
    128 C                    -0.872672
    129 H                     0.248388
    130 H                     0.278833
    131 H                     0.287366
    132 O                    -0.625626
    133 C                    -0.665321
    134 H                     0.245757
    135 H                     0.302394
    136 H                     0.260365
    137 S                     0.516898
    138 C                    -0.789724
    139 H                     0.250862
    140 H                     0.258948
    141 H                     0.231946
    142 O                    -0.605853
    143 C                    -0.882853
    144 H                     0.255967
    145 H                     0.257529
    146 H                     0.237694
    147 S                     1.077673
    148 C                    -0.794758
    149 H                     0.262518
    150 H                     0.283609
    151 H                     0.259629
    152 O                    -0.857981
    153 C                    -0.861625
    154 H                     0.253999
    155 H                     0.239303
    156 H                     0.259623
    157 S                     0.978409
    158 C                    -0.947809
    159 H                     0.245732
    160 H                     0.230255
    161 H                     0.249530
    162 O                    -0.689516
    163 C                    -0.777049
    164 H                     0.255704
    165 H                     0.238254
    166 H                     0.240276
    167 S                     0.690838
    168 C                    -0.783504
    169 H                     0.236326
    170 H                     0.271801
    171 H                     0.278628
    172 O                    -0.677721
    173 C                    -0.900424
    174 H                     0.274586
    175 H                     0.255248
    176 H                     0.269369
    177 S                     0.664773
    178 C                    -0.835791
    179 H                     0.274967
    180 H                     0.275667
    181 H                     0.241858
    182 O                    -0.590794
    183 C                    -0.828232
    184 H                     0.266542
    185 H                     0.224758
    186 H                     0.261466
    187 S                     0.896651
    188 C                    -0.804650
    189 H                     0.227548
    190 H                     0.270077
    191 H                     0.220667
    192 O                    -0.714375
    193 C                    -0.662717
    194 H                     0.234986
    195 H                     0.233617
    196 H                     0.264209
    197 S                     0.660133
    198 C                    -0.779121
    199 H                     0.226515
    200 H                     0.305199
    201 H                     0.265700
    202 O                    -0.759756
    203 C                    -0.932510
    204 H                     0.232626
    205 H                     0.232022
    206 H                     0.270916
    207 S                     1.012341
    208 C                    -0.818860
    209 H                     0.253006
    210 H                     0.314351
    211 H                     0.209872
    212 O                    -0.776584
    213 C                    -0.738747
    214 H                     0.214522
    215 H                     0.305811
    216 H                     0.228064
    217 S                     0.906824
    218 C                    -0.862945
    219 H                     0.246984
    220 H                     0.258034
    221 H                     0.222998
    222 O                    -0.777677
    223 C                    -0.797417
    224 H                     0.236645
    225 H                     0.259835
    226 H                     0.256485
    227 S                     0.626715
    228 C                    -0.779461
    229 H                     0.261975
    230 H                     0.234555
    231 H                     0.293085
    232 O                    -0.669410
    233 C                    -0.891965
    234 H                     0.229289
    235 H                     0.249959
    236 H                     0.318577
    237 S                     0.999970
    238 C                    -0.929706
    239 H                     0.269931
    240 H                     0.280642
    241 H                     0.250035
    242 O                    -0.667101
    243 C                    -0.813535
    244 H                     0.252150
    245 H                     0.239167
    246 H                     0.304338
    247 S                     0.870949
    248 C                    -1.093749
    249 H                     0.262359
    250 H                     0.246799
    251 H                     0.289651
    252 O                    -0.698934
    253 C                    -0.973871
    254 H                     0.238939
    255 H                     0.290447
    256 H                     0.263044
    257 S                     1.191096
    258 C                    -0.932434
    259 H                     0.263215
    260 H                     0.253861
    261 H                     0.271279
    262 O                    -0.762654
    263 C                    -0.759798
    264 H                     0.285840
    265 H                     0.281594
    266 H                     0.243201
    267 S                     0.812475
    268 C                    -0.842439
    269 H                     0.251733
    270 H                     0.236179
    271 H                     0.261660
    272 O                    -0.718353
    273 C                    -0.804713
    274 H                     0.300499
    275 H                     0.273028
    276 H                     0.228010
    277 S                     0.902396
    278 C                    -0.846486
    279 H                     0.263929
    280 H                     0.247886
    281 H                     0.262026
    282 O                    -0.724792
    283 C                    -0.793451
    284 H                     0.279291
    285 H                     0.276363
    286 H                     0.253369
    287 S                     0.802710
    288 C                    -1.352317
    289 H                     0.301473
    290 H                     0.296401
    291 H                     0.260527
    292 O                    -0.608587
  ----------------------------------------
  Sum of atomic charges =     0.000000

 -----------------------------------------------------------------
                    Cartesian Multipole Moments
 -----------------------------------------------------------------
    Charge (ESU x 10^10)
                -0.0000
    Dipole Moment (Debye)
         X      34.9457      Y      -3.7953      Z       0.0704
       Tot      35.1512
    Quadrupole Moments (Debye-Ang)
        XX    1016.0135     XY     874.3418     YY   -1162.1278
        XZ     923.5824     YZ     -69.6543     ZZ   -1113.0134
    Octopole Moments (Debye-Ang^2)
       XXX    9212.8220    XXY   27316.8175    XYY   -2896.1110
       YYY  -81496.1695    XXZ   26189.0012    XYZ   23749.6784
[...]
          205         206         207         208         209         210
    1   1.9109173   2.1428116   0.6691507  -0.3098498  -1.0968008  -1.2840151
    2   0.9727133  -0.4132293   2.5706598   2.2964700   3.8776216   0.7868433
    3   0.4224971  -2.7885376  -1.7954588  -0.0795376  -0.7028457  -0.6719610
          211         212         213         214         215         216
    1   1.4135123  -0.9161342   1.4992881   1.9089352   0.1017292   2.7311180
    2   2.5875444  -0.1456022   0.0932689  -1.7408691   1.1447004   0.7056313
    3   0.8172257  -3.0790229  -2.0089017  -1.0870427  -1.3313533  -3.1817356
          217         218         219         220         221         222
    1   2.8200568   3.6455562   3.8048376   4.1328713   2.6405261   1.5438249
    2   1.6273869  -0.4395763   0.5768426  -0.1134028  -2.0874731   0.0461836
    3  -0.5505212  -0.4859897  -2.0322457   1.3159304  -0.8276178   1.8811507
          223         224         225         226         227         228
    1  -0.9103943  -1.5443896  -1.6708720   1.0557451  -0.9831214   0.7584923
    2  -0.5748347   0.5152837  -2.6315009  -0.1454438  -2.1938048  -2.2442127
    3   0.3129009  -0.9376817   0.5486229   1.0012292  -1.5383123  -0.8076570
          229         230         231         232         233         234
    1  -0.4372491   0.7244066   1.6566993   0.4524533  -1.9669598  -1.8095981
    2  -2.5522316  -3.3190819  -0.2389827   0.1933123  -3.1107363  -3.7692465
    3   0.4424622  -2.7265979  -0.3704930  -2.9080034   0.2159120   2.2109024
          235         236         237         238         239         240
    1  -3.5500544  -0.6478401  -0.4565087  -2.3747305  -1.3045716  -1.7157872
    2  -1.9793111  -3.3415022  -1.8889386  -1.4368429  -2.7641485   0.2609379
    3  -0.0382377  -0.7802690   1.0668908   2.4457401   3.2612517   2.5766069
          241         242         243         244         245         246
    1  -3.9585430  -1.4331820   0.3069233   0.8755573   0.9135219  -1.3934524
    2  -1.5588351   0.4524936  -1.3062214  -1.6529907  -0.3957701  -1.8301312
    3   1.6428842  -0.7038034  -1.0987120  -2.7113365   0.7692454  -0.7678230
          247         248         249         250         251         252
    1   0.2254651  -0.8110327  -1.8121001  -1.1564981   0.5721534  -2.5230932
    2   0.4583539   0.8669321   1.9830122  -0.6675912   1.3955003  -0.6108019
    3  -2.4507777  -0.1517772  -1.4096433   0.8777332   0.2577083  -3.2214105
          253         254         255         256         257         258
    1  -0.2741520  -0.4562654  -1.3061583   1.2848801   1.5247471  -0.0706483
    2  -1.3847881   0.1860473  -2.3401128  -2.0982022  -0.4698433  -0.2169549
    3  -0.7375518  -0.1005315  -2.4654560   0.3163486  -1.6739389  -3.5173855
          259         260         261         262         263         264
    1   0.7356179  -1.8251323   0.9931771   1.8317689   1.0591970   0.8970508
    2  -1.1145687  -0.6612762   1.3948340  -3.1780753  -1.3920424  -0.5228804
    3  -4.4730238  -2.8007468  -3.2458204  -2.5945461   0.9239675  -0.8654724
          265         266         267         268         269         270
    1  -0.4172148   2.3167665   0.0683773   0.6705082   0.7885841   1.9842641
    2  -0.7842724  -2.6746796  -3.2477050  -3.2178434  -1.7718248  -3.9824059
    3   1.8764554   1.7550077   0.9529324  -1.2161305  -1.9163381   0.0247730
          271         272         273         274         275         276
    1  -0.9142494  -2.3727757   1.1602238   2.3041696  -0.2143095   0.8853022
    2  -3.9680425  -1.8095056   1.4768144   1.2491532   0.0250433   3.2919871
    3  -1.9498527  -0.5726033   0.2240069   1.4204374  -0.1981587  -0.4948374
          277         278         279         280         281         282
    1   0.8946304   1.0504882   2.1656410   1.0495199  -0.6894736  -2.0638812
    2   2.4442011   0.3029552  -0.3447652   1.2426007  -0.5853759   1.7660232
    3   2.2068431   3.1317162   2.2062145   4.3732413   2.9503224   1.4707946
          283         284         285         286         287         288
    1   0.8085234  -0.1099423   0.1400166   2.4731272   1.6268573   1.0388683
    2   1.2075082   2.0857238   0.3433366   1.0708198  -0.6622491   0.5728337
    3   2.4100911   0.3987400   4.1060345   2.6598593   1.7627991  -0.4963500
          289         290         291         292
    1   0.2346416  -0.0803250   2.5322808  -1.2778358
    2  -0.7425289   2.1380413   0.5751688  -0.8058253
    3  -1.6393458  -0.5294638   0.3853661   0.4073854
 EField
            1           2           3           4           5           6
    1  -0.0032842  -0.0017789  -0.0001829   0.0000030  -0.0008364  -0.0023893
    2  -0.0000041  -0.0023649  -0.0019818  -0.0025899  -0.0029033   0.0003063
    3  -0.0006172  -0.0050310  -0.0039054  -0.0007157   0.0017387   0.0023028
            7           8           9          10          11          12
    1  -0.0022754  -0.0038190  -0.0022766  -0.0069047   0.0004074  -0.0000873
    2  -0.0037970  -0.0126692   0.0035877  -0.0031171  -0.0040994  -0.0016222
    3  -0.0067710  -0.0017417   0.0014428  -0.0039846  -0.0016525  -0.0031466
           13          14          15          16          17          18
    1  -0.0021827   0.0012534  -0.0012593  -0.0036977   0.0034146  -0.0005742
    2  -0.0079708  -0.0025960   0.0047551   0.0015625   0.0005438   0.0005962
    3  -0.0000308   0.0042103   0.0056230   0.0003559   0.0003798  -0.0176794
           19          20          21          22          23          24
    1   0.0069727  -0.0009287  -0.0010301  -0.0039510  -0.0036914  -0.0306512
    2   0.0099329  -0.0052941  -0.0098834  -0.0047056  -0.0074046  -0.0077239
    3  -0.0280532  -0.0168709  -0.0163428  -0.0129092  -0.0018674   0.0141022
           25          26          27          28          29          30
    1   0.0155782   0.0148502  -0.0306000  -0.0063152  -0.0044364   0.0086441
    2  -0.0265117   0.0098690   0.0488486  -0.0061100   0.0210068  -0.0277323
    3  -0.0222318   0.0108978   0.0268367  -0.0001205  -0.0253663  -0.0173942
           31          32          33          34          35          36
    1  -0.0274324   0.0814976  -0.0004110   0.0070851  -0.0190385  -0.0034754
    2  -0.0207903   0.0131785  -0.0005317  -0.0165143  -0.0163201   0.0273433
    3   0.0169478  -0.0708050  -0.0081982  -0.0306471   0.0074295  -0.0066468
           37          38          39          40          41          42
    1   0.0499977   0.0011328  -0.0277040   0.0238547   0.0123581  -0.0499531
    2   0.0183885  -0.0092524  -0.0093849  -0.0093565  -0.0018950   0.0544101
    3  -0.0231839   0.0005056   0.0055294  -0.0251320   0.0296628   0.0806458
           43          44          45          46          47          48
    1  -0.0027279  -0.0116899   0.0147842  -0.0317929   0.0474046  -0.0023723
    2   0.0093129  -0.0082184   0.0331831   0.0082502  -0.0161510  -0.0038271
    3   0.0021256   0.0305149  -0.0055970  -0.0061652   0.0234656  -0.0035979
           49          50          51          52          53          54
    1   0.0143258   0.0025310  -0.0269536  -0.0883890  -0.0004009   0.0230569
    2   0.0291895  -0.0289184   0.0094164  -0.0657981  -0.0016604  -0.0095402
    3  -0.0046419  -0.0207687  -0.0177316  -0.0027790  -0.0083653  -0.0244718
           55          56          57          58          59          60
    1  -0.0229875  -0.0147292   0.0453381  -0.0015938   0.0131412   0.0156981
    2  -0.0216805   0.0259056   0.0298788  -0.0101047  -0.0143105   0.0039927
    3   0.0057249  -0.0064455  -0.0015161   0.0025175  -0.0285813   0.0302176
           61          62          63          64          65          66
    1  -0.0305165  -0.0898622   0.0037309   0.0220024   0.0220998  -0.0011431
    2  -0.0103461   0.0278425  -0.0007039  -0.0275762   0.0169895   0.0019514
    3   0.0025548   0.0585444   0.0058109  -0.0088874  -0.0120420   0.0325119
           67          68          69          70          71          72
    1  -0.0279493   0.0043066   0.0172582  -0.0207130   0.0152649  -0.0312568
    2  -0.0440724   0.0067339  -0.0240865   0.0096481   0.0283091   0.0962187
    3  -0.0030825  -0.0108446  -0.0158199  -0.0220601   0.0006581   0.0421671
           73          74          75          76          77          78
    1  -0.0019297  -0.0086137  -0.0220955   0.0196163   0.0323702  -0.0000975
    2   0.0065218  -0.0215449   0.0177057   0.0267907   0.0237953  -0.0053231
    3  -0.0095696  -0.0236212   0.0161262  -0.0203018   0.0287957  -0.0046289
           79          80          81          82          83          84
    1  -0.0241376   0.0112378   0.0238086  -0.0976384   0.0026953  -0.0232389
    2  -0.0119649   0.0039879  -0.0209712  -0.0410259   0.0024513  -0.0003602
    3  -0.0102988  -0.0309618   0.0115509   0.0298471  -0.0105760  -0.0199630
           85          86          87          88          89          90
    1   0.0162723   0.0235400  -0.0439266   0.0059207   0.0073269   0.0046814
    2   0.0241017  -0.0192166   0.0391350   0.0012186   0.0280020  -0.0025938
    3  -0.0193470  -0.0085999   0.0133262  -0.0003237  -0.0080247   0.0306591
           91          92          93          94          95          96
    1   0.0253732  -0.0080895  -0.0058077  -0.0226769  -0.0197522   0.0207090
    2  -0.0117473  -0.1063322  -0.0058540  -0.0097633   0.0003365  -0.0260195
    3  -0.0145016   0.0236405  -0.0033806   0.0223209  -0.0269355  -0.0005776
           97          98          99         100         101         102
    1   0.0515308   0.0052064   0.0073064   0.0211672  -0.0182825  -0.0568645
    2  -0.0075240  -0.0040981  -0.0352729   0.0237497   0.0122564   0.0928209
    3  -0.0380414   0.0050987  -0.0047096   0.0167253   0.0205307  -0.0004082
          103         104         105         106         107         108
    1   0.0043073   0.0047779   0.0270665   0.0019741   0.0035342  -0.0008279
    2  -0.0059470  -0.0018296   0.0143313  -0.0340863   0.0610961  -0.0067916
    3  -0.0013565  -0.0307666   0.0093664   0.0017526   0.0019035   0.0053891
          109         110         111         112         113         114
    1   0.0300248  -0.0283539  -0.0043591  -0.0774278  -0.0030760  -0.0094821
    2   0.0013898   0.0048126  -0.0345679  -0.0521636   0.0096829   0.0292236
    3   0.0152740   0.0116836   0.0042657  -0.0586845   0.0068018  -0.0078684
          115         116         117         118         119         120
    1  -0.0271894   0.0189034  -0.0069741   0.0059610   0.0204660   0.0039454
    2  -0.0093928  -0.0008843  -0.0566789   0.0045546  -0.0114505  -0.0157711
    3   0.0102567   0.0271909   0.0149544  -0.0021852   0.0252491  -0.0262568
          121         122         123         124         125         126
    1  -0.0079491  -0.0730481  -0.0012930   0.0224873  -0.0235191  -0.0126186
    2   0.0312262   0.0523453  -0.0062130  -0.0174306  -0.0210237   0.0193837
    3  -0.0145485  -0.0655823  -0.0047212  -0.0241560   0.0075502  -0.0173450
          127         128         129         130         131         132
    1   0.0561634  -0.0032509   0.0165946   0.0156266  -0.0242581  -0.0865045
    2   0.0257782  -0.0057455  -0.0251954   0.0111295  -0.0219200   0.0663833
    3  -0.0186843   0.0071679  -0.0114238   0.0241813   0.0113470   0.0122634
          133         134         135         136         137         138
    1  -0.0058147  -0.0201872  -0.0213437  -0.0040751   0.0155183   0.0024648
    2   0.0002632   0.0047293  -0.0186809   0.0353170   0.0114423   0.0056440
    3  -0.0063140  -0.0316082  -0.0054821   0.0063544   0.0585088  -0.0088856
          139         140         141         142         143         144
    1   0.0025409   0.0291037  -0.0115969   0.0165515   0.0016436  -0.0139486
    2   0.0299938  -0.0150278   0.0010761  -0.1012803   0.0021812   0.0233485
    3   0.0138678   0.0001989  -0.0335527  -0.0445260   0.0073513   0.0171767
          145         146         147         148         149         150
    1   0.0173624   0.0122362   0.0085272  -0.0054479  -0.0009327  -0.0035176
    2  -0.0205534   0.0119337  -0.0342816   0.0057838   0.0251740   0.0237658
    3   0.0159541  -0.0233387  -0.0474684   0.0003859   0.0168006  -0.0266772
          151         152         153         154         155         156
    1  -0.0281952  -0.0414679   0.0059281   0.0248035  -0.0197596   0.0127111
    2  -0.0143072  -0.0406926   0.0009983   0.0201045   0.0119670  -0.0282381
    3  -0.0002878   0.1093625   0.0047841   0.0182636   0.0221372  -0.0015037
          157         158         159         160         161         162
    1  -0.0325074  -0.0032574   0.0228601  -0.0331609  -0.0181216   0.0849534
    2   0.0469966  -0.0066901  -0.0187033   0.0008862  -0.0020727  -0.0296345
    3  -0.0076089  -0.0018461   0.0226358   0.0139094  -0.0317123  -0.0640095
          163         164         165         166         167         168
    1   0.0037979  -0.0008666   0.0106224   0.0167544  -0.0131396  -0.0034440
    2   0.0003010  -0.0197121   0.0333618  -0.0156785   0.0436868  -0.0080025
    3  -0.0012703  -0.0221641  -0.0052744   0.0275593   0.0354747   0.0044482
          169         170         171         172         173         174
    1   0.0055880   0.0078038  -0.0308626  -0.0501216   0.0030795  -0.0019724
    2  -0.0227496  -0.0043033   0.0040871  -0.0013404  -0.0078015  -0.0352791
    3  -0.0131358   0.0344023  -0.0116113  -0.1006281  -0.0077869  -0.0036134
          175         176         177         178         179         180
    1  -0.0274593   0.0262499   0.0057328   0.0056517   0.0299047   0.0102764
    2   0.0049611   0.0129591   0.0614797  -0.0057516   0.0063870   0.0138422
    3  -0.0102859  -0.0192730  -0.0042997   0.0016916  -0.0167944   0.0259734
          181         182         183         184         185         186
    1  -0.0048293  -0.0900147   0.0019855   0.0287204  -0.0215146   0.0015492
    2  -0.0303882  -0.0454918  -0.0003228  -0.0053966  -0.0275732   0.0342032
    3   0.0002982   0.0425660  -0.0103137  -0.0106440  -0.0039808  -0.0035849
          187         188         189         190         191         192
    1  -0.0459717   0.0045612   0.0207984   0.0211717  -0.0084437   0.0359954
    2   0.0293420   0.0033355   0.0083092  -0.0229391   0.0310061  -0.0969033
    3   0.0251824  -0.0022979   0.0276316  -0.0125146  -0.0054969   0.0367646
          193         194         195         196         197         198
    1   0.0016769   0.0169318  -0.0204836   0.0124356  -0.0323494  -0.0041053
    2  -0.0082742   0.0101558  -0.0110245  -0.0350741   0.0446350  -0.0032298
    3  -0.0013623   0.0215450   0.0209101  -0.0074014   0.0224058  -0.0084557
          199         200         201         202         203         204
    1  -0.0308002  -0.0110632   0.0053488   0.0839152   0.0048747   0.0298938
    2  -0.0176983   0.0103726  -0.0303375   0.0161102  -0.0022105   0.0175526
    3   0.0112064  -0.0315829  -0.0038667  -0.0668428   0.0023779  -0.0081854
          205         206         207         208         209         210
    1   0.0007481  -0.0020659   0.0047009  -0.0075804  -0.0293471  -0.0216007
    2  -0.0161986  -0.0204454   0.0480533  -0.0021773   0.0211597  -0.0212830
    3   0.0284248  -0.0229768  -0.0259307   0.0061423   0.0017730   0.0068803
          211         212         213         214         215         216
    1   0.0186825  -0.0551562  -0.0070818  -0.0098944  -0.0316504   0.0056781
    2  -0.0035513  -0.0846762  -0.0013561  -0.0283103   0.0103544  -0.0000592
    3   0.0292689  -0.0468110  -0.0039792  -0.0001943  -0.0051317  -0.0359438
          217         218         219         220         221         222
    1   0.0113161   0.0065553   0.0155290   0.0160894  -0.0058362  -0.0556056
    2   0.0518906  -0.0060780   0.0088732  -0.0007281  -0.0299597  -0.0358642
    3  -0.0125699  -0.0002996  -0.0301167   0.0288493  -0.0026598   0.0859100
          223         224         225         226         227         228
    1   0.0006602  -0.0153768  -0.0263523   0.0172967  -0.0381768   0.0035924
    2   0.0011551   0.0264973  -0.0109064   0.0257427  -0.0389399   0.0002562
    3   0.0037398   0.0071582   0.0225102   0.0216983  -0.0192006   0.0057007
          229         230         231         232         233         234
    1  -0.0052683   0.0139683   0.0233248   0.0439769  -0.0022667  -0.0139103
    2  -0.0247139  -0.0223053   0.0216177   0.0780520  -0.0058825  -0.0355333
    3   0.0249728  -0.0164619   0.0031222  -0.0630609  -0.0036035   0.0180357
          235         236         237         238         239         240
    1  -0.0273617   0.0188392   0.0559085  -0.0025569   0.0082639   0.0055941
    2   0.0040165  -0.0147982  -0.0130482   0.0027510  -0.0199628   0.0275041
    3  -0.0118583  -0.0226943   0.0143429   0.0091413   0.0256437   0.0133405
          241         242         243         244         245         246
    1  -0.0303817  -0.0243617   0.0000951   0.0129276   0.0198321  -0.0220951
    2  -0.0014057   0.0853239  -0.0090584  -0.0134871   0.0160195  -0.0243830
    3  -0.0081845  -0.0637404   0.0072718  -0.0206195   0.0274963   0.0006398
          247         248         249         250         251         252
    1   0.0367081   0.0051131  -0.0229179  -0.0085904   0.0381008  -0.0970713
    2   0.0313079   0.0068401   0.0159471  -0.0224420   0.0126672  -0.0315929
    3  -0.0266059   0.0105175  -0.0119586   0.0178335   0.0200817  -0.0367985
          253         254         255         256         257         258
    1  -0.0077107  -0.0191644  -0.0236118   0.0076483   0.0347063  -0.0040797
    2  -0.0015426   0.0234072  -0.0158262  -0.0201714   0.0353823   0.0066484
    3   0.0055948   0.0151382  -0.0116065   0.0232795   0.0212247  -0.0058129
          259         260         261         262         263         264
    1   0.0100000  -0.0310614  -0.0045158   0.0275333   0.0026244   0.0086525
    2  -0.0196549  -0.0008236   0.0382550  -0.1009137   0.0115836   0.0212682
    3  -0.0231423   0.0025547  -0.0044927  -0.0334720   0.0019015  -0.0222324
          265         266         267         268         269         270
    1  -0.0103154   0.0250705   0.0032900   0.0039168   0.0005164   0.0258122
    2   0.0253926  -0.0106804  -0.0409421  -0.0019328   0.0265138  -0.0207835
    3   0.0179802   0.0151030   0.0405621  -0.0090223  -0.0139217   0.0106920
          271         272         273         274         275         276
    1  -0.0216369  -0.0929138   0.0092498   0.0370696  -0.0194573   0.0102492
    2  -0.0159920   0.0434797  -0.0009405   0.0028536  -0.0167881   0.0219682
    3  -0.0180050  -0.0377510  -0.0015866   0.0050605  -0.0031052  -0.0252000
          277         278         279         280         281         282
    1   0.0283770   0.0003711   0.0356749   0.0107909  -0.0322301  -0.1065786
    2   0.0494590  -0.0089234  -0.0010391   0.0038600  -0.0161965  -0.0039983
    3   0.0181541   0.0082849  -0.0086532   0.0309651   0.0078878  -0.0207655
          283         284         285         286         287         288
    1  -0.0007779  -0.0204634  -0.0200209   0.0309764   0.0349983   0.0014845
    2   0.0035681   0.0078385  -0.0014321   0.0112378  -0.0312579  -0.0006614
    3   0.0068971  -0.0097071   0.0254831   0.0131121   0.0210694  -0.0129042
          289         290         291         292
    1  -0.0083483  -0.0143186   0.0337794  -0.1051032
    2  -0.0231564   0.0114462   0.0031950  -0.0300575
    3  -0.0239042  -0.0075985  -0.0009970  -0.0255387
  --- DONE ESP SUMMARY ---
 Total job time:  32.88s(wall), 80.10s(cpu) 
 Thu Jul 21 08:37:46 2022

        *************************************************************
        *                                                           *
        *  Thank you very much for using Q-Chem.  Have a nice day.  *
        *                                                           *
        *************************************************************


