                  Welcome to Q-Chem
     A Quantum Leap Into The Future Of Chemistry


 Q-Chem 6.0 (devel), Q-Chem, Inc., Pleasanton, CA (2022)

 E. Epifanovsky,  A. T. B. Gilbert,  Xintian Feng,  Joonho Lee,  Yuezhi Mao,  
 N. Mardirossian,  P. Pokhilko,  A. White,  M. Wormit,  M. P. Coons,  
 A. L. Dempwolff,  Zhengting Gan,  D. Hait,  P. R. Horn,  L. D. Jacobson,  
 I. Kaliman,  J. Kussmann,  A. W. Lange,  Ka Un Lao,  D. S. Levine,  Jie Liu,  
 S. C. McKenzie,  A. F. Morrison,  K. Nanda,  F. Plasser,  D. R. Rehn,  
 M. L. Vidal,  Zhi-Qiang You,  Ying Zhu,  B. Alam,  B. Albrecht,  
 A. Aldossary,  E. Alguire,  J. H. Andersen,  V. Athavale,  D. Barton,  
 K. Begam,  A. Behn,  N. Bellonzi,  Y. A. Bernard,  E. J. Berquist,  
 H. Burton,  A. Carreras,  K. Carter-Fenk,  Romit Chakraborty,  
 Chandrima Chakravarty,  Junhan Chen,  A. D. Chien,  K. D. Closser,  
 V. Cofer-Shabica,  L. Cunha,  S. Dasgupta,  Jia Deng,  M. de Wergifosse,  
 M. Diedenhofen,  Hainam Do,  S. Ehlert,  Po-Tung Fang,  S. Fatehi,  
 Qingguo Feng,  T. Friedhoff,  B. Ganoe,  J. Gayvert,  Qinghui Ge,  
 G. Gidofalvi,  M. Goldey,  J. Gomes,  C. Gonzalez-Espinoza,  S. Gulania,  
 A. Gunina,  J. A. Gyamfi,  M. W. D. Hanson-Heine,  P. H. P. Harbach,  
 A. W. Hauser,  M. F. Herbst,  M. Hernandez Vera,  M. Hodecker,  
 Z. C. Holden,  S. Houck,  Xunkun Huang,  Kerwin Hui,  B. C. Huynh,  
 K. Ikeda,  M. Ivanov,  Hyunjun Ji,  Zuxin Jin,  Hanjie Jiang,  B. Kaduk,  
 S. Kaehler,  R. Kang,  K. Khistyaev,  Jaehoon Kim,  Yongbin Kim,  
 P. Klunzinger,  Z. Koczor-Benda,  Joong Hoon Koh,  D. Kosenkov,  
 Saikiran Kotaru,  L. Koulias,  T. Kowalczyk,  C. M. Krauter,  K. Kue,  
 A. Kunitsa,  T. Kus,  A. Landau,  K. V. Lawler,  D. Lefrancois,  S. Lehtola,  
 Rain Li,  Shaozhi Li,  Yi-Pei Li,  Jiashu Liang,  M. Liebenthal,  
 Hung-Hsuan Lin,  You-Sheng Lin,  Fenglai Liu,  Kuan-Yu Liu,  
 M. Loipersberger,  A. Luenser,  C. Malbon,  A. Manjanath,  P. Manohar,  
 E. Mansoor,  S. F. Manzer,  Shan-Ping Mao,  A. V. Marenich,  T. Markovich,  
 S. Mason,  F. Matz,  S. A. Maurer,  P. F. McLaughlin,  M. F. S. J. Menger,  
 J.-M. Mewes,  S. A. Mewes,  P. Morgante,  Mohammad Mostafanejad,  
 J. W. Mullinax,  K. J. Oosterbaan,  G. Paran,  V. Parravicini,  
 Alexander C. Paul,  Suranjan K. Paul,  F. Pavosevic,  Zheng Pei,  S. Prager,  
 E. I. Proynov,  E. Ramos,  B. Rana,  A. E. Rask,  A. Rettig,  R. M. Richard,  
 F. Rob,  E. Rossomme,  T. Scheele,  M. Scheurer,  M. Schneider,  
 P. E. Schneider,  N. Sergueev,  S. M. Sharada,  Hengyuan Shen,  
 W. Skomorowski,  D. W. Small,  C. J. Stein,  Yingli Su,  Yu-Chuan Su,  
 E. J. Sundstrom,  Zhen Tao,  J. Thirman,  Hung-Yi Tsai,  T. Tsuchimochi,  
 N. M. Tubman,  C. Utku,  S. P. Veccham,  O. Vydrov,  J. Wenzel,  
 Jonathan Wong,  J. Witte,  A. Yamada,  Chou-Hsun Yang,  Kun Yao,  
 S. Yeganeh,  S. R. Yost,  A. Zech,  F. Zeller,  Igor Ying Zhang,  
 Xing Zhang,  Yu Zhang,  D. Zuev,  A. Aspuru-Guzik,  A. T. Bell,  
 N. A. Besley,  K. B. Bravaya,  B. R. Brooks,  D. Casanova,  Jeng-Da Chai,  
 Hsing-Ta Chen,  S. Coriani,  C. J. Cramer,  A. E. DePrince, III,  
 R. A. DiStasio Jr.,  A. Dreuw,  B. D. Dunietz,  T. R. Furlani,  
 W. A. Goddard III,  S. Grimme,  S. Hammes-Schiffer,  T. Head-Gordon,  
 W. J. Hehre,  Chao-Ping Hsu,  T.-C. Jagau,  Yousung Jung,  A. Klamt,  
 Jing Kong,  D. S. Lambrecht,  Xiangyuan Li,  WanZhen Liang,  N. J. Mayhall,  
 C. W. McCurdy,  J. B. Neaton,  T. Neudecker,  C. Ochsenfeld,  
 J. A. Parkhill,  R. Peverati,  V. A. Rassolov,  Haisheng Ren,  Yihan Shao,  
 L. V. Slipchenko,  R. P. Steele,  J. E. Subotnik,  A. J. W. Thom,  
 A. Tkatchenko,  D. G. Truhlar,  T. Van Voorhis,  Fan Wang,  
 T. A. Wesolowski,  K. B. Whaley,  H. L. Woodcock III,  P. M. Zimmerman,  
 S. Faraji,  P. M. W. Gill,  M. Head-Gordon,  J. M. Herbert,  A. I. Krylov

 Contributors to earlier versions of Q-Chem not listed above: 
 R. D. Adamson,  B. Austin,  R. Baer,  J. Baker,  G. J. O. Beran,  
 K. Brandhorst,  S. T. Brown,  E. F. C. Byrd,  Arup K. Chakraborty,  
 G. K. L. Chan,  Chun-Min Chang,  Yunqing Chen,  C.-L. Cheng,  
 Siu Hung Chien,  D. M. Chipman,  D. L. Crittenden,  H. Dachsel,  
 R. J. Doerksen,  A. D. Dutoi,  R. G. Edgar,  J. Fosso-Tande,  
 L. Fusti-Molnar,  D. Ghosh,  A. Ghysels,  A. Golubeva-Zadorozhnaya,  
 J. Gonthier,  M. S. Gordon,  S. R. Gwaltney,  G. Hawkins,  J. E. Herr,  
 A. Heyden,  S. Hirata,  E. G. Hohenstein,  G. Kedziora,  F. J. Keil,  
 C. Kelley,  Jihan Kim,  R. A. King,  R. Z. Khaliullin,  P. P. Korambath,  
 W. Kurlancheek,  A. Laurent,  A. M. Lee,  M. S. Lee,  S. V. Levchenko,  
 Ching Yeh Lin,  D. Liotard,  E. Livshits,  R. C. Lochan,  I. Lotan,  
 L. A. Martinez-Martinez,  P. E. Maslen,  N. Nair,  D. P. O'Neill,  
 D. Neuhauser,  E. Neuscamman,  C. M. Oana,  R. Olivares-Amaya,  R. Olson,  
 T. M. Perrine,  B. Peters,  P. A. Pieniazek,  A. Prociuk,  Y. M. Rhee,  
 J. Ritchie,  M. A. Rohrdanz,  E. Rosta,  N. J. Russ,  H. F. Schaefer III,  
 M. W. Schmidt,  N. E. Schultz,  S. Sharma,  N. Shenvi,  C. D. Sherrill,  
 A. C. Simmonett,  A. Sodt,  T. Stein,  D. Stuck,  K. S. Thanthiriwatte,  
 V. Vanovschi,  L. Vogt,  Tao Wang,  A. Warshel,  M. A. Watson,  
 C. F. Williams,  Q. Wu,  X. Xu,  Jun Yang,  W. Zhang,  Yan Zhao

   Please cite Q-Chem as follows:
  "Software for the frontiers of quantum chemistry:
   An overview of developments in the Q-Chem 5 package"
   J. Chem. Phys. 155, 084801 (2021)
   https://doi.org/10.1063/5.0055522 (open access)

 Q-Chem 6.0.0 for Intel X86 EM64T Linux

 Parts of Q-Chem use Armadillo 9.900.5 (Nocturnal Misbehaviour).
 http://arma.sourceforge.net/

 Q-Chem begins on Thu Jul 21 03:14:53 2022  

 Host: nid00539
0

     Scratch files written to /global/cscratch1/sd/ymao90/r7.00_frame_0077_spade_B3LYP_dp20220721031332//
 Processing $rem in /global/homes/y/ymao90/my_qchem/qchem_embedding_5p4/config/preferences:
 Processing $rem in /global/homes/y/ymao90/.qchemrc:
 No nuclear gradient supported for projection-based embedding or EMFT. Set max ideriv = 0.

 Checking the input file for inconsistencies... 	...done.

--------------------------------------------------------------
User input:
--------------------------------------------------------------
$molecule
0 1
--
0 1
C    31.30200   26.11300   27.30300  
C    29.88100   26.45700   27.77800  
C    28.89000   25.32600   27.45500  
C    29.31200   23.93200   27.94800  
C    30.77800   23.61700   27.60900  
C    31.70700   24.78800   27.96900  
H    27.91900   25.62700   27.86700  
H    29.88500   26.58000   28.86800  
H    31.31400   25.98300   26.21400  
H    31.96800   26.90900   27.65800  
H    29.19700   23.78500   29.02900  
H    28.68200   23.20300   27.42400  
H    31.04700   22.66000   28.07200  
H    30.89500   23.54400   26.52100  
H    31.60200   25.01900   29.03600  
H    32.74600   24.51000   27.75200  
H    28.70200   25.38500   26.37600  
N    29.42000   27.73200   27.23200  
H    28.88400   27.64200   26.37700  
C    29.23400   28.86200   28.00000  
H    28.47700   29.54800   27.57900  
O    29.90600   29.12300   28.98300  
--
0 1
C    27.13800   30.86300   25.58000  
H    26.24800   30.55800   25.02400  
H    27.95400   30.30200   25.11600  
H    26.95900   30.54300   26.61000  
S    27.55700   32.59500   25.27900  
C    26.61300   33.16800   26.71000  
H    25.66000   32.65300   26.85400  
H    27.24600   33.01200   27.58700  
H    26.57700   34.24800   26.54400  
O    26.59500   33.09700   24.24800  
C    32.41600   31.30300   31.09200  
H    31.53400   31.77200   31.53600  
H    32.26000   30.74000   30.16800  
H    32.81400   30.57600   31.80400  
S    33.76700   32.48900   30.90800  
C    33.26300   33.58900   32.25000  
H    33.11200   32.93700   33.11400  
H    33.99600   34.34100   32.55500  
H    32.28800   34.06900   32.13100  
O    33.37000   33.40700   29.79500  
C    28.89500   25.84000   31.71500  
H    28.43600   26.14800   32.65800  
H    29.38900   24.88000   31.88400  
H    29.53500   26.55500   31.19300  
S    27.57200   25.50400   30.53200  
C    26.98000   27.21000   30.48000  
H    27.01900   27.63600   31.48500  
H    27.63100   27.78600   29.81600  
H    25.91600   27.12300   30.24900  
O    26.59700   24.76300   31.39400  
C    34.98500   22.19300   34.28000  
H    34.74500   21.13000   34.19400  
H    36.07600   22.26000   34.30200  
H    34.57000   22.62300   35.19500  
S    34.34500   23.10300   32.85600  
C    35.56500   22.35100   31.75500  
H    35.17200   22.19300   30.74800  
H    36.45000   22.99200   31.71600  
H    35.65600   21.30100   32.04500  
O    34.87100   24.46800   33.17300  
C    25.66800   21.17700   32.41800  
H    25.36400   21.31000   31.37700  
H    26.51400   21.84100   32.61400  
H    26.03900   20.15200   32.49600  
S    24.34300   21.45100   33.61500  
C    24.26600   23.25400   33.71000  
H    25.20100   23.67400   34.09000  
H    24.18500   23.58700   32.67200  
H    23.39100   23.51700   34.30900  
O    24.91300   21.20100   34.97700  
C    27.35100   31.85700   21.31400  
H    26.31200   31.56100   21.15500  
H    27.26800   32.83600   21.79300  
H    27.92500   31.91200   20.38500  
S    28.06600   30.60100   22.39900  
C    29.73000   31.25500   22.13100  
H    30.03700   31.31000   21.08400  
H    29.68000   32.20800   22.66500  
H    30.37400   30.55900   22.67500  
O    28.22400   29.40100   21.51900  
C    30.56300   19.19800   23.20700  
H    29.67200   19.53100   22.66800  
H    30.25800   19.23200   24.25700  
H    31.43000   19.85000   23.07600  
S    30.93700   17.53900   22.59700  
C    31.57900   16.76600   24.09900  
H    30.95000   16.95800   24.97200  
H    31.72800   15.68800   23.99800  
H    32.54400   17.26100   24.23100  
O    32.15800   17.62800   21.73600  
C    32.63000   17.87700   31.16300  
H    32.23500   17.15200   31.87900  
H    31.91800   18.61800   30.79000  
H    33.09900   17.41800   30.28800  
S    33.78600   18.78800   32.21100  
C    32.85000   18.79800   33.75700  
H    33.32600   19.53800   34.40400  
H    31.78000   18.96400   33.60500  
H    32.82500   17.79700   34.19500  
O    33.56100   20.20200   31.77300  
C    29.38100   19.06500   27.31300  
H    29.79200   19.96500   26.84900  
H    29.89600   18.77600   28.23300  
H    29.55800   18.18600   26.68800  
S    27.64300   19.25900   27.76900  
C    27.78300   20.49100   29.08300  
H    28.26800   19.93400   29.88800  
H    28.42900   21.31900   28.77900  
H    26.78900   20.82400   29.39400  
O    27.39600   17.98100   28.50900  
C    29.75000   34.55500   30.33800  
H    29.92700   33.52800   30.66800  
H    29.46900   34.65800   29.28700  
H    30.59400   35.20500   30.58500  
S    28.53600   35.26600   31.47200  
C    28.79700   36.97200   30.93600  
H    28.47700   37.16200   29.90800  
H    28.11000   37.57200   31.53900  
H    29.86300   37.21100   30.94800  
O    29.03600   35.15600   32.87900  
C    31.02700   21.94800   33.01400  
H    31.37000   21.29400   33.82000  
H    31.73900   21.76700   32.20500  
H    31.08200   23.02200   33.21000  
S    29.34000   21.54800   32.50600  
C    28.63000   22.05600   34.08900  
H    29.30700   21.87100   34.92600  
H    28.24400   23.07700   34.04900  
H    27.82400   21.45100   34.51300  
O    29.23100   20.06000   32.39400  
C    23.64900   24.50300   28.72600  
H    22.56300   24.61400   28.67200  
H    24.00800   24.96800   29.64800  
H    23.92800   24.98000   27.78300  
S    23.91000   22.72000   28.59400  
C    25.66800   22.81200   28.18300  
H    25.84000   23.58900   27.43400  
H    26.25700   22.95000   29.09300  
H    25.96500   21.84500   27.77200  
O    23.33100   22.49000   27.23300  
C    34.52300   27.39400   26.37000  
H    34.49600   26.30800   26.25000  
H    34.93800   27.64700   27.34900  
H    33.61800   27.97700   26.18300  
S    35.72300   28.04800   25.18800  
C    37.07200   27.57500   26.29300  
H    37.11900   26.50100   26.49100  
H    38.00100   27.83600   25.78000  
H    36.92100   28.07200   27.25500  
O    35.72900   29.53800   25.33400  
C    29.75600   24.07000   21.17900  
H    29.05200   24.87200   21.41800  
H    30.73400   24.55600   21.13600  
H    29.66000   23.77700   20.13100  
S    29.49600   22.74300   22.37800  
C    30.46600   23.36100   23.77100  
H    31.22300   24.01900   23.33700  
H    29.76900   23.89400   24.42300  
H    30.94900   22.54700   24.31600  
O    30.37100   21.74100   21.69200  
C    33.90600   20.97800   28.42900  
H    34.87900   21.23900   28.00500  
H    33.27100   21.86200   28.52000  
H    34.05300   20.56300   29.42900  
S    33.10200   19.85400   27.26400  
C    34.52000   18.74000   27.38500  
H    34.71500   18.64300   28.45600  
H    34.25400   17.77200   26.95100  
H    35.34600   19.18700   26.82600  
O    33.19600   20.47700   25.90600  
C    31.92400   25.06300   36.56400  
H    32.95700   24.94500   36.22700  
H    31.69400   26.00500   37.07000  
H    31.66800   24.16300   37.12900  
S    31.05500   24.93400   34.98600  
C    31.82100   26.38200   34.22200  
H    32.81400   26.01300   33.95000  
H    31.35400   26.68400   33.28100  
H    31.80400   27.23100   34.90900  
O    29.61300   25.25800   35.22400  
C    32.84400   26.83700   23.01900  
H    33.85100   26.96800   22.61300  
H    32.93900   27.33100   23.98900  
H    32.66100   25.77100   23.18100  
S    31.56500   27.70600   22.08400  
C    30.13700   27.17000   23.05400  
H    30.19600   26.08200   22.96800  
H    30.32600   27.54700   24.06200  
H    29.15900   27.52700   22.72200  
O    31.41300   26.80100   20.90200  
C    25.72100   25.78700   25.58100  
H    24.63400   25.72300   25.48300  
H    26.23500   24.92700   25.14400  
H    25.92700   25.81200   26.65400  
S    26.23600   27.37800   24.89500  
C    26.29500   26.91600   23.14900  
H    25.23800   26.82800   22.88500  
H    26.69500   27.78400   22.61700  
H    26.86000   25.99400   22.99300  
O    27.67900   27.61100   25.21800  
C    36.15500   22.22000   24.66800  
H    35.15300   22.12000   25.09300  
H    36.44300   21.28400   24.18200  
H    36.83000   22.61700   25.43100  
S    35.78200   23.49500   23.44300  
C    37.49300   23.82800   22.96900  
H    37.43900   24.68200   22.28800  
H    38.15900   24.04900   23.80700  
H    37.88400   23.05700   22.30000  
O    35.50600   24.72600   24.24800  
C    24.05600   31.76300   32.84100  
H    24.91900   31.30500   33.32900  
H    24.22200   32.79100   32.50700  
H    23.16300   31.74100   33.47100  
S    23.64700   30.83000   31.34900  
C    25.12100   31.25100   30.39100  
H    24.73500   31.39600   29.37900  
H    25.68500   32.08500   30.81800  
H    25.75300   30.36300   30.47400  
O    22.65500   31.73100   30.68200  
C    36.00000   24.31000   28.05000  
H    35.08500   24.03700   28.58400  
H    36.14600   25.35500   28.33400  
H    35.86900   24.12900   26.98000  
S    37.39400   23.31200   28.62100  
C    38.69200   24.00000   27.56900  
H    39.61000   23.41200   27.64600  
H    38.36800   23.95300   26.52600  
H    38.86500   25.02100   27.91900  
O    37.15200   22.02200   27.90100  
C    22.84500   28.06200   28.15000  
H    23.41900   27.53900   28.92000  
H    21.97000   28.44500   28.68000  
H    22.64200   27.44300   27.27100  
S    23.80400   29.50200   27.62800  
C    23.42000   29.40800   25.86500  
H    22.43700   29.81700   25.62100  
H    24.19100   30.03900   25.41700  
H    23.57600   28.37100   25.55300  
O    25.22200   29.02400   27.60400  
C    31.89700   32.98200   26.56000  
H    32.96200   32.86800   26.34300  
H    31.33300   33.61100   25.86800  
H    31.77200   33.43300   27.54800  
S    31.07200   31.37800   26.67000  
C    32.56200   30.43100   27.05400  
H    32.30500   29.44500   27.44900  
H    33.28000   30.36800   26.23200  
H    32.85000   30.92400   27.98600  
O    30.64900   31.17800   25.24800  
C    25.18000   21.65600   25.12000  
H    24.50400   21.55900   24.26600  
H    24.92200   20.77300   25.71100  
H    25.07100   22.59000   25.67700  
S    26.87000   21.56400   24.48800  
C    26.88300   19.77500   24.23700  
H    27.95400   19.55700   24.23200  
H    26.29600   19.32600   25.04300  
H    26.47800   19.64100   23.23000  
O    27.74100   21.76000   25.68900  
C    28.05000   32.02600   33.15700  
H    27.29700   32.70600   33.56200  
H    29.00300   32.52300   33.35500  
H    27.80800   31.84300   32.10600  
S    27.94200   30.53600   34.17300  
C    29.30500   29.51700   33.56300  
H    29.18600   28.59000   34.13000  
H    29.13700   29.28000   32.50900  
H    30.31300   29.93300   33.63100  
O    26.76300   29.90800   33.49800  
C    24.16300   24.75800   20.34800  
H    23.27800   24.15100   20.55400  
H    23.80100   25.71000   20.74400  
H    24.51200   24.92500   19.32600  
S    25.62100   24.02600   21.12600  
C    25.39600   22.42500   20.32000  
H    26.12500   21.82500   20.87200  
H    24.37400   22.14300   20.58500  
H    25.51900   22.44700   19.23400  
O    25.24600   23.85400   22.56500  
C    34.76300   26.58100   30.33800  
H    34.49800   25.90800   31.15700  
H    34.57300   26.20000   29.33200  
H    35.80800   26.88900   30.43200  
S    33.73900   28.06100   30.49700  
C    34.35300   28.37400   32.16700  
H    34.72000   27.44300   32.60700  
H    35.06900   29.19200   32.28100  
H    33.49100   28.73500   32.73300  
O    32.39600   27.46500   30.78600  
$end

$rem
JOBTYPE  SP
METHOD  B3LYP
BASIS  6-31+G(D)
SYMMETRY  FALSE
SYM_IGNORE  TRUE
MEM_TOTAL  12000
MEM_STATIC  4000
BASIS_LIN_DEP_THRESH  6
THRESH  14
SCF_CONVERGENCE  8
FD_MAT_VEC_PROD  FALSE
XC_GRID  000075000302
NL_GRID  1
MAX_SCF_CYCLES  200
ENV_METHOD  B3LYP
GEN_SCFMAN_EMBED  TRUE
SPADE_PARTITION  TRUE
EMBEDDING_EARLY_STOP  TRUE
$end

--------------------------------------------------------------
 ----------------------------------------------------------------
             Standard Nuclear Orientation (Angstroms)
    I     Atom           X                Y                Z
 ----------------------------------------------------------------
    1      C      31.3020000000    26.1130000000    27.3030000000
    2      C      29.8810000000    26.4570000000    27.7780000000
    3      C      28.8900000000    25.3260000000    27.4550000000
    4      C      29.3120000000    23.9320000000    27.9480000000
    5      C      30.7780000000    23.6170000000    27.6090000000
    6      C      31.7070000000    24.7880000000    27.9690000000
    7      H      27.9190000000    25.6270000000    27.8670000000
    8      H      29.8850000000    26.5800000000    28.8680000000
    9      H      31.3140000000    25.9830000000    26.2140000000
   10      H      31.9680000000    26.9090000000    27.6580000000
   11      H      29.1970000000    23.7850000000    29.0290000000
   12      H      28.6820000000    23.2030000000    27.4240000000
   13      H      31.0470000000    22.6600000000    28.0720000000
   14      H      30.8950000000    23.5440000000    26.5210000000
   15      H      31.6020000000    25.0190000000    29.0360000000
   16      H      32.7460000000    24.5100000000    27.7520000000
   17      H      28.7020000000    25.3850000000    26.3760000000
   18      N      29.4200000000    27.7320000000    27.2320000000
   19      H      28.8840000000    27.6420000000    26.3770000000
   20      C      29.2340000000    28.8620000000    28.0000000000
   21      H      28.4770000000    29.5480000000    27.5790000000
   22      O      29.9060000000    29.1230000000    28.9830000000
   23      C      27.1380000000    30.8630000000    25.5800000000
   24      H      26.2480000000    30.5580000000    25.0240000000
   25      H      27.9540000000    30.3020000000    25.1160000000
   26      H      26.9590000000    30.5430000000    26.6100000000
   27      S      27.5570000000    32.5950000000    25.2790000000
   28      C      26.6130000000    33.1680000000    26.7100000000
   29      H      25.6600000000    32.6530000000    26.8540000000
   30      H      27.2460000000    33.0120000000    27.5870000000
   31      H      26.5770000000    34.2480000000    26.5440000000
   32      O      26.5950000000    33.0970000000    24.2480000000
   33      C      32.4160000000    31.3030000000    31.0920000000
   34      H      31.5340000000    31.7720000000    31.5360000000
   35      H      32.2600000000    30.7400000000    30.1680000000
   36      H      32.8140000000    30.5760000000    31.8040000000
   37      S      33.7670000000    32.4890000000    30.9080000000
   38      C      33.2630000000    33.5890000000    32.2500000000
   39      H      33.1120000000    32.9370000000    33.1140000000
   40      H      33.9960000000    34.3410000000    32.5550000000
   41      H      32.2880000000    34.0690000000    32.1310000000
   42      O      33.3700000000    33.4070000000    29.7950000000
   43      C      28.8950000000    25.8400000000    31.7150000000
   44      H      28.4360000000    26.1480000000    32.6580000000
   45      H      29.3890000000    24.8800000000    31.8840000000
   46      H      29.5350000000    26.5550000000    31.1930000000
   47      S      27.5720000000    25.5040000000    30.5320000000
   48      C      26.9800000000    27.2100000000    30.4800000000
   49      H      27.0190000000    27.6360000000    31.4850000000
   50      H      27.6310000000    27.7860000000    29.8160000000
   51      H      25.9160000000    27.1230000000    30.2490000000
   52      O      26.5970000000    24.7630000000    31.3940000000
   53      C      34.9850000000    22.1930000000    34.2800000000
   54      H      34.7450000000    21.1300000000    34.1940000000
   55      H      36.0760000000    22.2600000000    34.3020000000
   56      H      34.5700000000    22.6230000000    35.1950000000
   57      S      34.3450000000    23.1030000000    32.8560000000
   58      C      35.5650000000    22.3510000000    31.7550000000
   59      H      35.1720000000    22.1930000000    30.7480000000
   60      H      36.4500000000    22.9920000000    31.7160000000
   61      H      35.6560000000    21.3010000000    32.0450000000
   62      O      34.8710000000    24.4680000000    33.1730000000
   63      C      25.6680000000    21.1770000000    32.4180000000
   64      H      25.3640000000    21.3100000000    31.3770000000
   65      H      26.5140000000    21.8410000000    32.6140000000
   66      H      26.0390000000    20.1520000000    32.4960000000
   67      S      24.3430000000    21.4510000000    33.6150000000
   68      C      24.2660000000    23.2540000000    33.7100000000
   69      H      25.2010000000    23.6740000000    34.0900000000
   70      H      24.1850000000    23.5870000000    32.6720000000
   71      H      23.3910000000    23.5170000000    34.3090000000
   72      O      24.9130000000    21.2010000000    34.9770000000
   73      C      27.3510000000    31.8570000000    21.3140000000
   74      H      26.3120000000    31.5610000000    21.1550000000
   75      H      27.2680000000    32.8360000000    21.7930000000
   76      H      27.9250000000    31.9120000000    20.3850000000
   77      S      28.0660000000    30.6010000000    22.3990000000
   78      C      29.7300000000    31.2550000000    22.1310000000
   79      H      30.0370000000    31.3100000000    21.0840000000
   80      H      29.6800000000    32.2080000000    22.6650000000
   81      H      30.3740000000    30.5590000000    22.6750000000
   82      O      28.2240000000    29.4010000000    21.5190000000
   83      C      30.5630000000    19.1980000000    23.2070000000
   84      H      29.6720000000    19.5310000000    22.6680000000
   85      H      30.2580000000    19.2320000000    24.2570000000
   86      H      31.4300000000    19.8500000000    23.0760000000
   87      S      30.9370000000    17.5390000000    22.5970000000
   88      C      31.5790000000    16.7660000000    24.0990000000
   89      H      30.9500000000    16.9580000000    24.9720000000
   90      H      31.7280000000    15.6880000000    23.9980000000
   91      H      32.5440000000    17.2610000000    24.2310000000
   92      O      32.1580000000    17.6280000000    21.7360000000
   93      C      32.6300000000    17.8770000000    31.1630000000
   94      H      32.2350000000    17.1520000000    31.8790000000
   95      H      31.9180000000    18.6180000000    30.7900000000
   96      H      33.0990000000    17.4180000000    30.2880000000
   97      S      33.7860000000    18.7880000000    32.2110000000
   98      C      32.8500000000    18.7980000000    33.7570000000
   99      H      33.3260000000    19.5380000000    34.4040000000
  100      H      31.7800000000    18.9640000000    33.6050000000
  101      H      32.8250000000    17.7970000000    34.1950000000
  102      O      33.5610000000    20.2020000000    31.7730000000
  103      C      29.3810000000    19.0650000000    27.3130000000
  104      H      29.7920000000    19.9650000000    26.8490000000
  105      H      29.8960000000    18.7760000000    28.2330000000
  106      H      29.5580000000    18.1860000000    26.6880000000
  107      S      27.6430000000    19.2590000000    27.7690000000
  108      C      27.7830000000    20.4910000000    29.0830000000
  109      H      28.2680000000    19.9340000000    29.8880000000
  110      H      28.4290000000    21.3190000000    28.7790000000
  111      H      26.7890000000    20.8240000000    29.3940000000
  112      O      27.3960000000    17.9810000000    28.5090000000
  113      C      29.7500000000    34.5550000000    30.3380000000
  114      H      29.9270000000    33.5280000000    30.6680000000
  115      H      29.4690000000    34.6580000000    29.2870000000
  116      H      30.5940000000    35.2050000000    30.5850000000
  117      S      28.5360000000    35.2660000000    31.4720000000
  118      C      28.7970000000    36.9720000000    30.9360000000
  119      H      28.4770000000    37.1620000000    29.9080000000
  120      H      28.1100000000    37.5720000000    31.5390000000
  121      H      29.8630000000    37.2110000000    30.9480000000
  122      O      29.0360000000    35.1560000000    32.8790000000
  123      C      31.0270000000    21.9480000000    33.0140000000
  124      H      31.3700000000    21.2940000000    33.8200000000
  125      H      31.7390000000    21.7670000000    32.2050000000
  126      H      31.0820000000    23.0220000000    33.2100000000
  127      S      29.3400000000    21.5480000000    32.5060000000
  128      C      28.6300000000    22.0560000000    34.0890000000
  129      H      29.3070000000    21.8710000000    34.9260000000
  130      H      28.2440000000    23.0770000000    34.0490000000
  131      H      27.8240000000    21.4510000000    34.5130000000
  132      O      29.2310000000    20.0600000000    32.3940000000
  133      C      23.6490000000    24.5030000000    28.7260000000
  134      H      22.5630000000    24.6140000000    28.6720000000
  135      H      24.0080000000    24.9680000000    29.6480000000
  136      H      23.9280000000    24.9800000000    27.7830000000
  137      S      23.9100000000    22.7200000000    28.5940000000
  138      C      25.6680000000    22.8120000000    28.1830000000
  139      H      25.8400000000    23.5890000000    27.4340000000
  140      H      26.2570000000    22.9500000000    29.0930000000
  141      H      25.9650000000    21.8450000000    27.7720000000
  142      O      23.3310000000    22.4900000000    27.2330000000
  143      C      34.5230000000    27.3940000000    26.3700000000
  144      H      34.4960000000    26.3080000000    26.2500000000
  145      H      34.9380000000    27.6470000000    27.3490000000
  146      H      33.6180000000    27.9770000000    26.1830000000
  147      S      35.7230000000    28.0480000000    25.1880000000
  148      C      37.0720000000    27.5750000000    26.2930000000
  149      H      37.1190000000    26.5010000000    26.4910000000
  150      H      38.0010000000    27.8360000000    25.7800000000
  151      H      36.9210000000    28.0720000000    27.2550000000
  152      O      35.7290000000    29.5380000000    25.3340000000
  153      C      29.7560000000    24.0700000000    21.1790000000
  154      H      29.0520000000    24.8720000000    21.4180000000
  155      H      30.7340000000    24.5560000000    21.1360000000
  156      H      29.6600000000    23.7770000000    20.1310000000
  157      S      29.4960000000    22.7430000000    22.3780000000
  158      C      30.4660000000    23.3610000000    23.7710000000
  159      H      31.2230000000    24.0190000000    23.3370000000
  160      H      29.7690000000    23.8940000000    24.4230000000
  161      H      30.9490000000    22.5470000000    24.3160000000
  162      O      30.3710000000    21.7410000000    21.6920000000
  163      C      33.9060000000    20.9780000000    28.4290000000
  164      H      34.8790000000    21.2390000000    28.0050000000
  165      H      33.2710000000    21.8620000000    28.5200000000
  166      H      34.0530000000    20.5630000000    29.4290000000
  167      S      33.1020000000    19.8540000000    27.2640000000
  168      C      34.5200000000    18.7400000000    27.3850000000
  169      H      34.7150000000    18.6430000000    28.4560000000
  170      H      34.2540000000    17.7720000000    26.9510000000
  171      H      35.3460000000    19.1870000000    26.8260000000
  172      O      33.1960000000    20.4770000000    25.9060000000
  173      C      31.9240000000    25.0630000000    36.5640000000
  174      H      32.9570000000    24.9450000000    36.2270000000
  175      H      31.6940000000    26.0050000000    37.0700000000
  176      H      31.6680000000    24.1630000000    37.1290000000
  177      S      31.0550000000    24.9340000000    34.9860000000
  178      C      31.8210000000    26.3820000000    34.2220000000
  179      H      32.8140000000    26.0130000000    33.9500000000
  180      H      31.3540000000    26.6840000000    33.2810000000
  181      H      31.8040000000    27.2310000000    34.9090000000
  182      O      29.6130000000    25.2580000000    35.2240000000
  183      C      32.8440000000    26.8370000000    23.0190000000
  184      H      33.8510000000    26.9680000000    22.6130000000
  185      H      32.9390000000    27.3310000000    23.9890000000
  186      H      32.6610000000    25.7710000000    23.1810000000
  187      S      31.5650000000    27.7060000000    22.0840000000
  188      C      30.1370000000    27.1700000000    23.0540000000
  189      H      30.1960000000    26.0820000000    22.9680000000
  190      H      30.3260000000    27.5470000000    24.0620000000
  191      H      29.1590000000    27.5270000000    22.7220000000
  192      O      31.4130000000    26.8010000000    20.9020000000
  193      C      25.7210000000    25.7870000000    25.5810000000
  194      H      24.6340000000    25.7230000000    25.4830000000
  195      H      26.2350000000    24.9270000000    25.1440000000
  196      H      25.9270000000    25.8120000000    26.6540000000
  197      S      26.2360000000    27.3780000000    24.8950000000
  198      C      26.2950000000    26.9160000000    23.1490000000
  199      H      25.2380000000    26.8280000000    22.8850000000
  200      H      26.6950000000    27.7840000000    22.6170000000
  201      H      26.8600000000    25.9940000000    22.9930000000
  202      O      27.6790000000    27.6110000000    25.2180000000
  203      C      36.1550000000    22.2200000000    24.6680000000
  204      H      35.1530000000    22.1200000000    25.0930000000
  205      H      36.4430000000    21.2840000000    24.1820000000
  206      H      36.8300000000    22.6170000000    25.4310000000
  207      S      35.7820000000    23.4950000000    23.4430000000
  208      C      37.4930000000    23.8280000000    22.9690000000
  209      H      37.4390000000    24.6820000000    22.2880000000
  210      H      38.1590000000    24.0490000000    23.8070000000
  211      H      37.8840000000    23.0570000000    22.3000000000
  212      O      35.5060000000    24.7260000000    24.2480000000
  213      C      24.0560000000    31.7630000000    32.8410000000
  214      H      24.9190000000    31.3050000000    33.3290000000
  215      H      24.2220000000    32.7910000000    32.5070000000
  216      H      23.1630000000    31.7410000000    33.4710000000
  217      S      23.6470000000    30.8300000000    31.3490000000
  218      C      25.1210000000    31.2510000000    30.3910000000
  219      H      24.7350000000    31.3960000000    29.3790000000
  220      H      25.6850000000    32.0850000000    30.8180000000
  221      H      25.7530000000    30.3630000000    30.4740000000
  222      O      22.6550000000    31.7310000000    30.6820000000
  223      C      36.0000000000    24.3100000000    28.0500000000
  224      H      35.0850000000    24.0370000000    28.5840000000
  225      H      36.1460000000    25.3550000000    28.3340000000
  226      H      35.8690000000    24.1290000000    26.9800000000
  227      S      37.3940000000    23.3120000000    28.6210000000
  228      C      38.6920000000    24.0000000000    27.5690000000
  229      H      39.6100000000    23.4120000000    27.6460000000
  230      H      38.3680000000    23.9530000000    26.5260000000
  231      H      38.8650000000    25.0210000000    27.9190000000
  232      O      37.1520000000    22.0220000000    27.9010000000
  233      C      22.8450000000    28.0620000000    28.1500000000
  234      H      23.4190000000    27.5390000000    28.9200000000
  235      H      21.9700000000    28.4450000000    28.6800000000
  236      H      22.6420000000    27.4430000000    27.2710000000
  237      S      23.8040000000    29.5020000000    27.6280000000
  238      C      23.4200000000    29.4080000000    25.8650000000
  239      H      22.4370000000    29.8170000000    25.6210000000
  240      H      24.1910000000    30.0390000000    25.4170000000
  241      H      23.5760000000    28.3710000000    25.5530000000
  242      O      25.2220000000    29.0240000000    27.6040000000
  243      C      31.8970000000    32.9820000000    26.5600000000
  244      H      32.9620000000    32.8680000000    26.3430000000
  245      H      31.3330000000    33.6110000000    25.8680000000
  246      H      31.7720000000    33.4330000000    27.5480000000
  247      S      31.0720000000    31.3780000000    26.6700000000
  248      C      32.5620000000    30.4310000000    27.0540000000
  249      H      32.3050000000    29.4450000000    27.4490000000
  250      H      33.2800000000    30.3680000000    26.2320000000
  251      H      32.8500000000    30.9240000000    27.9860000000
  252      O      30.6490000000    31.1780000000    25.2480000000
  253      C      25.1800000000    21.6560000000    25.1200000000
  254      H      24.5040000000    21.5590000000    24.2660000000
  255      H      24.9220000000    20.7730000000    25.7110000000
  256      H      25.0710000000    22.5900000000    25.6770000000
  257      S      26.8700000000    21.5640000000    24.4880000000
  258      C      26.8830000000    19.7750000000    24.2370000000
  259      H      27.9540000000    19.5570000000    24.2320000000
  260      H      26.2960000000    19.3260000000    25.0430000000
  261      H      26.4780000000    19.6410000000    23.2300000000
  262      O      27.7410000000    21.7600000000    25.6890000000
  263      C      28.0500000000    32.0260000000    33.1570000000
  264      H      27.2970000000    32.7060000000    33.5620000000
  265      H      29.0030000000    32.5230000000    33.3550000000
  266      H      27.8080000000    31.8430000000    32.1060000000
  267      S      27.9420000000    30.5360000000    34.1730000000
  268      C      29.3050000000    29.5170000000    33.5630000000
  269      H      29.1860000000    28.5900000000    34.1300000000
  270      H      29.1370000000    29.2800000000    32.5090000000
  271      H      30.3130000000    29.9330000000    33.6310000000
  272      O      26.7630000000    29.9080000000    33.4980000000
  273      C      24.1630000000    24.7580000000    20.3480000000
  274      H      23.2780000000    24.1510000000    20.5540000000
  275      H      23.8010000000    25.7100000000    20.7440000000
  276      H      24.5120000000    24.9250000000    19.3260000000
  277      S      25.6210000000    24.0260000000    21.1260000000
  278      C      25.3960000000    22.4250000000    20.3200000000
  279      H      26.1250000000    21.8250000000    20.8720000000
  280      H      24.3740000000    22.1430000000    20.5850000000
  281      H      25.5190000000    22.4470000000    19.2340000000
  282      O      25.2460000000    23.8540000000    22.5650000000
  283      C      34.7630000000    26.5810000000    30.3380000000
  284      H      34.4980000000    25.9080000000    31.1570000000
  285      H      34.5730000000    26.2000000000    29.3320000000
  286      H      35.8080000000    26.8890000000    30.4320000000
  287      S      33.7390000000    28.0610000000    30.4970000000
  288      C      34.3530000000    28.3740000000    32.1670000000
  289      H      34.7200000000    27.4430000000    32.6070000000
  290      H      35.0690000000    29.1920000000    32.2810000000
  291      H      33.4910000000    28.7350000000    32.7330000000
  292      O      32.3960000000    27.4650000000    30.7860000000
 ----------------------------------------------------------------
 Nuclear Repulsion Energy =       48016.45330619 hartrees
 There are      602 alpha and      602 beta electrons
 Requested basis set is 6-31+G(d)
 There are 962 shells and 2681 basis functions

 Total QAlloc Memory Limit  12000 MB
 Mega-Array Size      3911 MB
 MEM_STATIC part      4000 MB

 A cutoff of  1.0D-14 yielded 176718 shell pairs
 There are   1531987 function pairs
 Smallest overlap matrix eigenvalue = 4.03E-07
 Linear dependence detected in AO basis
 Tighter screening thresholds may be required for diffuse basis sets
 Use S2THRESH > 14 and THRESH = 14 in case of SCF convergence issues
 Number of orthogonalized atomic orbitals = 2679
 Maximum deviation from orthogonality = 2.957E-10

 Scale SEOQF with 1.000000e-03/1.000000e-03/1.000000e-03

 Standard Electronic Orientation quadrupole field applied
 Nucleus-field energy     =    -0.0000000549 hartrees
 Guess from superposition of atomic densities
 Warning:  Energy on first SCF cycle will be non-variational
 SAD guess density has 1204.000002 electrons

 -----------------------------------------------------------------------
  General SCF calculation program by
  Eric Jon Sundstrom, Paul Horn, Yuezhi Mao, Dmitri Zuev, Alec White,
  David Stuck, Shaama M.S., Shane Yost, Joonho Lee, David Small,
  Daniel Levine, Susi Lehtola, Hugh Burton, Evgeny Epifanovsky,
  Bang C. Huynh
 -----------------------------------------------------------------------
=================================================
        Doing projection-based embedding         
      F. Manby et al. JCTC, 8, 2564 (2012)       
=================================================

****************************************************
   Low-level SCF calculation for the whole system   
****************************************************
----------------------------------------------
 Summary of the low-level theory: 
 Exchange:     0.2000 Hartree-Fock + 0.0800 Slater + 0.7200 B88
 Correlation:  0.1900 VWN1RPA + 0.8100 LYP
 Using Euler-Maclaurin-Lebedev (75,302) quadrature formula
----------------------------------------------
 using 16 threads for integral computing
 -------------------------------------------------------
 OpenMP Integral computing Module                
 Release: version 1.0, May 2013, Q-Chem Inc. Pittsburgh 
 -------------------------------------------------------
 A restricted SCF calculation will be
 performed using DIIS
 SCF converges when DIIS error is below 1.0e-08
 ---------------------------------------
  Cycle       Energy         DIIS error
 ---------------------------------------
    1  -15359.9710926885      1.35e-02  
    2  -15335.8063132444      2.52e-03  
    3  -15323.4820974054      4.79e-03  
    4  -15339.8981978088      9.72e-04  
    5  -15340.6685378209      1.99e-04  
    6  -15340.6915601059      1.11e-04  
    7  -15340.6995318947      4.00e-05  
    8  -15340.7007244313      7.04e-06  
    9  -15340.7007597662      3.18e-06  
   10  -15340.7007666707      1.10e-06  
   11  -15340.7007674519      4.10e-07  
   12  -15340.7007675758      1.19e-07  
   13  -15340.7007675861      4.77e-08  
   14  -15340.7007675875      2.08e-08  
   15  -15340.7007675877      5.73e-09  Convergence criterion met
 ---------------------------------------
 SCF time:   CPU 283865.97s  wall 20279.00s 
 SCF   energy in the final basis set =   -15340.7007675877
 Total energy in the final basis set =   -15340.7007675877

****************************************************
             Start embedding calculation            
****************************************************
----------------------------------------------
 Summary of the high-level theory: 
 Exchange:     0.2000 Hartree-Fock + 0.0800 Slater + 0.7200 B88
 Correlation:  0.1900 VWN1RPA + 0.8100 LYP
 Using Euler-Maclaurin-Lebedev (75,302) quadrature formula
----------------------------------------------
Doing R-in-R Embedding Calculation
Number of fragments: 2
Embedded fragment(s): 1 
NOcc for each fragment
           35
          567
NBasis for each fragment
          197
         2484
Variational space of the embedded problem: 
NOcc (active)  = 35
NOcc (fixed)   = 567
NVir (total)   = 2077
Read converged orbitals from disk
=========================================================
       Doing SPADE partition for the orbital space       
     D. Claudino and N. Mayhall JCTC 15, 1053 (2019)     
=========================================================
SPADE singular values:
 1.0000 1.0000 1.0000 1.0000 1.0000 1.0000 1.0000 1.0000 1.0000 0.9999
 0.9998 0.9997 0.9996 0.9995 0.9995 0.9993 0.9992 0.9990 0.9982 0.9979
 0.9974 0.9968 0.9959 0.9958 0.9953 0.9951 0.9940 0.9936 0.9926 0.9910
 0.9900 0.9885 0.9880 0.9860 0.9769 0.2381 0.2213 0.1792 0.1703 0.1459
 0.1349 0.1263 0.1251 0.1178 0.1103 0.1029 0.0934 0.0767 0.0672 0.0638
 0.0584 0.0544 0.0526 0.0501 0.0486 0.0447 0.0385 0.0364 0.0343 0.0331
 0.0314 0.0290 0.0274 0.0268 0.0235 0.0223 0.0205 0.0201 0.0195 0.0188
 0.0183 0.0168 0.0160 0.0151 0.0146 0.0131 0.0123 0.0114 0.0108 0.0101
 0.0093 0.0090 0.0084 0.0083 0.0072 0.0069 0.0068 0.0063 0.0060 0.0059
 0.0057 0.0055 0.0052 0.0049 0.0046 0.0045 0.0043 0.0042 0.0040 0.0038
 0.0036 0.0035 0.0033 0.0031 0.0030 0.0029 0.0028 0.0027 0.0025 0.0024
 0.0023 0.0023 0.0021 0.0021 0.0019 0.0018 0.0018 0.0016 0.0016 0.0015
 0.0015 0.0014 0.0013 0.0013 0.0012 0.0011 0.0011 0.0011 0.0010 0.0010
 0.0010 0.0009 0.0009 0.0009 0.0008 0.0008 0.0007 0.0007 0.0007 0.0007
 0.0006 0.0006 0.0006 0.0006 0.0005 0.0005 0.0005 0.0005 0.0005 0.0004
 0.0004 0.0004 0.0004 0.0004 0.0004 0.0003 0.0003 0.0003 0.0003 0.0003
 0.0003 0.0003 0.0003 0.0002 0.0002 0.0002 0.0002 0.0002 0.0002 0.0002
 0.0002 0.0002 0.0002 0.0002 0.0002 0.0002 0.0001 0.0001 0.0001 0.0001
 0.0001 0.0001 0.0001 0.0001 0.0001 0.0001 0.0001 0.0001 0.0001 0.0001
 0.0001 0.0001 0.0001 0.0001 0.0001 0.0001 0.0000
Early stop requested; no embedded SCF will be performed

 567 environment occs will be part of frozen-core in future post-HF calculations

 --------------------------------------------------------------

                    Orbital Energies (a.u.)
 --------------------------------------------------------------

 Alpha MOs
 -- Occupied --
-89.0330 -89.0307 -89.0249 -89.0226 -89.0223 -89.0119 -89.0114 -89.0112
-89.0104 -89.0099 -89.0068 -89.0064 -89.0053 -89.0030 -89.0014 -88.9994
-88.9928 -88.9912 -88.9892 -88.9858 -88.9856 -88.9826 -88.9817 -88.9807
-88.9786 -88.9785 -88.9743 -19.1451 -19.1398 -19.1385 -19.1368 -19.1326
-19.1302 -19.1269 -19.1260 -19.1256 -19.1245 -19.1244 -19.1230 -19.1192
-19.1186 -19.1179 -19.1122 -19.1094 -19.1094 -19.1047 -19.1034 -19.0946
-19.0944 -19.0917 -19.0900 -19.0878 -19.0849 -19.0814 -10.2480 -10.2464
-10.2462 -10.2444 -10.2391 -10.2391 -10.2380 -10.2373 -10.2372 -10.2368
-10.2344 -10.2329 -10.2322 -10.2318 -10.2298 -10.2297 -10.2296 -10.2264
-10.2253 -10.2247 -10.2247 -10.2240 -10.2234 -10.2225 -10.2222 -10.2186
-10.2153 -10.2129 -10.2126 -10.2117 -10.2116 -10.2104 -10.2101 -10.2092
-10.2092 -10.2074 -10.2054 -10.2043 -10.2027 -10.2015 -10.2012 -10.1999
-10.1999 -10.1992 -10.1980 -10.1975 -10.1964 -10.1958 -10.1920 -10.1912
-10.1877 -10.1875 -10.1870 -10.1841  -8.0798  -8.0766  -8.0702  -8.0682
 -8.0680  -8.0583  -8.0575  -8.0573  -8.0564  -8.0560  -8.0524  -8.0522
 -8.0503  -8.0484  -8.0471  -8.0441  -8.0388  -8.0370  -8.0346  -8.0323
 -8.0320  -8.0282  -8.0272  -8.0271  -8.0250  -8.0238  -8.0207  -6.0443
 -6.0428  -6.0409  -6.0398  -6.0371  -6.0344  -6.0341  -6.0334  -6.0326
 -6.0323  -6.0312  -6.0311  -6.0280  -6.0257  -6.0256  -6.0226  -6.0218
 -6.0217  -6.0214  -6.0208  -6.0206  -6.0203  -6.0202  -6.0195  -6.0193
 -6.0167  -6.0166  -6.0155  -6.0155  -6.0152  -6.0151  -6.0149  -6.0146
 -6.0137  -6.0134  -6.0133  -6.0126  -6.0116  -6.0113  -6.0101  -6.0099
 -6.0099  -6.0087  -6.0075  -6.0073  -6.0061  -6.0047  -6.0032  -6.0018
 -6.0016  -6.0012  -6.0001  -5.9991  -5.9976  -5.9966  -5.9964  -5.9963
 -5.9954  -5.9950  -5.9947  -5.9926  -5.9919  -5.9915  -5.9915  -5.9913
 -5.9905  -5.9899  -5.9898  -5.9892  -5.9892  -5.9883  -5.9882  -5.9869
 -5.9857  -5.9849  -5.9849  -5.9845  -5.9840  -5.9822  -5.9813  -5.9779
 -1.0609  -1.0515  -1.0499  -1.0449  -1.0409  -1.0381  -1.0379  -1.0374
 -1.0345  -1.0344  -1.0327  -1.0324  -1.0317  -1.0266  -1.0244  -1.0224
 -1.0211  -1.0192  -1.0163  -1.0132  -1.0085  -1.0082  -1.0027  -1.0014
 -0.9988  -0.9968  -0.9968  -0.8309  -0.8268  -0.8245  -0.8240  -0.8220
 -0.8198  -0.8188  -0.8186  -0.8138  -0.8130  -0.8124  -0.8068  -0.8031
 -0.8007  -0.7989  -0.7974  -0.7951  -0.7947  -0.7939  -0.7876  -0.7838
 -0.7806  -0.7775  -0.7772  -0.7754  -0.7748  -0.7730  -0.7618  -0.7601
 -0.7507  -0.7461  -0.7451  -0.7441  -0.7439  -0.7425  -0.7414  -0.7408
 -0.7341  -0.7323  -0.7317  -0.7313  -0.7272  -0.7211  -0.7194  -0.7175
 -0.7172  -0.7167  -0.7160  -0.7147  -0.7110  -0.7093  -0.7077  -0.7052
 -0.6985  -0.6450  -0.6438  -0.6384  -0.6355  -0.6347  -0.6254  -0.6252
 -0.6241  -0.6225  -0.6207  -0.6190  -0.6188  -0.6180  -0.6154  -0.6132
 -0.6125  -0.6043  -0.6039  -0.6006  -0.5995  -0.5986  -0.5963  -0.5944
 -0.5919  -0.5916  -0.5892  -0.5878  -0.5209  -0.5162  -0.5093  -0.5057
 -0.5051  -0.5035  -0.5027  -0.5012  -0.4977  -0.4967  -0.4966  -0.4948
 -0.4931  -0.4928  -0.4923  -0.4914  -0.4903  -0.4887  -0.4866  -0.4859
 -0.4849  -0.4846  -0.4842  -0.4830  -0.4826  -0.4819  -0.4806  -0.4806
 -0.4798  -0.4790  -0.4783  -0.4769  -0.4767  -0.4766  -0.4756  -0.4745
 -0.4740  -0.4722  -0.4716  -0.4709  -0.4706  -0.4698  -0.4694  -0.4692
 -0.4678  -0.4677  -0.4670  -0.4668  -0.4667  -0.4660  -0.4648  -0.4642
 -0.4635  -0.4632  -0.4620  -0.4606  -0.4599  -0.4592  -0.4584  -0.4582
 -0.4575  -0.4570  -0.4566  -0.4551  -0.4543  -0.4535  -0.4525  -0.4519
 -0.4511  -0.4506  -0.4498  -0.4497  -0.4488  -0.4485  -0.4478  -0.4475
 -0.4463  -0.4460  -0.4458  -0.4452  -0.4446  -0.4445  -0.4432  -0.4425
 -0.4423  -0.4416  -0.4410  -0.4399  -0.4394  -0.4394  -0.4385  -0.4376
 -0.4373  -0.4363  -0.4355  -0.4351  -0.4346  -0.4329  -0.4326  -0.4319
 -0.4313  -0.4305  -0.4296  -0.4290  -0.4283  -0.4268  -0.4248  -0.4246
 -0.4237  -0.4230  -0.4202  -0.4197  -0.4195  -0.4193  -0.4174  -0.4172
 -0.4165  -0.4153  -0.4146  -0.4140  -0.4137  -0.4133  -0.4117  -0.4116
 -0.4112  -0.4112  -0.4090  -0.4087  -0.4075  -0.4069  -0.4057  -0.4054
 -0.4046  -0.4045  -0.4042  -0.4024  -0.4004  -0.3992  -0.3989  -0.3980
 -0.3979  -0.3971  -0.3957  -0.3928  -0.3919  -0.3909  -0.3895  -0.3892
 -0.3877  -0.3871  -0.3862  -0.3859  -0.3851  -0.3847  -0.3843  -0.3839
 -0.3827  -0.3824  -0.3809  -0.3808  -0.3801  -0.3795  -0.3785  -0.3782
 -0.3762  -0.3753  -0.3750  -0.3743  -0.3733  -0.3707  -0.3700  -0.3698
 -0.3687  -0.3682  -0.3667  -0.3649  -0.3632  -0.3631  -0.3614  -0.3574
 -0.3570  -0.3523  -0.3501  -0.3445  -0.3394  -0.3391  -0.3388  -0.3370
 -0.3340  -0.3090  -0.3005  -0.3004  -0.2982  -0.2936  -0.2926  -0.2901
 -0.2870  -0.2860  -0.2846  -0.2841  -0.2831  -0.2807  -0.2799  -0.2785
 -0.2745  -0.2732  -0.2712  -0.2684  -0.2671  -0.2663  -0.2654  -0.2632
 -0.2620  -0.2577  -0.2562  -0.2556  -0.2539  -0.2536  -0.2531  -0.2518
 -0.2516  -0.2502  -0.2501  -0.2492  -0.2485  -0.2472  -0.2462  -0.2450
 -0.2446  -0.2420  -0.2408  -0.2391  -0.2386  -0.2362  -0.2353  -0.2284
 -0.2262  -0.2258  -0.2181  -0.2138  -0.2128  -0.2109  -0.2092 -10.4621
-17.7811 -10.1967 -10.3293 -13.2645 -10.1847 -10.5830 -10.4133 -10.6717
 -0.9468  -0.6727  -0.8050  -0.7398  -0.7103  -0.6634  -0.5915  -0.6860
 -0.4981  -0.4635  -0.4776  -0.3758  -0.4865  -0.4612  -0.4747  -0.4727
 -0.3964  -0.4538  -0.4439  -0.3762  -0.4750  -0.4498  -0.4512  -0.4577
 -0.5369  -0.5645
 -- Virtual --
 -0.0375  -0.0360  -0.0332  -0.0315  -0.0287  -0.0283  -0.0255  -0.0248
 -0.0229  -0.0223  -0.0218  -0.0165  -0.0152  -0.0132  -0.0126  -0.0119
 -0.0109  -0.0096  -0.0083  -0.0073  -0.0070  -0.0066  -0.0061  -0.0051
 -0.0044  -0.0039  -0.0031  -0.0023  -0.0019  -0.0009   0.0004   0.0011
  0.0013   0.0027   0.0036   0.0042   0.0047   0.0061   0.0070   0.0078
  0.0083   0.0096   0.0105   0.0108   0.0116   0.0120   0.0128   0.0137
  0.0140   0.0153   0.0158   0.0161   0.0178   0.0183   0.0188   0.0194
  0.0203   0.0207   0.0212   0.0215   0.0219   0.0224   0.0231   0.0242
  0.0245   0.0253   0.0258   0.0267   0.0268   0.0273   0.0280   0.0289
  0.0291   0.0297   0.0307   0.0309   0.0319   0.0324   0.0328   0.0333
  0.0338   0.0342   0.0347   0.0355   0.0360   0.0366   0.0375   0.0377
  0.0389   0.0393   0.0398   0.0412   0.0422   0.0431   0.0433   0.0437
  0.0443   0.0448   0.0457   0.0459   0.0464   0.0470   0.0480   0.0489
  0.0496   0.0506   0.0508   0.0512   0.0518   0.0525   0.0528   0.0536
  0.0541   0.0548   0.0552   0.0562   0.0567   0.0579   0.0582   0.0589
  0.0599   0.0603   0.0606   0.0613   0.0616   0.0622   0.0624   0.0636
  0.0640   0.0651   0.0654   0.0656   0.0661   0.0664   0.0669   0.0681
  0.0688   0.0693   0.0696   0.0707   0.0710   0.0716   0.0725   0.0728
  0.0732   0.0743   0.0745   0.0756   0.0764   0.0772   0.0778   0.0783
  0.0789   0.0794   0.0798   0.0807   0.0819   0.0820   0.0823   0.0834
  0.0842   0.0846   0.0856   0.0865   0.0874   0.0880   0.0885   0.0890
  0.0896   0.0902   0.0919   0.0921   0.0926   0.0929   0.0931   0.0939
  0.0952   0.0954   0.0961   0.0969   0.0978   0.0984   0.0990   0.0994
  0.0999   0.1014   0.1020   0.1022   0.1025   0.1028   0.1041   0.1048
  0.1054   0.1062   0.1066   0.1067   0.1073   0.1083   0.1087   0.1094
  0.1104   0.1106   0.1115   0.1120   0.1127   0.1131   0.1140   0.1148
  0.1151   0.1156   0.1161   0.1166   0.1168   0.1184   0.1187   0.1199
  0.1205   0.1208   0.1212   0.1218   0.1220   0.1228   0.1234   0.1237
  0.1253   0.1259   0.1261   0.1265   0.1269   0.1275   0.1291   0.1293
  0.1298   0.1300   0.1309   0.1310   0.1321   0.1325   0.1330   0.1333
  0.1336   0.1349   0.1357   0.1366   0.1372   0.1376   0.1380   0.1388
  0.1393   0.1398   0.1408   0.1416   0.1422   0.1428   0.1432   0.1437
  0.1444   0.1453   0.1457   0.1464   0.1468   0.1475   0.1478   0.1482
  0.1488   0.1499   0.1501   0.1510   0.1512   0.1519   0.1522   0.1529
  0.1534   0.1542   0.1548   0.1549   0.1552   0.1576   0.1580   0.1582
  0.1587   0.1594   0.1597   0.1606   0.1607   0.1609   0.1613   0.1622
  0.1629   0.1636   0.1640   0.1645   0.1653   0.1663   0.1670   0.1675
  0.1678   0.1689   0.1691   0.1692   0.1705   0.1711   0.1717   0.1721
  0.1726   0.1732   0.1737   0.1742   0.1751   0.1760   0.1766   0.1769
  0.1773   0.1781   0.1787   0.1795   0.1804   0.1807   0.1816   0.1818
  0.1826   0.1830   0.1840   0.1844   0.1851   0.1857   0.1862   0.1867
  0.1871   0.1874   0.1877   0.1886   0.1887   0.1906   0.1910   0.1912
  0.1915   0.1923   0.1929   0.1934   0.1939   0.1940   0.1952   0.1956
  0.1960   0.1974   0.1981   0.1988   0.1989   0.1999   0.2004   0.2010
  0.2012   0.2030   0.2034   0.2041   0.2050   0.2054   0.2061   0.2066
  0.2071   0.2079   0.2087   0.2092   0.2094   0.2103   0.2113   0.2115
  0.2121   0.2125   0.2139   0.2145   0.2154   0.2156   0.2159   0.2163
  0.2170   0.2174   0.2188   0.2189   0.2197   0.2203   0.2208   0.2210
  0.2220   0.2223   0.2229   0.2238   0.2244   0.2254   0.2263   0.2268
  0.2272   0.2281   0.2285   0.2297   0.2298   0.2304   0.2311   0.2315
  0.2324   0.2325   0.2335   0.2348   0.2353   0.2359   0.2371   0.2379
  0.2382   0.2391   0.2395   0.2404   0.2409   0.2413   0.2424   0.2430
  0.2438   0.2442   0.2448   0.2455   0.2461   0.2465   0.2471   0.2476
  0.2484   0.2492   0.2502   0.2511   0.2511   0.2520   0.2523   0.2529
  0.2533   0.2540   0.2554   0.2561   0.2569   0.2579   0.2585   0.2589
  0.2612   0.2618   0.2621   0.2624   0.2636   0.2645   0.2649   0.2658
  0.2664   0.2669   0.2676   0.2690   0.2694   0.2699   0.2702   0.2713
  0.2723   0.2726   0.2730   0.2734   0.2742   0.2755   0.2760   0.2763
  0.2773   0.2788   0.2796   0.2799   0.2806   0.2817   0.2819   0.2828
  0.2837   0.2842   0.2848   0.2851   0.2861   0.2873   0.2886   0.2892
  0.2896   0.2900   0.2916   0.2920   0.2927   0.2932   0.2943   0.2955
  0.2959   0.2967   0.2974   0.2979   0.2985   0.2990   0.2994   0.3013
  0.3023   0.3030   0.3036   0.3040   0.3051   0.3054   0.3057   0.3067
  0.3075   0.3092   0.3098   0.3104   0.3105   0.3120   0.3126   0.3128
  0.3142   0.3145   0.3159   0.3169   0.3174   0.3183   0.3195   0.3206
  0.3217   0.3221   0.3225   0.3230   0.3250   0.3256   0.3271   0.3274
  0.3285   0.3293   0.3302   0.3304   0.3310   0.3318   0.3328   0.3335
  0.3340   0.3352   0.3355   0.3373   0.3374   0.3386   0.3388   0.3393
  0.3405   0.3426   0.3427   0.3432   0.3443   0.3449   0.3456   0.3473
  0.3476   0.3483   0.3486   0.3495   0.3500   0.3515   0.3518   0.3530
  0.3533   0.3541   0.3547   0.3556   0.3560   0.3563   0.3575   0.3590
  0.3600   0.3606   0.3616   0.3625   0.3630   0.3639   0.3650   0.3655
  0.3667   0.3672   0.3681   0.3689   0.3697   0.3712   0.3719   0.3726
  0.3738   0.3748   0.3753   0.3757   0.3764   0.3778   0.3780   0.3795
  0.3803   0.3811   0.3815   0.3826   0.3836   0.3847   0.3851   0.3858
  0.3864   0.3875   0.3881   0.3887   0.3899   0.3901   0.3914   0.3930
  0.3938   0.3949   0.3951   0.3957   0.3962   0.3979   0.3989   0.4001
  0.4003   0.4012   0.4022   0.4029   0.4036   0.4056   0.4066   0.4073
  0.4076   0.4078   0.4090   0.4095   0.4107   0.4116   0.4125   0.4137
  0.4148   0.4152   0.4165   0.4174   0.4189   0.4201   0.4213   0.4221
  0.4238   0.4241   0.4250   0.4263   0.4272   0.4283   0.4290   0.4298
  0.4311   0.4316   0.4322   0.4333   0.4350   0.4356   0.4376   0.4382
  0.4387   0.4397   0.4408   0.4419   0.4435   0.4444   0.4454   0.4461
  0.4468   0.4476   0.4494   0.4508   0.4517   0.4539   0.4543   0.4550
  0.4567   0.4597   0.4599   0.4611   0.4619   0.4627   0.4640   0.4647
  0.4677   0.4685   0.4687   0.4712   0.4730   0.4750   0.4758   0.4772
  0.4799   0.4814   0.4822   0.4838   0.4847   0.4855   0.4884   0.4898
  0.4905   0.4930   0.4937   0.4946   0.4960   0.4988   0.4993   0.5000
  0.5012   0.5019   0.5023   0.5040   0.5056   0.5061   0.5085   0.5095
  0.5127   0.5137   0.5165   0.5168   0.5182   0.5208   0.5216   0.5245
  0.5262   0.5276   0.5289   0.5309   0.5319   0.5352   0.5358   0.5365
  0.5382   0.5401   0.5410   0.5433   0.5439   0.5467   0.5484   0.5496
  0.5511   0.5526   0.5534   0.5554   0.5564   0.5580   0.5608   0.5612
  0.5628   0.5641   0.5647   0.5662   0.5681   0.5695   0.5708   0.5713
  0.5723   0.5746   0.5767   0.5772   0.5777   0.5785   0.5803   0.5823
  0.5828   0.5844   0.5854   0.5866   0.5872   0.5891   0.5905   0.5915
  0.5918   0.5928   0.5957   0.5987   0.5998   0.6004   0.6030   0.6043
  0.6056   0.6061   0.6082   0.6103   0.6109   0.6124   0.6135   0.6149
  0.6155   0.6160   0.6176   0.6189   0.6205   0.6213   0.6229   0.6242
  0.6251   0.6256   0.6275   0.6280   0.6306   0.6307   0.6317   0.6329
  0.6343   0.6369   0.6373   0.6388   0.6394   0.6407   0.6425   0.6429
  0.6446   0.6453   0.6465   0.6486   0.6490   0.6493   0.6503   0.6515
  0.6524   0.6547   0.6550   0.6557   0.6572   0.6579   0.6587   0.6593
  0.6609   0.6626   0.6631   0.6645   0.6652   0.6654   0.6678   0.6682
  0.6707   0.6718   0.6727   0.6737   0.6745   0.6755   0.6764   0.6776
  0.6789   0.6792   0.6801   0.6824   0.6833   0.6848   0.6853   0.6862
  0.6886   0.6888   0.6904   0.6910   0.6922   0.6934   0.6939   0.6959
  0.6968   0.6979   0.6990   0.6998   0.7014   0.7026   0.7036   0.7044
  0.7062   0.7086   0.7090   0.7110   0.7114   0.7129   0.7136   0.7139
  0.7160   0.7180   0.7185   0.7199   0.7211   0.7229   0.7244   0.7255
  0.7276   0.7291   0.7292   0.7305   0.7322   0.7333   0.7355   0.7357
  0.7380   0.7389   0.7401   0.7421   0.7428   0.7450   0.7460   0.7480
  0.7495   0.7513   0.7522   0.7540   0.7560   0.7593   0.7596   0.7611
  0.7621   0.7646   0.7653   0.7665   0.7670   0.7692   0.7704   0.7737
  0.7747   0.7754   0.7764   0.7800   0.7801   0.7816   0.7829   0.7833
  0.7842   0.7858   0.7867   0.7890   0.7892   0.7925   0.7937   0.7956
  0.7960   0.7970   0.7999   0.8011   0.8025   0.8053   0.8056   0.8080
  0.8094   0.8105   0.8129   0.8131   0.8159   0.8161   0.8170   0.8182
  0.8189   0.8205   0.8214   0.8245   0.8246   0.8262   0.8292   0.8299
  0.8311   0.8316   0.8343   0.8346   0.8361   0.8383   0.8390   0.8397
  0.8413   0.8416   0.8424   0.8439   0.8467   0.8477   0.8486   0.8492
  0.8500   0.8505   0.8518   0.8529   0.8538   0.8560   0.8583   0.8588
  0.8591   0.8602   0.8607   0.8623   0.8631   0.8653   0.8671   0.8677
  0.8692   0.8697   0.8704   0.8726   0.8732   0.8740   0.8751   0.8768
  0.8782   0.8789   0.8796   0.8818   0.8823   0.8833   0.8844   0.8870
  0.8877   0.8880   0.8889   0.8905   0.8921   0.8935   0.8942   0.8960
  0.8964   0.8979   0.8987   0.9003   0.9008   0.9020   0.9025   0.9045
  0.9059   0.9070   0.9084   0.9094   0.9109   0.9118   0.9124   0.9146
  0.9166   0.9173   0.9187   0.9201   0.9210   0.9219   0.9230   0.9238
  0.9266   0.9278   0.9286   0.9287   0.9299   0.9307   0.9322   0.9339
  0.9354   0.9355   0.9362   0.9366   0.9388   0.9409   0.9414   0.9427
  0.9442   0.9458   0.9460   0.9480   0.9493   0.9503   0.9509   0.9526
  0.9544   0.9545   0.9552   0.9563   0.9579   0.9600   0.9603   0.9610
  0.9615   0.9634   0.9639   0.9654   0.9658   0.9677   0.9681   0.9687
  0.9704   0.9715   0.9717   0.9719   0.9731   0.9753   0.9760   0.9765
  0.9771   0.9785   0.9795   0.9821   0.9842   0.9846   0.9857   0.9877
  0.9889   0.9896   0.9897   0.9908   0.9927   0.9938   0.9949   0.9963
  0.9969   0.9974   0.9999   1.0009   1.0018   1.0022   1.0026   1.0036
  1.0048   1.0055   1.0073   1.0081   1.0106   1.0122   1.0134   1.0141
  1.0150   1.0156   1.0166   1.0178   1.0185   1.0197   1.0221   1.0225
  1.0229   1.0242   1.0262   1.0271   1.0281   1.0301   1.0309   1.0310
  1.0326   1.0347   1.0354   1.0374   1.0376   1.0402   1.0411   1.0419
  1.0450   1.0463   1.0477   1.0485   1.0489   1.0498   1.0506   1.0518
  1.0541   1.0562   1.0580   1.0586   1.0596   1.0607   1.0615   1.0638
  1.0653   1.0661   1.0668   1.0692   1.0699   1.0705   1.0726   1.0733
  1.0740   1.0749   1.0777   1.0787   1.0806   1.0813   1.0842   1.0847
  1.0864   1.0866   1.0882   1.0891   1.0911   1.0930   1.0935   1.0944
  1.0959   1.0967   1.0985   1.0999   1.1006   1.1017   1.1032   1.1040
  1.1046   1.1074   1.1082   1.1099   1.1111   1.1138   1.1148   1.1154
  1.1162   1.1175   1.1187   1.1205   1.1226   1.1243   1.1244   1.1262
  1.1271   1.1281   1.1289   1.1303   1.1318   1.1330   1.1340   1.1347
  1.1357   1.1381   1.1387   1.1401   1.1406   1.1424   1.1435   1.1442
  1.1455   1.1461   1.1480   1.1485   1.1489   1.1512   1.1518   1.1539
  1.1552   1.1556   1.1568   1.1584   1.1600   1.1613   1.1622   1.1633
  1.1639   1.1668   1.1672   1.1699   1.1706   1.1717   1.1723   1.1727
  1.1749   1.1761   1.1781   1.1804   1.1816   1.1830   1.1841   1.1857
  1.1885   1.1897   1.1916   1.1939   1.1947   1.1964   1.1974   1.1992
  1.1999   1.2028   1.2036   1.2052   1.2069   1.2086   1.2106   1.2130
  1.2147   1.2169   1.2203   1.2213   1.2228   1.2250   1.2258   1.2274
  1.2291   1.2322   1.2339   1.2342   1.2374   1.2385   1.2399   1.2406
  1.2443   1.2457   1.2469   1.2486   1.2499   1.2514   1.2558   1.2572
  1.2611   1.2619   1.2628   1.2658   1.2671   1.2692   1.2739   1.2746
  1.2765   1.2795   1.2815   1.2849   1.2864   1.2880   1.2907   1.2934
  1.2943   1.2947   1.2959   1.2996   1.3014   1.3024   1.3030   1.3066
  1.3089   1.3102   1.3150   1.3170   1.3174   1.3192   1.3199   1.3223
  1.3240   1.3251   1.3276   1.3306   1.3322   1.3342   1.3360   1.3368
  1.3377   1.3416   1.3424   1.3435   1.3450   1.3470   1.3501   1.3506
  1.3514   1.3530   1.3556   1.3566   1.3573   1.3610   1.3617   1.3627
  1.3646   1.3667   1.3688   1.3711   1.3733   1.3740   1.3753   1.3773
  1.3783   1.3799   1.3809   1.3821   1.3854   1.3867   1.3877   1.3896
  1.3908   1.3920   1.3942   1.3943   1.3963   1.3982   1.3998   1.4004
  1.4029   1.4038   1.4053   1.4057   1.4071   1.4090   1.4102   1.4117
  1.4128   1.4144   1.4160   1.4166   1.4177   1.4192   1.4201   1.4209
  1.4216   1.4242   1.4273   1.4284   1.4300   1.4309   1.4344   1.4346
  1.4356   1.4367   1.4383   1.4400   1.4420   1.4426   1.4448   1.4460
  1.4470   1.4507   1.4519   1.4530   1.4543   1.4556   1.4586   1.4593
  1.4605   1.4639   1.4658   1.4665   1.4698   1.4704   1.4723   1.4736
  1.4756   1.4762   1.4782   1.4804   1.4813   1.4836   1.4861   1.4887
  1.4898   1.4944   1.4962   1.4970   1.4988   1.5008   1.5073   1.5083
  1.5102   1.5109   1.5137   1.5145   1.5165   1.5202   1.5204   1.5219
  1.5257   1.5268   1.5303   1.5314   1.5353   1.5380   1.5420   1.5453
  1.5469   1.5488   1.5503   1.5516   1.5550   1.5604   1.5644   1.5648
  1.5673   1.5699   1.5747   1.5759   1.5782   1.5840   1.5876   1.5931
  1.5948   1.5984   1.6003   1.6025   1.6062   1.6113   1.6148   1.6158
  1.6223   1.6286   1.6300   1.6324   1.6378   1.6443   1.6456   1.6494
  1.6540   1.6558   1.6570   1.6587   1.6614   1.6628   1.6633   1.6656
  1.6673   1.6686   1.6698   1.6708   1.6718   1.6744   1.6751   1.6752
  1.6765   1.6786   1.6794   1.6838   1.6845   1.6863   1.6874   1.6878
  1.6886   1.6911   1.6931   1.6938   1.6941   1.6959   1.6963   1.6976
  1.6989   1.7010   1.7028   1.7042   1.7051   1.7068   1.7079   1.7087
  1.7105   1.7114   1.7132   1.7135   1.7143   1.7169   1.7182   1.7186
  1.7194   1.7214   1.7221   1.7239   1.7245   1.7288   1.7292   1.7306
  1.7329   1.7333   1.7340   1.7350   1.7363   1.7368   1.7397   1.7406
  1.7411   1.7427   1.7445   1.7456   1.7461   1.7475   1.7482   1.7495
  1.7515   1.7529   1.7542   1.7557   1.7597   1.7604   1.7616   1.7629
  1.7640   1.7654   1.7664   1.7688   1.7705   1.7720   1.7730   1.7742
  1.7776   1.7781   1.7787   1.7799   1.7815   1.7830   1.7869   1.7879
  1.7908   1.7915   1.7929   1.7934   1.7953   1.7991   1.8000   1.8039
  1.8077   1.8082   1.8118   1.8142   1.8169   1.8178   1.8223   1.8251
  1.8274   1.8307   1.8332   1.8333   1.8357   1.8378   1.8407   1.8449
  1.8458   1.8495   1.8521   1.8525   1.8543   1.8581   1.8619   1.8657
  1.8689   1.8699   1.8703   1.8715   1.8729   1.8765   1.8787   1.8793
  1.8806   1.8817   1.8819   1.8845   1.8857   1.8870   1.8876   1.8884
  1.8894   1.8902   1.8930   1.8941   1.8948   1.8959   1.8976   1.8993
  1.8995   1.9006   1.9024   1.9030   1.9048   1.9058   1.9067   1.9076
  1.9081   1.9113   1.9126   1.9141   1.9152   1.9155   1.9169   1.9178
  1.9194   1.9210   1.9224   1.9259   1.9268   1.9277   1.9301   1.9307
  1.9338   1.9343   1.9374   1.9390   1.9406   1.9439   1.9468   1.9493
  1.9504   1.9528   1.9563   1.9588   1.9598   1.9638   1.9662   1.9693
  1.9733   1.9822   1.9827   1.9884   1.9901   1.9962   2.0026   2.0060
  2.0130   2.0212   2.0249   2.0338   2.0385   2.0425   2.0444   2.0455
  2.0488   2.0497   2.0501   2.0528   2.0534   2.0548   2.0561   2.0580
  2.0597   2.0622   2.0638   2.0658   2.0664   2.0673   2.0683   2.0699
  2.0730   2.0750   2.0773   2.0779   2.0805   2.0815   2.0819   2.0829
  2.0840   2.0855   2.0862   2.0872   2.0880   2.0887   2.0903   2.0930
  2.0953   2.0989   2.0997   2.1003   2.1015   2.1022   2.1038   2.1054
  2.1072   2.1088   2.1103   2.1130   2.1157   2.1180   2.1221   2.1238
  2.1262   2.1272   2.1340   2.1372   2.1393   2.1405   2.1444   2.1454
  2.1494   2.1512   2.1555   2.1600   2.1635   2.1665   2.1695   2.1737
  2.1778   2.1851   2.1854   2.1881   2.1882   2.1900   2.1906   2.1932
  2.1948   2.1972   2.1980   2.2015   2.2030   2.2050   2.2123   2.2131
  2.2141   2.2146   2.2161   2.2202   2.2240   2.2271   2.2278   2.2281
  2.2287   2.2300   2.2315   2.2325   2.2341   2.2343   2.2356   2.2368
  2.2378   2.2393   2.2399   2.2405   2.2425   2.2433   2.2446   2.2464
  2.2474   2.2491   2.2503   2.2513   2.2517   2.2541   2.2556   2.2568
  2.2572   2.2578   2.2584   2.2602   2.2612   2.2624   2.2631   2.2633
  2.2651   2.2660   2.2670   2.2682   2.2691   2.2698   2.2710   2.2715
  2.2721   2.2737   2.2747   2.2755   2.2759   2.2764   2.2766   2.2775
  2.2786   2.2798   2.2817   2.2817   2.2830   2.2836   2.2845   2.2852
  2.2871   2.2876   2.2885   2.2892   2.2899   2.2909   2.2919   2.2926
  2.2930   2.2950   2.2954   2.2961   2.2980   2.2989   2.2995   2.3011
  2.3018   2.3028   2.3030   2.3045   2.3061   2.3069   2.3079   2.3081
  2.3100   2.3112   2.3126   2.3136   2.3143   2.3157   2.3164   2.3179
  2.3187   2.3198   2.3212   2.3213   2.3233   2.3236   2.3254   2.3273
  2.3280   2.3296   2.3321   2.3324   2.3333   2.3344   2.3359   2.3364
  2.3371   2.3392   2.3413   2.3421   2.3436   2.3461   2.3481   2.3485
  2.3508   2.3525   2.3541   2.3551   2.3565   2.3589   2.3597   2.3622
  2.3631   2.3647   2.3671   2.3689   2.3717   2.3744   2.3753   2.3770
  2.3816   2.3832   2.3855   2.3905   2.3955   2.3969   2.3997   2.4073
  2.4141   2.4199   2.4224   2.4334   2.4701   2.4827   2.5126   2.5329
  2.5787   2.5977   2.6552   2.7434   2.7686   2.7842   2.8046   2.8119
  2.8132   2.8202   2.8275   2.8281   2.8325   2.8341   2.8369   2.8390
  2.8407   2.8446   2.8517   2.8540   2.8558   2.8564   2.8582   2.8594
  2.8663   2.8700   2.8704   2.8732   2.8775   2.8790   2.8819   2.8829
  2.8853   2.8959   2.8969   2.9035   2.9111   2.9478   3.1153   3.2439
  3.9406   3.9423   3.9475   3.9542   3.9557   3.9665   3.9681   3.9739
  3.9761   3.9772   3.9790   3.9803   3.9835   3.9848   3.9874   3.9890
  3.9947   3.9984   4.0000   4.0046   4.0063   4.0105   4.0151   4.0217
  4.0253   4.0317   4.0513   4.1897   4.2067   4.2155   4.2218   4.2266
  4.2283   4.2304   4.2331   4.2404   4.2413   4.2475   4.2494   4.2555
  4.2597   4.2613   4.2623   4.2681   4.2705   4.2748   4.2767   4.2805
  4.2822   4.2839   4.2859   4.2877   4.2918   4.2936   4.2950   4.2966
  4.3004   4.3030   4.3035   4.3057   4.3071   4.3096   4.3124   4.3134
  4.3155   4.3189   4.3203   4.3207   4.3230   4.3254   4.3288   4.3317
  4.3362   4.3389   4.3414   4.3430   4.3465   4.3520   4.3525   4.3586
  4.3604   4.3650   4.3676   4.3705   4.3724   4.3787   4.3838   4.3874
  4.3938   4.3966   4.3990   4.4030   4.4045   4.4099   4.4123   4.4191
  4.4218   4.4291   4.4367   4.4542   4.4635   4.4763   4.4869   4.4919
  4.5177   4.5308   4.5457   4.5601   4.5788   4.6022   4.6158   4.6463
  4.6931   4.7263   4.7409   4.7843   4.9015
 --------------------------------------------------------------

          Ground-State Mulliken Net Atomic Charges

     Atom                 Charge (a.u.)
  ----------------------------------------
      1 C                    -0.418829
      2 C                    -0.933610
      3 C                    -0.562510
      4 C                    -0.520191
      5 C                    -0.612640
      6 C                     0.170000
      7 H                     0.204587
      8 H                     0.222440
      9 H                     0.218722
     10 H                     0.202420
     11 H                     0.204451
     12 H                     0.264048
     13 H                     0.181787
     14 H                     0.211024
     15 H                     0.225669
     16 H                     0.173677
     17 H                     0.246069
     18 N                     0.423693
     19 H                     0.530416
     20 C                    -0.503079
     21 H                     0.156671
     22 O                    -0.111118
     23 C                    -1.311476
     24 H                     0.268681
     25 H                     0.324054
     26 H                     0.294203
     27 S                     1.253137
     28 C                    -1.012903
     29 H                     0.261934
     30 H                     0.221810
     31 H                     0.246709
     32 O                    -0.717981
     33 C                    -0.938091
     34 H                     0.250529
     35 H                     0.295732
     36 H                     0.214631
     37 S                     1.035305
     38 C                    -0.886340
     39 H                     0.221244
     40 H                     0.253276
     41 H                     0.282572
     42 O                    -0.706846
     43 C                    -0.956613
     44 H                     0.294623
     45 H                     0.255599
     46 H                     0.278544
     47 S                     0.570156
     48 C                    -0.807966
     49 H                     0.289517
     50 H                     0.279678
     51 H                     0.249950
     52 O                    -0.594866
     53 C                    -0.893024
     54 H                     0.224129
     55 H                     0.266531
     56 H                     0.246133
     57 S                     1.272189
     58 C                    -1.095779
     59 H                     0.268137
     60 H                     0.263906
     61 H                     0.272234
     62 O                    -0.757899
     63 C                    -0.865743
     64 H                     0.231142
     65 H                     0.266576
     66 H                     0.292125
     67 S                     0.832897
     68 C                    -0.814674
     69 H                     0.276113
     70 H                     0.234576
     71 H                     0.243254
     72 O                    -0.723317
     73 C                    -0.921634
     74 H                     0.237691
     75 H                     0.289242
     76 H                     0.234478
     77 S                     0.954750
     78 C                    -0.864634
     79 H                     0.255486
     80 H                     0.240406
     81 H                     0.280253
     82 O                    -0.713796
     83 C                    -0.853984
     84 H                     0.258518
     85 H                     0.221641
     86 H                     0.316929
     87 S                     0.836224
     88 C                    -0.816622
     89 H                     0.215376
     90 H                     0.242065
     91 H                     0.259325
     92 O                    -0.718756
     93 C                    -0.859968
     94 H                     0.236202
     95 H                     0.300907
     96 H                     0.251966
     97 S                     1.103526
     98 C                    -0.934945
     99 H                     0.237547
    100 H                     0.312245
    101 H                     0.245961
    102 O                    -0.838412
    103 C                    -0.828554
    104 H                     0.266382
    105 H                     0.254246
    106 H                     0.247794
    107 S                     0.900433
    108 C                    -0.848635
    109 H                     0.308384
    110 H                     0.269053
    111 H                     0.234759
    112 O                    -0.692057
    113 C                    -0.792309
    114 H                     0.249134
    115 H                     0.243694
    116 H                     0.239211
    117 S                     0.983950
    118 C                    -0.932959
    119 H                     0.247895
    120 H                     0.256721
    121 H                     0.243897
    122 O                    -0.666600
    123 C                    -1.200645
    124 H                     0.243628
    125 H                     0.303714
    126 H                     0.233380
    127 S                     1.428321
    128 C                    -1.145670
    129 H                     0.239440
    130 H                     0.309132
    131 H                     0.317787
    132 O                    -0.695698
    133 C                    -0.869826
    134 H                     0.262123
    135 H                     0.258995
    136 H                     0.260381
    137 S                     1.131652
    138 C                    -1.314671
    139 H                     0.266223
    140 H                     0.281755
    141 H                     0.300051
    142 O                    -0.684065
    143 C                    -1.059768
    144 H                     0.304667
    145 H                     0.221667
    146 H                     0.261543
    147 S                     0.969451
    148 C                    -0.846747
    149 H                     0.248708
    150 H                     0.245050
    151 H                     0.247236
    152 O                    -0.670459
    153 C                    -1.001263
    154 H                     0.230729
    155 H                     0.318980
    156 H                     0.269050
    157 S                     0.996335
    158 C                    -0.953416
    159 H                     0.248176
    160 H                     0.264961
    161 H                     0.300581
    162 O                    -0.620395
    163 C                    -0.750740
    164 H                     0.310152
    165 H                     0.243174
    166 H                     0.283491
    167 S                     0.597237
    168 C                    -0.892178
    169 H                     0.218520
    170 H                     0.246547
    171 H                     0.282495
    172 O                    -0.579117
    173 C                    -0.842466
    174 H                     0.235717
    175 H                     0.257117
    176 H                     0.254103
    177 S                     0.753843
    178 C                    -0.836363
    179 H                     0.276909
    180 H                     0.310414
    181 H                     0.237782
    182 O                    -0.616273
    183 C                    -0.748902
    184 H                     0.271901
    185 H                     0.211074
    186 H                     0.252366
    187 S                     0.932529
    188 C                    -0.943264
    189 H                     0.238234
    190 H                     0.244478
    191 H                     0.319558
    192 O                    -0.724826
    193 C                    -0.788437
    194 H                     0.255867
    195 H                     0.302924
    196 H                     0.275276
    197 S                     0.438880
    198 C                    -0.897806
    199 H                     0.235397
    200 H                     0.323554
    201 H                     0.268794
    202 O                    -0.574957
    203 C                    -0.717757
    204 H                     0.286690
    205 H                     0.241049
    206 H                     0.244407
    207 S                     0.830471
    208 C                    -0.799016
    209 H                     0.255930
    210 H                     0.231945
    211 H                     0.240744
    212 O                    -0.745184
    213 C                    -1.002213
    214 H                     0.288362
    215 H                     0.248201
    216 H                     0.245132
    217 S                     1.138327
    218 C                    -0.825664
    219 H                     0.255018
    220 H                     0.232289
    221 H                     0.265641
    222 O                    -0.777005
    223 C                    -0.985557
    224 H                     0.270018
    225 H                     0.229269
    226 H                     0.311754
    227 S                     0.953248
    228 C                    -0.925345
    229 H                     0.267870
    230 H                     0.257242
    231 H                     0.230146
    232 O                    -0.663905
    233 C                    -0.807671
    234 H                     0.270951
    235 H                     0.268939
    236 H                     0.236116
    237 S                     0.831452
    238 C                    -0.762903
    239 H                     0.243052
    240 H                     0.262700
    241 H                     0.241496
    242 O                    -0.678728
    243 C                    -0.949641
    244 H                     0.265264
    245 H                     0.257589
    246 H                     0.269601
    247 S                     1.286367
    248 C                    -1.118741
    249 H                     0.275653
    250 H                     0.300038
    251 H                     0.246317
    252 O                    -0.651254
    253 C                    -0.720391
    254 H                     0.254657
    255 H                     0.268954
    256 H                     0.293087
    257 S                     0.317874
    258 C                    -0.612552
    259 H                     0.246712
    260 H                     0.263210
    261 H                     0.241335
    262 O                    -0.595803
    263 C                    -0.861979
    264 H                     0.280066
    265 H                     0.253938
    266 H                     0.265691
    267 S                     0.669071
    268 C                    -0.749580
    269 H                     0.271942
    270 H                     0.291261
    271 H                     0.222164
    272 O                    -0.733738
    273 C                    -0.885798
    274 H                     0.245285
    275 H                     0.256889
    276 H                     0.234744
    277 S                     1.006846
    278 C                    -0.810349
    279 H                     0.258227
    280 H                     0.248437
    281 H                     0.250263
    282 O                    -0.683507
    283 C                    -0.877285
    284 H                     0.316723
    285 H                     0.229538
    286 H                     0.241045
    287 S                     0.744632
    288 C                    -0.947359
    289 H                     0.285629
    290 H                     0.249534
    291 H                     0.254362
    292 O                    -0.551013
  ----------------------------------------
  Sum of atomic charges =     0.000000

 -----------------------------------------------------------------
                    Cartesian Multipole Moments
 -----------------------------------------------------------------
    Charge (ESU x 10^10)
                -0.0000
    Dipole Moment (Debye)
         X      14.5778      Y       3.8860      Z       9.8124
       Tot      17.9971
    Quadrupole Moments (Debye-Ang)
        XX     -11.4216     XY     442.1290     YY    -800.9922
        XZ     872.2759     YZ     358.1525     ZZ    -466.1084
    Octopole Moments (Debye-Ang^2)
       XXX  -39140.3677    XXY     -82.6553    XYY  -16218.9919
       YYY  -69029.2473    XXZ   18197.2111    XYZ   23820.6563
[...]
          205         206         207         208         209         210
    1   2.4241870   3.2344778   1.2432217   3.2529456   2.4222945   3.9735919
    2  -3.2190520  -0.8355609  -1.0741396  -0.1763049   1.4492123   0.1921448
    3  -1.8737191   0.1881664  -2.4087382  -2.0716948  -3.1423585  -0.2440432
          211         212         213         214         215         216
    1   3.0111414   1.0960753  -1.4905557  -0.4806959  -1.1815738  -3.1016515
    2  -1.7235771   1.3925069   1.8492174   0.7831076   3.7155724   1.2730754
    3  -2.8790062  -0.4606478   2.5770859   2.9135857   1.2802428   3.0572849
          217         218         219         220         221         222
    1  -1.9128990  -0.2962975  -1.5148591   0.1038780   0.3251020  -3.6657745
    2   0.1623037   1.7489639   2.2698029   3.1588666  -0.1264835   2.5465554
    3   1.3696282   0.0845206  -1.3062849   0.9454182   0.6767972  -0.2465384
          223         224         225         226         227         228
    1   0.9297362  -0.3640720   1.9978238   1.0212577   2.6619662   3.7170734
    2   0.5292564  -0.3851730   1.9334858  -0.1853074  -0.1675092   0.3198155
    3  -0.1170014   0.8417312   0.6289545  -1.8023231   1.2140723  -0.5805433
          229         230         231         232         233         234
    1   4.5507563   2.7757800   3.4802444   2.1365612  -3.3830550  -1.9003979
    2  -1.1081847  -0.0686801   2.0258373  -2.9586880  -0.5615674  -0.9530622
    3  -0.1020055  -2.2712664   0.5099788  -0.7730335   0.5460637   1.9431864
          235         236         237         238         239         240
    1  -4.4625188  -3.4990021  -2.7473831  -2.9427520  -4.2293623  -1.4256368
    2   0.5812802  -1.1918639   1.6285043   1.0947328   1.7093193   2.3993580
    3   1.2424894  -1.3661178   0.1602425  -2.0435717  -1.7263106  -2.3114174
          241         242         243         244         245         246
    1  -2.7326217   0.3735350   1.5354380   3.3007498   0.2434781   0.7843297
    2  -0.8886152   0.3313487   3.4119933   2.5728025   4.0343098   3.5453519
    3  -2.0337976   0.2587935  -0.7257282  -1.2297358  -1.9278171   0.9910000
          247         248         249         250         251         252
    1   0.3594114   1.9732325   0.6092587   2.6872571   2.1206019   0.3034208
    2   1.5521936   0.7125843  -0.7660391   1.3224148   1.8544565   1.3117397
    3   0.4003424  -0.1060717   0.5102895  -1.7721848   1.3199954  -2.6185370
          253         254         255         256         257         258
    1  -3.0971704  -3.8216228  -3.0388874  -2.4892991  -1.2414235  -1.2891234
    2  -1.3533550  -1.6334164  -3.2492048   0.4406614  -1.1037303  -3.3807492
    3  -0.6960365  -2.3170685   0.2109809  -0.1847321  -1.8133931  -1.5751165
          259         260         261         262         263         264
    1   0.7206619  -2.5096140  -2.0091692   0.7139523  -0.2328895  -1.8526665
    2  -3.0925606  -3.6634496  -2.8816113  -0.5852451   2.3642403   3.0587682
    3  -1.4056464   0.0112862  -3.2506576   0.9267088   1.1138797   2.3103541
          265         266         267         268         269         270
    1   1.5206071  -0.6965511  -0.1171111   0.9675178   0.0409826   0.1258975
    2   2.4352467   1.5013726   1.2496407   0.3453071  -0.8727876   0.3226933
    3   1.9993841  -0.7307298   2.9945885   1.6537097   2.9995044  -0.3796467
          271         272         273         274         275         276
    1   2.1953571  -2.5465114  -2.6777966  -3.8996291  -2.8233284  -1.2344202
    2   1.5268937  -0.1955372   0.5609290  -0.9602514   1.9706115   0.6331065
    3   2.0505038   1.2363346  -2.6550083  -1.7011904  -1.5463870  -4.2133502
          277         278         279         280         281         282
    1  -0.7746486  -1.3414399  -0.0579338  -3.3948773  -0.8084157  -2.3569717
    2  -0.0194667  -2.1097142  -2.8324430  -2.1865425  -1.2429758  -0.6339163
    3  -2.7030020  -2.8901324  -1.8041943  -1.8069141  -4.2718465   0.1673369
          283         284         285         286         287         288
    1   2.4398834   1.5248311   1.2967919   4.2221771   1.7474339   2.2755509
    2  -0.3814997  -0.9839001  -0.5478496   0.8679609   1.3963362   1.2914615
    3   0.4818399   1.8882676  -1.1552147   0.9148205   0.1629900   2.5827462
          289         290         291         292
    1   2.7238594   3.3378149   0.2860403  -1.1751820
    2  -0.3289944   2.3746089   1.7535928  -0.1645280
    3   2.8892383   2.0461676   3.2347754   0.9212340
 EField
            1           2           3           4           5           6
    1  -0.0076194  -0.0053866  -0.0023828  -0.0036563  -0.0056423  -0.0065612
    2  -0.0006037   0.0015872   0.0028996   0.0003091   0.0007913   0.0011320
    3  -0.0021942  -0.0090903  -0.0078304  -0.0066579  -0.0053441  -0.0026490
            7           8           9          10          11          12
    1   0.0069949   0.0048551  -0.0081384  -0.0098121  -0.0020771  -0.0051055
    2   0.0010449  -0.0008109  -0.0008098  -0.0053403   0.0015928  -0.0036413
    3  -0.0087572  -0.0108131  -0.0016712   0.0005181  -0.0069072  -0.0163364
           13          14          15          16          17          18
    1  -0.0064193  -0.0049114  -0.0042677  -0.0090531  -0.0016588  -0.0158803
    2   0.0029615  -0.0009026   0.0047123  -0.0002469   0.0114600  -0.0022367
    3  -0.0056757  -0.0015029   0.0002920  -0.0052681  -0.0042681  -0.0201234
           19          20          21          22          23          24
    1  -0.0343745  -0.0076243  -0.0052480  -0.0038355   0.0028708  -0.0230028
    2  -0.0010758  -0.0052085  -0.0105372  -0.0050057  -0.0189587  -0.0013389
    3  -0.0294696  -0.0142362  -0.0128509  -0.0066660  -0.0003798  -0.0182494
           25          26          27          28          29          30
    1   0.0219516   0.0022429   0.0510804  -0.0004435  -0.0281974   0.0131876
    2  -0.0313211  -0.0149934   0.0071567   0.0016538  -0.0102848  -0.0064628
    3   0.0008698   0.0309470   0.0049435   0.0035551  -0.0054147   0.0319134
           31          32          33          34          35          36
    1  -0.0160526  -0.0700952  -0.0019838  -0.0270421  -0.0074648   0.0054284
    2   0.0294363   0.0376084  -0.0023519   0.0143834  -0.0057097  -0.0231163
    3  -0.0035750  -0.0743976   0.0028652   0.0058470  -0.0233378   0.0271904
           37          38          39          40          41          42
    1   0.0480123  -0.0039413  -0.0018704   0.0248144  -0.0244568  -0.0259826
    2  -0.0180643   0.0055651  -0.0133900   0.0212294   0.0152274   0.0719709
    3   0.0051979   0.0098010   0.0378815  -0.0000376  -0.0185495  -0.0817728
           43          44          45          46          47          48
    1   0.0027345  -0.0125590   0.0181585   0.0296622   0.0206988  -0.0050731
    2  -0.0013466   0.0091959  -0.0263490   0.0176266  -0.0176301   0.0052295
    3   0.0035171   0.0272518   0.0040598  -0.0026349  -0.0523804  -0.0001660
           49          50          51          52          53          54
    1  -0.0027561   0.0012007  -0.0293185  -0.0701977   0.0035108  -0.0096556
    2   0.0121146   0.0172477   0.0064336  -0.0554902  -0.0046392  -0.0289636
    3   0.0305157  -0.0297099  -0.0203287   0.0621803   0.0056623  -0.0003151
           55          56          57          58          59          60
    1   0.0309653  -0.0107478  -0.0542195   0.0058889  -0.0149441   0.0276556
    2   0.0093472   0.0111067  -0.0150620  -0.0065650   0.0034350   0.0132966
    3   0.0008204   0.0263336  -0.0136788  -0.0069327  -0.0298734   0.0054366
           61          62          63          64          65          66
    1   0.0130724   0.0387280   0.0098724  -0.0143755   0.0193711   0.0092249
    2  -0.0273472   0.0984202  -0.0001329   0.0071227   0.0210254  -0.0307351
    3   0.0099348   0.0247863  -0.0053057  -0.0295301   0.0037788   0.0069857
           67          68          69          70          71          72
    1  -0.0501378   0.0032241   0.0251166  -0.0057485  -0.0220565   0.0391565
    2  -0.0206507   0.0081059   0.0073397   0.0241629   0.0096513  -0.0180061
    3  -0.0157976  -0.0029474   0.0161566  -0.0294921   0.0176503   0.1020039
           73          74          75          76          77          78
    1  -0.0044555  -0.0303733   0.0006476   0.0118229  -0.0125918   0.0077215
    2   0.0067012  -0.0093287   0.0267152  -0.0035265   0.0031815   0.0006557
    3  -0.0034361  -0.0127034   0.0207855  -0.0275772   0.0491252   0.0052432
           79          80          81          82          83          84
    1   0.0004581   0.0191125   0.0237048   0.0146043   0.0009744  -0.0115889
    2  -0.0019065   0.0308178  -0.0118588  -0.0878580   0.0125723   0.0207148
    3  -0.0301553   0.0132588   0.0174168  -0.0637695   0.0007926  -0.0269859
           85          86          87          88          89          90
    1  -0.0014115   0.0194024  -0.0505312   0.0049263  -0.0193867   0.0037408
    2  -0.0012280   0.0217032  -0.0256958   0.0005866   0.0049494  -0.0294529
    3   0.0344580  -0.0126940  -0.0195952   0.0056090   0.0261620  -0.0098503
           91          92          93          94          95          96
    1   0.0312968   0.0886009  -0.0092598  -0.0287498  -0.0281853   0.0157702
    2   0.0117926   0.0058658  -0.0013740  -0.0298910   0.0191436  -0.0179608
    3   0.0052281  -0.0661901  -0.0048012   0.0032876  -0.0018268  -0.0204223
           97          98          99         100         101         102
    1   0.0484388  -0.0093072   0.0077777  -0.0304756   0.0094259  -0.0182119
    2  -0.0252860  -0.0020896   0.0174298   0.0191147  -0.0295078   0.1014472
    3   0.0048639   0.0060597   0.0219516  -0.0120097   0.0225440  -0.0324774
          103         104         105         106         107         108
    1   0.0082541   0.0120178   0.0158867  -0.0077168  -0.0361387   0.0055897
    2   0.0020469   0.0276027  -0.0012008  -0.0230948   0.0174007   0.0026492
    3   0.0007687  -0.0135845   0.0295884  -0.0229993  -0.0462034   0.0079171
          109         110         111         112         113         114
    1   0.0106997   0.0134802  -0.0226114  -0.0199849   0.0077791   0.0083672
    2  -0.0136920   0.0281414   0.0053742  -0.0939798   0.0007365  -0.0258494
    3   0.0304991  -0.0101485   0.0093167   0.0531117  -0.0010312   0.0007458
          115         116         117         118         119         120
    1  -0.0085203   0.0407244  -0.0599390   0.0010456  -0.0128406  -0.0075865
    2   0.0011302   0.0051019  -0.0176339   0.0081987  -0.0004009   0.0247913
    3  -0.0309464  -0.0056625  -0.0170540  -0.0014676  -0.0336961   0.0235388
          121         122         123         124         125         126
    1   0.0294702   0.0309970   0.0092137   0.0040792   0.0166459   0.0033311
    2   0.0170734  -0.0074338   0.0014111  -0.0134242  -0.0114475   0.0255656
    3   0.0137173   0.1056938  -0.0015861   0.0280044  -0.0269622   0.0150139
          127         128         129         130         131         132
    1  -0.0176679  -0.0070336   0.0313734  -0.0033908  -0.0355512  -0.0115293
    2   0.0374720   0.0023885   0.0081511   0.0326730  -0.0233500  -0.1088901
    3  -0.0430344   0.0119977   0.0209337   0.0036476  -0.0093051  -0.0110135
          133         134         135         136         137         138
    1  -0.0019807  -0.0342185   0.0172350   0.0206447  -0.0079800   0.0111475
    2   0.0075352   0.0011167   0.0130922   0.0107392  -0.0265778  -0.0006186
    3  -0.0009338   0.0051007   0.0242240  -0.0248624   0.0425756  -0.0029815
          139         140         141         142         143         144
    1   0.0095392   0.0199362   0.0095943  -0.0432919  -0.0037817  -0.0116873
    2   0.0201609   0.0141003  -0.0204679  -0.0185049  -0.0021502  -0.0315426
    3  -0.0195351   0.0234252  -0.0198849  -0.0999954   0.0020442  -0.0102070
          145         146         147         148         149         150
    1   0.0011755  -0.0316214  -0.0006133   0.0055269  -0.0023799   0.0292019
    2   0.0097543   0.0033331  -0.0296379  -0.0018479  -0.0333639   0.0140351
    3   0.0294457  -0.0023942  -0.0512970   0.0019661  -0.0023124  -0.0078451
          151         152         153         154         155         156
    1   0.0032402   0.0025289   0.0035831  -0.0210711   0.0321249  -0.0139817
    2   0.0251944   0.1094821   0.0138229   0.0297261   0.0130897  -0.0216554
    3   0.0210095   0.0052647  -0.0044435  -0.0035714   0.0105148  -0.0243358
          157         158         159         160         161         162
    1  -0.0523201   0.0038669   0.0232102  -0.0163493   0.0093879   0.0637428
    2  -0.0080280   0.0049926   0.0176683   0.0190190  -0.0249092  -0.0728460
    3   0.0106610   0.0070521  -0.0039030   0.0273102   0.0138480  -0.0521640
          163         164         165         166         167         168
    1   0.0068090   0.0303256  -0.0169613  -0.0018619  -0.0468975   0.0054554
    2   0.0067158   0.0118966   0.0268344  -0.0132857  -0.0238577  -0.0036242
    3   0.0044303  -0.0116025   0.0022007   0.0311963   0.0230345  -0.0025025
          169         170         171         172         173         174
    1   0.0173742  -0.0038020   0.0248156   0.0032334   0.0020647   0.0390179
    2  -0.0092009  -0.0283692   0.0130775   0.0438659  -0.0000140   0.0035349
    3   0.0271307  -0.0133823  -0.0134446  -0.1009092   0.0049245   0.0051120
          175         176         177         178         179         180
    1  -0.0059336  -0.0103251   0.0159621   0.0046950   0.0368679  -0.0164067
    2   0.0237021  -0.0204625  -0.0475149   0.0046286  -0.0007039   0.0016498
    3   0.0179149   0.0237193  -0.0275581  -0.0049578  -0.0077934  -0.0257138
          181         182         183         184         185         186
    1   0.0033872  -0.1074304   0.0035325   0.0230483  -0.0022406  -0.0082862
    2   0.0247813   0.0205403  -0.0044911   0.0004823   0.0090510  -0.0289691
    3   0.0210487   0.0173216   0.0051554  -0.0230108   0.0330248  -0.0003577
          187         188         189         190         191         192
    1   0.0040215  -0.0107557  -0.0054014  -0.0132026  -0.0206305  -0.0125855
    2   0.0524369  -0.0032826  -0.0275001   0.0023090   0.0185440  -0.0650078
    3  -0.0022655   0.0091625   0.0070311   0.0402700  -0.0144477  -0.0876703
          193         194         195         196         197         198
    1   0.0044132  -0.0285792   0.0152650   0.0134540  -0.0393129   0.0042842
    2  -0.0073510  -0.0097328  -0.0209602   0.0064818   0.0405536   0.0004564
    3   0.0032575  -0.0087608  -0.0166285   0.0286514   0.0086789  -0.0064582
          199         200         201         202         203         204
    1  -0.0273175   0.0209750   0.0153330   0.1253077  -0.0027542  -0.0263857
    2  -0.0118639   0.0205096  -0.0239658   0.0200521  -0.0040356  -0.0212209
    3  -0.0170507  -0.0180892  -0.0029199   0.0411159   0.0077362   0.0237545
          205         206         207         208         209         210
    1   0.0101476   0.0195946  -0.0293283   0.0055524  -0.0001322   0.0150953
    2  -0.0293475   0.0002592  -0.0221408   0.0020275   0.0317902   0.0059526
    3  -0.0085445   0.0220864  -0.0422962  -0.0051198  -0.0129655   0.0244859
          211         212         213         214         215         216
    1   0.0155038  -0.0223932   0.0031465   0.0256884   0.0026059  -0.0240994
    2  -0.0298775   0.0911225   0.0033350  -0.0147209   0.0305332   0.0001548
    3  -0.0136596   0.0543057   0.0065205   0.0182578  -0.0073412   0.0209876
          217         218         219         220         221         222
    1  -0.0057936   0.0043650  -0.0060029   0.0077232   0.0232727  -0.0740046
    2  -0.0509123  -0.0020554   0.0083843   0.0291050  -0.0245651   0.0655376
    3   0.0068553  -0.0048431  -0.0276390   0.0058734  -0.0098974  -0.0502150
          223         224         225         226         227         228
    1  -0.0064331  -0.0238202   0.0079486  -0.0063467   0.0103257   0.0047345
    2   0.0037999  -0.0178384   0.0317105  -0.0005993   0.0037829   0.0032458
    3  -0.0068669   0.0116666  -0.0020338  -0.0322348   0.0524578  -0.0060179
          229         230         231         232         233         234
    1   0.0242651  -0.0100723   0.0138708  -0.0159002  -0.0023992   0.0211142
    2  -0.0192611   0.0011293   0.0334545  -0.0963557  -0.0053347  -0.0165606
    3   0.0068308  -0.0287959   0.0013615  -0.0528006   0.0025418   0.0153258
          235         236         237         238         239         240
    1  -0.0336235  -0.0105275  -0.0167417   0.0017892  -0.0301102   0.0206373
    2   0.0059924  -0.0226029   0.0476735  -0.0006982   0.0088963   0.0146704
    3   0.0091113  -0.0172632   0.0232744  -0.0082603  -0.0099497  -0.0189399
          241         242         243         244         245         246
    1   0.0059103   0.1069981   0.0036988   0.0291524  -0.0123143   0.0092693
    2  -0.0248369  -0.0343742   0.0087936   0.0031133   0.0126200   0.0194775
    3  -0.0141502  -0.0031510  -0.0003211  -0.0127706  -0.0291139   0.0294571
          247         248         249         250         251         252
    1  -0.0390505   0.0079159  -0.0113295   0.0269370   0.0343684  -0.0348469
    2   0.0000134  -0.0039501  -0.0318666   0.0060443   0.0218120  -0.0135560
    3   0.0392227  -0.0045338  -0.0051213  -0.0231569   0.0170190  -0.1055336
          253         254         255         256         257         258
    1  -0.0084213  -0.0233800  -0.0049618  -0.0150174   0.0031296   0.0005235
    2   0.0020227   0.0145123  -0.0160341   0.0196514   0.0304143  -0.0039239
    3   0.0045646  -0.0245375   0.0290530   0.0095859  -0.0518256   0.0008189
          259         260         261         262         263         264
    1   0.0257305  -0.0080666  -0.0133567   0.0655843   0.0004597  -0.0222970
    2  -0.0168413  -0.0214324  -0.0165246   0.0190703   0.0091540   0.0230500
    3   0.0033928   0.0196049  -0.0274312   0.0870593  -0.0013219   0.0103000
          265         266         267         268         269         270
    1   0.0262464  -0.0048479   0.0023229   0.0024727   0.0029323  -0.0119759
    2   0.0250495  -0.0110799   0.0134083  -0.0066010  -0.0304494  -0.0068949
    3  -0.0012146  -0.0265024   0.0538736  -0.0034911   0.0171978  -0.0250508
          271         272         273         274         275         276
    1   0.0296523  -0.0892858  -0.0058298  -0.0234007   0.0074189  -0.0073723
    2   0.0129770  -0.0467138   0.0030184  -0.0280972   0.0340154   0.0043174
    3   0.0123862  -0.0472053  -0.0011002  -0.0058606   0.0167101  -0.0374958
          277         278         279         280         281         282
    1   0.0494183  -0.0025495   0.0192023  -0.0272986   0.0092414  -0.0249429
    2   0.0289126  -0.0071536  -0.0290888  -0.0188342  -0.0017108  -0.0094864
    3  -0.0173479   0.0009781   0.0052371   0.0074461  -0.0299689   0.1067180
          283         284         285         286         287         288
    1   0.0029672  -0.0078521  -0.0068802   0.0354151   0.0138953   0.0030546
    2  -0.0083623  -0.0248933  -0.0180372   0.0028458   0.0346221  -0.0006347
    3   0.0017707   0.0212869  -0.0230835   0.0027536  -0.0359062   0.0110388
          289         290         291         292
    1   0.0101805   0.0312467  -0.0267602  -0.0957586
    2  -0.0246534   0.0199018  -0.0001909  -0.0471170
    3   0.0174707  -0.0023787   0.0192888   0.0204104
  --- DONE ESP SUMMARY ---
 Total job time:  32.03s(wall), 81.82s(cpu) 
 Thu Jul 21 08:57:42 2022

        *************************************************************
        *                                                           *
        *  Thank you very much for using Q-Chem.  Have a nice day.  *
        *                                                           *
        *************************************************************


