                  Welcome to Q-Chem
     A Quantum Leap Into The Future Of Chemistry


 Q-Chem 6.0 (devel), Q-Chem, Inc., Pleasanton, CA (2022)

 E. Epifanovsky,  A. T. B. Gilbert,  Xintian Feng,  Joonho Lee,  Yuezhi Mao,  
 N. Mardirossian,  P. Pokhilko,  A. White,  M. Wormit,  M. P. Coons,  
 A. L. Dempwolff,  Zhengting Gan,  D. Hait,  P. R. Horn,  L. D. Jacobson,  
 I. Kaliman,  J. Kussmann,  A. W. Lange,  Ka Un Lao,  D. S. Levine,  Jie Liu,  
 S. C. McKenzie,  A. F. Morrison,  K. Nanda,  F. Plasser,  D. R. Rehn,  
 M. L. Vidal,  Zhi-Qiang You,  Ying Zhu,  B. Alam,  B. Albrecht,  
 A. Aldossary,  E. Alguire,  J. H. Andersen,  V. Athavale,  D. Barton,  
 K. Begam,  A. Behn,  N. Bellonzi,  Y. A. Bernard,  E. J. Berquist,  
 H. Burton,  A. Carreras,  K. Carter-Fenk,  Romit Chakraborty,  
 Chandrima Chakravarty,  Junhan Chen,  A. D. Chien,  K. D. Closser,  
 V. Cofer-Shabica,  L. Cunha,  S. Dasgupta,  Jia Deng,  M. de Wergifosse,  
 M. Diedenhofen,  Hainam Do,  S. Ehlert,  Po-Tung Fang,  S. Fatehi,  
 Qingguo Feng,  T. Friedhoff,  B. Ganoe,  J. Gayvert,  Qinghui Ge,  
 G. Gidofalvi,  M. Goldey,  J. Gomes,  C. Gonzalez-Espinoza,  S. Gulania,  
 A. Gunina,  J. A. Gyamfi,  M. W. D. Hanson-Heine,  P. H. P. Harbach,  
 A. W. Hauser,  M. F. Herbst,  M. Hernandez Vera,  M. Hodecker,  
 Z. C. Holden,  S. Houck,  Xunkun Huang,  Kerwin Hui,  B. C. Huynh,  
 K. Ikeda,  M. Ivanov,  Hyunjun Ji,  Zuxin Jin,  Hanjie Jiang,  B. Kaduk,  
 S. Kaehler,  R. Kang,  K. Khistyaev,  Jaehoon Kim,  Yongbin Kim,  
 P. Klunzinger,  Z. Koczor-Benda,  Joong Hoon Koh,  D. Kosenkov,  
 Saikiran Kotaru,  L. Koulias,  T. Kowalczyk,  C. M. Krauter,  K. Kue,  
 A. Kunitsa,  T. Kus,  A. Landau,  K. V. Lawler,  D. Lefrancois,  S. Lehtola,  
 Rain Li,  Shaozhi Li,  Yi-Pei Li,  Jiashu Liang,  M. Liebenthal,  
 Hung-Hsuan Lin,  You-Sheng Lin,  Fenglai Liu,  Kuan-Yu Liu,  
 M. Loipersberger,  A. Luenser,  C. Malbon,  A. Manjanath,  P. Manohar,  
 E. Mansoor,  S. F. Manzer,  Shan-Ping Mao,  A. V. Marenich,  T. Markovich,  
 S. Mason,  F. Matz,  S. A. Maurer,  P. F. McLaughlin,  M. F. S. J. Menger,  
 J.-M. Mewes,  S. A. Mewes,  P. Morgante,  Mohammad Mostafanejad,  
 J. W. Mullinax,  K. J. Oosterbaan,  G. Paran,  V. Parravicini,  
 Alexander C. Paul,  Suranjan K. Paul,  F. Pavosevic,  Zheng Pei,  S. Prager,  
 E. I. Proynov,  E. Ramos,  B. Rana,  A. E. Rask,  A. Rettig,  R. M. Richard,  
 F. Rob,  E. Rossomme,  T. Scheele,  M. Scheurer,  M. Schneider,  
 P. E. Schneider,  N. Sergueev,  S. M. Sharada,  Hengyuan Shen,  
 W. Skomorowski,  D. W. Small,  C. J. Stein,  Yingli Su,  Yu-Chuan Su,  
 E. J. Sundstrom,  Zhen Tao,  J. Thirman,  Hung-Yi Tsai,  T. Tsuchimochi,  
 N. M. Tubman,  C. Utku,  S. P. Veccham,  O. Vydrov,  J. Wenzel,  
 Jonathan Wong,  J. Witte,  A. Yamada,  Chou-Hsun Yang,  Kun Yao,  
 S. Yeganeh,  S. R. Yost,  A. Zech,  F. Zeller,  Igor Ying Zhang,  
 Xing Zhang,  Yu Zhang,  D. Zuev,  A. Aspuru-Guzik,  A. T. Bell,  
 N. A. Besley,  K. B. Bravaya,  B. R. Brooks,  D. Casanova,  Jeng-Da Chai,  
 Hsing-Ta Chen,  S. Coriani,  C. J. Cramer,  A. E. DePrince, III,  
 R. A. DiStasio Jr.,  A. Dreuw,  B. D. Dunietz,  T. R. Furlani,  
 W. A. Goddard III,  S. Grimme,  S. Hammes-Schiffer,  T. Head-Gordon,  
 W. J. Hehre,  Chao-Ping Hsu,  T.-C. Jagau,  Yousung Jung,  A. Klamt,  
 Jing Kong,  D. S. Lambrecht,  Xiangyuan Li,  WanZhen Liang,  N. J. Mayhall,  
 C. W. McCurdy,  J. B. Neaton,  T. Neudecker,  C. Ochsenfeld,  
 J. A. Parkhill,  R. Peverati,  V. A. Rassolov,  Haisheng Ren,  Yihan Shao,  
 L. V. Slipchenko,  R. P. Steele,  J. E. Subotnik,  A. J. W. Thom,  
 A. Tkatchenko,  D. G. Truhlar,  T. Van Voorhis,  Fan Wang,  
 T. A. Wesolowski,  K. B. Whaley,  H. L. Woodcock III,  P. M. Zimmerman,  
 S. Faraji,  P. M. W. Gill,  M. Head-Gordon,  J. M. Herbert,  A. I. Krylov

 Contributors to earlier versions of Q-Chem not listed above: 
 R. D. Adamson,  B. Austin,  R. Baer,  J. Baker,  G. J. O. Beran,  
 K. Brandhorst,  S. T. Brown,  E. F. C. Byrd,  Arup K. Chakraborty,  
 G. K. L. Chan,  Chun-Min Chang,  Yunqing Chen,  C.-L. Cheng,  
 Siu Hung Chien,  D. M. Chipman,  D. L. Crittenden,  H. Dachsel,  
 R. J. Doerksen,  A. D. Dutoi,  R. G. Edgar,  J. Fosso-Tande,  
 L. Fusti-Molnar,  D. Ghosh,  A. Ghysels,  A. Golubeva-Zadorozhnaya,  
 J. Gonthier,  M. S. Gordon,  S. R. Gwaltney,  G. Hawkins,  J. E. Herr,  
 A. Heyden,  S. Hirata,  E. G. Hohenstein,  G. Kedziora,  F. J. Keil,  
 C. Kelley,  Jihan Kim,  R. A. King,  R. Z. Khaliullin,  P. P. Korambath,  
 W. Kurlancheek,  A. Laurent,  A. M. Lee,  M. S. Lee,  S. V. Levchenko,  
 Ching Yeh Lin,  D. Liotard,  E. Livshits,  R. C. Lochan,  I. Lotan,  
 L. A. Martinez-Martinez,  P. E. Maslen,  N. Nair,  D. P. O'Neill,  
 D. Neuhauser,  E. Neuscamman,  C. M. Oana,  R. Olivares-Amaya,  R. Olson,  
 T. M. Perrine,  B. Peters,  P. A. Pieniazek,  A. Prociuk,  Y. M. Rhee,  
 J. Ritchie,  M. A. Rohrdanz,  E. Rosta,  N. J. Russ,  H. F. Schaefer III,  
 M. W. Schmidt,  N. E. Schultz,  S. Sharma,  N. Shenvi,  C. D. Sherrill,  
 A. C. Simmonett,  A. Sodt,  T. Stein,  D. Stuck,  K. S. Thanthiriwatte,  
 V. Vanovschi,  L. Vogt,  Tao Wang,  A. Warshel,  M. A. Watson,  
 C. F. Williams,  Q. Wu,  X. Xu,  Jun Yang,  W. Zhang,  Yan Zhao

   Please cite Q-Chem as follows:
  "Software for the frontiers of quantum chemistry:
   An overview of developments in the Q-Chem 5 package"
   J. Chem. Phys. 155, 084801 (2021)
   https://doi.org/10.1063/5.0055522 (open access)

 Q-Chem 6.0.0 for Intel X86 EM64T Linux

 Parts of Q-Chem use Armadillo 9.900.5 (Nocturnal Misbehaviour).
 http://arma.sourceforge.net/

 Q-Chem begins on Thu Jul 21 03:40:19 2022  

 Host: nid00511
0

     Scratch files written to /global/cscratch1/sd/ymao90/r7.00_frame_0001_spade_B3LYP_dp20220721031338//
 Processing $rem in /global/homes/y/ymao90/my_qchem/qchem_embedding_5p4/config/preferences:
 Processing $rem in /global/homes/y/ymao90/.qchemrc:
 No nuclear gradient supported for projection-based embedding or EMFT. Set max ideriv = 0.

 Checking the input file for inconsistencies... 	...done.

--------------------------------------------------------------
User input:
--------------------------------------------------------------
$molecule
0 1
--
0 1
C    19.36700   20.77700   27.27000  
C    19.88600   19.45600   27.86200  
C    20.80700   18.74900   26.85300  
C    21.97700   19.62000   26.36800  
C    21.39400   20.90700   25.76100  
C    20.48500   21.68300   26.72700  
H    21.20200   17.83600   27.31600  
H    20.42400   19.59500   28.80700  
H    18.71700   20.48000   26.43800  
H    18.76500   21.30700   28.01800  
H    22.67600   19.86900   27.17500  
H    22.52200   18.92400   25.71900  
H    22.14600   21.60400   25.37100  
H    20.81100   20.54100   24.90700  
H    21.08000   22.11100   27.54300  
H    20.16100   22.47000   26.03500  
H    20.14000   18.45600   26.03300  
N    18.71600   18.64000   28.18100  
H    18.27400   18.26500   27.35100  
C    18.01800   18.58400   29.36900  
H    17.04900   18.07600   29.20900  
O    18.29200   19.06200   30.45500  
--
0 1
C    23.49400   20.10300   22.99000  
H    23.25200   19.24400   23.62100  
H    23.02000   20.98600   23.42600  
H    23.25000   19.95900   21.93400  
S    25.24200   20.55600   23.05100  
C    25.23900   20.95600   24.81300  
H    24.64800   21.87600   24.78800  
H    24.74500   20.13300   25.33600  
H    26.26200   21.08100   25.17600  
O    25.37700   21.83600   22.28700  
C    29.36000   19.11900   24.70400  
H    28.63800   19.20400   25.52100  
H    30.37300   19.00200   25.09600  
H    29.24200   19.90200   23.95100  
S    28.84200   17.50100   24.09000  
C    30.20100   17.25800   22.92500  
H    30.50100   18.21000   22.47900  
H    31.11700   16.84800   23.35800  
H    29.86300   16.59800   22.12200  
O    27.61300   17.82300   23.29800  
C    16.35100   19.42900   33.01700  
H    17.26400   19.92300   32.67500  
H    16.41400   18.94000   33.99200  
H    16.04400   18.69900   32.26300  
S    15.11800   20.73700   33.20600  
C    15.23500   20.93500   34.99800  
H    16.24900   21.27600   35.22200  
H    14.44000   21.62200   35.30100  
H    15.03700   19.97500   35.48100  
O    13.71600   20.23600   33.04600  
C    11.64800   13.52500   26.28300  
H    12.01300   13.19500   25.30700  
H    11.34700   12.61700   26.81100  
H    10.89400   14.31300   26.21400  
S    12.87000   14.53200   27.15400  
C    13.94700   13.15500   27.61400  
H    14.29500   12.63500   26.71800  
H    14.74200   13.53100   28.26300  
H    13.39100   12.52300   28.31100  
O    12.30900   14.83900   28.50800  
C    14.19100   17.79300   28.07200  
H    14.92800   17.93800   27.27800  
H    14.32100   16.81600   28.54600  
H    13.16500   17.93300   27.72400  
S    14.31700   19.05600   29.35800  
C    12.67500   18.92700   30.10100  
H    12.82600   18.28700   30.97400  
H    12.23800   19.86300   30.46000  
H    11.93700   18.52500   29.40200  
O    14.19400   20.30100   28.53400  
C    20.45800   12.92400   22.55300  
H    21.37000   13.49200   22.34700  
H    20.43200   11.83400   22.62000  
H    19.56200   13.24100   22.01300  
S    19.95600   13.32900   24.24100  
C    19.89900   15.12500   24.05300  
H    19.39800   15.49700   23.15600  
H    19.40900   15.53400   24.94000  
H    20.91400   15.52100   23.96400  
O    21.26700   13.22400   24.95700  
C    23.61800   23.64900   28.37900  
H    24.30800   24.32600   27.86900  
H    24.08800   22.66600   28.30100  
H    22.74500   23.71100   27.72400  
S    23.10600   24.25800   30.00200  
C    24.79100   24.75900   30.42100  
H    25.50300   23.95300   30.22900  
H    24.88700   25.60900   29.74100  
H    24.89500   25.11900   31.44800  
O    22.87300   23.02500   30.81900  
C    28.63800   21.32700   29.20100  
H    29.27100   21.02900   28.36000  
H    28.83600   22.39700   29.31100  
H    28.91400   20.79800   30.11700  
S    26.86800   21.08800   28.93300  
C    26.88000   19.36600   28.38500  
H    27.23400   18.73300   29.20200  
H    25.84000   19.06300   28.23800  
H    27.50400   19.36500   27.48700  
O    26.47500   21.99300   27.80700  
C    19.78600   22.04500   32.76500  
H    19.86400   22.67900   33.65200  
H    19.54800   21.04900   33.14600  
H    20.69000   21.92500   32.16300  
S    18.44700   22.69300   31.73800  
C    19.41700   24.19100   31.45100  
H    20.21600   23.97700   30.73700  
H    18.78900   25.04700   31.19200  
H    19.75300   24.42900   32.46300  
O    17.42600   23.00600   32.78700  
C    19.85800   25.53600   26.76400  
H    20.00700   25.59800   25.68300  
H    20.06900   24.54100   27.16500  
H    18.86400   25.96100   26.92600  
S    21.09700   26.67200   27.42800  
C    20.63000   28.20200   26.58600  
H    19.61400   28.43600   26.91500  
H    21.31100   28.97000   26.96200  
H    20.69300   28.03600   25.50800  
O    22.34600   26.20400   26.75000  
C    14.17400   15.96100   32.18900  
H    14.71000   15.91800   33.14000  
H    14.49800   16.86000   31.65900  
H    13.09400   15.84600   32.31100  
S    14.82000   14.57300   31.22900  
C    14.92600   13.54200   32.71000  
H    15.48800   13.89900   33.57600  
H    13.89700   13.27800   32.96800  
H    15.31500   12.59800   32.32000  
O    16.18700   15.04500   30.84200  
C    22.05100   19.63100   30.94900  
H    22.22200   20.27200   30.08000  
H    20.99800   19.40400   31.13300  
H    22.41100   20.28600   31.74600  
S    22.95700   18.07200   30.82300  
C    24.53300   18.88500   31.17000  
H    25.35200   18.16600   31.07900  
H    24.85700   19.66800   30.48000  
H    24.39500   19.25100   32.19000  
O    22.84600   17.81200   29.35300  
C    19.23700   15.49000   34.97700  
H    18.62900   15.15600   35.82200  
H    18.99600   14.82800   34.14200  
H    20.32100   15.47200   35.11600  
S    18.89400   17.21700   34.56800  
C    19.50900   17.21500   32.86800  
H    18.95100   16.45600   32.31400  
H    19.37300   18.18800   32.39100  
H    20.54600   16.86900   32.89100  
O    19.94000   18.02300   35.27400  
C    22.39400   15.65900   20.76200  
H    22.50200   16.39400   19.96000  
H    21.87500   14.77300   20.38900  
H    21.84900   15.94200   21.66700  
S    24.04700   15.16000   21.29500  
C    24.74800   16.75500   20.81800  
H    25.72200   16.73300   21.31400  
H    24.76200   16.83500   19.72800  
H    24.13500   17.52000   21.30100  
O    24.54600   14.22400   20.23900  
C    20.29000   18.63000   21.50800  
H    21.12700   18.90000   22.15700  
H    19.38400   18.94800   22.03000  
H    20.37400   17.57600   21.23100  
S    20.47100   19.61200   20.00200  
C    19.08200   18.85400   19.12900  
H    19.29500   17.78300   19.08700  
H    18.12900   19.07800   19.61500  
H    19.17100   19.33600   18.15200  
O    21.58700   18.91200   19.29200  
C    17.27100   29.02800   21.99100  
H    16.26400   28.60200   22.00000  
H    17.18300   29.91800   22.61900  
H    17.59900   29.19100   20.96100  
S    18.30200   27.78100   22.79500  
C    17.32800   27.61100   24.30800  
H    17.68800   26.67200   24.73600  
H    17.46700   28.49400   24.93700  
H    16.29300   27.41300   24.01800  
O    19.53700   28.49700   23.24600  
C    21.88500   25.46200   23.54700  
H    21.03200   24.80600   23.74000  
H    22.27700   25.97800   24.42700  
H    21.54700   26.26000   22.88100  
S    23.21500   24.52300   22.76200  
C    24.43700   24.70900   24.08000  
H    23.98900   24.77600   25.07500  
H    25.12400   23.86000   24.04300  
H    24.93200   25.65900   23.86500  
O    23.76000   25.47700   21.74400  
C    23.64800   15.05400   25.70000  
H    24.53300   14.72500   26.25100  
H    23.00200   15.57400   26.41200  
H    23.25000   14.13100   25.27000  
S    24.20900   16.15100   24.37800  
C    25.20600   17.31100   25.33900  
H    24.52600   17.82600   26.02300  
H    25.94800   16.80900   25.96400  
H    25.66400   18.05500   24.68200  
O    23.00400   16.96800   24.03000  
C    15.66800   19.11400   24.42600  
H    16.53300   18.61200   24.86500  
H    15.05600   19.68100   25.13200  
H    14.97400   18.50800   23.83800  
S    16.59800   20.13100   23.25700  
C    15.22200   21.17900   22.73200  
H    14.84700   21.69600   23.61900  
H    15.63400   21.97300   22.10300  
H    14.57400   20.56400   22.10300  
O    16.87800   19.21600   22.10500  
C    18.03300   24.56300   21.33800  
H    17.40100   25.43900   21.50600  
H    18.86600   24.83600   20.68400  
H    17.35300   23.91500   20.77900  
S    18.57800   23.84200   22.90200  
C    19.22200   22.34300   22.12500  
H    20.15300   22.53100   21.58400  
H    19.40300   21.49300   22.78800  
H    18.38300   21.99500   21.51700  
O    17.25400   23.47400   23.49700  
C    19.14300   14.69100   28.13100  
H    19.92200   14.94800   27.40800  
H    19.37400   15.27500   29.02600  
H    19.15000   13.63800   28.42500  
S    17.54200   15.29100   27.54700  
C    17.21700   13.73200   26.69300  
H    16.45000   13.89900   25.93100  
H    18.18800   13.38300   26.33400  
H    16.98400   13.03300   27.50000  
O    17.83600   16.27500   26.45800  
C    16.03900   22.97900   27.07900  
H    15.31500   22.16200   27.00900  
H    15.46000   23.88200   26.87100  
H    16.79900   22.91300   26.29600  
S    16.92300   23.13900   28.64700  
C    15.40100   23.41000   29.58300  
H    15.76000   23.62500   30.59200  
H    14.83900   24.26600   29.20100  
H    14.78000   22.51200   29.53500  
O    17.63500   24.45500   28.69000  
C    23.87200   11.11400   26.69900  
H    24.26800   10.13000   26.43500  
H    22.89300   11.32300   26.25800  
H    24.51900   11.96800   26.48700  
S    23.50400   11.13200   28.46800  
C    22.20600   12.37900   28.31700  
H    22.67800   13.36300   28.25300  
H    21.54800   12.12400   27.48300  
H    21.71400   12.27500   29.28800  
O    24.58400   11.90700   29.15700  
C    10.51200   19.12200   25.85900  
H    9.90900    19.65800   25.12200  
H    10.68500   18.05800   25.67500  
H    10.06700   19.12300   26.85800  
S    12.12900   19.91900   25.73400  
C    11.72800   21.46100   26.58700  
H    10.81800   21.89500   26.16400  
H    11.53500   21.22100   27.63600  
H    12.55200   22.17200   26.49300  
O    12.34300   20.32000   24.30700  
C    27.55000   13.88200   29.58100  
H    26.62300   13.30300   29.57100  
H    28.07200   13.93700   28.62200  
H    28.12300   13.40000   30.37700  
S    26.92300   15.51500   30.03100  
C    25.73500   15.52400   28.66900  
H    25.00100   14.74600   28.89200  
H    25.23000   16.49000   28.59200  
H    26.15700   15.21600   27.70900  
O    28.10800   16.36500   29.69000  
$end

$rem
JOBTYPE  SP
METHOD  B3LYP
BASIS  6-31+G(D)
SYMMETRY  FALSE
SYM_IGNORE  TRUE
MEM_TOTAL  12000
MEM_STATIC  4000
BASIS_LIN_DEP_THRESH  6
THRESH  14
SCF_CONVERGENCE  8
FD_MAT_VEC_PROD  FALSE
XC_GRID  000075000302
NL_GRID  1
MAX_SCF_CYCLES  200
ENV_METHOD  B3LYP
GEN_SCFMAN_EMBED  TRUE
SPADE_PARTITION  TRUE
EMBEDDING_EARLY_STOP  TRUE
$end

--------------------------------------------------------------
 ----------------------------------------------------------------
             Standard Nuclear Orientation (Angstroms)
    I     Atom           X                Y                Z
 ----------------------------------------------------------------
    1      C      19.3670000000    20.7770000000    27.2700000000
    2      C      19.8860000000    19.4560000000    27.8620000000
    3      C      20.8070000000    18.7490000000    26.8530000000
    4      C      21.9770000000    19.6200000000    26.3680000000
    5      C      21.3940000000    20.9070000000    25.7610000000
    6      C      20.4850000000    21.6830000000    26.7270000000
    7      H      21.2020000000    17.8360000000    27.3160000000
    8      H      20.4240000000    19.5950000000    28.8070000000
    9      H      18.7170000000    20.4800000000    26.4380000000
   10      H      18.7650000000    21.3070000000    28.0180000000
   11      H      22.6760000000    19.8690000000    27.1750000000
   12      H      22.5220000000    18.9240000000    25.7190000000
   13      H      22.1460000000    21.6040000000    25.3710000000
   14      H      20.8110000000    20.5410000000    24.9070000000
   15      H      21.0800000000    22.1110000000    27.5430000000
   16      H      20.1610000000    22.4700000000    26.0350000000
   17      H      20.1400000000    18.4560000000    26.0330000000
   18      N      18.7160000000    18.6400000000    28.1810000000
   19      H      18.2740000000    18.2650000000    27.3510000000
   20      C      18.0180000000    18.5840000000    29.3690000000
   21      H      17.0490000000    18.0760000000    29.2090000000
   22      O      18.2920000000    19.0620000000    30.4550000000
   23      C      23.4940000000    20.1030000000    22.9900000000
   24      H      23.2520000000    19.2440000000    23.6210000000
   25      H      23.0200000000    20.9860000000    23.4260000000
   26      H      23.2500000000    19.9590000000    21.9340000000
   27      S      25.2420000000    20.5560000000    23.0510000000
   28      C      25.2390000000    20.9560000000    24.8130000000
   29      H      24.6480000000    21.8760000000    24.7880000000
   30      H      24.7450000000    20.1330000000    25.3360000000
   31      H      26.2620000000    21.0810000000    25.1760000000
   32      O      25.3770000000    21.8360000000    22.2870000000
   33      C      29.3600000000    19.1190000000    24.7040000000
   34      H      28.6380000000    19.2040000000    25.5210000000
   35      H      30.3730000000    19.0020000000    25.0960000000
   36      H      29.2420000000    19.9020000000    23.9510000000
   37      S      28.8420000000    17.5010000000    24.0900000000
   38      C      30.2010000000    17.2580000000    22.9250000000
   39      H      30.5010000000    18.2100000000    22.4790000000
   40      H      31.1170000000    16.8480000000    23.3580000000
   41      H      29.8630000000    16.5980000000    22.1220000000
   42      O      27.6130000000    17.8230000000    23.2980000000
   43      C      16.3510000000    19.4290000000    33.0170000000
   44      H      17.2640000000    19.9230000000    32.6750000000
   45      H      16.4140000000    18.9400000000    33.9920000000
   46      H      16.0440000000    18.6990000000    32.2630000000
   47      S      15.1180000000    20.7370000000    33.2060000000
   48      C      15.2350000000    20.9350000000    34.9980000000
   49      H      16.2490000000    21.2760000000    35.2220000000
   50      H      14.4400000000    21.6220000000    35.3010000000
   51      H      15.0370000000    19.9750000000    35.4810000000
   52      O      13.7160000000    20.2360000000    33.0460000000
   53      C      11.6480000000    13.5250000000    26.2830000000
   54      H      12.0130000000    13.1950000000    25.3070000000
   55      H      11.3470000000    12.6170000000    26.8110000000
   56      H      10.8940000000    14.3130000000    26.2140000000
   57      S      12.8700000000    14.5320000000    27.1540000000
   58      C      13.9470000000    13.1550000000    27.6140000000
   59      H      14.2950000000    12.6350000000    26.7180000000
   60      H      14.7420000000    13.5310000000    28.2630000000
   61      H      13.3910000000    12.5230000000    28.3110000000
   62      O      12.3090000000    14.8390000000    28.5080000000
   63      C      14.1910000000    17.7930000000    28.0720000000
   64      H      14.9280000000    17.9380000000    27.2780000000
   65      H      14.3210000000    16.8160000000    28.5460000000
   66      H      13.1650000000    17.9330000000    27.7240000000
   67      S      14.3170000000    19.0560000000    29.3580000000
   68      C      12.6750000000    18.9270000000    30.1010000000
   69      H      12.8260000000    18.2870000000    30.9740000000
   70      H      12.2380000000    19.8630000000    30.4600000000
   71      H      11.9370000000    18.5250000000    29.4020000000
   72      O      14.1940000000    20.3010000000    28.5340000000
   73      C      20.4580000000    12.9240000000    22.5530000000
   74      H      21.3700000000    13.4920000000    22.3470000000
   75      H      20.4320000000    11.8340000000    22.6200000000
   76      H      19.5620000000    13.2410000000    22.0130000000
   77      S      19.9560000000    13.3290000000    24.2410000000
   78      C      19.8990000000    15.1250000000    24.0530000000
   79      H      19.3980000000    15.4970000000    23.1560000000
   80      H      19.4090000000    15.5340000000    24.9400000000
   81      H      20.9140000000    15.5210000000    23.9640000000
   82      O      21.2670000000    13.2240000000    24.9570000000
   83      C      23.6180000000    23.6490000000    28.3790000000
   84      H      24.3080000000    24.3260000000    27.8690000000
   85      H      24.0880000000    22.6660000000    28.3010000000
   86      H      22.7450000000    23.7110000000    27.7240000000
   87      S      23.1060000000    24.2580000000    30.0020000000
   88      C      24.7910000000    24.7590000000    30.4210000000
   89      H      25.5030000000    23.9530000000    30.2290000000
   90      H      24.8870000000    25.6090000000    29.7410000000
   91      H      24.8950000000    25.1190000000    31.4480000000
   92      O      22.8730000000    23.0250000000    30.8190000000
   93      C      28.6380000000    21.3270000000    29.2010000000
   94      H      29.2710000000    21.0290000000    28.3600000000
   95      H      28.8360000000    22.3970000000    29.3110000000
   96      H      28.9140000000    20.7980000000    30.1170000000
   97      S      26.8680000000    21.0880000000    28.9330000000
   98      C      26.8800000000    19.3660000000    28.3850000000
   99      H      27.2340000000    18.7330000000    29.2020000000
  100      H      25.8400000000    19.0630000000    28.2380000000
  101      H      27.5040000000    19.3650000000    27.4870000000
  102      O      26.4750000000    21.9930000000    27.8070000000
  103      C      19.7860000000    22.0450000000    32.7650000000
  104      H      19.8640000000    22.6790000000    33.6520000000
  105      H      19.5480000000    21.0490000000    33.1460000000
  106      H      20.6900000000    21.9250000000    32.1630000000
  107      S      18.4470000000    22.6930000000    31.7380000000
  108      C      19.4170000000    24.1910000000    31.4510000000
  109      H      20.2160000000    23.9770000000    30.7370000000
  110      H      18.7890000000    25.0470000000    31.1920000000
  111      H      19.7530000000    24.4290000000    32.4630000000
  112      O      17.4260000000    23.0060000000    32.7870000000
  113      C      19.8580000000    25.5360000000    26.7640000000
  114      H      20.0070000000    25.5980000000    25.6830000000
  115      H      20.0690000000    24.5410000000    27.1650000000
  116      H      18.8640000000    25.9610000000    26.9260000000
  117      S      21.0970000000    26.6720000000    27.4280000000
  118      C      20.6300000000    28.2020000000    26.5860000000
  119      H      19.6140000000    28.4360000000    26.9150000000
  120      H      21.3110000000    28.9700000000    26.9620000000
  121      H      20.6930000000    28.0360000000    25.5080000000
  122      O      22.3460000000    26.2040000000    26.7500000000
  123      C      14.1740000000    15.9610000000    32.1890000000
  124      H      14.7100000000    15.9180000000    33.1400000000
  125      H      14.4980000000    16.8600000000    31.6590000000
  126      H      13.0940000000    15.8460000000    32.3110000000
  127      S      14.8200000000    14.5730000000    31.2290000000
  128      C      14.9260000000    13.5420000000    32.7100000000
  129      H      15.4880000000    13.8990000000    33.5760000000
  130      H      13.8970000000    13.2780000000    32.9680000000
  131      H      15.3150000000    12.5980000000    32.3200000000
  132      O      16.1870000000    15.0450000000    30.8420000000
  133      C      22.0510000000    19.6310000000    30.9490000000
  134      H      22.2220000000    20.2720000000    30.0800000000
  135      H      20.9980000000    19.4040000000    31.1330000000
  136      H      22.4110000000    20.2860000000    31.7460000000
  137      S      22.9570000000    18.0720000000    30.8230000000
  138      C      24.5330000000    18.8850000000    31.1700000000
  139      H      25.3520000000    18.1660000000    31.0790000000
  140      H      24.8570000000    19.6680000000    30.4800000000
  141      H      24.3950000000    19.2510000000    32.1900000000
  142      O      22.8460000000    17.8120000000    29.3530000000
  143      C      19.2370000000    15.4900000000    34.9770000000
  144      H      18.6290000000    15.1560000000    35.8220000000
  145      H      18.9960000000    14.8280000000    34.1420000000
  146      H      20.3210000000    15.4720000000    35.1160000000
  147      S      18.8940000000    17.2170000000    34.5680000000
  148      C      19.5090000000    17.2150000000    32.8680000000
  149      H      18.9510000000    16.4560000000    32.3140000000
  150      H      19.3730000000    18.1880000000    32.3910000000
  151      H      20.5460000000    16.8690000000    32.8910000000
  152      O      19.9400000000    18.0230000000    35.2740000000
  153      C      22.3940000000    15.6590000000    20.7620000000
  154      H      22.5020000000    16.3940000000    19.9600000000
  155      H      21.8750000000    14.7730000000    20.3890000000
  156      H      21.8490000000    15.9420000000    21.6670000000
  157      S      24.0470000000    15.1600000000    21.2950000000
  158      C      24.7480000000    16.7550000000    20.8180000000
  159      H      25.7220000000    16.7330000000    21.3140000000
  160      H      24.7620000000    16.8350000000    19.7280000000
  161      H      24.1350000000    17.5200000000    21.3010000000
  162      O      24.5460000000    14.2240000000    20.2390000000
  163      C      20.2900000000    18.6300000000    21.5080000000
  164      H      21.1270000000    18.9000000000    22.1570000000
  165      H      19.3840000000    18.9480000000    22.0300000000
  166      H      20.3740000000    17.5760000000    21.2310000000
  167      S      20.4710000000    19.6120000000    20.0020000000
  168      C      19.0820000000    18.8540000000    19.1290000000
  169      H      19.2950000000    17.7830000000    19.0870000000
  170      H      18.1290000000    19.0780000000    19.6150000000
  171      H      19.1710000000    19.3360000000    18.1520000000
  172      O      21.5870000000    18.9120000000    19.2920000000
  173      C      17.2710000000    29.0280000000    21.9910000000
  174      H      16.2640000000    28.6020000000    22.0000000000
  175      H      17.1830000000    29.9180000000    22.6190000000
  176      H      17.5990000000    29.1910000000    20.9610000000
  177      S      18.3020000000    27.7810000000    22.7950000000
  178      C      17.3280000000    27.6110000000    24.3080000000
  179      H      17.6880000000    26.6720000000    24.7360000000
  180      H      17.4670000000    28.4940000000    24.9370000000
  181      H      16.2930000000    27.4130000000    24.0180000000
  182      O      19.5370000000    28.4970000000    23.2460000000
  183      C      21.8850000000    25.4620000000    23.5470000000
  184      H      21.0320000000    24.8060000000    23.7400000000
  185      H      22.2770000000    25.9780000000    24.4270000000
  186      H      21.5470000000    26.2600000000    22.8810000000
  187      S      23.2150000000    24.5230000000    22.7620000000
  188      C      24.4370000000    24.7090000000    24.0800000000
  189      H      23.9890000000    24.7760000000    25.0750000000
  190      H      25.1240000000    23.8600000000    24.0430000000
  191      H      24.9320000000    25.6590000000    23.8650000000
  192      O      23.7600000000    25.4770000000    21.7440000000
  193      C      23.6480000000    15.0540000000    25.7000000000
  194      H      24.5330000000    14.7250000000    26.2510000000
  195      H      23.0020000000    15.5740000000    26.4120000000
  196      H      23.2500000000    14.1310000000    25.2700000000
  197      S      24.2090000000    16.1510000000    24.3780000000
  198      C      25.2060000000    17.3110000000    25.3390000000
  199      H      24.5260000000    17.8260000000    26.0230000000
  200      H      25.9480000000    16.8090000000    25.9640000000
  201      H      25.6640000000    18.0550000000    24.6820000000
  202      O      23.0040000000    16.9680000000    24.0300000000
  203      C      15.6680000000    19.1140000000    24.4260000000
  204      H      16.5330000000    18.6120000000    24.8650000000
  205      H      15.0560000000    19.6810000000    25.1320000000
  206      H      14.9740000000    18.5080000000    23.8380000000
  207      S      16.5980000000    20.1310000000    23.2570000000
  208      C      15.2220000000    21.1790000000    22.7320000000
  209      H      14.8470000000    21.6960000000    23.6190000000
  210      H      15.6340000000    21.9730000000    22.1030000000
  211      H      14.5740000000    20.5640000000    22.1030000000
  212      O      16.8780000000    19.2160000000    22.1050000000
  213      C      18.0330000000    24.5630000000    21.3380000000
  214      H      17.4010000000    25.4390000000    21.5060000000
  215      H      18.8660000000    24.8360000000    20.6840000000
  216      H      17.3530000000    23.9150000000    20.7790000000
  217      S      18.5780000000    23.8420000000    22.9020000000
  218      C      19.2220000000    22.3430000000    22.1250000000
  219      H      20.1530000000    22.5310000000    21.5840000000
  220      H      19.4030000000    21.4930000000    22.7880000000
  221      H      18.3830000000    21.9950000000    21.5170000000
  222      O      17.2540000000    23.4740000000    23.4970000000
  223      C      19.1430000000    14.6910000000    28.1310000000
  224      H      19.9220000000    14.9480000000    27.4080000000
  225      H      19.3740000000    15.2750000000    29.0260000000
  226      H      19.1500000000    13.6380000000    28.4250000000
  227      S      17.5420000000    15.2910000000    27.5470000000
  228      C      17.2170000000    13.7320000000    26.6930000000
  229      H      16.4500000000    13.8990000000    25.9310000000
  230      H      18.1880000000    13.3830000000    26.3340000000
  231      H      16.9840000000    13.0330000000    27.5000000000
  232      O      17.8360000000    16.2750000000    26.4580000000
  233      C      16.0390000000    22.9790000000    27.0790000000
  234      H      15.3150000000    22.1620000000    27.0090000000
  235      H      15.4600000000    23.8820000000    26.8710000000
  236      H      16.7990000000    22.9130000000    26.2960000000
  237      S      16.9230000000    23.1390000000    28.6470000000
  238      C      15.4010000000    23.4100000000    29.5830000000
  239      H      15.7600000000    23.6250000000    30.5920000000
  240      H      14.8390000000    24.2660000000    29.2010000000
  241      H      14.7800000000    22.5120000000    29.5350000000
  242      O      17.6350000000    24.4550000000    28.6900000000
  243      C      23.8720000000    11.1140000000    26.6990000000
  244      H      24.2680000000    10.1300000000    26.4350000000
  245      H      22.8930000000    11.3230000000    26.2580000000
  246      H      24.5190000000    11.9680000000    26.4870000000
  247      S      23.5040000000    11.1320000000    28.4680000000
  248      C      22.2060000000    12.3790000000    28.3170000000
  249      H      22.6780000000    13.3630000000    28.2530000000
  250      H      21.5480000000    12.1240000000    27.4830000000
  251      H      21.7140000000    12.2750000000    29.2880000000
  252      O      24.5840000000    11.9070000000    29.1570000000
  253      C      10.5120000000    19.1220000000    25.8590000000
  254      H       9.9090000000    19.6580000000    25.1220000000
  255      H      10.6850000000    18.0580000000    25.6750000000
  256      H      10.0670000000    19.1230000000    26.8580000000
  257      S      12.1290000000    19.9190000000    25.7340000000
  258      C      11.7280000000    21.4610000000    26.5870000000
  259      H      10.8180000000    21.8950000000    26.1640000000
  260      H      11.5350000000    21.2210000000    27.6360000000
  261      H      12.5520000000    22.1720000000    26.4930000000
  262      O      12.3430000000    20.3200000000    24.3070000000
  263      C      27.5500000000    13.8820000000    29.5810000000
  264      H      26.6230000000    13.3030000000    29.5710000000
  265      H      28.0720000000    13.9370000000    28.6220000000
  266      H      28.1230000000    13.4000000000    30.3770000000
  267      S      26.9230000000    15.5150000000    30.0310000000
  268      C      25.7350000000    15.5240000000    28.6690000000
  269      H      25.0010000000    14.7460000000    28.8920000000
  270      H      25.2300000000    16.4900000000    28.5920000000
  271      H      26.1570000000    15.2160000000    27.7090000000
  272      O      28.1080000000    16.3650000000    29.6900000000
 ----------------------------------------------------------------
 Nuclear Repulsion Energy =       42012.80182827 hartrees
 There are      560 alpha and      560 beta electrons
 Requested basis set is 6-31+G(d)
 There are 896 shells and 2497 basis functions

 Total QAlloc Memory Limit  12000 MB
 Mega-Array Size      3911 MB
 MEM_STATIC part      4000 MB

 A cutoff of  1.0D-14 yielded 154380 shell pairs
 There are   1342754 function pairs
 Smallest overlap matrix eigenvalue = 4.87E-07
 Linear dependence detected in AO basis
 Tighter screening thresholds may be required for diffuse basis sets
 Use S2THRESH > 14 and THRESH = 14 in case of SCF convergence issues
 Number of orthogonalized atomic orbitals = 2495
 Maximum deviation from orthogonality = 8.389E-11

 Scale SEOQF with 1.000000e-03/1.000000e-03/1.000000e-03

 Standard Electronic Orientation quadrupole field applied
 Nucleus-field energy     =    -0.0000004029 hartrees
 Guess from superposition of atomic densities
 Warning:  Energy on first SCF cycle will be non-variational
 SAD guess density has 1120.000002 electrons

 -----------------------------------------------------------------------
  General SCF calculation program by
  Eric Jon Sundstrom, Paul Horn, Yuezhi Mao, Dmitri Zuev, Alec White,
  David Stuck, Shaama M.S., Shane Yost, Joonho Lee, David Small,
  Daniel Levine, Susi Lehtola, Hugh Burton, Evgeny Epifanovsky,
  Bang C. Huynh
 -----------------------------------------------------------------------
=================================================
        Doing projection-based embedding         
      F. Manby et al. JCTC, 8, 2564 (2012)       
=================================================

****************************************************
   Low-level SCF calculation for the whole system   
****************************************************
----------------------------------------------
 Summary of the low-level theory: 
 Exchange:     0.2000 Hartree-Fock + 0.0800 Slater + 0.7200 B88
 Correlation:  0.1900 VWN1RPA + 0.8100 LYP
 Using Euler-Maclaurin-Lebedev (75,302) quadrature formula
----------------------------------------------
 using 16 threads for integral computing
 -------------------------------------------------------
 OpenMP Integral computing Module                
 Release: version 1.0, May 2013, Q-Chem Inc. Pittsburgh 
 -------------------------------------------------------
 A restricted SCF calculation will be
 performed using DIIS
 SCF converges when DIIS error is below 1.0e-08
 ---------------------------------------
  Cycle       Energy         DIIS error
 ---------------------------------------
    1  -14252.1395964999      1.40e-02  
    2  -14229.9186575312      2.58e-03  
    3  -14217.0586215175      4.98e-03  
    4  -14233.4128828853      1.14e-03  
    5  -14234.3715660245      1.70e-04  
    6  -14234.3835819138      1.29e-04  
    7  -14234.3932636589      5.45e-05  
    8  -14234.3951251720      1.23e-05  
    9  -14234.3952235542      4.19e-06  
   10  -14234.3952341168      1.74e-06  
   11  -14234.3952358661      5.66e-07  
   12  -14234.3952360489      2.09e-07  
   13  -14234.3952360779      4.60e-08  
   14  -14234.3952360790      2.32e-08  
   15  -14234.3952360793      8.07e-09  Convergence criterion met
 ---------------------------------------
 SCF time:   CPU 204282.18s  wall 14773.00s 
 SCF   energy in the final basis set =   -14234.3952360793
 Total energy in the final basis set =   -14234.3952360793

****************************************************
             Start embedding calculation            
****************************************************
----------------------------------------------
 Summary of the high-level theory: 
 Exchange:     0.2000 Hartree-Fock + 0.0800 Slater + 0.7200 B88
 Correlation:  0.1900 VWN1RPA + 0.8100 LYP
 Using Euler-Maclaurin-Lebedev (75,302) quadrature formula
----------------------------------------------
Doing R-in-R Embedding Calculation
Number of fragments: 2
Embedded fragment(s): 1 
NOcc for each fragment
           35
          525
NBasis for each fragment
          197
         2300
Variational space of the embedded problem: 
NOcc (active)  = 35
NOcc (fixed)   = 525
NVir (total)   = 1935
Read converged orbitals from disk
=========================================================
       Doing SPADE partition for the orbital space       
     D. Claudino and N. Mayhall JCTC 15, 1053 (2019)     
=========================================================
SPADE singular values:
 1.0000 1.0000 1.0000 1.0000 1.0000 1.0000 1.0000 1.0000 1.0000 0.9999
 0.9999 0.9997 0.9997 0.9996 0.9996 0.9995 0.9994 0.9988 0.9983 0.9982
 0.9979 0.9972 0.9970 0.9966 0.9961 0.9952 0.9946 0.9945 0.9932 0.9924
 0.9916 0.9905 0.9892 0.9865 0.9812 0.1851 0.1800 0.1662 0.1493 0.1434
 0.1386 0.1373 0.1236 0.1053 0.0980 0.0904 0.0784 0.0772 0.0690 0.0644
 0.0591 0.0566 0.0479 0.0449 0.0391 0.0381 0.0364 0.0335 0.0314 0.0295
 0.0282 0.0272 0.0242 0.0235 0.0221 0.0201 0.0196 0.0191 0.0183 0.0179
 0.0162 0.0146 0.0131 0.0128 0.0126 0.0118 0.0111 0.0099 0.0093 0.0088
 0.0087 0.0084 0.0077 0.0075 0.0072 0.0069 0.0068 0.0067 0.0062 0.0058
 0.0054 0.0052 0.0051 0.0049 0.0048 0.0045 0.0042 0.0041 0.0040 0.0037
 0.0035 0.0033 0.0032 0.0031 0.0030 0.0028 0.0026 0.0025 0.0024 0.0023
 0.0022 0.0021 0.0021 0.0021 0.0019 0.0018 0.0016 0.0016 0.0015 0.0014
 0.0014 0.0014 0.0013 0.0012 0.0012 0.0011 0.0011 0.0010 0.0010 0.0010
 0.0009 0.0009 0.0009 0.0008 0.0008 0.0008 0.0007 0.0007 0.0007 0.0006
 0.0006 0.0006 0.0006 0.0005 0.0005 0.0005 0.0005 0.0005 0.0004 0.0004
 0.0004 0.0004 0.0003 0.0003 0.0003 0.0003 0.0003 0.0003 0.0003 0.0003
 0.0003 0.0002 0.0002 0.0002 0.0002 0.0002 0.0002 0.0002 0.0002 0.0002
 0.0002 0.0002 0.0002 0.0002 0.0002 0.0001 0.0001 0.0001 0.0001 0.0001
 0.0001 0.0001 0.0001 0.0001 0.0001 0.0001 0.0001 0.0001 0.0001 0.0001
 0.0001 0.0001 0.0001 0.0001 0.0001 0.0000 0.0000
Early stop requested; no embedded SCF will be performed

 525 environment occs will be part of frozen-core in future post-HF calculations

 --------------------------------------------------------------

                    Orbital Energies (a.u.)
 --------------------------------------------------------------

 Alpha MOs
 -- Occupied --
-89.0302 -89.0210 -89.0204 -89.0130 -89.0107 -89.0063 -89.0057 -89.0057
-89.0052 -89.0043 -89.0041 -89.0027 -89.0022 -88.9972 -88.9969 -88.9917
-88.9847 -88.9827 -88.9817 -88.9803 -88.9773 -88.9707 -88.9680 -88.9642
-88.9563 -19.1441 -19.1422 -19.1420 -19.1261 -19.1257 -19.1254 -19.1236
-19.1219 -19.1211 -19.1211 -19.1175 -19.1173 -19.1164 -19.1136 -19.1111
-19.1102 -19.1058 -19.1056 -19.1005 -19.0962 -19.0950 -19.0931 -19.0888
-19.0855 -19.0657 -10.2490 -10.2446 -10.2421 -10.2420 -10.2343 -10.2340
-10.2318 -10.2317 -10.2270 -10.2259 -10.2257 -10.2256 -10.2254 -10.2249
-10.2234 -10.2233 -10.2231 -10.2208 -10.2202 -10.2197 -10.2192 -10.2190
-10.2176 -10.2157 -10.2103 -10.2100 -10.2100 -10.2096 -10.2091 -10.2058
-10.2054 -10.2038 -10.2035 -10.1995 -10.1978 -10.1975 -10.1974 -10.1959
-10.1957 -10.1949 -10.1936 -10.1903 -10.1885 -10.1883 -10.1879 -10.1865
-10.1860 -10.1830 -10.1693 -10.1690  -8.0763  -8.0669  -8.0659  -8.0597
 -8.0555  -8.0533  -8.0514  -8.0510  -8.0510  -8.0504  -8.0501  -8.0488
 -8.0482  -8.0431  -8.0427  -8.0370  -8.0309  -8.0289  -8.0282  -8.0255
 -8.0229  -8.0169  -8.0147  -8.0101  -8.0021  -6.0404  -6.0395  -6.0339
 -6.0313  -6.0304  -6.0298  -6.0289  -6.0244  -6.0240  -6.0233  -6.0226
 -6.0200  -6.0187  -6.0176  -6.0174  -6.0163  -6.0156  -6.0156  -6.0154
 -6.0147  -6.0146  -6.0146  -6.0142  -6.0140  -6.0137  -6.0134  -6.0131
 -6.0131  -6.0126  -6.0121  -6.0111  -6.0107  -6.0087  -6.0086  -6.0084
 -6.0078  -6.0073  -6.0073  -6.0072  -6.0063  -6.0059  -6.0058  -6.0057
 -6.0015  -6.0005  -5.9999  -5.9998  -5.9953  -5.9945  -5.9940  -5.9930
 -5.9926  -5.9920  -5.9913  -5.9900  -5.9886  -5.9883  -5.9874  -5.9866
 -5.9858  -5.9854  -5.9830  -5.9815  -5.9806  -5.9800  -5.9789  -5.9776
 -5.9745  -5.9738  -5.9734  -5.9722  -5.9674  -5.9664  -5.9654  -5.9597
 -1.0536  -1.0501  -1.0479  -1.0405  -1.0339  -1.0320  -1.0297  -1.0291
 -1.0290  -1.0289  -1.0272  -1.0268  -1.0260  -1.0244  -1.0186  -1.0167
 -1.0139  -1.0110  -1.0101  -1.0063  -1.0045  -1.0006  -0.9938  -0.9935
 -0.9763  -0.8310  -0.8291  -0.8287  -0.8150  -0.8109  -0.8104  -0.8101
 -0.8091  -0.8083  -0.8056  -0.8054  -0.8039  -0.8021  -0.7996  -0.7956
 -0.7898  -0.7881  -0.7854  -0.7823  -0.7814  -0.7807  -0.7804  -0.7794
 -0.7766  -0.7600  -0.7540  -0.7470  -0.7452  -0.7391  -0.7376  -0.7370
 -0.7368  -0.7357  -0.7351  -0.7327  -0.7301  -0.7287  -0.7258  -0.7229
 -0.7211  -0.7153  -0.7139  -0.7109  -0.7087  -0.7069  -0.7016  -0.7010
 -0.6970  -0.6956  -0.6856  -0.6420  -0.6343  -0.6329  -0.6242  -0.6221
 -0.6180  -0.6179  -0.6172  -0.6169  -0.6165  -0.6162  -0.6160  -0.6139
 -0.6105  -0.6089  -0.6007  -0.5939  -0.5937  -0.5921  -0.5918  -0.5888
 -0.5869  -0.5799  -0.5785  -0.5702  -0.5151  -0.5090  -0.5052  -0.5004
 -0.4985  -0.4967  -0.4949  -0.4947  -0.4923  -0.4915  -0.4902  -0.4896
 -0.4866  -0.4849  -0.4846  -0.4837  -0.4831  -0.4827  -0.4826  -0.4809
 -0.4791  -0.4761  -0.4753  -0.4751  -0.4749  -0.4741  -0.4735  -0.4731
 -0.4730  -0.4727  -0.4707  -0.4706  -0.4696  -0.4695  -0.4686  -0.4681
 -0.4679  -0.4675  -0.4673  -0.4669  -0.4664  -0.4661  -0.4657  -0.4654
 -0.4646  -0.4625  -0.4616  -0.4609  -0.4594  -0.4593  -0.4589  -0.4586
 -0.4578  -0.4568  -0.4565  -0.4549  -0.4545  -0.4530  -0.4517  -0.4508
 -0.4499  -0.4486  -0.4477  -0.4472  -0.4462  -0.4458  -0.4457  -0.4434
 -0.4430  -0.4421  -0.4420  -0.4417  -0.4414  -0.4399  -0.4398  -0.4396
 -0.4386  -0.4382  -0.4379  -0.4370  -0.4362  -0.4360  -0.4346  -0.4336
 -0.4324  -0.4303  -0.4301  -0.4293  -0.4276  -0.4262  -0.4245  -0.4220
 -0.4217  -0.4204  -0.4195  -0.4191  -0.4186  -0.4175  -0.4172  -0.4166
 -0.4159  -0.4150  -0.4140  -0.4139  -0.4123  -0.4112  -0.4110  -0.4108
 -0.4106  -0.4101  -0.4083  -0.4076  -0.4071  -0.4064  -0.4062  -0.4059
 -0.4052  -0.4047  -0.4031  -0.4023  -0.4019  -0.4002  -0.4000  -0.3995
 -0.3989  -0.3982  -0.3971  -0.3970  -0.3966  -0.3964  -0.3941  -0.3934
 -0.3919  -0.3915  -0.3906  -0.3904  -0.3897  -0.3882  -0.3877  -0.3859
 -0.3856  -0.3826  -0.3821  -0.3818  -0.3762  -0.3737  -0.3732  -0.3729
 -0.3724  -0.3720  -0.3703  -0.3698  -0.3695  -0.3691  -0.3675  -0.3672
 -0.3657  -0.3652  -0.3648  -0.3635  -0.3616  -0.3615  -0.3583  -0.3576
 -0.3536  -0.3529  -0.3495  -0.3472  -0.3471  -0.3455  -0.3433  -0.3377
 -0.3365  -0.3300  -0.3177  -0.3039  -0.3024  -0.3001  -0.2886  -0.2856
 -0.2855  -0.2837  -0.2835  -0.2826  -0.2800  -0.2793  -0.2779  -0.2751
 -0.2740  -0.2726  -0.2715  -0.2703  -0.2694  -0.2668  -0.2638  -0.2627
 -0.2600  -0.2582  -0.2580  -0.2552  -0.2525  -0.2512  -0.2502  -0.2498
 -0.2495  -0.2488  -0.2451  -0.2441  -0.2430  -0.2427  -0.2413  -0.2406
 -0.2361  -0.2347  -0.2343  -0.2318  -0.2303  -0.2272  -0.2244  -0.2217
 -0.2215  -0.2098  -0.2074  -0.2062  -0.1919 -12.8671 -11.5779 -12.1772
-13.6878 -12.3997 -10.1742 -10.6648 -10.3515 -10.1084  -0.7649  -0.7705
 -0.6311  -1.0050  -0.7094  -0.6331  -0.7072  -0.7652  -0.4438  -0.4725
 -0.4634  -0.4380  -0.4483  -0.4463  -0.4426  -0.4084  -0.3875  -0.4404
 -0.4351  -0.4230  -0.4084  -0.4525  -0.4818  -0.4255  -0.5332  -0.5377
 -- Virtual --
 -0.0402  -0.0346  -0.0279  -0.0240  -0.0204  -0.0183  -0.0170  -0.0140
 -0.0139  -0.0131  -0.0125  -0.0114  -0.0103  -0.0098  -0.0086  -0.0077
 -0.0071  -0.0064  -0.0044  -0.0035  -0.0030  -0.0022  -0.0002   0.0006
  0.0023   0.0029   0.0034   0.0036   0.0038   0.0049   0.0053   0.0061
  0.0075   0.0079   0.0084   0.0091   0.0093   0.0106   0.0115   0.0120
  0.0127   0.0134   0.0141   0.0153   0.0155   0.0168   0.0179   0.0184
  0.0195   0.0200   0.0215   0.0224   0.0224   0.0229   0.0236   0.0246
  0.0254   0.0258   0.0271   0.0274   0.0281   0.0290   0.0292   0.0295
  0.0302   0.0310   0.0315   0.0321   0.0329   0.0340   0.0349   0.0353
  0.0365   0.0373   0.0378   0.0384   0.0392   0.0401   0.0404   0.0414
  0.0419   0.0423   0.0432   0.0441   0.0445   0.0449   0.0452   0.0460
  0.0473   0.0481   0.0485   0.0490   0.0495   0.0501   0.0503   0.0508
  0.0510   0.0517   0.0529   0.0532   0.0540   0.0542   0.0546   0.0550
  0.0560   0.0564   0.0576   0.0584   0.0594   0.0596   0.0603   0.0615
  0.0622   0.0629   0.0630   0.0636   0.0646   0.0653   0.0661   0.0667
  0.0677   0.0683   0.0694   0.0700   0.0709   0.0715   0.0716   0.0721
  0.0724   0.0728   0.0738   0.0741   0.0748   0.0760   0.0770   0.0774
  0.0779   0.0789   0.0790   0.0796   0.0801   0.0815   0.0820   0.0829
  0.0831   0.0841   0.0849   0.0854   0.0862   0.0868   0.0872   0.0879
  0.0883   0.0893   0.0901   0.0908   0.0914   0.0921   0.0930   0.0935
  0.0937   0.0946   0.0955   0.0961   0.0968   0.0977   0.0984   0.0995
  0.0999   0.1012   0.1024   0.1027   0.1031   0.1037   0.1041   0.1045
  0.1050   0.1057   0.1064   0.1071   0.1080   0.1085   0.1096   0.1106
  0.1107   0.1118   0.1123   0.1124   0.1129   0.1143   0.1144   0.1149
  0.1154   0.1166   0.1168   0.1174   0.1177   0.1190   0.1192   0.1207
  0.1209   0.1211   0.1221   0.1227   0.1236   0.1245   0.1250   0.1257
  0.1264   0.1275   0.1292   0.1293   0.1302   0.1305   0.1311   0.1317
  0.1319   0.1327   0.1330   0.1338   0.1346   0.1354   0.1354   0.1362
  0.1368   0.1370   0.1378   0.1389   0.1396   0.1397   0.1403   0.1409
  0.1421   0.1425   0.1429   0.1431   0.1440   0.1447   0.1455   0.1459
  0.1462   0.1465   0.1480   0.1482   0.1486   0.1489   0.1502   0.1504
  0.1512   0.1517   0.1529   0.1533   0.1540   0.1544   0.1547   0.1555
  0.1558   0.1563   0.1568   0.1572   0.1587   0.1589   0.1594   0.1603
  0.1608   0.1614   0.1618   0.1632   0.1639   0.1643   0.1651   0.1655
  0.1664   0.1666   0.1676   0.1679   0.1688   0.1688   0.1695   0.1699
  0.1705   0.1708   0.1712   0.1720   0.1724   0.1736   0.1741   0.1743
  0.1751   0.1754   0.1762   0.1767   0.1775   0.1781   0.1783   0.1798
  0.1801   0.1805   0.1813   0.1829   0.1835   0.1845   0.1851   0.1857
  0.1857   0.1870   0.1872   0.1877   0.1890   0.1893   0.1904   0.1907
  0.1915   0.1920   0.1921   0.1930   0.1940   0.1947   0.1956   0.1956
  0.1962   0.1963   0.1980   0.1984   0.1992   0.2001   0.2008   0.2012
  0.2024   0.2029   0.2038   0.2039   0.2052   0.2056   0.2060   0.2070
  0.2074   0.2081   0.2084   0.2091   0.2095   0.2115   0.2116   0.2121
  0.2124   0.2134   0.2140   0.2148   0.2151   0.2161   0.2171   0.2174
  0.2185   0.2195   0.2208   0.2211   0.2218   0.2227   0.2235   0.2243
  0.2245   0.2258   0.2260   0.2266   0.2275   0.2278   0.2290   0.2294
  0.2299   0.2303   0.2314   0.2320   0.2333   0.2337   0.2340   0.2355
  0.2358   0.2367   0.2368   0.2376   0.2382   0.2385   0.2394   0.2402
  0.2413   0.2416   0.2428   0.2431   0.2436   0.2451   0.2453   0.2459
  0.2473   0.2476   0.2480   0.2492   0.2497   0.2508   0.2509   0.2511
  0.2512   0.2523   0.2531   0.2538   0.2551   0.2557   0.2564   0.2567
  0.2581   0.2583   0.2594   0.2601   0.2610   0.2614   0.2623   0.2633
  0.2643   0.2645   0.2657   0.2659   0.2670   0.2677   0.2681   0.2693
  0.2703   0.2707   0.2708   0.2721   0.2725   0.2727   0.2734   0.2742
  0.2747   0.2766   0.2770   0.2790   0.2799   0.2805   0.2815   0.2828
  0.2840   0.2843   0.2852   0.2855   0.2866   0.2868   0.2877   0.2886
  0.2894   0.2899   0.2905   0.2911   0.2920   0.2927   0.2935   0.2946
  0.2951   0.2956   0.2967   0.2982   0.2984   0.2994   0.3000   0.3003
  0.3016   0.3029   0.3034   0.3046   0.3052   0.3056   0.3072   0.3076
  0.3080   0.3089   0.3098   0.3108   0.3109   0.3121   0.3127   0.3137
  0.3142   0.3156   0.3160   0.3176   0.3184   0.3188   0.3194   0.3208
  0.3216   0.3222   0.3235   0.3244   0.3246   0.3259   0.3280   0.3289
  0.3302   0.3306   0.3315   0.3326   0.3330   0.3333   0.3343   0.3356
  0.3360   0.3368   0.3386   0.3399   0.3408   0.3422   0.3423   0.3430
  0.3437   0.3445   0.3455   0.3476   0.3483   0.3490   0.3499   0.3504
  0.3508   0.3523   0.3538   0.3539   0.3555   0.3561   0.3571   0.3583
  0.3591   0.3604   0.3609   0.3618   0.3632   0.3638   0.3642   0.3652
  0.3661   0.3668   0.3683   0.3695   0.3702   0.3708   0.3713   0.3726
  0.3736   0.3751   0.3756   0.3769   0.3777   0.3789   0.3791   0.3798
  0.3802   0.3822   0.3827   0.3832   0.3842   0.3863   0.3867   0.3870
  0.3884   0.3890   0.3918   0.3923   0.3929   0.3933   0.3944   0.3953
  0.3957   0.3973   0.3982   0.3989   0.4002   0.4006   0.4016   0.4028
  0.4038   0.4051   0.4058   0.4061   0.4076   0.4078   0.4091   0.4095
  0.4114   0.4116   0.4123   0.4136   0.4149   0.4155   0.4166   0.4169
  0.4182   0.4186   0.4198   0.4205   0.4212   0.4230   0.4233   0.4239
  0.4246   0.4265   0.4274   0.4291   0.4295   0.4300   0.4312   0.4325
  0.4347   0.4358   0.4369   0.4393   0.4400   0.4402   0.4419   0.4420
  0.4433   0.4446   0.4463   0.4472   0.4478   0.4488   0.4508   0.4526
  0.4540   0.4544   0.4557   0.4568   0.4578   0.4592   0.4599   0.4617
  0.4629   0.4635   0.4650   0.4657   0.4685   0.4695   0.4706   0.4726
  0.4740   0.4752   0.4762   0.4776   0.4801   0.4812   0.4823   0.4858
  0.4865   0.4894   0.4914   0.4932   0.4936   0.4947   0.4961   0.4968
  0.4974   0.4988   0.5005   0.5028   0.5049   0.5067   0.5084   0.5102
  0.5117   0.5121   0.5147   0.5163   0.5176   0.5201   0.5214   0.5220
  0.5256   0.5270   0.5282   0.5293   0.5318   0.5339   0.5351   0.5380
  0.5400   0.5409   0.5415   0.5435   0.5444   0.5466   0.5498   0.5518
  0.5524   0.5562   0.5574   0.5595   0.5601   0.5611   0.5632   0.5634
  0.5656   0.5680   0.5686   0.5694   0.5709   0.5730   0.5742   0.5747
  0.5762   0.5785   0.5807   0.5820   0.5826   0.5853   0.5858   0.5894
  0.5925   0.5932   0.5939   0.5952   0.5988   0.6000   0.6018   0.6022
  0.6032   0.6059   0.6074   0.6081   0.6089   0.6098   0.6111   0.6123
  0.6136   0.6143   0.6157   0.6173   0.6183   0.6200   0.6217   0.6226
  0.6246   0.6254   0.6260   0.6265   0.6277   0.6286   0.6295   0.6299
  0.6307   0.6321   0.6347   0.6357   0.6366   0.6382   0.6398   0.6402
  0.6418   0.6427   0.6449   0.6459   0.6472   0.6489   0.6502   0.6513
  0.6531   0.6542   0.6551   0.6554   0.6571   0.6573   0.6589   0.6602
  0.6621   0.6635   0.6637   0.6646   0.6650   0.6661   0.6686   0.6693
  0.6705   0.6731   0.6735   0.6744   0.6748   0.6770   0.6776   0.6783
  0.6802   0.6808   0.6821   0.6824   0.6849   0.6856   0.6863   0.6876
  0.6893   0.6897   0.6909   0.6927   0.6936   0.6952   0.6959   0.6975
  0.6985   0.7008   0.7013   0.7024   0.7051   0.7059   0.7070   0.7074
  0.7087   0.7094   0.7126   0.7136   0.7149   0.7160   0.7166   0.7194
  0.7195   0.7216   0.7230   0.7244   0.7256   0.7268   0.7278   0.7295
  0.7305   0.7313   0.7344   0.7356   0.7364   0.7366   0.7383   0.7393
  0.7415   0.7421   0.7445   0.7462   0.7471   0.7485   0.7489   0.7507
  0.7519   0.7536   0.7584   0.7590   0.7622   0.7631   0.7646   0.7666
  0.7687   0.7692   0.7704   0.7712   0.7725   0.7738   0.7754   0.7770
  0.7792   0.7795   0.7813   0.7828   0.7856   0.7870   0.7877   0.7913
  0.7933   0.7957   0.7978   0.7986   0.7996   0.8004   0.8015   0.8032
  0.8043   0.8046   0.8064   0.8082   0.8101   0.8110   0.8128   0.8143
  0.8165   0.8179   0.8197   0.8203   0.8209   0.8224   0.8236   0.8250
  0.8275   0.8279   0.8304   0.8335   0.8341   0.8351   0.8364   0.8374
  0.8391   0.8403   0.8417   0.8431   0.8446   0.8464   0.8472   0.8479
  0.8492   0.8504   0.8513   0.8524   0.8547   0.8550   0.8579   0.8584
  0.8593   0.8601   0.8611   0.8625   0.8674   0.8682   0.8689   0.8702
  0.8722   0.8730   0.8751   0.8753   0.8769   0.8781   0.8790   0.8808
  0.8820   0.8822   0.8837   0.8857   0.8869   0.8876   0.8900   0.8903
  0.8926   0.8933   0.8941   0.8962   0.8977   0.8986   0.8991   0.9004
  0.9031   0.9041   0.9042   0.9058   0.9074   0.9082   0.9101   0.9109
  0.9120   0.9131   0.9148   0.9161   0.9176   0.9183   0.9187   0.9197
  0.9214   0.9221   0.9236   0.9269   0.9269   0.9290   0.9300   0.9309
  0.9313   0.9339   0.9344   0.9363   0.9368   0.9386   0.9386   0.9404
  0.9411   0.9430   0.9436   0.9440   0.9456   0.9466   0.9472   0.9487
  0.9506   0.9521   0.9533   0.9544   0.9553   0.9563   0.9572   0.9584
  0.9592   0.9599   0.9613   0.9619   0.9631   0.9650   0.9653   0.9658
  0.9684   0.9696   0.9708   0.9737   0.9738   0.9753   0.9771   0.9781
  0.9794   0.9810   0.9823   0.9830   0.9838   0.9862   0.9869   0.9875
  0.9891   0.9895   0.9907   0.9920   0.9933   0.9948   0.9955   0.9965
  0.9972   0.9981   0.9987   0.9989   1.0016   1.0023   1.0035   1.0058
  1.0066   1.0071   1.0093   1.0107   1.0110   1.0125   1.0141   1.0149
  1.0152   1.0164   1.0182   1.0185   1.0197   1.0205   1.0210   1.0222
  1.0242   1.0252   1.0262   1.0282   1.0286   1.0295   1.0311   1.0312
  1.0340   1.0362   1.0366   1.0373   1.0386   1.0400   1.0407   1.0408
  1.0445   1.0451   1.0474   1.0477   1.0486   1.0501   1.0521   1.0523
  1.0538   1.0549   1.0564   1.0580   1.0590   1.0611   1.0636   1.0646
  1.0661   1.0693   1.0724   1.0729   1.0738   1.0760   1.0771   1.0800
  1.0808   1.0819   1.0836   1.0837   1.0859   1.0878   1.0881   1.0894
  1.0903   1.0918   1.0945   1.0966   1.0980   1.0992   1.1000   1.1019
  1.1029   1.1037   1.1047   1.1068   1.1087   1.1112   1.1119   1.1148
  1.1149   1.1157   1.1163   1.1203   1.1208   1.1213   1.1229   1.1238
  1.1254   1.1267   1.1281   1.1285   1.1299   1.1308   1.1324   1.1333
  1.1339   1.1363   1.1376   1.1391   1.1395   1.1401   1.1422   1.1430
  1.1445   1.1456   1.1477   1.1480   1.1504   1.1518   1.1529   1.1543
  1.1556   1.1564   1.1577   1.1595   1.1609   1.1628   1.1649   1.1659
  1.1663   1.1673   1.1676   1.1692   1.1712   1.1741   1.1742   1.1765
  1.1785   1.1807   1.1810   1.1820   1.1830   1.1841   1.1875   1.1884
  1.1905   1.1926   1.1937   1.1965   1.1984   1.1993   1.2006   1.2023
  1.2033   1.2051   1.2067   1.2085   1.2114   1.2136   1.2149   1.2159
  1.2165   1.2185   1.2196   1.2238   1.2265   1.2268   1.2291   1.2302
  1.2330   1.2346   1.2354   1.2379   1.2405   1.2439   1.2473   1.2484
  1.2487   1.2506   1.2549   1.2563   1.2575   1.2600   1.2632   1.2643
  1.2686   1.2698   1.2733   1.2771   1.2783   1.2803   1.2823   1.2860
  1.2867   1.2879   1.2922   1.2938   1.2941   1.2994   1.3014   1.3038
  1.3068   1.3101   1.3123   1.3130   1.3182   1.3190   1.3206   1.3225
  1.3271   1.3321   1.3328   1.3347   1.3374   1.3389   1.3405   1.3426
  1.3434   1.3445   1.3478   1.3487   1.3497   1.3518   1.3535   1.3561
  1.3580   1.3608   1.3628   1.3645   1.3659   1.3677   1.3690   1.3703
  1.3714   1.3733   1.3748   1.3771   1.3787   1.3804   1.3824   1.3836
  1.3856   1.3864   1.3878   1.3912   1.3917   1.3921   1.3939   1.3955
  1.3968   1.3992   1.4000   1.4026   1.4034   1.4068   1.4073   1.4078
  1.4092   1.4105   1.4120   1.4134   1.4142   1.4161   1.4175   1.4184
  1.4197   1.4203   1.4238   1.4245   1.4265   1.4279   1.4299   1.4314
  1.4335   1.4343   1.4356   1.4367   1.4383   1.4391   1.4414   1.4419
  1.4433   1.4459   1.4480   1.4482   1.4501   1.4524   1.4545   1.4552
  1.4562   1.4590   1.4614   1.4638   1.4642   1.4650   1.4670   1.4701
  1.4711   1.4720   1.4740   1.4796   1.4817   1.4834   1.4840   1.4857
  1.4893   1.4903   1.4914   1.4943   1.4959   1.4991   1.5013   1.5030
  1.5038   1.5078   1.5110   1.5117   1.5149   1.5170   1.5189   1.5199
  1.5230   1.5238   1.5257   1.5305   1.5341   1.5377   1.5388   1.5419
  1.5423   1.5470   1.5528   1.5546   1.5577   1.5614   1.5631   1.5669
  1.5676   1.5733   1.5818   1.5824   1.5856   1.5872   1.5949   1.5965
  1.5997   1.6049   1.6103   1.6180   1.6219   1.6247   1.6340   1.6369
  1.6411   1.6421   1.6479   1.6501   1.6516   1.6565   1.6580   1.6600
  1.6617   1.6618   1.6636   1.6686   1.6705   1.6730   1.6737   1.6746
  1.6765   1.6773   1.6786   1.6798   1.6810   1.6818   1.6829   1.6855
  1.6861   1.6864   1.6867   1.6875   1.6891   1.6913   1.6926   1.6967
  1.6985   1.6995   1.7015   1.7033   1.7044   1.7058   1.7081   1.7089
  1.7111   1.7122   1.7129   1.7145   1.7153   1.7165   1.7187   1.7199
  1.7206   1.7222   1.7230   1.7246   1.7280   1.7290   1.7309   1.7324
  1.7338   1.7342   1.7369   1.7382   1.7409   1.7421   1.7432   1.7438
  1.7445   1.7449   1.7472   1.7493   1.7503   1.7522   1.7536   1.7550
  1.7559   1.7573   1.7601   1.7608   1.7630   1.7661   1.7671   1.7678
  1.7685   1.7696   1.7726   1.7737   1.7753   1.7769   1.7791   1.7812
  1.7840   1.7848   1.7861   1.7875   1.7877   1.7912   1.7914   1.7940
  1.7983   1.7991   1.8018   1.8037   1.8060   1.8088   1.8107   1.8122
  1.8129   1.8168   1.8198   1.8258   1.8288   1.8312   1.8317   1.8339
  1.8385   1.8396   1.8420   1.8464   1.8501   1.8516   1.8541   1.8554
  1.8567   1.8610   1.8630   1.8639   1.8671   1.8691   1.8715   1.8765
  1.8798   1.8801   1.8812   1.8838   1.8844   1.8847   1.8863   1.8868
  1.8881   1.8889   1.8898   1.8904   1.8932   1.8955   1.8972   1.8987
  1.8992   1.9007   1.9015   1.9029   1.9043   1.9053   1.9069   1.9082
  1.9093   1.9102   1.9109   1.9114   1.9144   1.9153   1.9169   1.9181
  1.9186   1.9201   1.9211   1.9225   1.9253   1.9256   1.9282   1.9300
  1.9323   1.9335   1.9352   1.9362   1.9374   1.9409   1.9424   1.9447
  1.9459   1.9501   1.9513   1.9553   1.9586   1.9613   1.9652   1.9684
  1.9750   1.9779   1.9815   1.9824   1.9909   1.9969   2.0036   2.0117
  2.0159   2.0288   2.0427   2.0437   2.0497   2.0523   2.0527   2.0545
  2.0564   2.0577   2.0584   2.0600   2.0618   2.0640   2.0652   2.0671
  2.0709   2.0717   2.0726   2.0754   2.0772   2.0792   2.0797   2.0819
  2.0826   2.0842   2.0854   2.0859   2.0873   2.0889   2.0916   2.0942
  2.0950   2.0954   2.0987   2.0994   2.1004   2.1017   2.1033   2.1043
  2.1053   2.1068   2.1087   2.1108   2.1119   2.1148   2.1199   2.1207
  2.1250   2.1281   2.1300   2.1317   2.1361   2.1388   2.1420   2.1461
  2.1519   2.1534   2.1555   2.1560   2.1613   2.1627   2.1674   2.1689
  2.1735   2.1781   2.1804   2.1848   2.1871   2.1877   2.1906   2.1919
  2.1962   2.2071   2.2103   2.2112   2.2126   2.2138   2.2154   2.2166
  2.2173   2.2205   2.2211   2.2230   2.2242   2.2248   2.2253   2.2257
  2.2268   2.2283   2.2294   2.2304   2.2315   2.2334   2.2358   2.2367
  2.2387   2.2398   2.2404   2.2414   2.2419   2.2426   2.2440   2.2443
  2.2468   2.2478   2.2484   2.2498   2.2521   2.2537   2.2549   2.2557
  2.2566   2.2588   2.2593   2.2599   2.2609   2.2612   2.2616   2.2625
  2.2635   2.2638   2.2653   2.2658   2.2670   2.2674   2.2682   2.2686
  2.2700   2.2708   2.2719   2.2725   2.2741   2.2745   2.2755   2.2768
  2.2772   2.2787   2.2804   2.2823   2.2837   2.2841   2.2847   2.2856
  2.2862   2.2863   2.2874   2.2886   2.2896   2.2916   2.2919   2.2947
  2.2948   2.2971   2.2975   2.2986   2.2994   2.3007   2.3019   2.3027
  2.3043   2.3051   2.3069   2.3072   2.3091   2.3100   2.3104   2.3140
  2.3153   2.3167   2.3184   2.3197   2.3219   2.3249   2.3264   2.3284
  2.3294   2.3301   2.3343   2.3363   2.3370   2.3381   2.3392   2.3401
  2.3404   2.3432   2.3443   2.3452   2.3477   2.3498   2.3509   2.3514
  2.3545   2.3551   2.3568   2.3590   2.3622   2.3630   2.3639   2.3641
  2.3649   2.3672   2.3714   2.3733   2.3762   2.3773   2.3793   2.3820
  2.3861   2.3868   2.3896   2.3962   2.3995   2.4055   2.4099   2.4327
  2.4653   2.4760   2.4915   2.5304   2.5461   2.6031   2.7025   2.7101
  2.7481   2.7746   2.7975   2.8073   2.8256   2.8301   2.8357   2.8363
  2.8374   2.8399   2.8400   2.8406   2.8421   2.8441   2.8512   2.8546
  2.8560   2.8570   2.8599   2.8634   2.8686   2.8707   2.8714   2.8737
  2.8760   2.8845   2.8900   2.8956   2.8987   2.9009   2.9124   2.9364
  3.0912   3.2722   3.9334   3.9452   3.9576   3.9597   3.9605   3.9617
  3.9643   3.9675   3.9677   3.9702   3.9856   3.9898   3.9921   3.9937
  3.9973   3.9994   4.0018   4.0041   4.0056   4.0077   4.0116   4.0228
  4.0286   4.0305   4.0345   4.2048   4.2098   4.2147   4.2188   4.2256
  4.2278   4.2340   4.2351   4.2389   4.2412   4.2425   4.2479   4.2527
  4.2553   4.2612   4.2652   4.2658   4.2686   4.2694   4.2706   4.2738
  4.2786   4.2806   4.2816   4.2840   4.2872   4.2881   4.2919   4.2932
  4.2970   4.3022   4.3036   4.3069   4.3092   4.3119   4.3132   4.3155
  4.3201   4.3224   4.3266   4.3285   4.3294   4.3328   4.3357   4.3402
  4.3430   4.3438   4.3499   4.3546   4.3567   4.3585   4.3607   4.3651
  4.3729   4.3763   4.3779   4.3839   4.3908   4.3932   4.3957   4.3975
  4.4022   4.4067   4.4094   4.4126   4.4196   4.4238   4.4336   4.4353
  4.4485   4.4610   4.4695   4.4933   4.4993   4.5116   4.5457   4.5663
  4.5779   4.6138   4.6614   4.6893   4.7395   4.7789   4.8449
 --------------------------------------------------------------

          Ground-State Mulliken Net Atomic Charges

     Atom                 Charge (a.u.)
  ----------------------------------------
      1 C                    -0.275150
      2 C                    -0.914720
      3 C                     0.278027
      4 C                    -0.322272
      5 C                    -0.329750
      6 C                    -0.941631
      7 H                     0.235127
      8 H                     0.223466
      9 H                     0.213415
     10 H                     0.215958
     11 H                     0.222200
     12 H                     0.229262
     13 H                     0.197667
     14 H                     0.214979
     15 H                     0.206472
     16 H                     0.205198
     17 H                     0.213106
     18 N                    -0.067654
     19 H                     0.479567
     20 C                    -0.034561
     21 H                     0.138877
     22 O                    -0.324449
     23 C                    -0.843854
     24 H                     0.310634
     25 H                     0.242372
     26 H                     0.270531
     27 S                     0.580921
     28 C                    -0.714659
     29 H                     0.239242
     30 H                     0.247743
     31 H                     0.274078
     32 O                    -0.609527
     33 C                    -0.845652
     34 H                     0.221931
     35 H                     0.233768
     36 H                     0.284430
     37 S                     1.061954
     38 C                    -0.942151
     39 H                     0.250267
     40 H                     0.242816
     41 H                     0.266095
     42 O                    -0.703166
     43 C                    -0.862494
     44 H                     0.272244
     45 H                     0.235002
     46 H                     0.265001
     47 S                     1.096076
     48 C                    -0.986719
     49 H                     0.256925
     50 H                     0.250496
     51 H                     0.240846
     52 O                    -0.687075
     53 C                    -0.863771
     54 H                     0.243387
     55 H                     0.254488
     56 H                     0.239501
     57 S                     0.963279
     58 C                    -0.903075
     59 H                     0.227937
     60 H                     0.268807
     61 H                     0.271701
     62 O                    -0.679025
     63 C                    -0.741246
     64 H                     0.279575
     65 H                     0.254464
     66 H                     0.241711
     67 S                     0.447363
     68 C                    -0.904079
     69 H                     0.255937
     70 H                     0.307285
     71 H                     0.228455
     72 O                    -0.595953
     73 C                    -0.719914
     74 H                     0.276184
     75 H                     0.244530
     76 H                     0.232708
     77 S                     0.727028
     78 C                    -0.823691
     79 H                     0.249125
     80 H                     0.315795
     81 H                     0.323810
     82 O                    -0.730933
     83 C                    -1.096318
     84 H                     0.282002
     85 H                     0.297238
     86 H                     0.262339
     87 S                     1.086294
     88 C                    -0.929726
     89 H                     0.262516
     90 H                     0.237850
     91 H                     0.241938
     92 O                    -0.701796
     93 C                    -0.852360
     94 H                     0.247282
     95 H                     0.260656
     96 H                     0.246256
     97 S                     0.958339
     98 C                    -1.048949
     99 H                     0.305309
    100 H                     0.278105
    101 H                     0.231891
    102 O                    -0.641822
    103 C                    -0.941475
    104 H                     0.254269
    105 H                     0.252255
    106 H                     0.268415
    107 S                     1.007038
    108 C                    -0.953868
    109 H                     0.252462
    110 H                     0.276152
    111 H                     0.225535
    112 O                    -0.709001
    113 C                    -0.849210
    114 H                     0.258338
    115 H                     0.271198
    116 H                     0.269497
    117 S                     0.967728
    118 C                    -0.902019
    119 H                     0.226308
    120 H                     0.247789
    121 H                     0.305308
    122 O                    -0.682369
    123 C                    -0.763184
    124 H                     0.243805
    125 H                     0.256277
    126 H                     0.253195
    127 S                     0.806591
    128 C                    -0.857864
    129 H                     0.248011
    130 H                     0.250781
    131 H                     0.239743
    132 O                    -0.663740
    133 C                    -0.890479
    134 H                     0.305229
    135 H                     0.275006
    136 H                     0.270056
    137 S                     0.811810
    138 C                    -0.826144
    139 H                     0.245730
    140 H                     0.264301
    141 H                     0.244309
    142 O                    -0.655206
    143 C                    -0.866395
    144 H                     0.242301
    145 H                     0.236549
    146 H                     0.264756
    147 S                     0.861973
    148 C                    -0.864861
    149 H                     0.250885
    150 H                     0.292270
    151 H                     0.249880
    152 O                    -0.674984
    153 C                    -1.000405
    154 H                     0.298440
    155 H                     0.250638
    156 H                     0.247326
    157 S                     1.029830
    158 C                    -0.899644
    159 H                     0.271095
    160 H                     0.273112
    161 H                     0.262666
    162 O                    -0.689417
    163 C                    -0.904965
    164 H                     0.275680
    165 H                     0.282560
    166 H                     0.233564
    167 S                     1.019971
    168 C                    -0.877701
    169 H                     0.243727
    170 H                     0.270549
    171 H                     0.240264
    172 O                    -0.714681
    173 C                    -0.878504
    174 H                     0.224054
    175 H                     0.257820
    176 H                     0.255399
    177 S                     0.946838
    178 C                    -0.882518
    179 H                     0.269638
    180 H                     0.264729
    181 H                     0.237057
    182 O                    -0.658603
    183 C                    -1.012979
    184 H                     0.197364
    185 H                     0.304511
    186 H                     0.297414
    187 S                     1.161418
    188 C                    -0.934151
    189 H                     0.259749
    190 H                     0.260244
    191 H                     0.270439
    192 O                    -0.785442
    193 C                    -0.347027
    194 H                     0.219572
    195 H                     0.274635
    196 H                     0.311693
    197 S                    -0.305978
    198 C                    -0.649172
    199 H                     0.273015
    200 H                     0.238839
    201 H                     0.318190
    202 O                    -0.498052
    203 C                    -0.942172
    204 H                     0.242342
    205 H                     0.263886
    206 H                     0.271032
    207 S                     0.994003
    208 C                    -0.864999
    209 H                     0.256296
    210 H                     0.258215
    211 H                     0.260332
    212 O                    -0.703675
    213 C                    -0.879690
    214 H                     0.252215
    215 H                     0.258762
    216 H                     0.251229
    217 S                     0.568914
    218 C                    -0.707163
    219 H                     0.274815
    220 H                     0.284750
    221 H                     0.254452
    222 O                    -0.646809
    223 C                    -0.661001
    224 H                     0.315035
    225 H                     0.285523
    226 H                     0.243768
    227 S                     0.396703
    228 C                    -0.935555
    229 H                     0.252918
    230 H                     0.264736
    231 H                     0.251573
    232 O                    -0.555888
    233 C                    -1.044510
    234 H                     0.284862
    235 H                     0.246997
    236 H                     0.281311
    237 S                     1.111944
    238 C                    -1.028049
    239 H                     0.274449
    240 H                     0.238252
    241 H                     0.298440
    242 O                    -0.610654
    243 C                    -0.794186
    244 H                     0.241957
    245 H                     0.250831
    246 H                     0.261332
    247 S                     0.883569
    248 C                    -0.810771
    249 H                     0.272990
    250 H                     0.249440
    251 H                     0.233869
    252 O                    -0.748934
    253 C                    -0.835631
    254 H                     0.260696
    255 H                     0.238429
    256 H                     0.244936
    257 S                     0.827489
    258 C                    -0.787928
    259 H                     0.240419
    260 H                     0.255466
    261 H                     0.265238
    262 O                    -0.670056
    263 C                    -0.843833
    264 H                     0.277368
    265 H                     0.250293
    266 H                     0.245513
    267 S                     0.839427
    268 C                    -0.928423
    269 H                     0.276476
    270 H                     0.279250
    271 H                     0.234675
    272 O                    -0.694874
  ----------------------------------------
  Sum of atomic charges =     0.000000

 -----------------------------------------------------------------
                    Cartesian Multipole Moments
 -----------------------------------------------------------------
    Charge (ESU x 10^10)
                -0.0000
    Dipole Moment (Debye)
         X     -14.4342      Y     -15.7491      Z       8.9047
       Tot      23.1446
    Quadrupole Moments (Debye-Ang)
        XX   -1355.4063     XY    -566.1817     YY   -1413.9133
        XZ    -120.1739     YZ    -281.6333     ZZ    -546.2762
    Octopole Moments (Debye-Ang^2)
       XXX  -64181.5204    XXY  -31743.5327    XYY  -33833.1919
       YYY  -64925.6152    XXZ  -29204.0633    XYZ  -10115.8500
       YYZ  -35558.0902    XZZ  -17358.7090    YZZ  -23759.4915
       ZZZ  -62965.4685
    Hexadecapole Moments (Debye-Ang^3)
      XXXX ************   XXXY ************   XXYY ************
      XYYY ************   YYYY ************   XXXZ ************
      XXYZ -701918.5267   XYYZ -799648.8910   YYYZ ************
      XXZZ ************   XYZZ -548848.3183   YYZZ ************
      XZZZ ************   YZZZ ************   ZZZZ ************
 -----------------------------------------------------------------
 Total job time:  14977.61s(wall), 206805.97s(cpu) 
 Thu Jul 21 07:49:57 2022

        *************************************************************
        *                                                           *
        *  Thank you very much for using Q-Chem.  Have a nice day.  *
        *                                                           *
        *************************************************************


 
User input: 2 of 2 
 
                  Welcome to Q-Chem
     A Quantum Leap Into The Future Of Chemistry


 Q-Chem 6.0 (devel), Q-Chem, Inc., Pleasanton, CA (2022)

 E. Epifanovsky,  A. T. B. Gilbert,  Xintian Feng,  Joonho Lee,  Yuezhi Mao,  
 N. Mardirossian,  P. Pokhilko,  A. White,  M. Wormit,  M. P. Coons,  
 A. L. Dempwolff,  Zhengting Gan,  D. Hait,  P. R. Horn,  L. D. Jacobson,  
 I. Kaliman,  J. Kussmann,  A. W. Lange,  Ka Un Lao,  D. S. Levine,  Jie Liu,  
 S. C. McKenzie,  A. F. Morrison,  K. Nanda,  F. Plasser,  D. R. Rehn,  
 M. L. Vidal,  Zhi-Qiang You,  Ying Zhu,  B. Alam,  B. Albrecht,  
 A. Aldossary,  E. Alguire,  J. H. Andersen,  V. Athavale,  D. Barton,  
 K. Begam,  A. Behn,  N. Bellonzi,  Y. A. Bernard,  E. J. Berquist,  
 H. Burton,  A. Carreras,  K. Carter-Fenk,  Romit Chakraborty,  
 Chandrima Chakravarty,  Junhan Chen,  A. D. Chien,  K. D. Closser,  
 V. Cofer-Shabica,  L. Cunha,  S. Dasgupta,  Jia Deng,  M. de Wergifosse,  
 M. Diedenhofen,  Hainam Do,  S. Ehlert,  Po-Tung Fang,  S. Fatehi,  
 Qingguo Feng,  T. Friedhoff,  B. Ganoe,  J. Gayvert,  Qinghui Ge,  
 G. Gidofalvi,  M. Goldey,  J. Gomes,  C. Gonzalez-Espinoza,  S. Gulania,  
 A. Gunina,  J. A. Gyamfi,  M. W. D. Hanson-Heine,  P. H. P. Harbach,  
 A. W. Hauser,  M. F. Herbst,  M. Hernandez Vera,  M. Hodecker,  
 Z. C. Holden,  S. Houck,  Xunkun Huang,  Kerwin Hui,  B. C. Huynh,  
 K. Ikeda,  M. Ivanov,  Hyunjun Ji,  Zuxin Jin,  Hanjie Jiang,  B. Kaduk,  
 S. Kaehler,  R. Kang,  K. Khistyaev,  Jaehoon Kim,  Yongbin Kim,  
 P. Klunzinger,  Z. Koczor-Benda,  Joong Hoon Koh,  D. Kosenkov,  
 Saikiran Kotaru,  L. Koulias,  T. Kowalczyk,  C. M. Krauter,  K. Kue,  
 A. Kunitsa,  T. Kus,  A. Landau,  K. V. Lawler,  D. Lefrancois,  S. Lehtola,  
 Rain Li,  Shaozhi Li,  Yi-Pei Li,  Jiashu Liang,  M. Liebenthal,  
 Hung-Hsuan Lin,  You-Sheng Lin,  Fenglai Liu,  Kuan-Yu Liu,  
 M. Loipersberger,  A. Luenser,  C. Malbon,  A. Manjanath,  P. Manohar,  
 E. Mansoor,  S. F. Manzer,  Shan-Ping Mao,  A. V. Marenich,  T. Markovich,  
 S. Mason,  F. Matz,  S. A. Maurer,  P. F. McLaughlin,  M. F. S. J. Menger,  
 J.-M. Mewes,  S. A. Mewes,  P. Morgante,  Mohammad Mostafanejad,  
 J. W. Mullinax,  K. J. Oosterbaan,  G. Paran,  V. Parravicini,  
 Alexander C. Paul,  Suranjan K. Paul,  F. Pavosevic,  Zheng Pei,  S. Prager,  
 E. I. Proynov,  E. Ramos,  B. Rana,  A. E. Rask,  A. Rettig,  R. M. Richard,  
 F. Rob,  E. Rossomme,  T. Scheele,  M. Scheurer,  M. Schneider,  
 P. E. Schneider,  N. Sergueev,  S. M. Sharada,  Hengyuan Shen,  
 W. Skomorowski,  D. W. Small,  C. J. Stein,  Yingli Su,  Yu-Chuan Su,  
 E. J. Sundstrom,  Zhen Tao,  J. Thirman,  Hung-Yi Tsai,  T. Tsuchimochi,  
 N. M. Tubman,  C. Utku,  S. P. Veccham,  O. Vydrov,  J. Wenzel,  
 Jonathan Wong,  J. Witte,  A. Yamada,  Chou-Hsun Yang,  Kun Yao,  
 S. Yeganeh,  S. R. Yost,  A. Zech,  F. Zeller,  Igor Ying Zhang,  
 Xing Zhang,  Yu Zhang,  D. Zuev,  A. Aspuru-Guzik,  A. T. Bell,  
 N. A. Besley,  K. B. Bravaya,  B. R. Brooks,  D. Casanova,  Jeng-Da Chai,  
 Hsing-Ta Chen,  S. Coriani,  C. J. Cramer,  A. E. DePrince, III,  
 R. A. DiStasio Jr.,  A. Dreuw,  B. D. Dunietz,  T. R. Furlani,  
 W. A. Goddard III,  S. Grimme,  S. Hammes-Schiffer,  T. Head-Gordon,  
 W. J. Hehre,  Chao-Ping Hsu,  T.-C. Jagau,  Yousung Jung,  A. Klamt,  
 Jing Kong,  D. S. Lambrecht,  Xiangyuan Li,  WanZhen Liang,  N. J. Mayhall,  
 C. W. McCurdy,  J. B. Neaton,  T. Neudecker,  C. Ochsenfeld,  
 J. A. Parkhill,  R. Peverati,  V. A. Rassolov,  Haisheng Ren,  Yihan Shao,  
 L. V. Slipchenko,  R. P. Steele,  J. E. Subotnik,  A. J. W. Thom,  
[...]
    2  -0.8863227   0.1427003  -0.1978719  -2.5550951   0.9942374  -0.7224000
    3  -0.6089316   0.0753468  -0.2544711  -1.7563968  -2.1240096  -3.1248042
          169         170         171         172         173         174
    1  -0.9407671  -2.8316851  -0.9619414   1.8461370  -1.4990530  -3.1708471
    2  -2.6968822  -0.1362417   0.5556294  -0.7840063   2.7237547   1.3906859
    3  -2.8445670  -2.0505020  -4.4723645  -3.5957401  -1.7619115  -1.3912230
          175         176         177         178         179         180
    1  -1.2289410  -0.3341764  -0.7954593  -1.9251857  -1.0139353  -1.2173510
    2   3.8824487   2.3131079   1.3999601   1.8804662   0.4703049   3.5756379
    3  -0.0222435  -3.2549249  -1.5346405   0.7154418   0.8785433   1.4688650
          181         182         183         184         185         186
    1  -3.5188507   1.7545206  -0.1379404  -0.9398951   1.1911051  -0.1211519
    2   1.4299983   3.2544187   2.1141051   0.4788738   2.8891160   3.3185635
    3  -0.4097374  -0.3927966  -0.6285156  -0.4299711   0.5342255  -2.2310976
          187         188         189         190         191         192
    1   0.6882528   2.3993872   1.2217633   3.1229093   3.0110052   1.8728407
    2   0.6281857   1.7006237   1.6445719   0.5073507   3.4621731   2.8669744
    3  -1.3435794   0.2255495   1.4291290  -0.3142425  -0.5364749  -3.2041585
          193         194         195         196         197         198
    1   0.5826938   2.4364385  -0.6383876   0.4617515   1.6158388   1.9437202
    2  -2.0746194  -2.3644202  -0.4692923  -3.2927786  -1.5299582   0.0466951
    3   0.7132479   0.9979616   1.7043881  -0.6756009  -0.7254172   0.4914086
          199         200         201         202         203         204
    1   0.1028035   2.9590192   2.2208478  -1.2908503  -1.6527935   0.2705898
    2   0.8334113  -1.3677239   0.8712882   0.5696420  -1.0808663  -1.5555880
    3   1.5082713   1.1083118  -0.9455046  -1.0168539  -0.2260645   0.2929086
          205         206         207         208         209         210
    1  -2.0387052  -2.7701475  -0.7178288  -2.6212469  -2.6818982  -1.6343999
    2   0.5157665  -2.0979866   0.3460005   1.1840255   1.9892873   2.1045726
    3   0.4462168  -2.0162237  -0.7442388  -2.0064077  -0.0937109  -3.0320474
          211         212         213         214         215         216
    1  -3.2476609  -0.8275186  -1.0895544  -2.2944459   0.7981325  -2.2991863
    2  -0.4130606  -1.7363165   1.6847552   2.6500788   1.8186111   0.2836654
    3  -3.1610994  -3.2687611  -3.1045223  -2.1544704  -3.7279418  -3.5969185
          217         218         219         220         221         222
    1   0.1641464   0.3299377   1.6188197   0.4497646  -1.6221711  -2.8379713
    2   1.4164822  -0.1263077   0.8465103  -0.9933724  -0.2219709   0.8019933
    3  -0.9925021  -2.0115988  -2.8421313  -0.1299530  -3.2962558  -0.0244396
          223         224         225         226         227         228
    1   0.9021006   1.5984391   0.8306258   0.2104400  -0.9752001  -1.1912708
    2  -1.7875253  -0.8869876  -0.4447280  -3.6868045  -1.1808215  -3.0530792
    3   1.2030775  -0.2527232   2.5338162   1.5354544   0.7851344  -0.8617638
          229         230         231         232         233         234
    1  -2.3376975   0.3554085  -1.1369229  -0.2888043  -1.7492312  -2.4879126
    2  -2.0326186  -3.2803788  -3.9446659   0.7608953   1.0821562  -0.0428386
    3  -2.3082956  -0.9216194   1.0764596  -1.6914771  -1.1228881  -0.7049499
          235         236         237         238         239         240
    1  -2.7990941  -0.0372419  -0.7135857  -2.6434521  -1.6173005  -3.1477404
    2   3.0640184   0.8266683   0.4448802   1.8442831   2.2842024   3.3822524
    3  -0.9452646  -1.6889136   0.3820397   1.3739965   2.8288655   0.3412752
          241         242         243         244         245         246
    1  -3.0420433   0.1224444   1.1393656   1.5701409  -0.8187820   2.4025646
    2   0.3413268   3.4982381  -2.5419168  -3.9440973  -2.3916371  -0.9608805
    3   0.9669320   0.5599908  -1.3622139  -1.1553826  -1.5676933  -1.1686821
          247         248         249         250         251         252
    1   0.1733494  -0.7925991   0.6235318  -1.4304068  -1.2147701   2.3827557
    2  -3.0403833  -1.2780754   0.1932033  -2.4566674  -1.8356340  -1.1200071
    3   0.7756033   0.8046285   0.7990947  -0.6481077   2.7396973   1.9848954
          253         254         255         256         257         258
    1  -3.5479462  -3.9762933  -2.5681747  -3.6991867  -1.8865313  -2.5612268
    2  -0.6956888   0.6385467  -2.3865637  -0.2580906  -0.1572665   2.1171842
    3  -0.4624470  -1.8916732  -1.0044964   1.4616682  -0.2320739   0.3648842
          259         260         261         262         263         264
    1  -3.8742689  -2.9497157  -1.0100947  -1.8270087   2.2970347   0.4815928
    2   2.2855694   1.1304404   2.9338191   0.8170118  -2.5831634  -3.0587703
    3  -0.7057977   2.0505959  -0.2250155  -3.2047337   0.6975537   0.9608078
          265         266         267         268         269         270
    1   3.0865005   2.7939599   1.1862374   0.6210737  -0.3863151   0.2560105
    2  -1.9276942  -2.5569910  -1.0904904  -1.0834694  -2.3929475   0.4966931
    3  -1.2205716   2.2568199   2.0114063   0.0193392   1.0327538   0.3858307
          271         272
    1   2.0913130   3.7914473
    2  -1.7641970   0.5159904
    3  -1.4122297   0.7537992
 EField
            1           2           3           4           5           6
    1  -0.0003592   0.0017187   0.0016820  -0.0023433  -0.0009035  -0.0001718
    2  -0.0030945  -0.0034665  -0.0040726  -0.0058930  -0.0035469  -0.0041329
    3  -0.0002034  -0.0037001   0.0007167   0.0023766   0.0023140   0.0003161
            7           8           9          10          11          12
    1   0.0053477   0.0038084   0.0006759  -0.0010906  -0.0045299  -0.0082294
    2   0.0028830  -0.0041980  -0.0033645  -0.0022635  -0.0067252  -0.0100716
    3   0.0045275  -0.0087947   0.0004022   0.0009714   0.0039254  -0.0016455
           13          14          15          16          17          18
    1  -0.0022189   0.0001508   0.0001178  -0.0004430  -0.0011668  -0.0002361
    2  -0.0015727  -0.0044032  -0.0053127  -0.0039335  -0.0046148  -0.0024198
    3   0.0041651   0.0041956  -0.0001745   0.0001215   0.0010808  -0.0106295
           19          20          21          22          23          24
    1  -0.0018067  -0.0006122   0.0028045  -0.0039655  -0.0079036  -0.0075087
    2  -0.0152130   0.0006675  -0.0012260   0.0010326  -0.0017594  -0.0336718
    3  -0.0138039  -0.0091292  -0.0044481  -0.0144665   0.0020668   0.0128257
           25          26          27          28          29          30
    1  -0.0258971  -0.0101933   0.0367432  -0.0012847  -0.0128273  -0.0163543
    2   0.0248069  -0.0034424  -0.0522498   0.0036417   0.0284772  -0.0166249
    3   0.0022750  -0.0282101  -0.0116433   0.0044609   0.0181189   0.0214031
           31          32          33          34          35          36
    1   0.0241645   0.0130034  -0.0002317  -0.0146414   0.0308252  -0.0058190
    2   0.0122962   0.0912613   0.0049810   0.0211567   0.0065574   0.0208151
    3   0.0143033  -0.0599377   0.0013638   0.0258829   0.0149228  -0.0225293
           37          38          39          40          41          42
    1   0.0005856   0.0056694   0.0029790   0.0235145  -0.0112842  -0.0914837
    2  -0.0375498   0.0002359   0.0284391  -0.0170732  -0.0187203   0.0234984
    3   0.0434120  -0.0090011  -0.0183626   0.0182723  -0.0231223  -0.0578199
           43          44          45          46          47          48
    1  -0.0016070   0.0209517   0.0101556  -0.0164562   0.0171601  -0.0002294
    2  -0.0050049   0.0126950  -0.0203254  -0.0184678   0.0564577   0.0006909
    3   0.0053014   0.0021328   0.0283835  -0.0206456  -0.0299210   0.0074634
           49          50          51          52          53          54
    1   0.0259174  -0.0186992  -0.0085559  -0.1055022  -0.0053394   0.0085992
    2   0.0178259   0.0240378  -0.0290622  -0.0310268  -0.0034656  -0.0023974
    3   0.0148325   0.0084267   0.0152002  -0.0119571  -0.0022164  -0.0336800
           55          56          57          58          59          60
    1  -0.0148668  -0.0403839   0.0261611   0.0036550   0.0163576   0.0272388
    2  -0.0191885   0.0058319   0.0350780  -0.0047527  -0.0204697   0.0148433
    3   0.0238819  -0.0119519  -0.0335187   0.0041167  -0.0211694   0.0101361
           61          62          63          64          65          66
    1  -0.0231706  -0.0395417  -0.0012497   0.0249917   0.0018183  -0.0224485
    2  -0.0198761   0.0237359  -0.0066932   0.0087782  -0.0314045  -0.0046139
    3   0.0138895   0.0996156  -0.0061164  -0.0209812   0.0068971  -0.0226839
           67          68          69          70          71          72
    1   0.0422993  -0.0095798  -0.0099728   0.0054992  -0.0201759  -0.0083042
    2  -0.0100800  -0.0016937  -0.0166503   0.0325710  -0.0195659   0.0899809
    3   0.0346836   0.0051450   0.0282068   0.0126405  -0.0194323  -0.0609300
           73          74          75          76          77          78
    1  -0.0002134   0.0270708   0.0171989  -0.0179835  -0.0443182   0.0020117
    2   0.0004390   0.0044660  -0.0323533   0.0080950  -0.0180668   0.0159980
    3  -0.0034242  -0.0097659  -0.0157692  -0.0361720   0.0102279   0.0026061
           79          80          81          82          83          84
    1  -0.0242497  -0.0160717   0.0331887   0.0954425   0.0030333   0.0201672
    2   0.0110726   0.0230212   0.0095210  -0.0046930  -0.0044285   0.0224220
    3  -0.0231298   0.0235957   0.0080256   0.0508994  -0.0142805  -0.0124826
           85          86          87          88          89          90
    1   0.0130880  -0.0246962  -0.0319888   0.0069756   0.0187322   0.0224447
    2  -0.0300270  -0.0034210   0.0422957   0.0021994  -0.0228366   0.0277296
    3   0.0096336  -0.0213235  -0.0053130   0.0003109  -0.0093229  -0.0184449
           91          92          93          94          95          96
    1  -0.0011496  -0.0161740   0.0090433   0.0155357   0.0003215   0.0134552
    2   0.0081199  -0.0883474   0.0015236  -0.0143478   0.0313166  -0.0149573
    3   0.0301701   0.0596609  -0.0001998  -0.0260087   0.0067524   0.0260397
           97          98          99         100         101         102
    1  -0.0292343   0.0013583   0.0234754  -0.0300235   0.0134602  -0.0308006
    2   0.0027996  -0.0080062  -0.0247718  -0.0071748  -0.0134488   0.0689979
    3   0.0545523  -0.0023292   0.0172099  -0.0156513  -0.0263521  -0.0804745
          103         104         105         106         107         108
    1   0.0088007   0.0069651  -0.0079996   0.0366352  -0.0071041   0.0031474
    2   0.0003442   0.0231390  -0.0250547   0.0095882  -0.0251456   0.0111019
    3   0.0059966   0.0230847   0.0147618  -0.0113540  -0.0477227   0.0004247
          109         110         111         112         113         114
    1   0.0254846  -0.0201236   0.0224534  -0.0770243  -0.0061218   0.0091666
    2   0.0007608   0.0193203   0.0146485   0.0243896  -0.0030613  -0.0093238
    3  -0.0189443  -0.0224124   0.0245525   0.0763015  -0.0060008  -0.0327757
          115         116         117         118         119         120
    1  -0.0059484  -0.0336745  -0.0063953  -0.0010911  -0.0310124   0.0201021
    2  -0.0248529  -0.0051488   0.0052263   0.0039999   0.0139041   0.0242101
    3   0.0108361   0.0181671   0.0580159  -0.0080155   0.0043246   0.0030748
          121         122         123         124         125         126
    1   0.0017065   0.0925449  -0.0012740   0.0091693   0.0011944  -0.0327024
    2   0.0048969  -0.0341550   0.0063537   0.0084431   0.0264105   0.0051107
    3  -0.0344647  -0.0481841   0.0028103   0.0289592  -0.0131272   0.0045071
          127         128         129         130         131         132
    1  -0.0404565   0.0007563   0.0188002  -0.0318916   0.0200180   0.0980940
    2  -0.0213866  -0.0068697   0.0127137  -0.0054649  -0.0310882   0.0343619
    3  -0.0366784   0.0028981   0.0206702   0.0150559  -0.0014026  -0.0333635
          133         134         135         136         137         138
    1  -0.0016883   0.0035659  -0.0196046   0.0115924  -0.0114596   0.0084514
    2   0.0115025   0.0092815   0.0007339   0.0177371  -0.0327700   0.0036730
    3  -0.0035567  -0.0366220  -0.0063413   0.0273494   0.0377386  -0.0012327
          139         140         141         142         143         144
    1   0.0226702  -0.0064222   0.0114490  -0.0121227   0.0053761  -0.0090252
    2  -0.0254195   0.0312199   0.0144444  -0.0186390  -0.0071052  -0.0068726
    3   0.0089600  -0.0192823   0.0298856  -0.1113319   0.0012365   0.0310846
          145         146         147         148         149         150
    1  -0.0066588   0.0313372  -0.0556149   0.0060085  -0.0191114   0.0034369
    2  -0.0220431  -0.0058238   0.0125241  -0.0067665  -0.0245350   0.0176415
    3  -0.0265283   0.0160464   0.0036867  -0.0047590  -0.0235396  -0.0019186
          151         152         153         154         155         156
    1   0.0371773   0.0767815  -0.0052727  -0.0090188  -0.0100229  -0.0135021
    2  -0.0044039   0.0605476   0.0021646   0.0257301  -0.0266705   0.0244408
    3   0.0024729   0.0548499  -0.0036592  -0.0183502  -0.0182053   0.0229303
          157         158         159         160         161         162
    1   0.0024619   0.0037501   0.0347210   0.0037371  -0.0144030   0.0375603
    2  -0.0072675   0.0066758   0.0135342   0.0018225   0.0288619  -0.0696135
    3   0.0539842   0.0004914   0.0038516  -0.0294184   0.0090971  -0.0760753
          163         164         165         166         167         168
    1  -0.0013733   0.0252540  -0.0357099  -0.0016546  -0.0065503  -0.0060314
    2  -0.0027252   0.0000797  -0.0045709  -0.0279908   0.0494147  -0.0024818
    3   0.0087704   0.0205875   0.0149050  -0.0045402   0.0091340  -0.0013508
          169         170         171         172         173         174
    1   0.0061308  -0.0313329  -0.0057662   0.0824805  -0.0046667  -0.0340888
    2  -0.0293436   0.0032556   0.0037374  -0.0497586   0.0052791  -0.0096126
    3  -0.0058083   0.0149452  -0.0335946  -0.0534136  -0.0010220  -0.0102856
          175         176         177         178         179         180
    1   0.0090124   0.0109492   0.0011593  -0.0028249   0.0083428   0.0047846
    2   0.0314011   0.0109699  -0.0482246  -0.0015834  -0.0226622   0.0227314
    3   0.0129378  -0.0262114  -0.0289125   0.0050513   0.0238984   0.0192508
          181         182         183         184         185         186
    1  -0.0347152   0.0927229  -0.0026919  -0.0228353   0.0039664  -0.0044429
    2  -0.0029685   0.0522009   0.0080946  -0.0169313   0.0094483   0.0209089
    3   0.0001953   0.0311716   0.0043792   0.0133832   0.0314679  -0.0256853
          187         188         189         190         191         192
    1  -0.0143979   0.0063296  -0.0142699   0.0243631   0.0165771   0.0409507
    2  -0.0526366   0.0016719   0.0025873  -0.0185099   0.0250873   0.0684222
    3  -0.0102495   0.0061722   0.0302282  -0.0078696  -0.0109831  -0.0754085
          193         194         195         196         197         198
    1  -0.0050061   0.0261047  -0.0262644  -0.0283526   0.0349281   0.0013631
    2  -0.0057942  -0.0085625   0.0163883  -0.0169475  -0.0306671   0.0086410
    3   0.0053682   0.0185803   0.0140012  -0.0126120  -0.0386546   0.0045318
          199         200         201         202         203         204
    1  -0.0260508   0.0258459   0.0177129  -0.0886833  -0.0018673   0.0131842
    2   0.0146148  -0.0134106   0.0107242   0.0605234  -0.0052840  -0.0347991
    3   0.0192614   0.0128450  -0.0236221  -0.0242455   0.0041821   0.0286924
          205         206         207         208         209         210
    1  -0.0095628  -0.0123866   0.0394951  -0.0046718  -0.0241328   0.0133023
    2   0.0170047  -0.0246163   0.0331948   0.0052172   0.0101595   0.0233897
    3   0.0237750  -0.0157600   0.0312048  -0.0034928   0.0205461  -0.0146877
          211         212         213         214         215         216
    1  -0.0286985   0.0215969  -0.0038977  -0.0092411   0.0248030  -0.0156510
    2  -0.0168683  -0.0671370   0.0037410   0.0265161   0.0104547  -0.0295519
    3  -0.0079168  -0.0822439  -0.0095056   0.0121117  -0.0191184  -0.0116970
          217         218         219         220         221         222
    1   0.0399045   0.0012677   0.0239032   0.0051208  -0.0162048  -0.0965201
    2   0.0302717  -0.0101497   0.0044685  -0.0169596  -0.0139709  -0.0258323
    3   0.0267819  -0.0050463  -0.0222013   0.0311809  -0.0268300   0.0449500
          223         224         225         226         227         228
    1   0.0098404   0.0190658   0.0096272   0.0011453  -0.0391387   0.0033008
    2   0.0028240   0.0053260   0.0152481  -0.0293598   0.0128409  -0.0032989
    3   0.0015669  -0.0266458   0.0237336   0.0051119   0.0440573  -0.0036935
          229         230         231         232         233         234
    1  -0.0183215   0.0203134  -0.0187944   0.0205470  -0.0025379  -0.0122793
    2  -0.0001625  -0.0088302  -0.0252511   0.0837714   0.0001923  -0.0328792
    3  -0.0219925  -0.0256692   0.0161812  -0.0766112  -0.0112742   0.0071105
          235         236         237         238         239         240
    1  -0.0120263   0.0171463   0.0225440  -0.0074590  -0.0019098  -0.0125768
    2   0.0317298  -0.0050917  -0.0550001   0.0001757   0.0052509   0.0279743
    3  -0.0053117  -0.0298903   0.0142428   0.0058889   0.0343452  -0.0124477
          241         242         243         244         245         246
    1  -0.0184155   0.0541275  -0.0003600   0.0150800  -0.0204486   0.0242586
    2  -0.0290707   0.0941331   0.0024189  -0.0228630   0.0014959   0.0198425
    3   0.0008478   0.0042423  -0.0071768  -0.0153351  -0.0318012  -0.0082326
          247         248         249         250         251         252
    1  -0.0214944  -0.0041802   0.0120998  -0.0242691  -0.0233164   0.0789973
    2  -0.0471259   0.0051375   0.0273729   0.0053757   0.0082934   0.0542863
    3   0.0147951  -0.0012082  -0.0061265  -0.0241818   0.0247386   0.0525860
          253         254         255         256         257         258
    1  -0.0062380  -0.0241970  -0.0007263  -0.0137582   0.0452416  -0.0024875
    2  -0.0012256   0.0053342  -0.0292553   0.0096778  -0.0305873   0.0068750
    3  -0.0020661  -0.0241113  -0.0191235   0.0298061   0.0329497   0.0044570
          259         260         261         262         263         264
    1  -0.0245965   0.0020365   0.0248472   0.0195374  -0.0019752  -0.0226589
    2   0.0154742  -0.0010793   0.0163392   0.0288277  -0.0101704  -0.0346435
    3  -0.0166143   0.0330125  -0.0013850  -0.1046850  -0.0016921  -0.0144289
          265         266         267         268         269         270
    1   0.0157774   0.0249826  -0.0243955  -0.0072739  -0.0270374  -0.0190700
    2   0.0017416  -0.0060182  -0.0014992   0.0001101  -0.0204910   0.0258462
    3  -0.0249799   0.0211063   0.0471824  -0.0067883   0.0082142  -0.0034296
          271         272
    1   0.0211656   0.0890825
    2  -0.0027476   0.0598642
    3  -0.0260899  -0.0226588
  --- DONE ESP SUMMARY ---
 Total job time:  27.08s(wall), 69.46s(cpu) 
 Thu Jul 21 07:50:24 2022

        *************************************************************
        *                                                           *
        *  Thank you very much for using Q-Chem.  Have a nice day.  *
        *                                                           *
        *************************************************************


