                  Welcome to Q-Chem
     A Quantum Leap Into The Future Of Chemistry


 Q-Chem 6.0 (devel), Q-Chem, Inc., Pleasanton, CA (2022)

 E. Epifanovsky,  A. T. B. Gilbert,  Xintian Feng,  Joonho Lee,  Yuezhi Mao,  
 N. Mardirossian,  P. Pokhilko,  A. White,  M. Wormit,  M. P. Coons,  
 A. L. Dempwolff,  Zhengting Gan,  D. Hait,  P. R. Horn,  L. D. Jacobson,  
 I. Kaliman,  J. Kussmann,  A. W. Lange,  Ka Un Lao,  D. S. Levine,  Jie Liu,  
 S. C. McKenzie,  A. F. Morrison,  K. Nanda,  F. Plasser,  D. R. Rehn,  
 M. L. Vidal,  Zhi-Qiang You,  Ying Zhu,  B. Alam,  B. Albrecht,  
 A. Aldossary,  E. Alguire,  J. H. Andersen,  V. Athavale,  D. Barton,  
 K. Begam,  A. Behn,  N. Bellonzi,  Y. A. Bernard,  E. J. Berquist,  
 H. Burton,  A. Carreras,  K. Carter-Fenk,  Romit Chakraborty,  
 Chandrima Chakravarty,  Junhan Chen,  A. D. Chien,  K. D. Closser,  
 V. Cofer-Shabica,  L. Cunha,  S. Dasgupta,  Jia Deng,  M. de Wergifosse,  
 M. Diedenhofen,  Hainam Do,  S. Ehlert,  Po-Tung Fang,  S. Fatehi,  
 Qingguo Feng,  T. Friedhoff,  B. Ganoe,  J. Gayvert,  Qinghui Ge,  
 G. Gidofalvi,  M. Goldey,  J. Gomes,  C. Gonzalez-Espinoza,  S. Gulania,  
 A. Gunina,  J. A. Gyamfi,  M. W. D. Hanson-Heine,  P. H. P. Harbach,  
 A. W. Hauser,  M. F. Herbst,  M. Hernandez Vera,  M. Hodecker,  
 Z. C. Holden,  S. Houck,  Xunkun Huang,  Kerwin Hui,  B. C. Huynh,  
 K. Ikeda,  M. Ivanov,  Hyunjun Ji,  Zuxin Jin,  Hanjie Jiang,  B. Kaduk,  
 S. Kaehler,  R. Kang,  K. Khistyaev,  Jaehoon Kim,  Yongbin Kim,  
 P. Klunzinger,  Z. Koczor-Benda,  Joong Hoon Koh,  D. Kosenkov,  
 Saikiran Kotaru,  L. Koulias,  T. Kowalczyk,  C. M. Krauter,  K. Kue,  
 A. Kunitsa,  T. Kus,  A. Landau,  K. V. Lawler,  D. Lefrancois,  S. Lehtola,  
 Rain Li,  Shaozhi Li,  Yi-Pei Li,  Jiashu Liang,  M. Liebenthal,  
 Hung-Hsuan Lin,  You-Sheng Lin,  Fenglai Liu,  Kuan-Yu Liu,  
 M. Loipersberger,  A. Luenser,  C. Malbon,  A. Manjanath,  P. Manohar,  
 E. Mansoor,  S. F. Manzer,  Shan-Ping Mao,  A. V. Marenich,  T. Markovich,  
 S. Mason,  F. Matz,  S. A. Maurer,  P. F. McLaughlin,  M. F. S. J. Menger,  
 J.-M. Mewes,  S. A. Mewes,  P. Morgante,  Mohammad Mostafanejad,  
 J. W. Mullinax,  K. J. Oosterbaan,  G. Paran,  V. Parravicini,  
 Alexander C. Paul,  Suranjan K. Paul,  F. Pavosevic,  Zheng Pei,  S. Prager,  
 E. I. Proynov,  E. Ramos,  B. Rana,  A. E. Rask,  A. Rettig,  R. M. Richard,  
 F. Rob,  E. Rossomme,  T. Scheele,  M. Scheurer,  M. Schneider,  
 P. E. Schneider,  N. Sergueev,  S. M. Sharada,  Hengyuan Shen,  
 W. Skomorowski,  D. W. Small,  C. J. Stein,  Yingli Su,  Yu-Chuan Su,  
 E. J. Sundstrom,  Zhen Tao,  J. Thirman,  Hung-Yi Tsai,  T. Tsuchimochi,  
 N. M. Tubman,  C. Utku,  S. P. Veccham,  O. Vydrov,  J. Wenzel,  
 Jonathan Wong,  J. Witte,  A. Yamada,  Chou-Hsun Yang,  Kun Yao,  
 S. Yeganeh,  S. R. Yost,  A. Zech,  F. Zeller,  Igor Ying Zhang,  
 Xing Zhang,  Yu Zhang,  D. Zuev,  A. Aspuru-Guzik,  A. T. Bell,  
 N. A. Besley,  K. B. Bravaya,  B. R. Brooks,  D. Casanova,  Jeng-Da Chai,  
 Hsing-Ta Chen,  S. Coriani,  C. J. Cramer,  A. E. DePrince, III,  
 R. A. DiStasio Jr.,  A. Dreuw,  B. D. Dunietz,  T. R. Furlani,  
 W. A. Goddard III,  S. Grimme,  S. Hammes-Schiffer,  T. Head-Gordon,  
 W. J. Hehre,  Chao-Ping Hsu,  T.-C. Jagau,  Yousung Jung,  A. Klamt,  
 Jing Kong,  D. S. Lambrecht,  Xiangyuan Li,  WanZhen Liang,  N. J. Mayhall,  
 C. W. McCurdy,  J. B. Neaton,  T. Neudecker,  C. Ochsenfeld,  
 J. A. Parkhill,  R. Peverati,  V. A. Rassolov,  Haisheng Ren,  Yihan Shao,  
 L. V. Slipchenko,  R. P. Steele,  J. E. Subotnik,  A. J. W. Thom,  
 A. Tkatchenko,  D. G. Truhlar,  T. Van Voorhis,  Fan Wang,  
 T. A. Wesolowski,  K. B. Whaley,  H. L. Woodcock III,  P. M. Zimmerman,  
 S. Faraji,  P. M. W. Gill,  M. Head-Gordon,  J. M. Herbert,  A. I. Krylov

 Contributors to earlier versions of Q-Chem not listed above: 
 R. D. Adamson,  B. Austin,  R. Baer,  J. Baker,  G. J. O. Beran,  
 K. Brandhorst,  S. T. Brown,  E. F. C. Byrd,  Arup K. Chakraborty,  
 G. K. L. Chan,  Chun-Min Chang,  Yunqing Chen,  C.-L. Cheng,  
 Siu Hung Chien,  D. M. Chipman,  D. L. Crittenden,  H. Dachsel,  
 R. J. Doerksen,  A. D. Dutoi,  R. G. Edgar,  J. Fosso-Tande,  
 L. Fusti-Molnar,  D. Ghosh,  A. Ghysels,  A. Golubeva-Zadorozhnaya,  
 J. Gonthier,  M. S. Gordon,  S. R. Gwaltney,  G. Hawkins,  J. E. Herr,  
 A. Heyden,  S. Hirata,  E. G. Hohenstein,  G. Kedziora,  F. J. Keil,  
 C. Kelley,  Jihan Kim,  R. A. King,  R. Z. Khaliullin,  P. P. Korambath,  
 W. Kurlancheek,  A. Laurent,  A. M. Lee,  M. S. Lee,  S. V. Levchenko,  
 Ching Yeh Lin,  D. Liotard,  E. Livshits,  R. C. Lochan,  I. Lotan,  
 L. A. Martinez-Martinez,  P. E. Maslen,  N. Nair,  D. P. O'Neill,  
 D. Neuhauser,  E. Neuscamman,  C. M. Oana,  R. Olivares-Amaya,  R. Olson,  
 T. M. Perrine,  B. Peters,  P. A. Pieniazek,  A. Prociuk,  Y. M. Rhee,  
 J. Ritchie,  M. A. Rohrdanz,  E. Rosta,  N. J. Russ,  H. F. Schaefer III,  
 M. W. Schmidt,  N. E. Schultz,  S. Sharma,  N. Shenvi,  C. D. Sherrill,  
 A. C. Simmonett,  A. Sodt,  T. Stein,  D. Stuck,  K. S. Thanthiriwatte,  
 V. Vanovschi,  L. Vogt,  Tao Wang,  A. Warshel,  M. A. Watson,  
 C. F. Williams,  Q. Wu,  X. Xu,  Jun Yang,  W. Zhang,  Yan Zhao

   Please cite Q-Chem as follows:
  "Software for the frontiers of quantum chemistry:
   An overview of developments in the Q-Chem 5 package"
   J. Chem. Phys. 155, 084801 (2021)
   https://doi.org/10.1063/5.0055522 (open access)

 Q-Chem 6.0.0 for Intel X86 EM64T Linux

 Parts of Q-Chem use Armadillo 9.900.5 (Nocturnal Misbehaviour).
 http://arma.sourceforge.net/

 Q-Chem begins on Thu Jul 21 03:13:29 2022  

 Host: nid00531
0

     Scratch files written to /global/cscratch1/sd/ymao90/r7.00_frame_0060_spade_B3LYP_dp20220721031325//
 Processing $rem in /global/homes/y/ymao90/my_qchem/qchem_embedding_5p4/config/preferences:
 Processing $rem in /global/homes/y/ymao90/.qchemrc:
 No nuclear gradient supported for projection-based embedding or EMFT. Set max ideriv = 0.

 Checking the input file for inconsistencies... 	...done.

--------------------------------------------------------------
User input:
--------------------------------------------------------------
$molecule
0 1
--
0 1
C    26.31600   22.83200   25.07500  
C    26.84700   23.81400   26.13200  
C    28.24200   24.31700   25.72600  
C    28.22600   24.89400   24.30100  
C    27.65300   23.91900   23.25800  
C    26.24200   23.48500   23.68500  
H    28.64000   25.09700   26.38500  
H    26.17300   24.67500   26.21400  
H    27.00800   21.99600   24.91400  
H    25.40100   22.43600   25.53100  
H    27.59400   25.79000   24.29700  
H    29.21800   25.15800   23.91500  
H    27.54900   24.32400   22.24500  
H    28.27700   23.03300   23.09000  
H    25.46100   24.24600   23.56000  
H    25.93100   22.70500   22.97900  
H    28.96100   23.48900   25.70800  
N    26.86500   23.17400   27.44600  
H    27.50700   22.40800   27.61000  
C    26.00800   23.46300   28.48700  
H    25.99500   22.67000   29.25600  
O    25.27900   24.43900   28.51900  
--
0 1
C    26.39000   28.05500   29.43400  
H    25.74700   27.71300   30.25000  
H    27.44100   27.92100   29.70200  
H    26.14800   29.10300   29.23900  
S    26.22900   27.38600   27.76300  
C    27.62800   28.26600   27.03400  
H    27.69200   27.91000   26.00200  
H    27.31700   29.31400   27.03100  
H    28.57800   28.22300   27.57300  
O    25.01800   28.00300   27.13300  
C    29.00700   23.14100   29.91100  
H    27.93900   22.96100   30.05900  
H    29.42200   22.53800   29.10000  
H    29.52000   23.10500   30.87600  
S    29.15000   24.78700   29.17900  
C    30.95100   24.80300   29.03200  
H    31.36000   24.74700   30.04400  
H    31.34600   23.96800   28.44800  
H    31.24400   25.78400   28.65000  
O    29.11600   25.82500   30.25700  
C    31.42500   21.22400   26.84800  
H    30.89800   22.17400   26.96000  
H    30.71200   20.39600   26.82600  
H    32.19800   21.03400   27.59700  
S    32.26600   21.31700   25.25200  
C    33.34900   22.70200   25.66900  
H    33.84700   23.06100   24.76500  
H    32.75400   23.46300   26.18100  
H    34.16600   22.27400   26.25600  
O    31.33300   22.05400   24.34200  
C    24.89400   18.68200   31.19800  
H    25.56900   17.87500   31.49400  
H    24.84500   18.84400   30.11900  
H    25.33000   19.61300   31.56700  
S    23.23300   18.19500   31.72100  
C    22.39300   19.61400   30.98100  
H    22.72400   20.52500   31.48500  
H    22.52900   19.63200   29.89600  
H    21.31300   19.54500   31.13200  
O    23.30300   18.44000   33.19600  
C    27.16600   18.36900   27.38900  
H    26.80900   18.85900   26.47900  
H    27.46800   17.37000   27.06300  
H    26.30300   18.29800   28.05500  
S    28.52200   19.23000   28.21600  
C    28.34100   18.40100   29.81200  
H    28.23200   17.31900   29.71100  
H    29.21300   18.64200   30.42500  
H    27.48800   18.86400   30.31400  
O    28.05100   20.61000   28.55600  
C    24.28500   21.17400   18.01000  
H    25.30100   20.77900   17.93100  
H    23.74600   21.17600   17.05900  
H    24.29400   22.13000   18.54000  
S    23.38800   19.89700   18.92000  
C    24.38900   20.17400   20.39800  
H    24.10900   19.45800   21.17500  
H    25.41800   19.89400   20.15900  
H    24.24100   21.18800   20.77700  
O    23.86900   18.62700   18.29000  
C    29.00800   32.59900   30.18100  
H    29.09100   33.27600   29.32700  
H    28.23600   32.87700   30.90300  
H    29.97900   32.62000   30.68200  
S    28.75000   30.90900   29.59500  
C    29.49100   30.05300   31.00300  
H    29.16200   29.01300   31.06300  
H    30.56000   29.98200   30.78900  
H    29.19700   30.53700   31.93800  
O    29.68400   30.76900   28.43300  
C    28.52500   20.67500   32.37700  
H    28.17200   21.60100   32.83800  
H    29.50000   20.89700   31.93600  
H    27.92100   20.21200   31.59300  
S    28.79200   19.48200   33.70800  
C    27.06400   19.43500   34.23400  
H    26.76900   20.44000   34.54700  
H    26.35700   19.15500   33.44900  
H    26.90200   18.72000   35.04500  
O    29.41400   20.31500   34.78500  
C    20.20700   20.24000   23.83700  
H    19.86600   21.26700   23.98800  
H    19.47200   19.89200   23.10600  
H    20.16900   19.65600   24.76000  
S    21.88100   20.20100   23.15900  
C    22.57100   21.58300   24.09700  
H    23.43300   22.01700   23.58500  
H    21.78300   22.33900   24.05200  
H    22.72900   21.27200   25.13300  
O    21.63200   20.72500   21.77900  
C    25.39300   16.08600   20.39000  
H    25.66200   15.29600   21.09600  
H    25.36300   15.77200   19.34400  
H    26.03400   16.96200   20.51900  
S    23.70100   16.64500   20.69400  
C    24.01300   17.01500   22.43500  
H    23.02200   17.32400   22.77500  
H    24.32700   16.08800   22.92300  
H    24.81200   17.75900   22.48100  
O    22.87600   15.40800   20.86600  
C    20.96600   26.48500   25.01100  
H    21.28700   26.07500   24.05000  
H    19.88100   26.41300   24.90800  
H    21.22200   27.54400   25.10500  
S    21.40200   25.40700   26.39400  
C    23.06100   25.10700   25.74400  
H    23.48700   24.40300   26.46300  
H    22.86400   24.56300   24.81700  
H    23.71100   25.96900   25.56900  
O    20.69300   24.17500   25.92600  
C    30.36300   27.26700   16.70800  
H    30.79900   27.60600   15.76500  
H    29.79500   26.34900   16.53700  
H    29.77200   28.01000   17.25000  
S    31.71600   26.81600   17.81700  
C    32.04200   25.32300   16.85400  
H    31.84600   25.53500   15.79900  
H    33.11100   25.19300   17.04000  
H    31.47900   24.49900   17.30100  
O    31.16800   26.38000   19.14000  
C    22.79000   30.60600   23.74500  
H    23.38000   31.33400   23.18200  
H    21.80300   30.55100   23.27800  
H    22.64700   31.04500   24.73500  
S    23.57000   28.98400   23.90000  
C    25.22100   29.65800   24.18900  
H    25.45400   30.29900   23.33600  
H    25.18500   30.22300   25.12400  
H    25.81500   28.74500   24.28000  
O    23.70300   28.64300   22.44900  
C    32.59700   28.76400   25.26300  
H    32.43100   29.84200   25.31800  
H    33.47400   28.49600   25.85800  
H    32.86600   28.57400   24.22100  
S    31.17300   27.85700   25.90700  
C    32.21400   26.38400   26.01500  
H    32.62500   26.12400   25.03600  
H    33.03000   26.53500   26.72600  
H    31.42300   25.70000   26.33400  
O    30.25900   27.56400   24.75800  
C    32.10200   19.44300   18.86100  
H    32.46100   19.10700   19.83700  
H    31.01300   19.49300   18.93300  
H    32.44900   18.75000   18.08900  
S    32.94500   21.04000   18.81400  
C    32.51000   21.35500   17.08900  
H    31.59000   20.87400   16.74700  
H    32.31400   22.42100   16.95000  
H    33.44700   21.04800   16.61700  
O    34.38700   20.63700   18.79100  
C    28.42100   27.18700   20.88500  
H    28.33900   26.12900   20.62200  
H    28.60800   27.79200   19.99500  
H    29.19700   27.27700   21.65000  
S    26.77600   27.62000   21.49400  
C    25.89100   27.77600   19.92600  
H    24.91900   28.23200   20.12700  
H    26.40100   28.51600   19.30400  
H    25.81400   26.77100   19.50400  
O    26.89000   29.06500   21.87000  
C    28.72700   30.59300   23.74600  
H    28.35300   30.47600   22.72600  
H    29.07600   29.64400   24.16200  
H    27.93900   31.06600   24.33900  
S    30.12400   31.72200   23.54900  
C    30.33400   31.93400   25.33100  
H    29.46200   32.23000   25.91900  
H    30.58600   30.91500   25.63300  
H    31.14600   32.65300   25.47500  
O    29.33200   32.92900   23.15500  
C    24.87600   30.44200   34.00400  
H    25.04600   31.52200   33.98200  
H    23.83300   30.13000   34.10700  
H    25.51000   30.03600   34.79600  
S    25.56700   29.59100   32.56800  
C    24.23700   30.09700   31.45300  
H    24.27000   29.44900   30.57400  
H    23.27700   29.94700   31.95400  
H    24.30900   31.13000   31.10400  
O    25.10000   28.22000   32.94500  
C    28.01600   22.41900   19.72100  
H    27.11500   22.13000   19.17300  
H    28.47500   21.48500   20.05300  
H    27.61500   23.09700   20.47900  
S    29.05600   23.53100   18.74700  
C    27.64800   24.28000   17.89700  
H    27.13700   23.44400   17.41100  
H    27.01600   24.83200   18.59700  
H    28.05600   24.99300   17.17600  
O    29.51100   22.59900   17.66700  
C    23.04500   26.39200   30.35600  
H    22.86300   25.48400   30.93700  
H    23.58200   26.14700   29.43600  
H    23.50500   27.22900   30.88700  
S    21.36300   26.87600   29.90800  
C    21.77400   28.47000   29.16200  
H    22.45400   28.40800   28.30800  
H    20.82400   28.73100   28.68700  
H    22.05800   29.21400   29.91000  
O    20.73300   27.19900   31.22600  
C    30.28900   19.04600   22.71300  
H    30.80700   19.40800   21.82100  
H    30.71100   19.55900   23.58100  
H    30.33600   17.95600   22.77900  
S    28.56200   19.57000   22.62400  
C    27.91200   18.57200   23.98300  
H    28.42600   18.91100   24.88700  
H    26.83500   18.75700   24.00300  
H    28.02500   17.49400   23.84800  
O    28.00600   18.80800   21.46300  
C    19.92100   20.61200   27.67200  
H    20.43800   20.06200   28.46100  
H    19.28400   19.98700   27.04200  
H    20.65100   21.12000   27.03600  
S    18.94200   21.94900   28.39400  
C    20.38300   22.66200   29.22000  
H    21.11000   22.97400   28.46600  
H    20.04000   23.45500   29.88900  
H    20.83400   21.84300   29.78600  
O    18.28900   21.34200   29.59700  
C    23.39200   25.51700   21.96200  
H    24.17800   26.20000   22.29400  
H    22.42500   26.02500   21.98600  
H    23.39400   24.60100   22.55800  
S    23.75200   25.03600   20.25800  
C    22.48300   23.75000   20.23200  
H    21.50300   24.21000   20.38700  
H    22.61500   23.30100   19.24400  
H    22.74600   22.94300   20.92100  
O    25.04300   24.28300   20.34500  
C    31.72500   25.45400   22.65300  
H    31.79500   24.91200   23.59900  
H    31.72600   26.52800   22.85500  
H    30.86900   25.18400   22.02900  
S    33.14100   25.04500   21.60800  
C    32.94000   23.25500   21.74800  
H    32.02800   22.96100   21.22200  
H    33.81900   22.74800   21.34000  
H    32.79000   23.02000   22.80500  
O    34.26500   25.37400   22.54000  
C    24.32600   24.63400   32.77500  
H    24.36400   24.28700   31.73900  
H    23.51400   24.04400   33.20800  
H    24.12300   25.70800   32.80900  
S    25.88000   24.34600   33.65000  
C    26.87100   25.05500   32.31600  
H    26.55300   26.09200   32.18200  
H    27.94500   24.95600   32.49400  
H    26.62700   24.53300   31.38800  
O    26.08800   22.86800   33.53100  
C    22.73700   17.13200   28.24400  
H    21.80200   17.18000   28.80800  
H    22.98200   16.13600   27.86500  
H    23.49800   17.38000   28.98800  
S    22.53500   18.35000   26.92500  
C    23.61800   17.64100   25.66300  
H    23.82900   18.19700   24.74600  
H    24.58600   17.62900   26.17100  
H    23.33000   16.60500   25.46900  
O    23.27800   19.54400   27.43700  
C    21.19300   27.09500   18.69400  
H    20.29000   27.58500   18.32200  
H    21.83800   26.79000   17.86500  
H    20.82900   26.21000   19.22300  
S    22.13400   28.38800   19.53500  
C    20.99300   28.48300   20.93200  
H    21.45000   29.16900   21.65000  
H    20.11700   29.05100   20.60700  
H    20.64500   27.50600   21.27600  
O    21.75600   29.63600   18.80000  
C    36.38000   23.36400   27.77700  
H    36.74200   22.99300   28.74000  
H    35.97400   22.54900   27.17200  
H    37.17200   23.85100   27.20300  
S    35.00200   24.44400   28.22000  
C    35.80000   25.39300   29.53400  
H    34.96100   25.86400   30.05300  
H    36.49200   24.73200   30.06200  
H    36.37400   26.18500   29.04700  
O    34.04500   23.53200   28.92200  
$end

$rem
JOBTYPE  SP
METHOD  B3LYP
BASIS  6-31+G(D)
SYMMETRY  FALSE
SYM_IGNORE  TRUE
MEM_TOTAL  12000
MEM_STATIC  4000
BASIS_LIN_DEP_THRESH  6
THRESH  14
SCF_CONVERGENCE  8
FD_MAT_VEC_PROD  FALSE
XC_GRID  000075000302
NL_GRID  1
MAX_SCF_CYCLES  200
ENV_METHOD  B3LYP
GEN_SCFMAN_EMBED  TRUE
SPADE_PARTITION  TRUE
EMBEDDING_EARLY_STOP  TRUE
$end

--------------------------------------------------------------
 ----------------------------------------------------------------
             Standard Nuclear Orientation (Angstroms)
    I     Atom           X                Y                Z
 ----------------------------------------------------------------
    1      C      26.3160000000    22.8320000000    25.0750000000
    2      C      26.8470000000    23.8140000000    26.1320000000
    3      C      28.2420000000    24.3170000000    25.7260000000
    4      C      28.2260000000    24.8940000000    24.3010000000
    5      C      27.6530000000    23.9190000000    23.2580000000
    6      C      26.2420000000    23.4850000000    23.6850000000
    7      H      28.6400000000    25.0970000000    26.3850000000
    8      H      26.1730000000    24.6750000000    26.2140000000
    9      H      27.0080000000    21.9960000000    24.9140000000
   10      H      25.4010000000    22.4360000000    25.5310000000
   11      H      27.5940000000    25.7900000000    24.2970000000
   12      H      29.2180000000    25.1580000000    23.9150000000
   13      H      27.5490000000    24.3240000000    22.2450000000
   14      H      28.2770000000    23.0330000000    23.0900000000
   15      H      25.4610000000    24.2460000000    23.5600000000
   16      H      25.9310000000    22.7050000000    22.9790000000
   17      H      28.9610000000    23.4890000000    25.7080000000
   18      N      26.8650000000    23.1740000000    27.4460000000
   19      H      27.5070000000    22.4080000000    27.6100000000
   20      C      26.0080000000    23.4630000000    28.4870000000
   21      H      25.9950000000    22.6700000000    29.2560000000
   22      O      25.2790000000    24.4390000000    28.5190000000
   23      C      26.3900000000    28.0550000000    29.4340000000
   24      H      25.7470000000    27.7130000000    30.2500000000
   25      H      27.4410000000    27.9210000000    29.7020000000
   26      H      26.1480000000    29.1030000000    29.2390000000
   27      S      26.2290000000    27.3860000000    27.7630000000
   28      C      27.6280000000    28.2660000000    27.0340000000
   29      H      27.6920000000    27.9100000000    26.0020000000
   30      H      27.3170000000    29.3140000000    27.0310000000
   31      H      28.5780000000    28.2230000000    27.5730000000
   32      O      25.0180000000    28.0030000000    27.1330000000
   33      C      29.0070000000    23.1410000000    29.9110000000
   34      H      27.9390000000    22.9610000000    30.0590000000
   35      H      29.4220000000    22.5380000000    29.1000000000
   36      H      29.5200000000    23.1050000000    30.8760000000
   37      S      29.1500000000    24.7870000000    29.1790000000
   38      C      30.9510000000    24.8030000000    29.0320000000
   39      H      31.3600000000    24.7470000000    30.0440000000
   40      H      31.3460000000    23.9680000000    28.4480000000
   41      H      31.2440000000    25.7840000000    28.6500000000
   42      O      29.1160000000    25.8250000000    30.2570000000
   43      C      31.4250000000    21.2240000000    26.8480000000
   44      H      30.8980000000    22.1740000000    26.9600000000
   45      H      30.7120000000    20.3960000000    26.8260000000
   46      H      32.1980000000    21.0340000000    27.5970000000
   47      S      32.2660000000    21.3170000000    25.2520000000
   48      C      33.3490000000    22.7020000000    25.6690000000
   49      H      33.8470000000    23.0610000000    24.7650000000
   50      H      32.7540000000    23.4630000000    26.1810000000
   51      H      34.1660000000    22.2740000000    26.2560000000
   52      O      31.3330000000    22.0540000000    24.3420000000
   53      C      24.8940000000    18.6820000000    31.1980000000
   54      H      25.5690000000    17.8750000000    31.4940000000
   55      H      24.8450000000    18.8440000000    30.1190000000
   56      H      25.3300000000    19.6130000000    31.5670000000
   57      S      23.2330000000    18.1950000000    31.7210000000
   58      C      22.3930000000    19.6140000000    30.9810000000
   59      H      22.7240000000    20.5250000000    31.4850000000
   60      H      22.5290000000    19.6320000000    29.8960000000
   61      H      21.3130000000    19.5450000000    31.1320000000
   62      O      23.3030000000    18.4400000000    33.1960000000
   63      C      27.1660000000    18.3690000000    27.3890000000
   64      H      26.8090000000    18.8590000000    26.4790000000
   65      H      27.4680000000    17.3700000000    27.0630000000
   66      H      26.3030000000    18.2980000000    28.0550000000
   67      S      28.5220000000    19.2300000000    28.2160000000
   68      C      28.3410000000    18.4010000000    29.8120000000
   69      H      28.2320000000    17.3190000000    29.7110000000
   70      H      29.2130000000    18.6420000000    30.4250000000
   71      H      27.4880000000    18.8640000000    30.3140000000
   72      O      28.0510000000    20.6100000000    28.5560000000
   73      C      24.2850000000    21.1740000000    18.0100000000
   74      H      25.3010000000    20.7790000000    17.9310000000
   75      H      23.7460000000    21.1760000000    17.0590000000
   76      H      24.2940000000    22.1300000000    18.5400000000
   77      S      23.3880000000    19.8970000000    18.9200000000
   78      C      24.3890000000    20.1740000000    20.3980000000
   79      H      24.1090000000    19.4580000000    21.1750000000
   80      H      25.4180000000    19.8940000000    20.1590000000
   81      H      24.2410000000    21.1880000000    20.7770000000
   82      O      23.8690000000    18.6270000000    18.2900000000
   83      C      29.0080000000    32.5990000000    30.1810000000
   84      H      29.0910000000    33.2760000000    29.3270000000
   85      H      28.2360000000    32.8770000000    30.9030000000
   86      H      29.9790000000    32.6200000000    30.6820000000
   87      S      28.7500000000    30.9090000000    29.5950000000
   88      C      29.4910000000    30.0530000000    31.0030000000
   89      H      29.1620000000    29.0130000000    31.0630000000
   90      H      30.5600000000    29.9820000000    30.7890000000
   91      H      29.1970000000    30.5370000000    31.9380000000
   92      O      29.6840000000    30.7690000000    28.4330000000
   93      C      28.5250000000    20.6750000000    32.3770000000
   94      H      28.1720000000    21.6010000000    32.8380000000
   95      H      29.5000000000    20.8970000000    31.9360000000
   96      H      27.9210000000    20.2120000000    31.5930000000
   97      S      28.7920000000    19.4820000000    33.7080000000
   98      C      27.0640000000    19.4350000000    34.2340000000
   99      H      26.7690000000    20.4400000000    34.5470000000
  100      H      26.3570000000    19.1550000000    33.4490000000
  101      H      26.9020000000    18.7200000000    35.0450000000
  102      O      29.4140000000    20.3150000000    34.7850000000
  103      C      20.2070000000    20.2400000000    23.8370000000
  104      H      19.8660000000    21.2670000000    23.9880000000
  105      H      19.4720000000    19.8920000000    23.1060000000
  106      H      20.1690000000    19.6560000000    24.7600000000
  107      S      21.8810000000    20.2010000000    23.1590000000
  108      C      22.5710000000    21.5830000000    24.0970000000
  109      H      23.4330000000    22.0170000000    23.5850000000
  110      H      21.7830000000    22.3390000000    24.0520000000
  111      H      22.7290000000    21.2720000000    25.1330000000
  112      O      21.6320000000    20.7250000000    21.7790000000
  113      C      25.3930000000    16.0860000000    20.3900000000
  114      H      25.6620000000    15.2960000000    21.0960000000
  115      H      25.3630000000    15.7720000000    19.3440000000
  116      H      26.0340000000    16.9620000000    20.5190000000
  117      S      23.7010000000    16.6450000000    20.6940000000
  118      C      24.0130000000    17.0150000000    22.4350000000
  119      H      23.0220000000    17.3240000000    22.7750000000
  120      H      24.3270000000    16.0880000000    22.9230000000
  121      H      24.8120000000    17.7590000000    22.4810000000
  122      O      22.8760000000    15.4080000000    20.8660000000
  123      C      20.9660000000    26.4850000000    25.0110000000
  124      H      21.2870000000    26.0750000000    24.0500000000
  125      H      19.8810000000    26.4130000000    24.9080000000
  126      H      21.2220000000    27.5440000000    25.1050000000
  127      S      21.4020000000    25.4070000000    26.3940000000
  128      C      23.0610000000    25.1070000000    25.7440000000
  129      H      23.4870000000    24.4030000000    26.4630000000
  130      H      22.8640000000    24.5630000000    24.8170000000
  131      H      23.7110000000    25.9690000000    25.5690000000
  132      O      20.6930000000    24.1750000000    25.9260000000
  133      C      30.3630000000    27.2670000000    16.7080000000
  134      H      30.7990000000    27.6060000000    15.7650000000
  135      H      29.7950000000    26.3490000000    16.5370000000
  136      H      29.7720000000    28.0100000000    17.2500000000
  137      S      31.7160000000    26.8160000000    17.8170000000
  138      C      32.0420000000    25.3230000000    16.8540000000
  139      H      31.8460000000    25.5350000000    15.7990000000
  140      H      33.1110000000    25.1930000000    17.0400000000
  141      H      31.4790000000    24.4990000000    17.3010000000
  142      O      31.1680000000    26.3800000000    19.1400000000
  143      C      22.7900000000    30.6060000000    23.7450000000
  144      H      23.3800000000    31.3340000000    23.1820000000
  145      H      21.8030000000    30.5510000000    23.2780000000
  146      H      22.6470000000    31.0450000000    24.7350000000
  147      S      23.5700000000    28.9840000000    23.9000000000
  148      C      25.2210000000    29.6580000000    24.1890000000
  149      H      25.4540000000    30.2990000000    23.3360000000
  150      H      25.1850000000    30.2230000000    25.1240000000
  151      H      25.8150000000    28.7450000000    24.2800000000
  152      O      23.7030000000    28.6430000000    22.4490000000
  153      C      32.5970000000    28.7640000000    25.2630000000
  154      H      32.4310000000    29.8420000000    25.3180000000
  155      H      33.4740000000    28.4960000000    25.8580000000
  156      H      32.8660000000    28.5740000000    24.2210000000
  157      S      31.1730000000    27.8570000000    25.9070000000
  158      C      32.2140000000    26.3840000000    26.0150000000
  159      H      32.6250000000    26.1240000000    25.0360000000
  160      H      33.0300000000    26.5350000000    26.7260000000
  161      H      31.4230000000    25.7000000000    26.3340000000
  162      O      30.2590000000    27.5640000000    24.7580000000
  163      C      32.1020000000    19.4430000000    18.8610000000
  164      H      32.4610000000    19.1070000000    19.8370000000
  165      H      31.0130000000    19.4930000000    18.9330000000
  166      H      32.4490000000    18.7500000000    18.0890000000
  167      S      32.9450000000    21.0400000000    18.8140000000
  168      C      32.5100000000    21.3550000000    17.0890000000
  169      H      31.5900000000    20.8740000000    16.7470000000
  170      H      32.3140000000    22.4210000000    16.9500000000
  171      H      33.4470000000    21.0480000000    16.6170000000
  172      O      34.3870000000    20.6370000000    18.7910000000
  173      C      28.4210000000    27.1870000000    20.8850000000
  174      H      28.3390000000    26.1290000000    20.6220000000
  175      H      28.6080000000    27.7920000000    19.9950000000
  176      H      29.1970000000    27.2770000000    21.6500000000
  177      S      26.7760000000    27.6200000000    21.4940000000
  178      C      25.8910000000    27.7760000000    19.9260000000
  179      H      24.9190000000    28.2320000000    20.1270000000
  180      H      26.4010000000    28.5160000000    19.3040000000
  181      H      25.8140000000    26.7710000000    19.5040000000
  182      O      26.8900000000    29.0650000000    21.8700000000
  183      C      28.7270000000    30.5930000000    23.7460000000
  184      H      28.3530000000    30.4760000000    22.7260000000
  185      H      29.0760000000    29.6440000000    24.1620000000
  186      H      27.9390000000    31.0660000000    24.3390000000
  187      S      30.1240000000    31.7220000000    23.5490000000
  188      C      30.3340000000    31.9340000000    25.3310000000
  189      H      29.4620000000    32.2300000000    25.9190000000
  190      H      30.5860000000    30.9150000000    25.6330000000
  191      H      31.1460000000    32.6530000000    25.4750000000
  192      O      29.3320000000    32.9290000000    23.1550000000
  193      C      24.8760000000    30.4420000000    34.0040000000
  194      H      25.0460000000    31.5220000000    33.9820000000
  195      H      23.8330000000    30.1300000000    34.1070000000
  196      H      25.5100000000    30.0360000000    34.7960000000
  197      S      25.5670000000    29.5910000000    32.5680000000
  198      C      24.2370000000    30.0970000000    31.4530000000
  199      H      24.2700000000    29.4490000000    30.5740000000
  200      H      23.2770000000    29.9470000000    31.9540000000
  201      H      24.3090000000    31.1300000000    31.1040000000
  202      O      25.1000000000    28.2200000000    32.9450000000
  203      C      28.0160000000    22.4190000000    19.7210000000
  204      H      27.1150000000    22.1300000000    19.1730000000
  205      H      28.4750000000    21.4850000000    20.0530000000
  206      H      27.6150000000    23.0970000000    20.4790000000
  207      S      29.0560000000    23.5310000000    18.7470000000
  208      C      27.6480000000    24.2800000000    17.8970000000
  209      H      27.1370000000    23.4440000000    17.4110000000
  210      H      27.0160000000    24.8320000000    18.5970000000
  211      H      28.0560000000    24.9930000000    17.1760000000
  212      O      29.5110000000    22.5990000000    17.6670000000
  213      C      23.0450000000    26.3920000000    30.3560000000
  214      H      22.8630000000    25.4840000000    30.9370000000
  215      H      23.5820000000    26.1470000000    29.4360000000
  216      H      23.5050000000    27.2290000000    30.8870000000
  217      S      21.3630000000    26.8760000000    29.9080000000
  218      C      21.7740000000    28.4700000000    29.1620000000
  219      H      22.4540000000    28.4080000000    28.3080000000
  220      H      20.8240000000    28.7310000000    28.6870000000
  221      H      22.0580000000    29.2140000000    29.9100000000
  222      O      20.7330000000    27.1990000000    31.2260000000
  223      C      30.2890000000    19.0460000000    22.7130000000
  224      H      30.8070000000    19.4080000000    21.8210000000
  225      H      30.7110000000    19.5590000000    23.5810000000
  226      H      30.3360000000    17.9560000000    22.7790000000
  227      S      28.5620000000    19.5700000000    22.6240000000
  228      C      27.9120000000    18.5720000000    23.9830000000
  229      H      28.4260000000    18.9110000000    24.8870000000
  230      H      26.8350000000    18.7570000000    24.0030000000
  231      H      28.0250000000    17.4940000000    23.8480000000
  232      O      28.0060000000    18.8080000000    21.4630000000
  233      C      19.9210000000    20.6120000000    27.6720000000
  234      H      20.4380000000    20.0620000000    28.4610000000
  235      H      19.2840000000    19.9870000000    27.0420000000
  236      H      20.6510000000    21.1200000000    27.0360000000
  237      S      18.9420000000    21.9490000000    28.3940000000
  238      C      20.3830000000    22.6620000000    29.2200000000
  239      H      21.1100000000    22.9740000000    28.4660000000
  240      H      20.0400000000    23.4550000000    29.8890000000
  241      H      20.8340000000    21.8430000000    29.7860000000
  242      O      18.2890000000    21.3420000000    29.5970000000
  243      C      23.3920000000    25.5170000000    21.9620000000
  244      H      24.1780000000    26.2000000000    22.2940000000
  245      H      22.4250000000    26.0250000000    21.9860000000
  246      H      23.3940000000    24.6010000000    22.5580000000
  247      S      23.7520000000    25.0360000000    20.2580000000
  248      C      22.4830000000    23.7500000000    20.2320000000
  249      H      21.5030000000    24.2100000000    20.3870000000
  250      H      22.6150000000    23.3010000000    19.2440000000
  251      H      22.7460000000    22.9430000000    20.9210000000
  252      O      25.0430000000    24.2830000000    20.3450000000
  253      C      31.7250000000    25.4540000000    22.6530000000
  254      H      31.7950000000    24.9120000000    23.5990000000
  255      H      31.7260000000    26.5280000000    22.8550000000
  256      H      30.8690000000    25.1840000000    22.0290000000
  257      S      33.1410000000    25.0450000000    21.6080000000
  258      C      32.9400000000    23.2550000000    21.7480000000
  259      H      32.0280000000    22.9610000000    21.2220000000
  260      H      33.8190000000    22.7480000000    21.3400000000
  261      H      32.7900000000    23.0200000000    22.8050000000
  262      O      34.2650000000    25.3740000000    22.5400000000
  263      C      24.3260000000    24.6340000000    32.7750000000
  264      H      24.3640000000    24.2870000000    31.7390000000
  265      H      23.5140000000    24.0440000000    33.2080000000
  266      H      24.1230000000    25.7080000000    32.8090000000
  267      S      25.8800000000    24.3460000000    33.6500000000
  268      C      26.8710000000    25.0550000000    32.3160000000
  269      H      26.5530000000    26.0920000000    32.1820000000
  270      H      27.9450000000    24.9560000000    32.4940000000
  271      H      26.6270000000    24.5330000000    31.3880000000
  272      O      26.0880000000    22.8680000000    33.5310000000
  273      C      22.7370000000    17.1320000000    28.2440000000
  274      H      21.8020000000    17.1800000000    28.8080000000
  275      H      22.9820000000    16.1360000000    27.8650000000
  276      H      23.4980000000    17.3800000000    28.9880000000
  277      S      22.5350000000    18.3500000000    26.9250000000
  278      C      23.6180000000    17.6410000000    25.6630000000
  279      H      23.8290000000    18.1970000000    24.7460000000
  280      H      24.5860000000    17.6290000000    26.1710000000
  281      H      23.3300000000    16.6050000000    25.4690000000
  282      O      23.2780000000    19.5440000000    27.4370000000
  283      C      21.1930000000    27.0950000000    18.6940000000
  284      H      20.2900000000    27.5850000000    18.3220000000
  285      H      21.8380000000    26.7900000000    17.8650000000
  286      H      20.8290000000    26.2100000000    19.2230000000
  287      S      22.1340000000    28.3880000000    19.5350000000
  288      C      20.9930000000    28.4830000000    20.9320000000
  289      H      21.4500000000    29.1690000000    21.6500000000
  290      H      20.1170000000    29.0510000000    20.6070000000
  291      H      20.6450000000    27.5060000000    21.2760000000
  292      O      21.7560000000    29.6360000000    18.8000000000
  293      C      36.3800000000    23.3640000000    27.7770000000
  294      H      36.7420000000    22.9930000000    28.7400000000
  295      H      35.9740000000    22.5490000000    27.1720000000
  296      H      37.1720000000    23.8510000000    27.2030000000
  297      S      35.0020000000    24.4440000000    28.2200000000
  298      C      35.8000000000    25.3930000000    29.5340000000
  299      H      34.9610000000    25.8640000000    30.0530000000
  300      H      36.4920000000    24.7320000000    30.0620000000
  301      H      36.3740000000    26.1850000000    29.0470000000
  302      O      34.0450000000    23.5320000000    28.9220000000
 ----------------------------------------------------------------
 Nuclear Repulsion Energy =       50415.98041828 hartrees
 There are      623 alpha and      623 beta electrons
 Requested basis set is 6-31+G(d)
 There are 995 shells and 2773 basis functions

 Total QAlloc Memory Limit  12000 MB
 Mega-Array Size      3911 MB
 MEM_STATIC part      4000 MB

 A cutoff of  1.0D-14 yielded 182987 shell pairs
 There are   1586434 function pairs
 Smallest overlap matrix eigenvalue = 5.90E-07
 Linear dependence detected in AO basis
 Tighter screening thresholds may be required for diffuse basis sets
 Use S2THRESH > 14 and THRESH = 14 in case of SCF convergence issues
 Number of orthogonalized atomic orbitals = 2771
 Maximum deviation from orthogonality = 1.777E-10

 Scale SEOQF with 1.000000e-03/1.000000e-03/1.000000e-03

 Standard Electronic Orientation quadrupole field applied
 Nucleus-field energy     =    -0.0000000310 hartrees
 Guess from superposition of atomic densities
 Warning:  Energy on first SCF cycle will be non-variational
 SAD guess density has 1246.000002 electrons

 -----------------------------------------------------------------------
  General SCF calculation program by
  Eric Jon Sundstrom, Paul Horn, Yuezhi Mao, Dmitri Zuev, Alec White,
  David Stuck, Shaama M.S., Shane Yost, Joonho Lee, David Small,
  Daniel Levine, Susi Lehtola, Hugh Burton, Evgeny Epifanovsky,
  Bang C. Huynh
 -----------------------------------------------------------------------
=================================================
        Doing projection-based embedding         
      F. Manby et al. JCTC, 8, 2564 (2012)       
=================================================

****************************************************
   Low-level SCF calculation for the whole system   
****************************************************
----------------------------------------------
 Summary of the low-level theory: 
 Exchange:     0.2000 Hartree-Fock + 0.0800 Slater + 0.7200 B88
 Correlation:  0.1900 VWN1RPA + 0.8100 LYP
 Using Euler-Maclaurin-Lebedev (75,302) quadrature formula
----------------------------------------------
 using 16 threads for integral computing
 -------------------------------------------------------
 OpenMP Integral computing Module                
 Release: version 1.0, May 2013, Q-Chem Inc. Pittsburgh 
 -------------------------------------------------------
 A restricted SCF calculation will be
 performed using DIIS
 SCF converges when DIIS error is below 1.0e-08
 ---------------------------------------
  Cycle       Energy         DIIS error
 ---------------------------------------
    1  -15913.8082569867      1.33e-02  
    2  -15888.8183127886      2.48e-03  
    3  -15873.0586112188      4.92e-03  
    4  -15892.7342103498      1.12e-03  
    5  -15893.8825160363      1.84e-04  
    6  -15893.8982028778      1.40e-04  
    7  -15893.9119280042      5.61e-05  
    8  -15893.9143783688      1.24e-05  
    9  -15893.9144888962      5.64e-06  
   10  -15893.9145110842      2.02e-06  
   11  -15893.9145140980      5.36e-07  
   12  -15893.9145143127      2.15e-07  
   13  -15893.9145143488      8.13e-08  
   14  -15893.9145143535      3.00e-08  
   15  -15893.9145143544      7.38e-09  Convergence criterion met
 ---------------------------------------
 SCF time:   CPU 299099.01s  wall 21449.00s 
 SCF   energy in the final basis set =   -15893.9145143544
 Total energy in the final basis set =   -15893.9145143544

****************************************************
             Start embedding calculation            
****************************************************
----------------------------------------------
 Summary of the high-level theory: 
 Exchange:     0.2000 Hartree-Fock + 0.0800 Slater + 0.7200 B88
 Correlation:  0.1900 VWN1RPA + 0.8100 LYP
 Using Euler-Maclaurin-Lebedev (75,302) quadrature formula
----------------------------------------------
Doing R-in-R Embedding Calculation
Number of fragments: 2
Embedded fragment(s): 1 
NOcc for each fragment
           35
          588
NBasis for each fragment
          197
         2576
Variational space of the embedded problem: 
NOcc (active)  = 35
NOcc (fixed)   = 588
NVir (total)   = 2148
Read converged orbitals from disk
=========================================================
       Doing SPADE partition for the orbital space       
     D. Claudino and N. Mayhall JCTC 15, 1053 (2019)     
=========================================================
SPADE singular values:
 1.0000 1.0000 1.0000 1.0000 1.0000 1.0000 1.0000 1.0000 1.0000 0.9999
 0.9998 0.9998 0.9997 0.9997 0.9995 0.9994 0.9990 0.9988 0.9985 0.9980
 0.9974 0.9970 0.9969 0.9964 0.9959 0.9956 0.9950 0.9941 0.9938 0.9920
 0.9918 0.9904 0.9886 0.9870 0.9783 0.2413 0.2094 0.1650 0.1583 0.1522
 0.1370 0.1329 0.1266 0.1104 0.1053 0.0935 0.0857 0.0708 0.0686 0.0622
 0.0585 0.0561 0.0439 0.0426 0.0389 0.0368 0.0349 0.0333 0.0306 0.0293
 0.0279 0.0267 0.0246 0.0243 0.0222 0.0205 0.0194 0.0183 0.0171 0.0162
 0.0159 0.0144 0.0142 0.0133 0.0125 0.0123 0.0119 0.0111 0.0099 0.0098
 0.0087 0.0086 0.0081 0.0079 0.0069 0.0069 0.0066 0.0065 0.0062 0.0060
 0.0060 0.0058 0.0055 0.0050 0.0046 0.0045 0.0042 0.0042 0.0038 0.0036
 0.0034 0.0033 0.0030 0.0029 0.0028 0.0027 0.0025 0.0024 0.0023 0.0022
 0.0021 0.0020 0.0019 0.0018 0.0018 0.0017 0.0017 0.0016 0.0015 0.0015
 0.0014 0.0013 0.0013 0.0012 0.0012 0.0012 0.0011 0.0011 0.0010 0.0010
 0.0010 0.0010 0.0009 0.0009 0.0008 0.0008 0.0008 0.0007 0.0007 0.0007
 0.0007 0.0007 0.0006 0.0006 0.0006 0.0005 0.0005 0.0005 0.0004 0.0004
 0.0004 0.0004 0.0004 0.0004 0.0003 0.0003 0.0003 0.0003 0.0003 0.0003
 0.0003 0.0003 0.0003 0.0003 0.0002 0.0002 0.0002 0.0002 0.0002 0.0002
 0.0002 0.0002 0.0002 0.0002 0.0002 0.0002 0.0002 0.0001 0.0001 0.0001
 0.0001 0.0001 0.0001 0.0001 0.0001 0.0001 0.0001 0.0001 0.0001 0.0001
 0.0001 0.0001 0.0001 0.0001 0.0001 0.0001 0.0001
Early stop requested; no embedded SCF will be performed

 588 environment occs will be part of frozen-core in future post-HF calculations

 --------------------------------------------------------------

                    Orbital Energies (a.u.)
 --------------------------------------------------------------

 Alpha MOs
 -- Occupied --
-89.0564 -89.0422 -89.0318 -89.0300 -89.0295 -89.0285 -89.0212 -89.0196
-89.0192 -89.0168 -89.0161 -89.0155 -89.0094 -89.0058 -89.0050 -89.0047
-89.0014 -88.9998 -88.9933 -88.9916 -88.9914 -88.9910 -88.9908 -88.9890
-88.9874 -88.9855 -88.9842 -88.9771 -19.1718 -19.1556 -19.1468 -19.1435
-19.1394 -19.1391 -19.1379 -19.1368 -19.1363 -19.1305 -19.1298 -19.1293
-19.1288 -19.1233 -19.1216 -19.1149 -19.1128 -19.1127 -19.1125 -19.1081
-19.1070 -19.1031 -19.1010 -19.1004 -19.0993 -19.0990 -19.0964 -19.0828
-10.2667 -10.2647 -10.2577 -10.2563 -10.2548 -10.2532 -10.2522 -10.2515
-10.2433 -10.2424 -10.2415 -10.2395 -10.2393 -10.2390 -10.2337 -10.2337
-10.2325 -10.2323 -10.2311 -10.2310 -10.2293 -10.2276 -10.2266 -10.2250
-10.2250 -10.2245 -10.2228 -10.2227 -10.2211 -10.2211 -10.2202 -10.2188
-10.2177 -10.2162 -10.2160 -10.2147 -10.2144 -10.2128 -10.2122 -10.2119
-10.2104 -10.2100 -10.2088 -10.2065 -10.2060 -10.2055 -10.2053 -10.2045
-10.2034 -10.2034 -10.2027 -10.2004 -10.1995 -10.1981 -10.1961 -10.1780
 -8.1016  -8.0879  -8.0779  -8.0764  -8.0749  -8.0747  -8.0672  -8.0652
 -8.0644  -8.0626  -8.0614  -8.0607  -8.0550  -8.0515  -8.0515  -8.0506
 -8.0465  -8.0455  -8.0399  -8.0376  -8.0369  -8.0369  -8.0364  -8.0347
 -8.0332  -8.0314  -8.0306  -8.0235  -6.0661  -6.0648  -6.0591  -6.0523
 -6.0513  -6.0450  -6.0422  -6.0409  -6.0407  -6.0396  -6.0393  -6.0388
 -6.0382  -6.0378  -6.0354  -6.0337  -6.0326  -6.0323  -6.0316  -6.0304
 -6.0297  -6.0288  -6.0284  -6.0274  -6.0271  -6.0256  -6.0256  -6.0249
 -6.0244  -6.0244  -6.0240  -6.0227  -6.0221  -6.0201  -6.0195  -6.0192
 -6.0183  -6.0181  -6.0159  -6.0158  -6.0150  -6.0145  -6.0145  -6.0134
 -6.0125  -6.0111  -6.0097  -6.0096  -6.0091  -6.0088  -6.0088  -6.0083
 -6.0039  -6.0035  -6.0031  -6.0029  -6.0018  -6.0011  -6.0011  -6.0009
 -6.0008  -6.0001  -5.9999  -5.9996  -5.9990  -5.9979  -5.9976  -5.9975
 -5.9961  -5.9959  -5.9953  -5.9947  -5.9945  -5.9945  -5.9943  -5.9940
 -5.9937  -5.9922  -5.9907  -5.9888  -5.9879  -5.9877  -5.9864  -5.9814
 -1.0807  -1.0656  -1.0567  -1.0558  -1.0516  -1.0497  -1.0467  -1.0457
 -1.0452  -1.0414  -1.0412  -1.0362  -1.0344  -1.0329  -1.0304  -1.0301
 -1.0293  -1.0220  -1.0202  -1.0151  -1.0150  -1.0114  -1.0111  -1.0111
 -1.0111  -1.0108  -1.0096  -0.9971  -0.8528  -0.8403  -0.8351  -0.8322
 -0.8281  -0.8252  -0.8247  -0.8217  -0.8209  -0.8205  -0.8172  -0.8135
 -0.8118  -0.8081  -0.8069  -0.8032  -0.7990  -0.7981  -0.7976  -0.7949
 -0.7947  -0.7946  -0.7940  -0.7897  -0.7897  -0.7887  -0.7880  -0.7785
 -0.7752  -0.7724  -0.7657  -0.7620  -0.7594  -0.7524  -0.7519  -0.7457
 -0.7427  -0.7417  -0.7415  -0.7371  -0.7359  -0.7356  -0.7320  -0.7287
 -0.7277  -0.7267  -0.7235  -0.7226  -0.7219  -0.7216  -0.7201  -0.7189
 -0.7162  -0.7155  -0.7091  -0.6984  -0.6690  -0.6569  -0.6426  -0.6413
 -0.6410  -0.6399  -0.6350  -0.6337  -0.6315  -0.6290  -0.6288  -0.6259
 -0.6220  -0.6187  -0.6177  -0.6167  -0.6163  -0.6143  -0.6061  -0.6055
 -0.6050  -0.6037  -0.6026  -0.6016  -0.5996  -0.5985  -0.5978  -0.5874
 -0.5295  -0.5239  -0.5226  -0.5209  -0.5187  -0.5146  -0.5091  -0.5090
 -0.5059  -0.5048  -0.5036  -0.5030  -0.5006  -0.4997  -0.4991  -0.4981
 -0.4967  -0.4944  -0.4936  -0.4936  -0.4932  -0.4925  -0.4920  -0.4918
 -0.4916  -0.4912  -0.4904  -0.4901  -0.4893  -0.4878  -0.4867  -0.4864
 -0.4853  -0.4845  -0.4841  -0.4836  -0.4829  -0.4821  -0.4816  -0.4812
 -0.4805  -0.4799  -0.4798  -0.4778  -0.4775  -0.4768  -0.4764  -0.4759
 -0.4756  -0.4753  -0.4746  -0.4741  -0.4730  -0.4725  -0.4715  -0.4697
 -0.4692  -0.4690  -0.4678  -0.4674  -0.4671  -0.4658  -0.4658  -0.4650
 -0.4650  -0.4639  -0.4638  -0.4625  -0.4617  -0.4616  -0.4613  -0.4605
 -0.4602  -0.4591  -0.4586  -0.4575  -0.4573  -0.4568  -0.4564  -0.4562
 -0.4556  -0.4552  -0.4550  -0.4535  -0.4534  -0.4526  -0.4519  -0.4514
 -0.4509  -0.4496  -0.4488  -0.4470  -0.4466  -0.4458  -0.4453  -0.4451
 -0.4448  -0.4430  -0.4425  -0.4414  -0.4383  -0.4372  -0.4370  -0.4365
 -0.4362  -0.4358  -0.4353  -0.4344  -0.4334  -0.4317  -0.4313  -0.4313
 -0.4301  -0.4296  -0.4280  -0.4275  -0.4273  -0.4271  -0.4270  -0.4254
 -0.4232  -0.4229  -0.4223  -0.4216  -0.4209  -0.4202  -0.4197  -0.4191
 -0.4174  -0.4164  -0.4162  -0.4156  -0.4141  -0.4127  -0.4117  -0.4108
 -0.4103  -0.4102  -0.4092  -0.4081  -0.4071  -0.4067  -0.4066  -0.4061
 -0.4059  -0.4038  -0.4020  -0.4018  -0.4013  -0.4009  -0.4001  -0.3983
 -0.3975  -0.3963  -0.3953  -0.3953  -0.3948  -0.3948  -0.3936  -0.3932
 -0.3928  -0.3923  -0.3909  -0.3903  -0.3899  -0.3886  -0.3866  -0.3863
 -0.3858  -0.3849  -0.3837  -0.3826  -0.3823  -0.3816  -0.3795  -0.3768
 -0.3765  -0.3752  -0.3740  -0.3732  -0.3715  -0.3685  -0.3674  -0.3630
 -0.3614  -0.3570  -0.3569  -0.3568  -0.3555  -0.3545  -0.3541  -0.3513
 -0.3494  -0.3469  -0.3464  -0.3423  -0.3351  -0.3179  -0.3098  -0.3024
 -0.3018  -0.2984  -0.2980  -0.2971  -0.2959  -0.2950  -0.2920  -0.2915
 -0.2890  -0.2873  -0.2834  -0.2810  -0.2784  -0.2740  -0.2733  -0.2733
 -0.2718  -0.2713  -0.2711  -0.2703  -0.2700  -0.2675  -0.2664  -0.2660
 -0.2657  -0.2627  -0.2617  -0.2607  -0.2601  -0.2593  -0.2590  -0.2585
 -0.2579  -0.2556  -0.2528  -0.2521  -0.2494  -0.2471  -0.2456  -0.2427
 -0.2406  -0.2387  -0.2380  -0.2327  -0.2317  -0.2302  -0.2297  -0.2292
 -0.2276  -0.2265  -0.2241  -0.2176 -10.3996 -11.3988 -13.4601 -14.7892
-11.7986 -10.4379 -10.2073 -10.0657 -11.4346  -0.8382  -0.8756  -0.7622
 -0.8616  -0.6635  -0.7195  -0.5766  -0.7922  -0.4965  -0.5313  -0.5153
 -0.4517  -0.4901  -0.4684  -0.3931  -0.4459  -0.4383  -0.4471  -0.3643
 -0.4519  -0.4565  -0.5178  -0.4557  -0.4557  -0.5571  -0.6120
 -- Virtual --
 -0.0522  -0.0458  -0.0412  -0.0397  -0.0366  -0.0357  -0.0341  -0.0305
 -0.0302  -0.0284  -0.0271  -0.0264  -0.0233  -0.0226  -0.0215  -0.0210
 -0.0199  -0.0189  -0.0181  -0.0161  -0.0158  -0.0152  -0.0135  -0.0125
 -0.0114  -0.0108  -0.0099  -0.0097  -0.0090  -0.0087  -0.0080  -0.0073
 -0.0066  -0.0064  -0.0047  -0.0040  -0.0035  -0.0028  -0.0021  -0.0006
 -0.0000   0.0007   0.0014   0.0022   0.0031   0.0035   0.0047   0.0053
  0.0065   0.0068   0.0076   0.0082   0.0083   0.0088   0.0101   0.0115
  0.0128   0.0133   0.0133   0.0141   0.0149   0.0150   0.0157   0.0161
  0.0170   0.0174   0.0178   0.0186   0.0195   0.0198   0.0203   0.0209
  0.0221   0.0226   0.0232   0.0236   0.0238   0.0244   0.0250   0.0254
  0.0264   0.0271   0.0279   0.0282   0.0286   0.0291   0.0297   0.0301
  0.0305   0.0309   0.0312   0.0325   0.0328   0.0337   0.0343   0.0353
  0.0357   0.0359   0.0362   0.0373   0.0380   0.0385   0.0390   0.0396
  0.0409   0.0415   0.0422   0.0428   0.0433   0.0440   0.0443   0.0447
  0.0454   0.0460   0.0467   0.0471   0.0486   0.0491   0.0494   0.0502
  0.0508   0.0515   0.0521   0.0522   0.0530   0.0532   0.0541   0.0545
  0.0550   0.0560   0.0567   0.0581   0.0585   0.0592   0.0597   0.0601
  0.0607   0.0615   0.0621   0.0627   0.0630   0.0638   0.0650   0.0654
  0.0657   0.0665   0.0670   0.0675   0.0677   0.0685   0.0689   0.0694
  0.0701   0.0710   0.0713   0.0719   0.0720   0.0727   0.0733   0.0745
  0.0753   0.0757   0.0765   0.0772   0.0781   0.0785   0.0788   0.0794
  0.0798   0.0802   0.0814   0.0819   0.0822   0.0831   0.0835   0.0851
  0.0854   0.0859   0.0864   0.0865   0.0874   0.0883   0.0884   0.0891
  0.0899   0.0909   0.0910   0.0921   0.0925   0.0932   0.0939   0.0941
  0.0947   0.0961   0.0968   0.0977   0.0980   0.0983   0.0990   0.0991
  0.1000   0.1006   0.1010   0.1015   0.1018   0.1025   0.1028   0.1039
  0.1045   0.1046   0.1049   0.1054   0.1064   0.1065   0.1078   0.1083
  0.1087   0.1090   0.1099   0.1104   0.1107   0.1110   0.1119   0.1131
  0.1135   0.1137   0.1142   0.1149   0.1151   0.1156   0.1159   0.1163
  0.1172   0.1174   0.1183   0.1186   0.1201   0.1203   0.1211   0.1221
  0.1223   0.1227   0.1238   0.1251   0.1253   0.1256   0.1265   0.1270
  0.1273   0.1280   0.1286   0.1288   0.1301   0.1308   0.1316   0.1324
  0.1330   0.1335   0.1340   0.1349   0.1353   0.1357   0.1367   0.1369
  0.1373   0.1384   0.1388   0.1392   0.1403   0.1405   0.1406   0.1413
  0.1416   0.1426   0.1429   0.1439   0.1439   0.1445   0.1455   0.1460
  0.1468   0.1471   0.1477   0.1484   0.1494   0.1496   0.1500   0.1506
  0.1507   0.1508   0.1512   0.1518   0.1521   0.1528   0.1530   0.1536
  0.1543   0.1554   0.1556   0.1566   0.1577   0.1588   0.1591   0.1600
  0.1601   0.1606   0.1609   0.1616   0.1624   0.1631   0.1633   0.1639
  0.1646   0.1653   0.1659   0.1665   0.1666   0.1675   0.1680   0.1688
  0.1696   0.1701   0.1707   0.1710   0.1720   0.1727   0.1733   0.1736
  0.1741   0.1746   0.1747   0.1759   0.1769   0.1774   0.1775   0.1778
  0.1793   0.1793   0.1800   0.1810   0.1819   0.1824   0.1833   0.1835
  0.1843   0.1853   0.1859   0.1864   0.1868   0.1870   0.1876   0.1885
  0.1887   0.1895   0.1899   0.1905   0.1913   0.1916   0.1923   0.1931
  0.1936   0.1940   0.1950   0.1955   0.1964   0.1967   0.1972   0.1975
  0.1978   0.1995   0.1997   0.2003   0.2012   0.2013   0.2018   0.2024
  0.2027   0.2036   0.2047   0.2051   0.2053   0.2060   0.2060   0.2079
  0.2081   0.2088   0.2098   0.2099   0.2104   0.2112   0.2114   0.2124
  0.2125   0.2130   0.2135   0.2141   0.2145   0.2149   0.2159   0.2162
  0.2177   0.2178   0.2184   0.2197   0.2200   0.2204   0.2210   0.2216
  0.2219   0.2227   0.2231   0.2245   0.2246   0.2253   0.2258   0.2263
  0.2269   0.2272   0.2283   0.2293   0.2297   0.2315   0.2322   0.2328
  0.2330   0.2334   0.2338   0.2341   0.2351   0.2354   0.2361   0.2365
  0.2372   0.2380   0.2389   0.2403   0.2406   0.2415   0.2423   0.2426
  0.2432   0.2442   0.2452   0.2460   0.2464   0.2471   0.2480   0.2486
  0.2494   0.2501   0.2505   0.2513   0.2521   0.2524   0.2531   0.2536
  0.2540   0.2547   0.2557   0.2566   0.2569   0.2574   0.2575   0.2582
  0.2583   0.2596   0.2605   0.2607   0.2612   0.2624   0.2629   0.2639
  0.2652   0.2653   0.2665   0.2669   0.2681   0.2687   0.2697   0.2705
  0.2711   0.2714   0.2715   0.2720   0.2731   0.2736   0.2748   0.2750
  0.2762   0.2764   0.2781   0.2787   0.2791   0.2802   0.2803   0.2806
  0.2817   0.2832   0.2836   0.2839   0.2850   0.2858   0.2861   0.2868
  0.2870   0.2884   0.2897   0.2900   0.2908   0.2918   0.2923   0.2932
  0.2939   0.2941   0.2960   0.2962   0.2976   0.2980   0.2985   0.2991
  0.2992   0.3003   0.3005   0.3024   0.3032   0.3035   0.3049   0.3052
  0.3054   0.3066   0.3067   0.3075   0.3086   0.3095   0.3098   0.3106
  0.3118   0.3123   0.3131   0.3132   0.3145   0.3150   0.3159   0.3165
  0.3174   0.3183   0.3189   0.3195   0.3200   0.3214   0.3218   0.3220
  0.3227   0.3233   0.3238   0.3250   0.3261   0.3266   0.3274   0.3281
  0.3295   0.3299   0.3311   0.3321   0.3330   0.3333   0.3341   0.3364
  0.3373   0.3378   0.3390   0.3394   0.3403   0.3413   0.3418   0.3431
  0.3438   0.3444   0.3453   0.3462   0.3467   0.3480   0.3483   0.3492
  0.3504   0.3509   0.3515   0.3528   0.3530   0.3535   0.3542   0.3553
  0.3558   0.3573   0.3580   0.3586   0.3594   0.3607   0.3619   0.3624
  0.3629   0.3631   0.3640   0.3649   0.3652   0.3657   0.3664   0.3671
  0.3677   0.3689   0.3698   0.3703   0.3709   0.3723   0.3728   0.3742
  0.3747   0.3753   0.3760   0.3765   0.3777   0.3781   0.3786   0.3796
  0.3804   0.3811   0.3820   0.3822   0.3828   0.3847   0.3856   0.3859
  0.3863   0.3873   0.3885   0.3891   0.3895   0.3903   0.3915   0.3929
  0.3938   0.3947   0.3954   0.3962   0.3970   0.3980   0.3987   0.4002
  0.4005   0.4019   0.4029   0.4040   0.4044   0.4051   0.4056   0.4063
  0.4071   0.4074   0.4090   0.4104   0.4111   0.4126   0.4138   0.4148
  0.4158   0.4162   0.4171   0.4187   0.4203   0.4206   0.4225   0.4228
  0.4233   0.4240   0.4254   0.4273   0.4277   0.4282   0.4290   0.4308
  0.4317   0.4333   0.4342   0.4350   0.4358   0.4376   0.4380   0.4390
  0.4404   0.4419   0.4431   0.4439   0.4459   0.4460   0.4478   0.4493
  0.4505   0.4508   0.4518   0.4533   0.4538   0.4554   0.4572   0.4581
  0.4588   0.4599   0.4619   0.4637   0.4644   0.4656   0.4673   0.4689
  0.4700   0.4703   0.4718   0.4735   0.4740   0.4751   0.4758   0.4770
  0.4794   0.4806   0.4815   0.4825   0.4841   0.4853   0.4861   0.4882
  0.4906   0.4921   0.4937   0.4948   0.4955   0.4965   0.4979   0.4989
  0.5003   0.5022   0.5037   0.5044   0.5077   0.5096   0.5113   0.5116
  0.5138   0.5166   0.5180   0.5197   0.5207   0.5223   0.5236   0.5249
  0.5257   0.5275   0.5285   0.5300   0.5315   0.5332   0.5355   0.5359
  0.5380   0.5386   0.5397   0.5424   0.5459   0.5467   0.5481   0.5483
  0.5491   0.5512   0.5538   0.5548   0.5555   0.5577   0.5594   0.5600
  0.5627   0.5634   0.5646   0.5664   0.5674   0.5688   0.5700   0.5702
  0.5730   0.5760   0.5773   0.5780   0.5788   0.5805   0.5813   0.5819
  0.5833   0.5845   0.5865   0.5872   0.5878   0.5888   0.5906   0.5931
  0.5945   0.5955   0.5971   0.5984   0.5997   0.6007   0.6015   0.6027
  0.6036   0.6052   0.6065   0.6079   0.6094   0.6116   0.6135   0.6148
  0.6158   0.6175   0.6183   0.6186   0.6204   0.6211   0.6217   0.6225
  0.6239   0.6244   0.6252   0.6273   0.6281   0.6300   0.6307   0.6322
  0.6343   0.6351   0.6352   0.6368   0.6373   0.6388   0.6393   0.6408
  0.6413   0.6427   0.6437   0.6446   0.6451   0.6462   0.6477   0.6485
  0.6498   0.6501   0.6505   0.6519   0.6519   0.6531   0.6537   0.6564
  0.6571   0.6573   0.6591   0.6595   0.6612   0.6614   0.6619   0.6630
  0.6632   0.6651   0.6671   0.6680   0.6689   0.6697   0.6711   0.6714
  0.6728   0.6746   0.6752   0.6771   0.6779   0.6785   0.6793   0.6805
  0.6817   0.6825   0.6836   0.6846   0.6852   0.6867   0.6870   0.6898
  0.6904   0.6909   0.6928   0.6932   0.6950   0.6951   0.6968   0.6975
  0.6981   0.6994   0.7003   0.7011   0.7019   0.7044   0.7053   0.7067
  0.7079   0.7092   0.7101   0.7114   0.7125   0.7139   0.7153   0.7158
  0.7162   0.7177   0.7189   0.7214   0.7219   0.7229   0.7248   0.7260
  0.7270   0.7283   0.7301   0.7315   0.7326   0.7348   0.7353   0.7368
  0.7384   0.7396   0.7402   0.7408   0.7427   0.7437   0.7460   0.7483
  0.7502   0.7516   0.7540   0.7547   0.7564   0.7593   0.7600   0.7606
  0.7610   0.7635   0.7650   0.7659   0.7678   0.7687   0.7698   0.7719
  0.7732   0.7741   0.7758   0.7766   0.7772   0.7803   0.7810   0.7835
  0.7848   0.7864   0.7878   0.7892   0.7912   0.7917   0.7935   0.7950
  0.7959   0.7972   0.7991   0.7993   0.8020   0.8026   0.8042   0.8053
  0.8077   0.8086   0.8115   0.8121   0.8131   0.8138   0.8156   0.8168
  0.8170   0.8191   0.8210   0.8225   0.8235   0.8251   0.8265   0.8277
  0.8283   0.8288   0.8305   0.8313   0.8323   0.8359   0.8366   0.8376
  0.8387   0.8396   0.8409   0.8431   0.8447   0.8457   0.8473   0.8482
  0.8493   0.8494   0.8511   0.8518   0.8552   0.8560   0.8568   0.8576
  0.8597   0.8605   0.8615   0.8629   0.8642   0.8651   0.8661   0.8670
  0.8680   0.8694   0.8705   0.8712   0.8724   0.8734   0.8745   0.8763
  0.8781   0.8785   0.8797   0.8801   0.8811   0.8827   0.8833   0.8857
  0.8865   0.8879   0.8880   0.8891   0.8904   0.8919   0.8924   0.8938
  0.8956   0.8962   0.8974   0.8993   0.9000   0.9013   0.9030   0.9039
  0.9057   0.9069   0.9079   0.9086   0.9099   0.9106   0.9120   0.9130
  0.9136   0.9160   0.9165   0.9179   0.9182   0.9188   0.9204   0.9208
  0.9229   0.9241   0.9256   0.9271   0.9283   0.9291   0.9293   0.9302
  0.9318   0.9327   0.9332   0.9352   0.9359   0.9384   0.9386   0.9388
  0.9397   0.9410   0.9422   0.9431   0.9441   0.9457   0.9472   0.9478
  0.9489   0.9496   0.9515   0.9524   0.9535   0.9547   0.9552   0.9559
  0.9572   0.9578   0.9605   0.9613   0.9619   0.9630   0.9633   0.9646
  0.9655   0.9670   0.9687   0.9698   0.9713   0.9715   0.9730   0.9738
  0.9745   0.9754   0.9759   0.9766   0.9785   0.9791   0.9801   0.9816
  0.9824   0.9840   0.9855   0.9858   0.9870   0.9888   0.9901   0.9903
  0.9912   0.9919   0.9922   0.9934   0.9947   0.9948   0.9973   0.9982
  0.9989   1.0011   1.0014   1.0022   1.0041   1.0051   1.0058   1.0066
  1.0085   1.0090   1.0103   1.0118   1.0131   1.0143   1.0156   1.0163
  1.0167   1.0184   1.0205   1.0209   1.0216   1.0235   1.0244   1.0254
  1.0260   1.0270   1.0278   1.0282   1.0302   1.0324   1.0335   1.0349
  1.0355   1.0369   1.0379   1.0395   1.0410   1.0419   1.0425   1.0431
  1.0456   1.0470   1.0479   1.0497   1.0503   1.0516   1.0522   1.0532
  1.0543   1.0552   1.0555   1.0564   1.0585   1.0593   1.0596   1.0610
  1.0626   1.0649   1.0659   1.0661   1.0668   1.0675   1.0713   1.0722
  1.0735   1.0746   1.0766   1.0787   1.0788   1.0808   1.0816   1.0833
  1.0850   1.0855   1.0861   1.0891   1.0904   1.0909   1.0919   1.0938
  1.0950   1.0966   1.0979   1.1004   1.1008   1.1010   1.1019   1.1037
  1.1055   1.1063   1.1072   1.1096   1.1102   1.1111   1.1132   1.1140
  1.1162   1.1175   1.1183   1.1194   1.1213   1.1223   1.1243   1.1249
  1.1263   1.1268   1.1274   1.1287   1.1299   1.1303   1.1312   1.1328
  1.1345   1.1363   1.1369   1.1376   1.1396   1.1405   1.1420   1.1424
  1.1445   1.1454   1.1476   1.1481   1.1501   1.1512   1.1526   1.1538
  1.1551   1.1566   1.1576   1.1593   1.1603   1.1620   1.1636   1.1640
  1.1663   1.1695   1.1703   1.1714   1.1719   1.1736   1.1744   1.1772
  1.1779   1.1797   1.1798   1.1802   1.1809   1.1831   1.1861   1.1878
  1.1898   1.1919   1.1926   1.1928   1.1946   1.1960   1.1995   1.2011
  1.2018   1.2043   1.2061   1.2075   1.2087   1.2115   1.2119   1.2136
  1.2160   1.2177   1.2182   1.2193   1.2222   1.2244   1.2252   1.2261
  1.2270   1.2301   1.2329   1.2337   1.2347   1.2366   1.2389   1.2406
  1.2455   1.2477   1.2482   1.2486   1.2506   1.2512   1.2526   1.2561
  1.2578   1.2618   1.2631   1.2661   1.2672   1.2679   1.2681   1.2707
  1.2733   1.2761   1.2775   1.2799   1.2814   1.2847   1.2851   1.2881
  1.2889   1.2902   1.2914   1.2942   1.2967   1.3000   1.3016   1.3058
  1.3069   1.3099   1.3121   1.3131   1.3135   1.3165   1.3200   1.3213
  1.3232   1.3237   1.3263   1.3270   1.3282   1.3292   1.3323   1.3341
  1.3348   1.3377   1.3386   1.3401   1.3419   1.3423   1.3445   1.3450
  1.3460   1.3473   1.3503   1.3520   1.3534   1.3549   1.3562   1.3584
  1.3600   1.3603   1.3626   1.3633   1.3640   1.3659   1.3667   1.3687
  1.3692   1.3708   1.3716   1.3742   1.3758   1.3769   1.3783   1.3787
  1.3804   1.3808   1.3851   1.3855   1.3875   1.3892   1.3909   1.3928
  1.3951   1.3955   1.3962   1.3977   1.3992   1.4005   1.4009   1.4020
  1.4056   1.4060   1.4075   1.4085   1.4091   1.4111   1.4117   1.4132
  1.4145   1.4151   1.4175   1.4200   1.4204   1.4211   1.4220   1.4228
  1.4245   1.4252   1.4274   1.4292   1.4299   1.4324   1.4344   1.4365
  1.4383   1.4398   1.4408   1.4421   1.4440   1.4460   1.4469   1.4492
  1.4496   1.4514   1.4534   1.4552   1.4574   1.4599   1.4601   1.4620
  1.4630   1.4658   1.4658   1.4706   1.4725   1.4751   1.4758   1.4791
  1.4796   1.4806   1.4829   1.4857   1.4890   1.4910   1.4920   1.4956
  1.4969   1.4970   1.4989   1.5005   1.5017   1.5036   1.5082   1.5098
  1.5118   1.5129   1.5173   1.5189   1.5214   1.5249   1.5269   1.5279
  1.5304   1.5340   1.5355   1.5375   1.5403   1.5429   1.5437   1.5469
  1.5479   1.5510   1.5556   1.5572   1.5619   1.5650   1.5667   1.5689
  1.5738   1.5814   1.5845   1.5892   1.5922   1.5948   1.5993   1.6032
  1.6063   1.6122   1.6138   1.6195   1.6234   1.6263   1.6317   1.6354
  1.6377   1.6386   1.6421   1.6449   1.6469   1.6485   1.6487   1.6494
  1.6512   1.6529   1.6539   1.6557   1.6594   1.6616   1.6625   1.6636
  1.6643   1.6653   1.6671   1.6683   1.6696   1.6705   1.6716   1.6731
  1.6738   1.6758   1.6779   1.6781   1.6792   1.6803   1.6826   1.6835
  1.6836   1.6854   1.6860   1.6866   1.6885   1.6888   1.6904   1.6918
  1.6938   1.6959   1.6972   1.6986   1.7000   1.7015   1.7021   1.7043
  1.7051   1.7074   1.7089   1.7101   1.7106   1.7111   1.7119   1.7134
  1.7139   1.7154   1.7191   1.7200   1.7212   1.7229   1.7233   1.7249
  1.7267   1.7274   1.7280   1.7291   1.7293   1.7315   1.7317   1.7324
  1.7340   1.7353   1.7372   1.7382   1.7390   1.7406   1.7420   1.7439
  1.7454   1.7470   1.7480   1.7491   1.7501   1.7509   1.7538   1.7539
  1.7561   1.7575   1.7584   1.7587   1.7610   1.7619   1.7642   1.7651
  1.7663   1.7670   1.7680   1.7692   1.7727   1.7730   1.7744   1.7756
  1.7771   1.7785   1.7811   1.7840   1.7860   1.7887   1.7895   1.7919
  1.7933   1.8005   1.8058   1.8083   1.8096   1.8113   1.8148   1.8165
  1.8175   1.8223   1.8231   1.8252   1.8273   1.8309   1.8311   1.8341
  1.8356   1.8366   1.8412   1.8433   1.8457   1.8469   1.8490   1.8505
  1.8511   1.8551   1.8571   1.8597   1.8614   1.8628   1.8640   1.8646
  1.8669   1.8706   1.8717   1.8743   1.8755   1.8767   1.8775   1.8788
  1.8809   1.8816   1.8826   1.8834   1.8856   1.8865   1.8889   1.8891
  1.8904   1.8908   1.8917   1.8934   1.8954   1.8964   1.8972   1.8977
  1.8994   1.9005   1.9018   1.9023   1.9028   1.9042   1.9047   1.9060
  1.9078   1.9095   1.9100   1.9103   1.9135   1.9141   1.9162   1.9167
  1.9178   1.9195   1.9202   1.9223   1.9250   1.9257   1.9274   1.9293
  1.9308   1.9321   1.9335   1.9380   1.9393   1.9411   1.9432   1.9460
  1.9505   1.9512   1.9556   1.9585   1.9613   1.9641   1.9679   1.9778
  1.9794   1.9880   1.9954   2.0016   2.0102   2.0158   2.0199   2.0236
  2.0346   2.0382   2.0405   2.0447   2.0450   2.0471   2.0477   2.0482
  2.0511   2.0516   2.0524   2.0549   2.0555   2.0565   2.0573   2.0593
  2.0601   2.0619   2.0656   2.0662   2.0666   2.0684   2.0688   2.0693
  2.0706   2.0715   2.0757   2.0784   2.0797   2.0799   2.0811   2.0825
  2.0834   2.0838   2.0849   2.0853   2.0893   2.0902   2.0929   2.0966
  2.0973   2.0981   2.1009   2.1011   2.1021   2.1040   2.1049   2.1066
  2.1079   2.1100   2.1107   2.1116   2.1159   2.1177   2.1208   2.1218
  2.1242   2.1251   2.1299   2.1329   2.1345   2.1400   2.1421   2.1428
  2.1460   2.1488   2.1593   2.1690   2.1698   2.1725   2.1781   2.1791
  2.1813   2.1825   2.1858   2.1868   2.1910   2.1918   2.1963   2.1982
  2.2026   2.2050   2.2062   2.2085   2.2098   2.2121   2.2127   2.2140
  2.2173   2.2191   2.2204   2.2222   2.2227   2.2239   2.2245   2.2247
  2.2265   2.2270   2.2280   2.2286   2.2296   2.2313   2.2322   2.2323
  2.2328   2.2344   2.2352   2.2358   2.2384   2.2387   2.2398   2.2407
  2.2409   2.2418   2.2427   2.2435   2.2441   2.2444   2.2455   2.2461
  2.2477   2.2480   2.2490   2.2504   2.2508   2.2516   2.2525   2.2530
  2.2539   2.2542   2.2547   2.2562   2.2565   2.2570   2.2578   2.2594
  2.2603   2.2608   2.2628   2.2640   2.2649   2.2656   2.2658   2.2673
  2.2677   2.2681   2.2689   2.2694   2.2698   2.2710   2.2718   2.2724
  2.2736   2.2747   2.2754   2.2768   2.2778   2.2786   2.2792   2.2812
  2.2820   2.2839   2.2846   2.2858   2.2861   2.2873   2.2879   2.2883
  2.2899   2.2902   2.2912   2.2915   2.2921   2.2924   2.2948   2.2953
  2.2965   2.2979   2.2983   2.3008   2.3018   2.3037   2.3041   2.3050
  2.3062   2.3073   2.3084   2.3088   2.3103   2.3116   2.3123   2.3147
  2.3158   2.3169   2.3183   2.3194   2.3212   2.3230   2.3236   2.3241
  2.3264   2.3288   2.3296   2.3302   2.3317   2.3324   2.3346   2.3359
  2.3361   2.3381   2.3409   2.3437   2.3454   2.3478   2.3506   2.3515
  2.3523   2.3539   2.3544   2.3580   2.3589   2.3615   2.3642   2.3662
  2.3670   2.3689   2.3698   2.3726   2.3755   2.3801   2.3851   2.3865
  2.3885   2.3973   2.3982   2.4061   2.4112   2.4279   2.4414   2.4706
  2.4885   2.5114   2.5494   2.5895   2.6687   2.7040   2.7557   2.7651
  2.7888   2.8033   2.8038   2.8224   2.8235   2.8267   2.8319   2.8325
  2.8339   2.8374   2.8377   2.8437   2.8476   2.8483   2.8499   2.8507
  2.8533   2.8553   2.8558   2.8574   2.8590   2.8601   2.8609   2.8632
  2.8663   2.8684   2.8714   2.8737   2.8749   2.8780   2.8829   2.8910
  2.9243   3.0824   3.2579   3.9320   3.9409   3.9424   3.9467   3.9492
  3.9560   3.9584   3.9618   3.9639   3.9649   3.9693   3.9696   3.9717
  3.9741   3.9770   3.9834   3.9842   3.9863   3.9866   3.9929   3.9934
  4.0005   4.0028   4.0060   4.0075   4.0092   4.0223   4.0337   4.1916
  4.2073   4.2099   4.2140   4.2155   4.2227   4.2234   4.2272   4.2312
  4.2318   4.2353   4.2366   4.2389   4.2412   4.2479   4.2490   4.2548
  4.2584   4.2594   4.2604   4.2636   4.2653   4.2660   4.2700   4.2745
  4.2746   4.2758   4.2797   4.2837   4.2859   4.2910   4.2954   4.2977
  4.2999   4.3018   4.3023   4.3056   4.3089   4.3093   4.3133   4.3145
  4.3175   4.3191   4.3212   4.3220   4.3245   4.3252   4.3282   4.3305
  4.3322   4.3373   4.3395   4.3401   4.3421   4.3453   4.3471   4.3502
  4.3570   4.3592   4.3621   4.3645   4.3668   4.3693   4.3718   4.3744
  4.3804   4.3818   4.3908   4.3924   4.3949   4.3972   4.3990   4.4111
  4.4158   4.4188   4.4293   4.4325   4.4454   4.4586   4.4647   4.4944
  4.5060   4.5117   4.5308   4.5448   4.5735   4.5847   4.5920   4.6650
  4.7181   4.7573   4.7840   4.8837
 --------------------------------------------------------------

          Ground-State Mulliken Net Atomic Charges

     Atom                 Charge (a.u.)
  ----------------------------------------
      1 C                     0.029632
      2 C                    -1.248437
      3 C                    -0.247161
      4 C                    -0.197943
      5 C                    -1.274273
      6 C                     0.073308
      7 H                     0.233257
      8 H                     0.257540
      9 H                     0.200285
     10 H                     0.213834
     11 H                     0.215928
     12 H                     0.238125
     13 H                     0.205385
     14 H                     0.240017
     15 H                     0.214321
     16 H                     0.213815
     17 H                     0.219294
     18 N                     0.389198
     19 H                     0.489649
     20 C                    -0.371712
     21 H                     0.171286
     22 O                    -0.233769
     23 C                    -1.274689
     24 H                     0.271769
     25 H                     0.278023
     26 H                     0.254258
     27 S                     1.162522
     28 C                    -1.226778
     29 H                     0.299552
     30 H                     0.278195
     31 H                     0.278696
     32 O                    -0.505616
     33 C                    -0.970096
     34 H                     0.286710
     35 H                     0.270053
     36 H                     0.266861
     37 S                     0.606061
     38 C                    -0.674269
     39 H                     0.281550
     40 H                     0.250706
     41 H                     0.251559
     42 O                    -0.579997
     43 C                    -0.699507
     44 H                     0.249802
     45 H                     0.241936
     46 H                     0.264306
     47 S                     0.711380
     48 C                    -0.905378
     49 H                     0.299400
     50 H                     0.262591
     51 H                     0.214823
     52 O                    -0.676546
     53 C                    -0.913148
     54 H                     0.246229
     55 H                     0.224255
     56 H                     0.303942
     57 S                     0.722321
     58 C                    -0.795680
     59 H                     0.272984
     60 H                     0.260187
     61 H                     0.275924
     62 O                    -0.682553
     63 C                    -0.796812
     64 H                     0.270240
     65 H                     0.260254
     66 H                     0.263780
     67 S                     0.666357
     68 C                    -0.750342
     69 H                     0.250004
     70 H                     0.278334
     71 H                     0.272627
     72 O                    -0.695209
     73 C                    -0.846292
     74 H                     0.259550
     75 H                     0.243845
     76 H                     0.235050
     77 S                     1.067557
     78 C                    -1.081266
     79 H                     0.236093
     80 H                     0.279564
     81 H                     0.251760
     82 O                    -0.669346
     83 C                    -0.871262
     84 H                     0.270081
     85 H                     0.232441
     86 H                     0.252992
     87 S                     0.945060
     88 C                    -0.886941
     89 H                     0.291586
     90 H                     0.271219
     91 H                     0.240963
     92 O                    -0.689882
     93 C                    -0.901524
     94 H                     0.311072
     95 H                     0.236869
     96 H                     0.182914
     97 S                     0.958246
     98 C                    -0.812412
     99 H                     0.313265
    100 H                     0.224526
    101 H                     0.249296
    102 O                    -0.729162
    103 C                    -1.041112
    104 H                     0.267473
    105 H                     0.283292
    106 H                     0.236068
    107 S                     0.935779
    108 C                    -0.836542
    109 H                     0.274917
    110 H                     0.284831
    111 H                     0.278944
    112 O                    -0.674551
    113 C                    -0.788744
    114 H                     0.233525
    115 H                     0.260400
    116 H                     0.271671
    117 S                     0.870193
    118 C                    -0.909889
    119 H                     0.254233
    120 H                     0.253938
    121 H                     0.222436
    122 O                    -0.707467
    123 C                    -0.927073
    124 H                     0.241572
    125 H                     0.264730
    126 H                     0.237830
    127 S                     0.990268
    128 C                    -0.812281
    129 H                     0.289844
    130 H                     0.253898
    131 H                     0.296522
    132 O                    -0.711867
    133 C                    -0.895522
    134 H                     0.243911
    135 H                     0.244708
    136 H                     0.249435
    137 S                     0.950140
    138 C                    -0.803979
    139 H                     0.237729
    140 H                     0.252046
    141 H                     0.283208
    142 O                    -0.678530
    143 C                    -0.846759
    144 H                     0.272742
    145 H                     0.242946
    146 H                     0.239556
    147 S                     0.709914
    148 C                    -0.790885
    149 H                     0.317242
    150 H                     0.247346
    151 H                     0.271260
    152 O                    -0.721534
    153 C                    -0.938163
    154 H                     0.252130
    155 H                     0.228746
    156 H                     0.293196
    157 S                     0.857938
    158 C                    -0.855568
    159 H                     0.307979
    160 H                     0.242988
    161 H                     0.239294
    162 O                    -0.583982
    163 C                    -0.828321
    164 H                     0.223336
    165 H                     0.254895
    166 H                     0.257923
    167 S                     0.898831
    168 C                    -0.849358
    169 H                     0.270474
    170 H                     0.242785
    171 H                     0.263961
    172 O                    -0.743925
    173 C                    -0.951045
    174 H                     0.238919
    175 H                     0.248697
    176 H                     0.301078
    177 S                     0.755376
    178 C                    -0.867226
    179 H                     0.302117
    180 H                     0.257477
    181 H                     0.221199
    182 O                    -0.604206
    183 C                    -0.835397
    184 H                     0.296796
    185 H                     0.262700
    186 H                     0.240623
    187 S                     0.941953
    188 C                    -0.837099
    189 H                     0.268142
    190 H                     0.217034
    191 H                     0.231139
    192 O                    -0.750142
    193 C                    -0.854452
    194 H                     0.228990
    195 H                     0.263807
    196 H                     0.252437
    197 S                     0.986885
    198 C                    -0.868335
    199 H                     0.262145
    200 H                     0.269218
    201 H                     0.243202
    202 O                    -0.749861
    203 C                    -1.120629
    204 H                     0.259771
    205 H                     0.264730
    206 H                     0.255392
    207 S                     1.139075
    208 C                    -0.805059
    209 H                     0.261984
    210 H                     0.258404
    211 H                     0.229631
    212 O                    -0.756770
    213 C                    -0.848983
    214 H                     0.242308
    215 H                     0.286427
    216 H                     0.257787
    217 S                     0.886272
    218 C                    -0.928665
    219 H                     0.280617
    220 H                     0.248278
    221 H                     0.245940
    222 O                    -0.656602
    223 C                    -0.815733
    224 H                     0.263504
    225 H                     0.242160
    226 H                     0.250600
    227 S                     0.978719
    228 C                    -1.014498
    229 H                     0.221882
    230 H                     0.255016
    231 H                     0.273327
    232 O                    -0.664492
    233 C                    -0.873689
    234 H                     0.235138
    235 H                     0.236844
    236 H                     0.256508
    237 S                     0.955578
    238 C                    -0.823386
    239 H                     0.237012
    240 H                     0.263705
    241 H                     0.242191
    242 O                    -0.728210
    243 C                    -0.810088
    244 H                     0.331287
    245 H                     0.243063
    246 H                     0.247758
    247 S                     0.355343
    248 C                    -0.713427
    249 H                     0.227349
    250 H                     0.246589
    251 H                     0.293927
    252 O                    -0.580811
    253 C                    -1.026339
    254 H                     0.255536
    255 H                     0.282476
    256 H                     0.249897
    257 S                     0.926780
    258 C                    -0.840553
    259 H                     0.240117
    260 H                     0.267640
    261 H                     0.244042
    262 O                    -0.677976
    263 C                    -0.853048
    264 H                     0.245025
[...]
    2  -2.3352905  -1.4844979  -1.4912785  -4.2382367  -0.7280028  -2.5521803
    3  -0.4801685  -2.0389595   0.8970920  -0.3251375  -0.2550596   0.7568100
          229         230         231         232         233         234
    1   1.2932629  -1.5994939   0.6959968  -0.1392386  -1.7727402  -1.1642101
    2  -1.6036508  -1.6462134  -4.4227198  -2.7847274  -1.8207750  -2.3544126
    3   1.5896296   0.2736604   0.0276698  -2.6440512  -0.0281370   1.8762483
          235         236         237         238         239         240
    1  -3.3561582  -0.7257667  -2.7609871  -0.9667475  -0.1228860  -2.2526813
    2  -2.5015446  -0.2758861   0.0953960   0.3550107   0.3390798   1.3794097
    3  -0.9078892  -0.8128456   0.0049841   1.8022460   0.2396243   2.7418315
          241         242         243         244         245         246
    1  -0.4804867  -3.4364614  -1.4895437   0.2204165  -3.4250540  -1.1427592
    2  -1.3462289  -1.3725489   0.4098370   1.1165074   1.0468972  -1.3288422
    3   2.6622766   2.7002101   0.2478674   0.3020519  -0.3975200   0.8172969
          247         248         249         250         251         252
    1  -1.4231787  -2.7161441  -4.1519845  -1.9958644  -1.5668119   1.1871994
    2   0.6320571  -0.8605976   0.2548491  -1.0378569  -1.5751406  -1.0662342
    3  -2.1707439  -1.7632580  -1.3553286  -3.7317011  -0.3430726  -1.4113003
          253         254         255         256         257         258
    1   0.4925246   1.0484360   1.2969007  -0.7035251   2.0174675   1.9840072
    2   0.7547938  -0.5237015   2.6183071  -0.0089062   0.5862627  -1.5707681
    3  -0.1314132   1.1799729  -0.4951011  -1.3612872  -1.7191117  -0.8399800
          259         260         261         262         263         264
    1   0.1335924   3.7872156   1.8841436   4.2788563  -2.0075457  -1.2787294
    2  -1.3895994  -1.7374185  -1.3765065   1.0703482   0.0921095  -0.8535850
    3  -1.6185431  -1.2940248   0.6975380   0.4887145   1.7768267  -0.0485731
          265         266         267         268         269         270
    1  -2.9499339  -1.7539876  -0.1710446   0.9657660   0.1210608   2.6467551
    2  -1.0313344   1.7744941   0.6222650   0.6942521   2.1048323   0.3206048
    3   2.8028725   2.3422344   3.1746859   1.5010064   1.7312101   2.5975721
          271         272         273         274         275         276
    1  -0.2245046   0.0059395  -1.0180955  -3.0072819  -0.4611009   0.4991812
    2  -0.7179609  -2.2217291  -3.2533222  -2.6070583  -4.5084427  -2.4571064
    3  -0.0309188   2.3333115   1.3768371   1.8823729   0.2900964   1.9638877
          277         278         279         280         281         282
    1  -1.9124632  -0.0658730   0.0185850   1.6122916  -0.9963851   0.2038024
    2  -2.1295336  -2.7093083  -1.2950904  -2.5825306  -4.3815944   0.4867895
    3   0.0469823  -0.7119252  -1.4166004   0.5260118  -0.4840126   1.1594765
          283         284         285         286         287         288
    1  -2.4452803  -3.7341154  -0.7108399  -3.0834284  -0.8237831  -3.0210497
    2  -0.2544992   0.9887491  -0.2875160  -1.2360234   1.0493939   1.3749997
    3  -2.6335136  -2.7674171  -4.0457993  -1.2951031  -1.6467923  -0.0984226
          289         290         291         292         293         294
    1  -2.0079748  -4.0863009  -3.4392331  -1.6751215   3.4576703   3.4291958
    2   2.8706563   2.3318967  -0.5382686   3.4674742  -1.1001068  -1.5973910
    3   0.4301469  -0.9971582  -0.0266230  -2.8418292   0.1482797   2.2137833
          295         296         297         298         299         300
    1   2.3945769   4.0979228   2.3363542   2.6701295   0.8740017   3.4569984
    2  -2.3951559   0.3642756   0.6827770   1.2147203   1.7837789  -0.5363497
    3  -0.6822449  -0.7950364   0.3093713   2.1186443   2.7567368   2.6024091
          301         302
    1   3.3297641   0.7148712
    2   2.3386364  -1.6472601
    3   0.4891941   2.3426730
 EField
            1           2           3           4           5           6
    1   0.0046518   0.0034598   0.0015660   0.0047640   0.0022255   0.0047320
    2   0.0010639  -0.0013691  -0.0000517   0.0014806   0.0005403   0.0023020
    3   0.0010469  -0.0000138  -0.0037772  -0.0010103   0.0005761  -0.0034228
            7           8           9          10          11          12
    1  -0.0028894   0.0059974   0.0035908   0.0047776   0.0066295   0.0032137
    2  -0.0011327  -0.0014940   0.0050018  -0.0007561  -0.0002780   0.0052014
    3  -0.0057559  -0.0006655   0.0013441   0.0031681  -0.0023862   0.0028147
           13          14          15          16          17          18
    1  -0.0040894   0.0044000   0.0082816   0.0055189   0.0004517   0.0034232
    2   0.0004544  -0.0001219   0.0010731   0.0053315  -0.0013376  -0.0092212
    3   0.0051338   0.0029420  -0.0052372  -0.0056877  -0.0081355  -0.0009871
           19          20          21          22          23          24
    1   0.0028370   0.0020342   0.0009536   0.0063689   0.0053204  -0.0163487
    2  -0.0229013  -0.0079587  -0.0108427  -0.0060350   0.0098461  -0.0198657
    3   0.0059569  -0.0046156  -0.0063019  -0.0033611   0.0068611   0.0161839
           25          26          27          28          29          30
    1   0.0319502   0.0005161   0.0175221   0.0071668   0.0130593  -0.0034627
    2  -0.0037929   0.0383088  -0.0619372   0.0075939  -0.0080944   0.0333510
    3   0.0155361   0.0019255  -0.0048576  -0.0065948  -0.0308161  -0.0075088
           31          32          33          34          35          36
    1   0.0295392  -0.0865326  -0.0029583  -0.0269980   0.0007745   0.0176519
    2  -0.0053027   0.0457492  -0.0099275  -0.0213163  -0.0417693  -0.0048282
    3   0.0117831  -0.0493715  -0.0000281  -0.0015671  -0.0159501   0.0232341
           37          38          39          40          41          42
    1  -0.0239386   0.0091270   0.0096312   0.0210442   0.0078578   0.0013111
    2  -0.0001435  -0.0038748  -0.0046633  -0.0210571   0.0243082   0.0752372
    3  -0.0503367   0.0009474   0.0292409  -0.0170053  -0.0135183   0.0781881
           43          44          45          46          47          48
    1  -0.0059061  -0.0193603  -0.0231448   0.0155595   0.0263207   0.0053248
    2   0.0015446   0.0250888  -0.0205203  -0.0003142  -0.0435218   0.0057665
    3   0.0053103   0.0069353   0.0018459   0.0307908  -0.0122554   0.0017911
           49          50          51          52          53          54
    1   0.0055764  -0.0110360   0.0193052  -0.0683223   0.0067340   0.0192439
    2   0.0157523   0.0225284  -0.0043539   0.0548551   0.0043646  -0.0245784
    3  -0.0284516   0.0132044   0.0273270  -0.0679846  -0.0032895   0.0044160
           55          56          57          58          59          60
    1   0.0077323  -0.0027101  -0.0136616  -0.0038477   0.0127940   0.0126949
    2   0.0015803   0.0308744  -0.0464186   0.0083025   0.0256289   0.0087740
    3  -0.0369025   0.0230697  -0.0212447  -0.0026875   0.0133444  -0.0324444
           61          62          63          64          65          66
    1  -0.0319747   0.0054437  -0.0099374  -0.0047429   0.0111462  -0.0246786
    2  -0.0044273   0.0162464  -0.0011875   0.0255611  -0.0304438   0.0022706
    3   0.0115611   0.1102398  -0.0032012  -0.0194639  -0.0050549   0.0192301
           67          68          69          70          71          72
    1   0.0502533  -0.0022412  -0.0030147   0.0262292  -0.0271116  -0.0354988
    2  -0.0084335  -0.0009717  -0.0318551   0.0038497   0.0107287   0.1122264
    3  -0.0260066   0.0091951   0.0004642   0.0158164   0.0062145   0.0212770
           73          74          75          76          77          78
    1   0.0043900   0.0290621  -0.0036860   0.0026551  -0.0569940   0.0062156
    2   0.0015398  -0.0107875   0.0094368   0.0294601   0.0149906  -0.0013528
    3  -0.0026703  -0.0116630  -0.0334376   0.0104803   0.0092396   0.0061728
           79          80          81          82          83          84
    1  -0.0157080   0.0346153   0.0018147   0.0310570   0.0048938  -0.0035919
    2  -0.0145473  -0.0006072   0.0276614  -0.0941733   0.0073326   0.0180447
    3   0.0200126  -0.0074359   0.0108061  -0.0467311   0.0020387  -0.0256370
           85          86          87          88          89          90
    1  -0.0236686   0.0306020  -0.0590213   0.0063827  -0.0119823   0.0349529
    2   0.0143637   0.0052951  -0.0122338  -0.0061248  -0.0308613   0.0053267
    3   0.0180015   0.0146011  -0.0052359   0.0044042  -0.0013864  -0.0004647
           91          92          93          94          95          96
    1   0.0005946   0.0670853  -0.0021581  -0.0231686   0.0299135  -0.0242729
    2   0.0142288  -0.0100630   0.0083127   0.0236736   0.0060514   0.0039885
    3   0.0301480  -0.0875193  -0.0025826   0.0101978  -0.0125988  -0.0223447
           97          98          99         100         101         102
    1   0.0179256  -0.0114191  -0.0049139  -0.0212926  -0.0003345   0.0464985
    2  -0.0459415   0.0043906   0.0307141  -0.0088475  -0.0171425   0.0604194
    3  -0.0173395   0.0035595   0.0117786  -0.0217623   0.0262768   0.0805017
          103         104         105         106         107         108
    1  -0.0095757  -0.0044188  -0.0113164  -0.0079679   0.0262040  -0.0014767
    2   0.0017143   0.0324553  -0.0216245  -0.0162226  -0.0486519   0.0082250
    3   0.0030964   0.0108775  -0.0257449   0.0272143   0.0097135   0.0039258
          109         110         111         112         113         114
    1   0.0299891  -0.0198569   0.0124055  -0.0198007   0.0057585   0.0062705
    2   0.0038543   0.0270090  -0.0030972   0.0346633  -0.0005510  -0.0273981
    3  -0.0112340   0.0069125   0.0322413  -0.1029051  -0.0025849   0.0147822
          115         116         117         118         119         120
    1   0.0105223   0.0285489  -0.0133517   0.0000697  -0.0224086   0.0046631
    2  -0.0128645   0.0225757   0.0461455  -0.0016839   0.0120957  -0.0284426
    3  -0.0291049  -0.0024439  -0.0305338   0.0014470   0.0177367   0.0112414
          121         122         123         124         125         126
    1   0.0209345  -0.0627089  -0.0054761   0.0186213  -0.0355241   0.0120218
    2   0.0260962  -0.0902798   0.0055479  -0.0135805  -0.0005866   0.0294326
    3   0.0092746   0.0106020  -0.0087455  -0.0236313   0.0033328   0.0024512
          127         128         129         130         131         132
    1  -0.0023058   0.0075605   0.0208470  -0.0036294   0.0177656  -0.0554204
    2   0.0246338  -0.0042856  -0.0196373  -0.0163047   0.0284198  -0.0893055
    3   0.0452764  -0.0085783   0.0081945  -0.0282164  -0.0025350  -0.0346747
          133         134         135         136         137         138
    1  -0.0060896   0.0067505  -0.0240270  -0.0210341   0.0459329   0.0023285
    2   0.0001553   0.0174079  -0.0209983   0.0244450   0.0383328  -0.0072195
    3  -0.0004050  -0.0272607  -0.0064425   0.0057546  -0.0073905   0.0005260
          139         140         141         142         143         144
    1  -0.0032275   0.0319385  -0.0191111  -0.0357292  -0.0024301   0.0217195
    2  -0.0055354  -0.0182760  -0.0244511  -0.0299621   0.0095470   0.0127470
    3  -0.0304857  -0.0033884   0.0069298   0.0991905  -0.0009592  -0.0227732
          145         146         147         148         149         150
    1  -0.0266772  -0.0065666  -0.0146617   0.0097901   0.0162768   0.0090676
    2  -0.0044735   0.0155536  -0.0274143   0.0041585   0.0053910   0.0132242
    3  -0.0141063   0.0312470   0.0377439  -0.0017611  -0.0289432   0.0301034
          151         152         153         154         155         156
    1   0.0319318   0.0111107   0.0070363  -0.0016292   0.0272025  -0.0010497
    2  -0.0131016  -0.0229984   0.0070696   0.0311277  -0.0004387  -0.0152050
    3  -0.0012988  -0.1064757  -0.0057176   0.0046216   0.0165783  -0.0319278
          157         158         159         160         161         162
    1  -0.0127766   0.0016399   0.0091340   0.0201012  -0.0071362  -0.0686514
    2   0.0170961  -0.0079799  -0.0069602  -0.0051129  -0.0392316  -0.0224706
    3   0.0504718  -0.0029741  -0.0264361   0.0238656   0.0082472  -0.0831483
          163         164         165         166         167         168
    1  -0.0021545   0.0097039  -0.0336967   0.0125402  -0.0254181  -0.0006979
    2  -0.0062754  -0.0258542   0.0045035  -0.0160590   0.0370659   0.0026471
    3   0.0022299   0.0260606  -0.0044825  -0.0223541   0.0353078  -0.0088394
          169         170         171         172         173         174
    1  -0.0241042  -0.0022107   0.0224619   0.1062934   0.0069014   0.0088042
    2  -0.0176006   0.0297080  -0.0095822  -0.0280017  -0.0021264  -0.0326862
    3  -0.0080314  -0.0062292  -0.0244972   0.0003420  -0.0033571  -0.0128236
          175         176         177         178         179         180
    1   0.0158740   0.0191116  -0.0208853  -0.0047451  -0.0278725   0.0197599
    2   0.0162669   0.0076616  -0.0389489   0.0022872   0.0072118   0.0182231
    3  -0.0218774   0.0221057   0.0328917  -0.0057443   0.0140011  -0.0188278
          181         182         183         184         185         186
    1  -0.0061778   0.0063823  -0.0065946  -0.0185283   0.0018268  -0.0177144
    2  -0.0256610   0.1046302  -0.0085428  -0.0151597  -0.0355061   0.0171260
    3  -0.0223270   0.0283136  -0.0046447  -0.0248265   0.0073450   0.0152954
          187         188         189         190         191         192
    1   0.0351162   0.0000212  -0.0286484   0.0126065   0.0238461  -0.0590538
    2  -0.0200545   0.0000088   0.0102276  -0.0234153   0.0176951   0.0890258
    3  -0.0199940   0.0055698   0.0071416   0.0286447   0.0109709  -0.0305381
          193         194         195         196         197         198
    1  -0.0022211  -0.0018243  -0.0268864   0.0078868   0.0455965  -0.0082053
    2   0.0027347   0.0349309  -0.0092121  -0.0111329   0.0164913   0.0020948
    3   0.0078571   0.0013844   0.0079967   0.0337884  -0.0122901  -0.0048841
          199         200         201         202         203         204
    1  -0.0002287  -0.0270177   0.0025884  -0.0338863  -0.0085814  -0.0210388
    2  -0.0139118  -0.0070098   0.0336243  -0.0995459  -0.0029708  -0.0087026
    3  -0.0238209   0.0154103  -0.0095481   0.0317730   0.0050026  -0.0211047
          205         206         207         208         209         210
    1   0.0196688  -0.0154613   0.0289878  -0.0072619  -0.0140995  -0.0268646
    2  -0.0203943   0.0061870   0.0316248   0.0021178  -0.0188921   0.0105985
    3   0.0139101   0.0388584   0.0305780  -0.0019997  -0.0170034   0.0199177
          211         212         213         214         215         216
    1   0.0074330   0.0321901   0.0015001   0.0006893   0.0135378   0.0115993
    2   0.0169855  -0.0691208   0.0015507  -0.0188235  -0.0021055   0.0177444
    3  -0.0247567  -0.0786139   0.0044466   0.0249548  -0.0185688   0.0287125
          217         218         219         220         221         222
    1  -0.0229825  -0.0009060   0.0297911  -0.0299733   0.0035223  -0.0504223
    2  -0.0354377   0.0073392  -0.0016670   0.0220086   0.0202698   0.0220376
    3  -0.0371972  -0.0036500  -0.0197390  -0.0082961   0.0219608   0.0980617
          223         224         225         226         227         228
    1   0.0078875   0.0139454   0.0200102   0.0040067  -0.0061622  -0.0001033
    2  -0.0012819   0.0092346   0.0145313  -0.0307204   0.0552750  -0.0026933
    3   0.0019301  -0.0242462   0.0232719  -0.0003489   0.0083541   0.0045357
          229         230         231         232         233         234
    1   0.0088540  -0.0288673   0.0106387  -0.0406525   0.0040079   0.0090786
    2   0.0079553   0.0097733  -0.0293862  -0.0551042  -0.0031546  -0.0177991
    3   0.0322954   0.0046043  -0.0126523  -0.0862642  -0.0019638   0.0228568
          235         236         237         238         239         240
    1  -0.0188812   0.0254396  -0.0241690   0.0054610   0.0190510  -0.0088945
    2  -0.0223097   0.0077367   0.0311294   0.0000990   0.0164824   0.0220428
    3  -0.0131707  -0.0209294  -0.0348538   0.0027211  -0.0196171   0.0184660
          241         242         243         244         245         246
    1   0.0078737  -0.0506567   0.0037365   0.0181377  -0.0236865   0.0029029
    2  -0.0212845  -0.0433532   0.0037023   0.0228346   0.0185419  -0.0241986
    3   0.0231495   0.0890870   0.0083793   0.0097814   0.0065298   0.0180938
          247         248         249         250         251         252
    1  -0.0138726  -0.0012394  -0.0317626  -0.0122421  -0.0013477   0.0953865
    2   0.0422545  -0.0087875   0.0009899  -0.0138204  -0.0207876  -0.0537618
    3  -0.0350743   0.0002103   0.0031173  -0.0302723   0.0253099   0.0059480
          253         254         255         256         257         258
    1  -0.0077257  -0.0059399  -0.0060896  -0.0364153  -0.0068932  -0.0024847
    2   0.0013022  -0.0210995   0.0280786  -0.0046611   0.0195296  -0.0075732
    3   0.0044007   0.0216614   0.0034786  -0.0058223  -0.0523247   0.0053844
          259         260         261         262         263         264
    1  -0.0247773   0.0232805  -0.0073875   0.0833022  -0.0073805   0.0116396
    2  -0.0137481  -0.0140928  -0.0104893   0.0262836   0.0020015  -0.0128456
    3  -0.0164526  -0.0122841   0.0270032   0.0655914  -0.0014030  -0.0234528
          265         266         267         268         269         270
    1  -0.0219333  -0.0110524   0.0043285   0.0063641   0.0010165   0.0309365
    2  -0.0140464   0.0303691   0.0289843   0.0029905   0.0341871   0.0021789
    3   0.0242520   0.0051480   0.0471056  -0.0057512   0.0007421   0.0058958
          271         272         273         274         275         276
    1  -0.0025377   0.0153572   0.0023793  -0.0282570  -0.0009694   0.0274705
    2  -0.0203135  -0.1094923  -0.0061373  -0.0112932  -0.0324703   0.0149197
    3  -0.0222160  -0.0050976   0.0083555   0.0153967  -0.0078673   0.0114230
          277         278         279         280         281         282
    1  -0.0568584   0.0094943  -0.0106950   0.0323594  -0.0079220   0.0543144
    2   0.0034775  -0.0045306   0.0200528  -0.0043919  -0.0296007   0.0883889
    3  -0.0177898  -0.0040075  -0.0242762   0.0140305  -0.0138094   0.0376906
          283         284         285         286         287         288
    1  -0.0052940  -0.0224024   0.0105025  -0.0037744   0.0527700  -0.0047757
    2  -0.0013786   0.0189149  -0.0121914  -0.0253490  -0.0149379   0.0059567
    3  -0.0067694  -0.0179079  -0.0289670   0.0202343   0.0156385   0.0045012
          289         290         291         292         293         294
    1   0.0193721  -0.0245461  -0.0055521  -0.0254503   0.0059680   0.0149896
    2   0.0035553   0.0146000  -0.0252051   0.0929463  -0.0061642  -0.0212521
    3   0.0252883  -0.0216402   0.0200676  -0.0535679   0.0000154   0.0221907
          295         296         297         298         299         300
    1  -0.0083632   0.0241873  -0.0169487   0.0032681  -0.0172082   0.0122438
    2  -0.0247087   0.0162934   0.0355662   0.0029076   0.0082918  -0.0139671
    3  -0.0130385  -0.0160101  -0.0446481   0.0037043   0.0282442   0.0299546
          301         302
    1   0.0202126  -0.0722947
    2   0.0267140  -0.0664665
    3  -0.0111194   0.0510747
  --- DONE ESP SUMMARY ---
 Total job time:  38.50s(wall), 95.18s(cpu) 
 Thu Jul 21 09:17:09 2022

        *************************************************************
        *                                                           *
        *  Thank you very much for using Q-Chem.  Have a nice day.  *
        *                                                           *
        *************************************************************


