                  Welcome to Q-Chem
     A Quantum Leap Into The Future Of Chemistry


 Q-Chem 5.2 (devel), Q-Chem, Inc., Pleasanton, CA (2019)

 Yihan Shao,  Zhengting Gan,  E. Epifanovsky,  A. T. B. Gilbert,  M. Wormit,  
 J. Kussmann,  A. W. Lange,  A. Behn,  Jia Deng,  Xintian Feng,  D. Ghosh,  
 M. Goldey,  P. R. Horn,  L. D. Jacobson,  I. Kaliman,  T. Kus,  A. Landau,  
 Jie Liu,  E. I. Proynov,  R. M. Richard,  R. P. Steele,  E. J. Sundstrom,  
 H. L. Woodcock III,  P. M. Zimmerman,  D. Zuev,  B. Alam,  B. Albrecht,  
 E. Alguire,  S. A. Baeppler,  D. Barton,  Z. Benda,  Y. A. Bernard,  
 E. J. Berquist,  K. B. Bravaya,  H. Burton,  K. Carter-Fenk,  D. Casanova,  
 Chun-Min Chang,  Yunqing Chen,  A. Chien,  K. D. Closser,  M. P. Coons,  
 S. Coriani,  S. Dasgupta,  A. L. Dempwolff,  M. Diedenhofen,  Hainam Do,  
 R. G. Edgar,  Po-Tung Fang,  S. Faraji,  S. Fatehi,  Qingguo Feng,  
 J. Fosso-Tande,  J. Gayvert,  Qinghui Ge,  A. Ghysels,  G. Gidofalvi,  
 J. Gomes,  J. Gonthier,  A. Gunina,  D. Hait,  M. W. D. Hanson-Heine,  
 P. H. P. Harbach,  A. W. Hauser,  M. F. Herbst,  J. E. Herr,  
 E. G. Hohenstein,  Z. C. Holden,  Kerwin Hui,  B. C. Huynh,  T.-C. Jagau,  
 Hyunjun Ji,  B. Kaduk,  K. Khistyaev,  Jaehoon Kim,  P. Klunzinger,  K. Koh,  
 D. Kosenkov,  L. Koulias,  T. Kowalczyk,  C. M. Krauter,  A. Kunitsa,  
 Ka Un Lao,  A. Laurent,  K. V. Lawler,  Joonho Lee,  D. Lefrancois,  
 S. Lehtola,  D. S. Levine,  Yi-Pei Li,  You-Sheng Lin,  Fenglai Liu,  
 Kuan-Yu Liu,  E. Livshits,  M. Loipersberger,  A. Luenser,  P. Manohar,  
 E. Mansoor,  S. F. Manzer,  Shan-Ping Mao,  Yuezhi Mao,  N. Mardirossian,  
 A. V. Marenich,  T. Markovich,  L. A. Martinez-Martinez,  S. A. Maurer,  
 N. J. Mayhall,  S. C. McKenzie,  J.-M. Mewes,  P. Morgante,  A. F. Morrison,  
 J. W. Mullinax,  K. Nanda,  T. S. Nguyen-Beck,  R. Olivares-Amaya,  
 J. A. Parkhill,  S. K. Paul,  F. Pavosevic,  Zheng Pei,  T. M. Perrine,  
 F. Plasser,  P. Pokhilko,  S. Prager,  A. Prociuk,  E. Ramos,  B. Rana,  
 D. R. Rehn,  F. Rob,  M. Scheurer,  M. Schneider,  N. Sergueev,  
 S. M. Sharada,  S. Sharma,  D. W. Small,  T. Stauch,  C. J. Stein,  
 T. Stein,  Yu-Chuan Su,  S. P. Veccham,  Zhen Tao,  A. J. W. Thom,  
 A. Tkatchenko,  T. Tsuchimochi,  N. M. Tubman,  L. Vogt,  M. L. Vidal,  
 O. Vydrov,  M. A. Watson,  J. Wenzel,  M. de Wergifosse,  T. A. Wesolowski,  
 A. White,  J. Witte,  A. Yamada,  Jun Yang,  K. Yao,  S. Yeganeh,  
 S. R. Yost,  Zhi-Qiang You,  A. Zech,  Igor Ying Zhang,  Xing Zhang,  
 Yan Zhao,  Ying Zhu,  B. R. Brooks,  G. K. L. Chan,  C. J. Cramer,  
 M. S. Gordon,  W. J. Hehre,  A. Klamt,  M. W. Schmidt,  C. D. Sherrill,  
 D. G. Truhlar,  A. Aspuru-Guzik,  R. Baer,  A. T. Bell,  N. A. Besley,  
 Jeng-Da Chai,  A. E. DePrince, III,  R. A. DiStasio Jr.,  A. Dreuw,  
 B. D. Dunietz,  T. R. Furlani,  Chao-Ping Hsu,  Yousung Jung,  Jing Kong,  
 D. S. Lambrecht,  WanZhen Liang,  C. Ochsenfeld,  V. A. Rassolov,  
 L. V. Slipchenko,  J. E. Subotnik,  T. Van Voorhis,  J. M. Herbert,  
 A. I. Krylov,  P. M. W. Gill,  M. Head-Gordon

 Contributors to earlier versions of Q-Chem not listed above: 
 R. D. Adamson,  B. Austin,  J. Baker,  G. J. O. Beran,  K. Brandhorst,  
 S. T. Brown,  E. F. C. Byrd,  A. K. Chakraborty,  C.-L. Cheng,  
 Siu Hung Chien,  D. M. Chipman,  D. L. Crittenden,  H. Dachsel,  
 R. J. Doerksen,  A. D. Dutoi,  L. Fusti-Molnar,  W. A. Goddard III,  
 A. Golubeva-Zadorozhnaya,  S. R. Gwaltney,  G. Hawkins,  A. Heyden,  
 S. Hirata,  G. Kedziora,  F. J. Keil,  C. Kelley,  Jihan Kim,  R. A. King,  
 R. Z. Khaliullin,  P. P. Korambath,  W. Kurlancheek,  A. M. Lee,  M. S. Lee,  
 S. V. Levchenko,  Ching Yeh Lin,  D. Liotard,  R. C. Lochan,  I. Lotan,  
 P. E. Maslen,  N. Nair,  D. P. O'Neill,  D. Neuhauser,  E. Neuscamman,  
 C. M. Oana,  R. Olson,  B. Peters,  R. Peverati,  P. A. Pieniazek,  
 Y. M. Rhee,  J. Ritchie,  M. A. Rohrdanz,  E. Rosta,  N. J. Russ,  
 H. F. Schaefer III,  N. E. Schultz,  N. Shenvi,  A. C. Simmonett,  A. Sodt,  
 D. Stuck,  K. S. Thanthiriwatte,  V. Vanovschi,  Tao Wang,  A. Warshel,  
 C. F. Williams,  Q. Wu,  X. Xu,  W. Zhang

 Please cite Q-Chem as follows:
 Y. Shao et al., Mol. Phys. 113, 184-215 (2015)
 DOI: 10.1080/00268976.2014.952696

 Q-Chem 5.2.2 for Intel X86 EM64T Linux

 Parts of Q-Chem use Armadillo 9.800.1 (Horizon Scraper).
 http://arma.sourceforge.net/

 Q-Chem begins on Fri Dec  3 08:23:53 2021  

Host: node011
0

     Scratch files written to /home/ymao90/scratch/r7.00_frame_0090_spade_B3LYP_dp20211203023734//

Checking the input file for inconsistencies... 	...done.

--------------------------------------------------------------
User input:
--------------------------------------------------------------
$molecule
0 1
--
0 1
C    26.87100   31.51000   25.85400  
C    27.18100   30.90400   27.23200  
C    26.75400   29.42900   27.14300  
C    27.39400   28.65300   25.98000  
C    27.13400   29.22900   24.57900  
C    27.43000   30.73700   24.64800  
H    26.89800   28.95500   28.12200  
H    28.26400   31.00900   27.36900  
H    25.79700   31.59600   25.64900  
H    27.33400   32.49900   25.75100  
H    28.48700   28.69300   26.06600  
H    27.14100   27.59100   26.08300  
H    27.76500   28.73400   23.83000  
H    26.10400   28.94900   24.33000  
H    28.52400   30.76300   24.71700  
H    27.22400   31.25900   23.70500  
H    25.68100   29.30800   26.95000  
N    26.39300   31.59100   28.25500  
H    25.69300   31.07700   28.77600  
C    26.80200   32.78700   28.80600  
H    26.19000   33.20200   29.62700  
O    27.74500   33.38200   28.31500  
--
0 1
C    26.96100   30.87600   18.90800  
H    25.92300   30.94700   18.57300  
H    27.64000   31.62900   18.50000  
H    27.24400   29.87800   18.56400  
S    26.77800   30.91400   20.70500  
C    25.98200   29.29200   20.70400  
H    26.73200   28.56900   20.37600  
H    25.62100   29.00200   21.69400  
H    25.10300   29.47800   20.08000  
O    25.66800   31.86400   21.03300  
C    23.78900   34.34100   20.29800  
H    23.50200   33.45200   19.73100  
H    24.35700   35.11300   19.77300  
H    24.48300   33.96600   21.05600  
S    22.37900   35.18600   21.04800  
C    21.46500   33.73200   21.60700  
H    21.32500   33.14000   20.69900  
H    22.04500   33.17700   22.34900  
H    20.52600   34.04500   22.07100  
O    21.55900   35.50500   19.83600  
C    31.76500   29.45200   25.21300  
H    31.48300   29.14500   26.22300  
H    31.17600   30.36000   25.05900  
H    31.53700   28.76500   24.39400  
S    33.52500   29.84800   25.10300  
C    33.60100   29.85500   23.29700  
H    33.29600   28.87200   22.92800  
H    32.93300   30.66300   22.99000  
H    34.59300   30.04500   22.87900  
O    34.17000   28.53200   25.40800  
C    28.82400   34.31700   23.60900  
H    29.44400   33.42500   23.49200  
H    28.50000   34.20200   24.64700  
H    28.04100   34.23000   22.85100  
S    30.00900   35.65600   23.34900  
C    31.33100   35.15100   24.47300  
H    31.12000   35.10800   25.54500  
H    31.65400   34.12200   24.29800  
H    32.11100   35.91100   24.38400  
O    29.41500   36.86300   24.00600  
C    30.04900   29.77300   21.42000  
H    29.24400   29.79800   22.15900  
H    29.74500   29.31600   20.47400  
H    31.00300   29.47700   21.86500  
S    30.20300   31.51900   20.97900  
C    31.47800   31.20600   19.73700  
H    31.65600   32.10200   19.13800  
H    32.41600   31.06000   20.27800  
H    31.23000   30.29600   19.18500  
O    30.92300   32.01500   22.19400  
C    29.78100   34.94500   36.09000  
H    29.20900   35.02500   37.01700  
H    30.61600   34.24000   36.12800  
H    30.18700   35.91300   35.78800  
S    28.64500   34.17000   34.91700  
C    27.61500   35.61900   34.59400  
H    28.29300   36.34500   34.13700  
H    26.89800   35.29100   33.83800  
H    27.07900   35.98400   35.47400  
O    27.75900   33.45700   35.89100  
C    33.29300   33.95400   28.37400  
H    33.40100   34.96200   27.96600  
H    33.28900   33.93900   29.46700  
H    34.18500   33.42500   28.02800  
S    31.81700   33.25900   27.59900  
C    31.65600   31.94100   28.82500  
H    32.54800   31.31600   28.73000  
H    31.60400   32.41100   29.81100  
H    30.67200   31.48900   28.67600  
O    32.32600   32.51100   26.40600  
C    27.86000   34.10000   19.70000  
H    28.16200   33.43200   20.51200  
H    26.78200   34.27300   19.74600  
H    28.10800   33.59200   18.76500  
S    28.75700   35.66000   19.54300  
C    28.34700   35.94500   17.80600  
H    28.84200   35.14800   17.24600  
H    27.30100   35.62900   17.82200  
H    28.44400   36.96500   17.42700  
O    30.22900   35.39700   19.46200  
C    24.11500   25.42800   27.46900  
H    24.97000   25.22600   28.11900  
H    23.97400   24.56700   26.81000  
H    24.20400   26.37500   26.93100  
S    22.64000   25.48200   28.51200  
C    22.72100   27.19900   29.07000  
H    23.75000   27.40500   29.37600  
H    22.39300   27.84900   28.25500  
H    22.04200   27.20500   29.92700  
O    23.17000   24.82100   29.74600  
C    28.32400   23.98400   24.48800  
H    28.62700   24.95500   24.08900  
H    27.82700   24.07100   25.45800  
H    29.15900   23.31800   24.72100  
S    27.21500   23.12700   23.34800  
C    27.32600   21.41400   23.91200  
H    27.02100   20.81200   23.05200  
H    28.35800   21.25200   24.23400  
H    26.56200   21.32600   24.68900  
O    28.02700   23.27800   22.09900  
C    20.91800   35.54900   26.22000  
H    20.21800   36.14300   26.81400  
H    20.64400   34.51100   26.01700  
H    21.93500   35.62800   26.61200  
S    21.12900   36.28000   24.58100  
C    21.36200   37.93300   25.27300  
H    21.55300   38.44700   24.32700  
H    20.36000   38.28600   25.53000  
H    22.18800   38.11400   25.96600  
O    19.72300   36.25800   24.06800  
C    33.50600   34.38400   33.82400  
H    33.57800   35.45600   33.62100  
H    33.64600   34.30500   34.90500  
H    34.24700   33.72300   33.36700  
S    31.84600   33.78100   33.44200  
C    31.92900   32.26200   34.41700  
H    31.74800   32.46200   35.47600  
H    31.21600   31.57400   33.95500  
H    32.98500   32.02500   34.26600  
O    31.98800   33.31800   32.02600  
C    25.01200   34.40200   26.12200  
H    24.79900   33.63300   26.86900  
H    26.07400   34.61500   26.27200  
H    24.44800   35.32400   26.28300  
S    24.66200   33.98000   24.40000  
C    25.09800   35.62600   23.79600  
H    26.13200   35.71500   24.13700  
H    24.89700   35.72200   22.72600  
H    24.46000   36.30700   24.36500  
O    23.17100   33.93100   24.52100  
C    26.56300   26.83700   32.56100  
H    26.35300   25.91700   32.01000  
H    25.79200   27.60300   32.43700  
H    27.51000   27.37200   32.45200  
S    26.64000   26.11000   34.21300  
C    24.97600   25.40600   34.18500  
H    24.81200   24.68300   34.98900  
H    24.16500   26.13300   34.27300  
H    24.79600   24.87900   33.24500  
O    26.43000   27.25700   35.15100  
C    26.31400   20.01900   27.54100  
H    27.23800   19.68800   27.06000  
H    25.89600   19.28800   28.23900  
H    25.55900   20.04200   26.75100  
S    26.59000   21.63000   28.31000  
C    24.89700   22.01400   28.81000  
H    24.86800   23.08200   28.57900  
H    24.24000   21.43900   28.15200  
H    24.76500   21.75400   29.86400  
O    26.78700   22.57400   27.16400  
C    30.32400   35.30800   30.04800  
H    29.42700   35.17300   30.65700  
H    30.01800   35.10500   29.01800  
H    31.16300   34.68400   30.36900  
S    30.98000   36.98400   30.20100  
C    29.85700   37.73900   29.00400  
H    30.22100   38.72900   28.71800  
H    29.83900   37.17400   28.06800  
H    28.85700   37.83600   29.43600  
O    32.22900   36.93400   29.37700  
C    19.86900   26.53000   24.06300  
H    18.79100   26.70400   24.11000  
H    20.25100   27.23100   23.31700  
H    19.98100   25.46800   23.82700  
S    20.64800   27.01000   25.62000  
C    19.73800   28.56900   25.70400  
H    18.75000   28.48500   25.24400  
H    19.76400   28.76300   26.77900  
H    20.33100   29.37800   25.27100  
O    22.05700   27.31100   25.21200  
C    21.30600   34.44900   33.09500  
H    22.31500   34.05900   33.25000  
H    21.02000   34.64000   32.05800  
H    21.03500   35.19100   33.85000  
S    20.34500   32.93900   33.34200  
C    21.22200   32.31600   34.79400  
H    22.18100   31.82100   34.62100  
H    21.20500   33.09900   35.55600  
H    20.55100   31.50000   35.07600  
O    20.58900   32.00900   32.19400  
C    23.74700   25.02200   22.80600  
H    23.43600   24.04500   23.18400  
H    24.83800   25.00200   22.86900  
H    23.33900   25.78700   23.47200  
S    23.37900   25.24900   21.05100  
C    21.58100   25.41900   21.12500  
H    21.32700   26.42200   21.47700  
H    21.20100   25.33800   20.10300  
H    21.20000   24.59300   21.73100  
O    23.51300   23.83200   20.58600  
C    23.04300   29.52100   32.13000  
H    22.44700   29.96600   31.33000  
H    23.12300   28.43100   32.11400  
H    22.59600   29.94600   33.03200  
S    24.68800   30.25000   31.95700  
C    24.27100   31.93500   32.45900  
H    23.84000   32.03500   33.45800  
H    25.04000   32.69200   32.28100  
H    23.51400   32.11500   31.69200  
O    24.82200   30.39300   30.47300  
C    29.04600   25.72500   19.68300  
H    29.22700   25.40900   18.65200  
H    28.64000   24.89200   20.26200  
H    28.35900   26.57400   19.62500  
S    30.50400   26.16300   20.65500  
C    31.27800   24.53200   20.74600  
H    31.53800   24.21000   19.73500  
H    32.07400   24.60700   21.49200  
H    30.59100   23.78900   21.16000  
O    29.99900   26.49400   22.02500  
C    32.60600   25.58000   24.46800  
H    32.81500   24.81800   23.71300  
H    31.51400   25.61800   24.50200  
H    32.97000   26.54200   24.09900  
S    33.41800   25.10600   26.01200  
C    35.09500   25.24100   25.35300  
H    35.14400   24.93400   24.30500  
H    35.52200   26.23600   25.50000  
H    35.72900   24.61100   25.98200  
O    33.10900   23.67200   26.31100  
C    23.04500   30.36600   22.91200  
H    23.18300   29.75900   23.81100  
H    23.97500   30.86600   22.63000  
H    22.29500   31.11700   23.17300  
S    22.49700   29.28500   21.57200  
C    22.52800   30.43900   20.18200  
H    23.21100   31.27200   20.36800  
H    22.62100   29.80200   19.29900  
H    21.54500   30.87900   19.99700  
O    21.01800   29.20200   21.79300  
C    27.12000   38.59300   26.35300  
H    27.22300   38.34900   27.41300  
H    27.67700   37.92000   25.69500  
H    27.44000   39.62200   26.17000  
S    25.34800   38.65500   26.00600  
C    25.13500   39.99500   27.19900  
H    25.85000   40.81300   27.07600  
H    24.08400   40.29100   27.15200  
H    25.28600   39.55400   28.18800  
O    24.57300   37.50800   26.57800  
C    21.99600   33.07600   28.76300  
H    21.09400   33.49400   29.21800  
H    22.85500   33.23600   29.41900  
H    22.29100   33.50900   27.80400  
S    21.75200   31.33100   28.36100  
C    22.74900   31.14900   26.86600  
H    23.77900   31.25700   27.21600  
H    22.45100   30.25100   26.31800  
H    22.62800   32.01900   26.21500  
O    20.35900   31.14200   27.84600  
C    28.64900   32.01100   32.14200  
H    29.33000   32.83200   32.37600  
H    27.71900   32.28600   31.63700  
H    28.40900   31.53800   33.09800  
S    29.59700   30.62500   31.47300  
C    28.08700   29.64100   31.34200  
H    27.49400   29.76900   32.25100  
H    27.55800   29.98000   30.44700  
H    28.38500   28.60400   31.17100  
O    30.09400   29.97300   32.72600  
C    31.97000   27.65600   28.37100  
H    32.31800   28.62900   28.72700  
H    32.66000   26.88700   28.72800  
H    31.99500   27.62100   27.27900  
S    30.31500   27.31400   29.01100  
C    29.88700   25.96500   27.88600  
H    30.72300   25.26900   27.78100  
H    28.98600   25.42700   28.19200  
H    29.64400   26.46400   26.94500  
O    29.68000   28.57200   28.50500  
C    26.09300   36.99700   29.59700  
H    25.89900   38.07200   29.54600  
H    27.04800   36.81900   30.09800  
H    26.02900   36.54000   28.60700  
S    24.83100   36.21900   30.63000  
C    25.10600   37.18400   32.13200  
H    24.37000   37.99100   32.09100  
H    24.76500   36.57500   32.97300  
H    26.12100   37.57200   32.25600  
O    25.48700   34.91600   30.96600  
$end

$rem
JOBTYPE  SP
METHOD  B3LYP
BASIS  6-31+G(D)
SYMMETRY  FALSE
SYM_IGNORE  TRUE
MEM_TOTAL  16000
MEM_STATIC  8000
MAX_SUB_FILE_NUM  16000
BASIS_LIN_DEP_THRESH  6
THRESH  14
SCF_CONVERGENCE  8
GEN_SCFMAN  TRUE
SCF_GUESS  SAD
FD_MAT_VEC_PROD  FALSE
XC_GRID  000075000302
NL_GRID  1
MAX_SCF_CYCLES  200
ENV_METHOD  B3LYP
GEN_SCFMAN_EMBED  TRUE
SPADE_PARTITION  TRUE
$end

$development
embedding_early_stop  1
$end

--------------------------------------------------------------
 ----------------------------------------------------------------
             Standard Nuclear Orientation (Angstroms)
    I     Atom           X                Y                Z
 ----------------------------------------------------------------
    1      C      26.8710000000    31.5100000000    25.8540000000
    2      C      27.1810000000    30.9040000000    27.2320000000
    3      C      26.7540000000    29.4290000000    27.1430000000
    4      C      27.3940000000    28.6530000000    25.9800000000
    5      C      27.1340000000    29.2290000000    24.5790000000
    6      C      27.4300000000    30.7370000000    24.6480000000
    7      H      26.8980000000    28.9550000000    28.1220000000
    8      H      28.2640000000    31.0090000000    27.3690000000
    9      H      25.7970000000    31.5960000000    25.6490000000
   10      H      27.3340000000    32.4990000000    25.7510000000
   11      H      28.4870000000    28.6930000000    26.0660000000
   12      H      27.1410000000    27.5910000000    26.0830000000
   13      H      27.7650000000    28.7340000000    23.8300000000
   14      H      26.1040000000    28.9490000000    24.3300000000
   15      H      28.5240000000    30.7630000000    24.7170000000
   16      H      27.2240000000    31.2590000000    23.7050000000
   17      H      25.6810000000    29.3080000000    26.9500000000
   18      N      26.3930000000    31.5910000000    28.2550000000
   19      H      25.6930000000    31.0770000000    28.7760000000
   20      C      26.8020000000    32.7870000000    28.8060000000
   21      H      26.1900000000    33.2020000000    29.6270000000
   22      O      27.7450000000    33.3820000000    28.3150000000
   23      C      26.9610000000    30.8760000000    18.9080000000
   24      H      25.9230000000    30.9470000000    18.5730000000
   25      H      27.6400000000    31.6290000000    18.5000000000
   26      H      27.2440000000    29.8780000000    18.5640000000
   27      S      26.7780000000    30.9140000000    20.7050000000
   28      C      25.9820000000    29.2920000000    20.7040000000
   29      H      26.7320000000    28.5690000000    20.3760000000
   30      H      25.6210000000    29.0020000000    21.6940000000
   31      H      25.1030000000    29.4780000000    20.0800000000
   32      O      25.6680000000    31.8640000000    21.0330000000
   33      C      23.7890000000    34.3410000000    20.2980000000
   34      H      23.5020000000    33.4520000000    19.7310000000
   35      H      24.3570000000    35.1130000000    19.7730000000
   36      H      24.4830000000    33.9660000000    21.0560000000
   37      S      22.3790000000    35.1860000000    21.0480000000
   38      C      21.4650000000    33.7320000000    21.6070000000
   39      H      21.3250000000    33.1400000000    20.6990000000
   40      H      22.0450000000    33.1770000000    22.3490000000
   41      H      20.5260000000    34.0450000000    22.0710000000
   42      O      21.5590000000    35.5050000000    19.8360000000
   43      C      31.7650000000    29.4520000000    25.2130000000
   44      H      31.4830000000    29.1450000000    26.2230000000
   45      H      31.1760000000    30.3600000000    25.0590000000
   46      H      31.5370000000    28.7650000000    24.3940000000
   47      S      33.5250000000    29.8480000000    25.1030000000
   48      C      33.6010000000    29.8550000000    23.2970000000
   49      H      33.2960000000    28.8720000000    22.9280000000
   50      H      32.9330000000    30.6630000000    22.9900000000
   51      H      34.5930000000    30.0450000000    22.8790000000
   52      O      34.1700000000    28.5320000000    25.4080000000
   53      C      28.8240000000    34.3170000000    23.6090000000
   54      H      29.4440000000    33.4250000000    23.4920000000
   55      H      28.5000000000    34.2020000000    24.6470000000
   56      H      28.0410000000    34.2300000000    22.8510000000
   57      S      30.0090000000    35.6560000000    23.3490000000
   58      C      31.3310000000    35.1510000000    24.4730000000
   59      H      31.1200000000    35.1080000000    25.5450000000
   60      H      31.6540000000    34.1220000000    24.2980000000
   61      H      32.1110000000    35.9110000000    24.3840000000
   62      O      29.4150000000    36.8630000000    24.0060000000
   63      C      30.0490000000    29.7730000000    21.4200000000
   64      H      29.2440000000    29.7980000000    22.1590000000
   65      H      29.7450000000    29.3160000000    20.4740000000
   66      H      31.0030000000    29.4770000000    21.8650000000
   67      S      30.2030000000    31.5190000000    20.9790000000
   68      C      31.4780000000    31.2060000000    19.7370000000
   69      H      31.6560000000    32.1020000000    19.1380000000
   70      H      32.4160000000    31.0600000000    20.2780000000
   71      H      31.2300000000    30.2960000000    19.1850000000
   72      O      30.9230000000    32.0150000000    22.1940000000
   73      C      29.7810000000    34.9450000000    36.0900000000
   74      H      29.2090000000    35.0250000000    37.0170000000
   75      H      30.6160000000    34.2400000000    36.1280000000
   76      H      30.1870000000    35.9130000000    35.7880000000
   77      S      28.6450000000    34.1700000000    34.9170000000
   78      C      27.6150000000    35.6190000000    34.5940000000
   79      H      28.2930000000    36.3450000000    34.1370000000
   80      H      26.8980000000    35.2910000000    33.8380000000
   81      H      27.0790000000    35.9840000000    35.4740000000
   82      O      27.7590000000    33.4570000000    35.8910000000
   83      C      33.2930000000    33.9540000000    28.3740000000
   84      H      33.4010000000    34.9620000000    27.9660000000
   85      H      33.2890000000    33.9390000000    29.4670000000
   86      H      34.1850000000    33.4250000000    28.0280000000
   87      S      31.8170000000    33.2590000000    27.5990000000
   88      C      31.6560000000    31.9410000000    28.8250000000
   89      H      32.5480000000    31.3160000000    28.7300000000
   90      H      31.6040000000    32.4110000000    29.8110000000
   91      H      30.6720000000    31.4890000000    28.6760000000
   92      O      32.3260000000    32.5110000000    26.4060000000
   93      C      27.8600000000    34.1000000000    19.7000000000
   94      H      28.1620000000    33.4320000000    20.5120000000
   95      H      26.7820000000    34.2730000000    19.7460000000
   96      H      28.1080000000    33.5920000000    18.7650000000
   97      S      28.7570000000    35.6600000000    19.5430000000
   98      C      28.3470000000    35.9450000000    17.8060000000
   99      H      28.8420000000    35.1480000000    17.2460000000
  100      H      27.3010000000    35.6290000000    17.8220000000
  101      H      28.4440000000    36.9650000000    17.4270000000
  102      O      30.2290000000    35.3970000000    19.4620000000
  103      C      24.1150000000    25.4280000000    27.4690000000
  104      H      24.9700000000    25.2260000000    28.1190000000
  105      H      23.9740000000    24.5670000000    26.8100000000
  106      H      24.2040000000    26.3750000000    26.9310000000
  107      S      22.6400000000    25.4820000000    28.5120000000
  108      C      22.7210000000    27.1990000000    29.0700000000
  109      H      23.7500000000    27.4050000000    29.3760000000
  110      H      22.3930000000    27.8490000000    28.2550000000
  111      H      22.0420000000    27.2050000000    29.9270000000
  112      O      23.1700000000    24.8210000000    29.7460000000
  113      C      28.3240000000    23.9840000000    24.4880000000
  114      H      28.6270000000    24.9550000000    24.0890000000
  115      H      27.8270000000    24.0710000000    25.4580000000
  116      H      29.1590000000    23.3180000000    24.7210000000
  117      S      27.2150000000    23.1270000000    23.3480000000
  118      C      27.3260000000    21.4140000000    23.9120000000
  119      H      27.0210000000    20.8120000000    23.0520000000
  120      H      28.3580000000    21.2520000000    24.2340000000
  121      H      26.5620000000    21.3260000000    24.6890000000
  122      O      28.0270000000    23.2780000000    22.0990000000
  123      C      20.9180000000    35.5490000000    26.2200000000
  124      H      20.2180000000    36.1430000000    26.8140000000
  125      H      20.6440000000    34.5110000000    26.0170000000
  126      H      21.9350000000    35.6280000000    26.6120000000
  127      S      21.1290000000    36.2800000000    24.5810000000
  128      C      21.3620000000    37.9330000000    25.2730000000
  129      H      21.5530000000    38.4470000000    24.3270000000
  130      H      20.3600000000    38.2860000000    25.5300000000
  131      H      22.1880000000    38.1140000000    25.9660000000
  132      O      19.7230000000    36.2580000000    24.0680000000
  133      C      33.5060000000    34.3840000000    33.8240000000
  134      H      33.5780000000    35.4560000000    33.6210000000
  135      H      33.6460000000    34.3050000000    34.9050000000
  136      H      34.2470000000    33.7230000000    33.3670000000
  137      S      31.8460000000    33.7810000000    33.4420000000
  138      C      31.9290000000    32.2620000000    34.4170000000
  139      H      31.7480000000    32.4620000000    35.4760000000
  140      H      31.2160000000    31.5740000000    33.9550000000
  141      H      32.9850000000    32.0250000000    34.2660000000
  142      O      31.9880000000    33.3180000000    32.0260000000
  143      C      25.0120000000    34.4020000000    26.1220000000
  144      H      24.7990000000    33.6330000000    26.8690000000
  145      H      26.0740000000    34.6150000000    26.2720000000
  146      H      24.4480000000    35.3240000000    26.2830000000
  147      S      24.6620000000    33.9800000000    24.4000000000
  148      C      25.0980000000    35.6260000000    23.7960000000
  149      H      26.1320000000    35.7150000000    24.1370000000
  150      H      24.8970000000    35.7220000000    22.7260000000
  151      H      24.4600000000    36.3070000000    24.3650000000
  152      O      23.1710000000    33.9310000000    24.5210000000
  153      C      26.5630000000    26.8370000000    32.5610000000
  154      H      26.3530000000    25.9170000000    32.0100000000
  155      H      25.7920000000    27.6030000000    32.4370000000
  156      H      27.5100000000    27.3720000000    32.4520000000
  157      S      26.6400000000    26.1100000000    34.2130000000
  158      C      24.9760000000    25.4060000000    34.1850000000
  159      H      24.8120000000    24.6830000000    34.9890000000
  160      H      24.1650000000    26.1330000000    34.2730000000
  161      H      24.7960000000    24.8790000000    33.2450000000
  162      O      26.4300000000    27.2570000000    35.1510000000
  163      C      26.3140000000    20.0190000000    27.5410000000
  164      H      27.2380000000    19.6880000000    27.0600000000
  165      H      25.8960000000    19.2880000000    28.2390000000
  166      H      25.5590000000    20.0420000000    26.7510000000
  167      S      26.5900000000    21.6300000000    28.3100000000
  168      C      24.8970000000    22.0140000000    28.8100000000
  169      H      24.8680000000    23.0820000000    28.5790000000
  170      H      24.2400000000    21.4390000000    28.1520000000
  171      H      24.7650000000    21.7540000000    29.8640000000
  172      O      26.7870000000    22.5740000000    27.1640000000
  173      C      30.3240000000    35.3080000000    30.0480000000
  174      H      29.4270000000    35.1730000000    30.6570000000
  175      H      30.0180000000    35.1050000000    29.0180000000
  176      H      31.1630000000    34.6840000000    30.3690000000
  177      S      30.9800000000    36.9840000000    30.2010000000
  178      C      29.8570000000    37.7390000000    29.0040000000
  179      H      30.2210000000    38.7290000000    28.7180000000
  180      H      29.8390000000    37.1740000000    28.0680000000
  181      H      28.8570000000    37.8360000000    29.4360000000
  182      O      32.2290000000    36.9340000000    29.3770000000
  183      C      19.8690000000    26.5300000000    24.0630000000
  184      H      18.7910000000    26.7040000000    24.1100000000
  185      H      20.2510000000    27.2310000000    23.3170000000
  186      H      19.9810000000    25.4680000000    23.8270000000
  187      S      20.6480000000    27.0100000000    25.6200000000
  188      C      19.7380000000    28.5690000000    25.7040000000
  189      H      18.7500000000    28.4850000000    25.2440000000
  190      H      19.7640000000    28.7630000000    26.7790000000
  191      H      20.3310000000    29.3780000000    25.2710000000
  192      O      22.0570000000    27.3110000000    25.2120000000
  193      C      21.3060000000    34.4490000000    33.0950000000
  194      H      22.3150000000    34.0590000000    33.2500000000
  195      H      21.0200000000    34.6400000000    32.0580000000
  196      H      21.0350000000    35.1910000000    33.8500000000
  197      S      20.3450000000    32.9390000000    33.3420000000
  198      C      21.2220000000    32.3160000000    34.7940000000
  199      H      22.1810000000    31.8210000000    34.6210000000
  200      H      21.2050000000    33.0990000000    35.5560000000
  201      H      20.5510000000    31.5000000000    35.0760000000
  202      O      20.5890000000    32.0090000000    32.1940000000
  203      C      23.7470000000    25.0220000000    22.8060000000
  204      H      23.4360000000    24.0450000000    23.1840000000
  205      H      24.8380000000    25.0020000000    22.8690000000
  206      H      23.3390000000    25.7870000000    23.4720000000
  207      S      23.3790000000    25.2490000000    21.0510000000
  208      C      21.5810000000    25.4190000000    21.1250000000
  209      H      21.3270000000    26.4220000000    21.4770000000
  210      H      21.2010000000    25.3380000000    20.1030000000
  211      H      21.2000000000    24.5930000000    21.7310000000
  212      O      23.5130000000    23.8320000000    20.5860000000
  213      C      23.0430000000    29.5210000000    32.1300000000
  214      H      22.4470000000    29.9660000000    31.3300000000
  215      H      23.1230000000    28.4310000000    32.1140000000
  216      H      22.5960000000    29.9460000000    33.0320000000
  217      S      24.6880000000    30.2500000000    31.9570000000
  218      C      24.2710000000    31.9350000000    32.4590000000
  219      H      23.8400000000    32.0350000000    33.4580000000
  220      H      25.0400000000    32.6920000000    32.2810000000
  221      H      23.5140000000    32.1150000000    31.6920000000
  222      O      24.8220000000    30.3930000000    30.4730000000
  223      C      29.0460000000    25.7250000000    19.6830000000
  224      H      29.2270000000    25.4090000000    18.6520000000
  225      H      28.6400000000    24.8920000000    20.2620000000
  226      H      28.3590000000    26.5740000000    19.6250000000
  227      S      30.5040000000    26.1630000000    20.6550000000
  228      C      31.2780000000    24.5320000000    20.7460000000
  229      H      31.5380000000    24.2100000000    19.7350000000
  230      H      32.0740000000    24.6070000000    21.4920000000
  231      H      30.5910000000    23.7890000000    21.1600000000
  232      O      29.9990000000    26.4940000000    22.0250000000
  233      C      32.6060000000    25.5800000000    24.4680000000
  234      H      32.8150000000    24.8180000000    23.7130000000
  235      H      31.5140000000    25.6180000000    24.5020000000
  236      H      32.9700000000    26.5420000000    24.0990000000
  237      S      33.4180000000    25.1060000000    26.0120000000
  238      C      35.0950000000    25.2410000000    25.3530000000
  239      H      35.1440000000    24.9340000000    24.3050000000
  240      H      35.5220000000    26.2360000000    25.5000000000
  241      H      35.7290000000    24.6110000000    25.9820000000
  242      O      33.1090000000    23.6720000000    26.3110000000
  243      C      23.0450000000    30.3660000000    22.9120000000
  244      H      23.1830000000    29.7590000000    23.8110000000
  245      H      23.9750000000    30.8660000000    22.6300000000
  246      H      22.2950000000    31.1170000000    23.1730000000
  247      S      22.4970000000    29.2850000000    21.5720000000
  248      C      22.5280000000    30.4390000000    20.1820000000
  249      H      23.2110000000    31.2720000000    20.3680000000
  250      H      22.6210000000    29.8020000000    19.2990000000
  251      H      21.5450000000    30.8790000000    19.9970000000
  252      O      21.0180000000    29.2020000000    21.7930000000
  253      C      27.1200000000    38.5930000000    26.3530000000
  254      H      27.2230000000    38.3490000000    27.4130000000
  255      H      27.6770000000    37.9200000000    25.6950000000
  256      H      27.4400000000    39.6220000000    26.1700000000
  257      S      25.3480000000    38.6550000000    26.0060000000
  258      C      25.1350000000    39.9950000000    27.1990000000
  259      H      25.8500000000    40.8130000000    27.0760000000
  260      H      24.0840000000    40.2910000000    27.1520000000
  261      H      25.2860000000    39.5540000000    28.1880000000
  262      O      24.5730000000    37.5080000000    26.5780000000
  263      C      21.9960000000    33.0760000000    28.7630000000
  264      H      21.0940000000    33.4940000000    29.2180000000
  265      H      22.8550000000    33.2360000000    29.4190000000
  266      H      22.2910000000    33.5090000000    27.8040000000
  267      S      21.7520000000    31.3310000000    28.3610000000
  268      C      22.7490000000    31.1490000000    26.8660000000
  269      H      23.7790000000    31.2570000000    27.2160000000
  270      H      22.4510000000    30.2510000000    26.3180000000
  271      H      22.6280000000    32.0190000000    26.2150000000
  272      O      20.3590000000    31.1420000000    27.8460000000
  273      C      28.6490000000    32.0110000000    32.1420000000
  274      H      29.3300000000    32.8320000000    32.3760000000
  275      H      27.7190000000    32.2860000000    31.6370000000
  276      H      28.4090000000    31.5380000000    33.0980000000
  277      S      29.5970000000    30.6250000000    31.4730000000
  278      C      28.0870000000    29.6410000000    31.3420000000
  279      H      27.4940000000    29.7690000000    32.2510000000
  280      H      27.5580000000    29.9800000000    30.4470000000
  281      H      28.3850000000    28.6040000000    31.1710000000
  282      O      30.0940000000    29.9730000000    32.7260000000
  283      C      31.9700000000    27.6560000000    28.3710000000
  284      H      32.3180000000    28.6290000000    28.7270000000
  285      H      32.6600000000    26.8870000000    28.7280000000
  286      H      31.9950000000    27.6210000000    27.2790000000
  287      S      30.3150000000    27.3140000000    29.0110000000
  288      C      29.8870000000    25.9650000000    27.8860000000
  289      H      30.7230000000    25.2690000000    27.7810000000
  290      H      28.9860000000    25.4270000000    28.1920000000
  291      H      29.6440000000    26.4640000000    26.9450000000
  292      O      29.6800000000    28.5720000000    28.5050000000
  293      C      26.0930000000    36.9970000000    29.5970000000
  294      H      25.8990000000    38.0720000000    29.5460000000
  295      H      27.0480000000    36.8190000000    30.0980000000
  296      H      26.0290000000    36.5400000000    28.6070000000
  297      S      24.8310000000    36.2190000000    30.6300000000
  298      C      25.1060000000    37.1840000000    32.1320000000
  299      H      24.3700000000    37.9910000000    32.0910000000
  300      H      24.7650000000    36.5750000000    32.9730000000
  301      H      26.1210000000    37.5720000000    32.2560000000
  302      O      25.4870000000    34.9160000000    30.9660000000
 ----------------------------------------------------------------
 Nuclear Repulsion Energy =       50156.41193725 hartrees
 There are      623 alpha and      623 beta electrons
 Requested basis set is 6-31+G(d)
 There are 995 shells and 2773 basis functions

 Total QAlloc Memory Limit  16000 MB
 Mega-Array Size      7821 MB
 MEM_STATIC part      8000 MB
 A cutoff of  1.0D-14 yielded 180380 shell pairs
 There are   1573692 function pairs
 Smallest overlap matrix eigenvalue = 5.58E-07
 Linear dependence detected in AO basis
 Tighter screening thresholds may be required for diffuse basis sets
 Use S2THRESH > 14 and THRESH = 14 in case of SCF convergence issues
 Number of orthogonalized atomic orbitals = 2771
 Maximum deviation from orthogonality = 2.829E-10

 Scale SEOQF with 1.000000e-03/1.000000e-03/1.000000e-03

 Standard Electronic Orientation quadrupole field applied
 Nucleus-field energy     =     0.0000002165 hartrees
 Guess from superposition of atomic densities
 Warning:  Energy on first SCF cycle will be non-variational
 SAD guess density has 1246.000002 electrons

 -----------------------------------------------------------------------
  General SCF calculation program by
  Eric Jon Sundstrom, Paul Horn, Yuezhi Mao, Dmitri Zuev, Alec White,
  David Stuck, Shaama M.S., Shane Yost, Joonho Lee, David Small,
  Daniel Levine, Susi Lehtola, Hugh Burton, Evgeny Epifanovsky,
  Bang C. Huynh
 -----------------------------------------------------------------------
=================================================
        Doing projection-based embedding         
      F. Manby et al. JCTC, 8, 2564 (2012)       
=================================================

****************************************************
   Low-level SCF calculation for the whole system   
****************************************************
----------------------------------------------
 Summary of the low-level theory: 
 Exchange:     0.2000 Hartree-Fock + 0.0800 Slater + 0.7200 B88
 Correlation:  0.1900 VWN1RPA + 0.8100 LYP
 Using Euler-Maclaurin-Lebedev (75,302) quadrature formula
----------------------------------------------
 using 16 threads for integral computing
 -------------------------------------------------------
 OpenMP Integral computing Module                
 Release: version 2.0, May 2017, Q-Chem Inc. Pleasanton 
 -------------------------------------------------------
 A restricted SCF calculation will be
 performed using DIIS
 SCF converges when DIIS error is below 1.0e-08
 ---------------------------------------
  Cycle       Energy         DIIS error
 ---------------------------------------
    1  -15913.7108739786      1.33e-02  
    2  -15888.8651074216      2.47e-03  
    3  -15875.8254204057      4.75e-03  
    4  -15893.0588956054      9.66e-04  
    5  -15893.8762795507      2.01e-04  
    6  -15893.9006901986      1.14e-04  
    7  -15893.9097918540      4.00e-05  
    8  -15893.9110679865      6.86e-06  
    9  -15893.9111042953      3.09e-06  
   10  -15893.9111113559      1.11e-06  
   11  -15893.9111122413      3.90e-07  
   12  -15893.9111123603      1.12e-07  
   13  -15893.9111123700      4.40e-08  
   14  -15893.9111123715      1.90e-08  
   15  -15893.9111123718      5.57e-09  Convergence criterion met
 ---------------------------------------
 SCF time:   CPU 187455.08s  wall 11813.00s 
 SCF   energy in the final basis set =   -15893.9111123718
 Total energy in the final basis set =   -15893.9111123718

****************************************************
             Start embedding calculation            
****************************************************
----------------------------------------------
 Summary of the high-level theory: 
 Exchange:     0.2000 Hartree-Fock + 0.0800 Slater + 0.7200 B88
 Correlation:  0.1900 VWN1RPA + 0.8100 LYP
 Using Euler-Maclaurin-Lebedev (75,302) quadrature formula
----------------------------------------------
Doing R-in-R Embedding Calculation
Number of fragments: 2
Embedded fragment(s): 1 
NOcc for each fragment
           35
          588
NBasis for each fragment
          197
         2576
Variational space of the embedded problem: 
NOcc (active)  = 35
NOcc (fixed)   = 588
NVir (total)   = 2148
Read converged orbitals from disk
=========================================================
       Doing SPADE partition for the orbital space       
     D. CLaudino and N. Mayhall JCTC 15, 1053 (2019)     
=========================================================
SPADE singular values:
 1.0000 1.0000 1.0000 1.0000 1.0000 1.0000 1.0000 1.0000 1.0000 0.9999
 0.9999 0.9998 0.9998 0.9997 0.9996 0.9996 0.9993 0.9993 0.9988 0.9984
 0.9980 0.9975 0.9971 0.9968 0.9966 0.9961 0.9954 0.9953 0.9947 0.9933
 0.9924 0.9900 0.9897 0.9874 0.9813 0.2074 0.1869 0.1518 0.1516 0.1338
 0.1320 0.1159 0.1028 0.0945 0.0854 0.0816 0.0786 0.0672 0.0599 0.0547
 0.0497 0.0487 0.0466 0.0411 0.0387 0.0327 0.0320 0.0318 0.0295 0.0281
 0.0262 0.0234 0.0222 0.0210 0.0195 0.0189 0.0183 0.0176 0.0172 0.0155
 0.0141 0.0136 0.0127 0.0119 0.0109 0.0106 0.0099 0.0096 0.0093 0.0087
 0.0081 0.0079 0.0075 0.0072 0.0067 0.0065 0.0063 0.0060 0.0059 0.0055
 0.0053 0.0052 0.0049 0.0048 0.0046 0.0044 0.0038 0.0036 0.0035 0.0033
 0.0030 0.0029 0.0027 0.0026 0.0024 0.0024 0.0023 0.0022 0.0020 0.0020
 0.0019 0.0018 0.0017 0.0016 0.0016 0.0015 0.0014 0.0014 0.0014 0.0013
 0.0012 0.0012 0.0011 0.0011 0.0011 0.0010 0.0009 0.0009 0.0009 0.0009
 0.0008 0.0008 0.0008 0.0008 0.0007 0.0007 0.0007 0.0007 0.0006 0.0006
 0.0006 0.0006 0.0005 0.0005 0.0005 0.0005 0.0004 0.0004 0.0004 0.0004
 0.0004 0.0004 0.0003 0.0003 0.0003 0.0003 0.0003 0.0003 0.0003 0.0003
 0.0002 0.0002 0.0002 0.0002 0.0002 0.0002 0.0002 0.0002 0.0002 0.0002
 0.0002 0.0002 0.0002 0.0002 0.0001 0.0001 0.0001 0.0001 0.0001 0.0001
 0.0001 0.0001 0.0001 0.0001 0.0001 0.0001 0.0001 0.0001 0.0001 0.0001
 0.0001 0.0001 0.0001 0.0001 0.0001 0.0000 0.0000
Early stop requested!
588 environment occs will be part of frozen-core in future post-HF calculations
 
 --------------------------------------------------------------
 
                    Orbital Energies (a.u.)
 --------------------------------------------------------------
 
 Alpha MOs
 -- Occupied --
 -0.5434  -0.5289  -0.4685  -0.5345  -0.4710  -0.5203  -0.5163  -0.4406
 -0.4574  -0.4331  -0.4264  -0.4707  -0.4649  -0.4315  -0.4351  -0.4569
 -0.4892  -0.5063  -0.4230  -0.5074  -0.6294  -0.4797  -0.4857  -0.7007
 -0.5385  -0.5818  -0.6168  -0.5767  -0.5602  -0.5405  -0.4804  -0.5353
 -0.5638  -0.5322  -0.5056  -0.5722  -0.5772  -0.5716  -0.5821  -0.5511
 -0.5642  -0.5507  -0.4945  -0.5401  -0.5775  -0.6271  -0.5445  -0.5091
 -0.5512  -0.5189  -0.5663  -0.5683  -0.5274  -0.6371  -0.5909  -0.5774
 -0.5893  -0.6268  -0.6605  -0.6364  -0.7758  -0.8007  -0.7165  -0.8557
 -0.7746  -0.8622  -0.9610  -0.8480  -0.8787  -0.8287  -0.8681  -0.6808
 -0.8983  -0.8576  -0.7352  -1.1409  -0.9308  -0.9096  -0.7434  -0.8335
 -0.9170  -0.8679  -1.5515  -1.0613  -0.9256  -0.8057  -1.2212  -1.1201
 -0.9536  -1.0104  -1.4196  -1.4669  -0.9824  -1.1335  -1.4977  -1.2162
 -1.6726  -1.3539  -1.1044  -1.2515  -3.8183  -1.8504  -2.7832  -1.1979
 -1.6085  -1.8901  -1.4697  -1.5730  -1.1921  -1.1486  -1.9671  -1.0831
 -1.9244  -1.8108  -1.3721  -1.9094  -1.1288  -1.6368  -1.4046  -1.4628
 -1.1801  -1.4466  -1.2714  -1.6939  -1.7427  -1.3802  -1.4416  -1.0470
 -1.6150  -1.5179  -1.5782  -1.7931  -1.3047  -1.2235  -1.3275  -1.3685
 -1.5479  -1.3969  -1.3678  -1.6514  -1.7621  -1.0666  -1.6128  -1.6963
 -1.2247  -1.1878  -1.5306  -1.7194  -1.9326  -1.6957  -1.5547  -1.7775
 -1.7355  -2.2225  -1.5827  -2.1675  -1.6557  -1.7203  -1.9678  -1.8745
 -1.8153  -1.8477  -6.5062  -5.9869  -5.9844  -5.9941  -6.0167  -5.9900
 -6.0035  -5.9911  -5.9662  -6.0062  -6.0295  -5.8637  -5.8498  -5.9718
 -5.9075  -5.9906  -5.9820  -5.9827  -6.0490  -5.9963  -5.9936  -6.2785
 -5.9398  -5.9777  -5.8662  -5.9097  -6.0107  -5.9774  -5.9554  -5.9706
 -5.9823  -5.9807  -5.9745  -5.9387  -5.9807  -5.9759  -8.9027  -3.2236
 -6.1560  -1.3706 -50.5450  -1.9043 -14.2355  -6.1223  -1.5536  -1.2404
 -4.3958  -2.6168 -20.4369  -1.5524  -2.9905  -4.8233 -14.5859  -4.5948
 -5.5799  -1.8547  -2.8506  -1.8282  -6.0658  -1.8095  -5.5743  -4.8754
 -5.3626  -2.0355  -2.6851 -74.0708  -7.9936  -1.6458  -5.4900  -1.0669
-80.8495  -1.2699  -2.0766  -5.4456  -1.2083 -10.3779  -1.3396  -4.2053
-30.7004  -3.3982  -3.1435  -5.6457  -2.5107 -13.1322 -12.9040  -7.5903
 -3.1683  -2.3257 -11.7142  -5.5765  -2.6239 -13.3896  -1.7592  -8.0678
 -2.4709  -5.2983  -0.9916 -10.3534  -1.1134  -1.6771 -75.9417 -75.7345
 -1.3719  -1.2408  -2.8793  -7.2679  -5.5891  -2.4013  -9.3937  -4.0126
 -6.3894 -19.9965  -2.6542 -23.3572 -10.0849  -1.8187  -4.6603  -1.9910
-16.6196  -1.4831  -4.0340  -5.2272  -9.4327  -1.7933  -8.6216  -5.2966
 -7.3974 -15.0330 -50.2108  -3.9160  -1.0125  -3.2494  -1.1208  -1.1494
-10.6418  -3.6815 -20.4049 -55.4667  -3.1374  -8.1217 -20.7790  -2.5085
 -7.2414  -6.9542  -7.3948  -6.2464  -6.0668  -7.2792 -13.3336  -4.0910
 -5.4823  -4.5827  -1.2024  -5.7498  -1.2012 -51.2321 -63.3418 -64.5458
 -7.6875  -4.0343  -1.1070  -1.5749  -5.5362  -8.7045  -1.9457  -2.3507
 -4.1510  -3.9121  -6.7061  -3.3455 -11.1217  -5.7922  -9.7478  -7.5193
 -2.7776  -9.9150  -2.1399 -10.9532  -1.2114  -5.8970  -1.8760  -2.1236
 -1.5087 -48.4602  -5.5999  -3.1360 -16.4403 -11.4525  -8.3385  -6.0857
 -3.9381  -6.3191 -25.7929 -13.5414  -9.0863  -7.4521 -17.5107  -5.8700
 -8.1567  -6.0180  -7.0176  -7.9690  -6.0967  -7.0974 -11.0777  -5.4120
 -4.9855 -10.4412  -3.5603  -6.0101  -4.8257  -5.9983  -4.2798 -12.5482
 -3.9574  -8.6247  -9.9357  -6.0412  -5.3778  -9.8086  -5.8503  -8.5171
-10.2812  -5.0392 -13.9647  -3.7472 -11.9978 -14.8111  -4.6956  -1.1561
 -4.2378  -6.2020  -7.9306  -1.9479  -7.0373 -16.1980  -6.3153  -5.0569
 -3.8116 -27.4261  -6.6349  -9.2328  -5.3836  -5.0701  -7.9499  -4.9053
 -4.4507  -5.8679  -6.8725  -5.6148  -3.1352 -13.2779  -3.2569  -3.6501
 -2.8596  -6.0551 -14.9991 -52.2756  -2.7475  -8.3376  -4.7205  -4.6830
 -5.8891 -24.1936  -5.7818 -11.4234  -2.1040  -5.7120  -1.8065  -4.9263
 -7.5022  -4.4593  -3.4155  -6.2071  -6.9463  -9.4901  -3.6083  -8.5243
 -4.8024  -6.5037  -6.3751 -12.1044  -1.4137  -6.6227  -7.5112 -21.3190
 -5.3207  -3.8275  -4.9609  -8.7245 -10.4279  -2.3727  -3.2036 -10.5979
 -4.6927  -4.6136  -5.4644  -5.3108 -17.1817 -17.8775 -15.4196 -13.0524
 -7.3235  -4.5806 -16.2029  -7.8468  -5.1209 -14.7104 -11.2657  -7.2861
-10.5316 -10.4027  -7.2084  -4.6924  -4.9421  -6.5543  -9.3796  -6.0209
 -9.2032 -11.7885 -18.6069 -17.1781  -8.0093 -15.0245 -16.4127  -3.2664
 -2.5337  -3.9817  -8.5063  -3.0660  -2.8009  -1.9767  -3.8087  -2.1378
 -1.9063 -74.0229 -69.1708  -8.5499  -5.4514  -7.9908  -8.0824  -8.4770
-15.1693  -2.7087  -3.7508  -8.6187 -15.9046 -11.6994  -3.3396  -7.3655
 -7.2019 -15.8058 -65.0117  -9.6196  -2.0487  -3.9231  -8.6607  -4.4433
-13.3159  -8.1871  -8.4657  -4.8689 -12.6625  -3.0011 -72.9746 -79.9463
-17.1435 -69.0360  -8.1560 -14.2369 -74.5173  -2.8470 -15.4214  -4.5415
 -8.8025  -2.2408 -11.2493  -5.1162  -2.3671  -5.2725 -11.0164  -7.4879
-40.1631  -6.8937  -3.8435 -12.6370 -17.6476  -9.8759  -9.9202 -16.9895
-12.9089 -11.3572  -6.9297 -24.5882 -58.6822  -9.6743  -6.2835 -10.1449
-10.0109  -7.8835 -43.5795 -11.3553  -8.0870  -1.9804 -30.6363  -5.8348
-10.1781  -7.0822  -6.6366 -28.0447  -6.7252  -9.7013  -3.6226 -16.0587
-10.9543 -12.3265  -6.6396 -10.3980  -7.7624  -5.6183 -21.2638  -9.1693
-14.2859  -8.6809 -12.7459  -7.3880 -10.3859 -16.1529 -12.4913 -11.0891
-10.1525 -12.4289 -10.4217 -11.0262 -10.1019  -0.6545  -0.7020  -0.7797
 -0.8149  -0.7006  -0.5374  -0.6255  -0.5572  -0.8056  -0.4314  -0.4718
 -0.4676  -0.4162  -0.4561  -0.4337  -0.4213  -0.4362  -0.3689  -0.4102
 -0.4720  -0.4262  -0.4869  -0.4408  -0.4086  -0.4845  -0.5305
 -- Virtual --
 -0.0420  -0.0344  -0.0301  -0.0258  -0.0246  -0.0236  -0.0197  -0.0187
 -0.0177  -0.0158  -0.0138  -0.0135  -0.0133  -0.0114  -0.0106  -0.0096
 -0.0084  -0.0079  -0.0069  -0.0065  -0.0061  -0.0052  -0.0045  -0.0036
 -0.0027  -0.0025  -0.0011  -0.0005   0.0001   0.0014   0.0019   0.0029
  0.0034   0.0041   0.0055   0.0062   0.0074   0.0076   0.0087   0.0093
  0.0103   0.0108   0.0117   0.0120   0.0131   0.0136   0.0143   0.0148
  0.0150   0.0159   0.0161   0.0166   0.0172   0.0187   0.0193   0.0197
  0.0200   0.0205   0.0209   0.0216   0.0227   0.0228   0.0234   0.0244
  0.0251   0.0262   0.0268   0.0274   0.0276   0.0281   0.0282   0.0288
  0.0298   0.0302   0.0303   0.0315   0.0322   0.0324   0.0335   0.0336
  0.0342   0.0350   0.0353   0.0360   0.0365   0.0370   0.0375   0.0378
  0.0388   0.0393   0.0399   0.0411   0.0414   0.0420   0.0432   0.0436
  0.0442   0.0453   0.0459   0.0467   0.0469   0.0472   0.0477   0.0481
  0.0485   0.0491   0.0498   0.0504   0.0510   0.0516   0.0528   0.0533
  0.0538   0.0543   0.0550   0.0554   0.0565   0.0571   0.0578   0.0582
  0.0585   0.0591   0.0598   0.0604   0.0609   0.0619   0.0623   0.0630
  0.0632   0.0641   0.0648   0.0653   0.0665   0.0671   0.0677   0.0680
  0.0687   0.0697   0.0698   0.0702   0.0708   0.0714   0.0725   0.0726
  0.0736   0.0744   0.0745   0.0750   0.0756   0.0759   0.0766   0.0772
  0.0780   0.0787   0.0793   0.0801   0.0803   0.0807   0.0812   0.0820
  0.0829   0.0830   0.0835   0.0839   0.0842   0.0848   0.0852   0.0860
  0.0867   0.0878   0.0882   0.0887   0.0893   0.0900   0.0904   0.0914
  0.0918   0.0926   0.0929   0.0934   0.0940   0.0947   0.0953   0.0959
  0.0961   0.0971   0.0978   0.0982   0.0987   0.0993   0.0998   0.1011
  0.1013   0.1022   0.1027   0.1034   0.1038   0.1043   0.1052   0.1054
  0.1058   0.1061   0.1076   0.1079   0.1085   0.1087   0.1095   0.1101
  0.1103   0.1118   0.1119   0.1129   0.1137   0.1142   0.1155   0.1162
  0.1162   0.1167   0.1177   0.1178   0.1187   0.1190   0.1197   0.1205
  0.1215   0.1216   0.1221   0.1225   0.1234   0.1236   0.1241   0.1246
  0.1259   0.1261   0.1263   0.1266   0.1273   0.1277   0.1282   0.1293
  0.1298   0.1302   0.1307   0.1307   0.1317   0.1325   0.1332   0.1334
  0.1337   0.1343   0.1348   0.1358   0.1368   0.1372   0.1382   0.1388
  0.1392   0.1396   0.1404   0.1404   0.1411   0.1420   0.1432   0.1434
  0.1437   0.1445   0.1450   0.1455   0.1459   0.1466   0.1472   0.1478
  0.1483   0.1488   0.1492   0.1498   0.1503   0.1505   0.1516   0.1519
  0.1521   0.1536   0.1538   0.1545   0.1552   0.1553   0.1566   0.1568
  0.1574   0.1581   0.1586   0.1595   0.1602   0.1604   0.1611   0.1617
  0.1621   0.1626   0.1637   0.1639   0.1644   0.1649   0.1656   0.1660
  0.1668   0.1677   0.1678   0.1688   0.1694   0.1695   0.1701   0.1708
  0.1714   0.1717   0.1727   0.1735   0.1744   0.1747   0.1754   0.1759
  0.1761   0.1772   0.1778   0.1787   0.1790   0.1793   0.1797   0.1807
  0.1811   0.1813   0.1823   0.1824   0.1827   0.1837   0.1842   0.1855
  0.1860   0.1863   0.1870   0.1877   0.1885   0.1888   0.1899   0.1900
  0.1912   0.1918   0.1923   0.1927   0.1928   0.1935   0.1945   0.1954
  0.1956   0.1959   0.1964   0.1967   0.1976   0.1977   0.1983   0.1995
  0.2003   0.2009   0.2013   0.2017   0.2031   0.2032   0.2039   0.2042
  0.2047   0.2059   0.2066   0.2067   0.2074   0.2078   0.2090   0.2095
  0.2100   0.2106   0.2109   0.2113   0.2124   0.2129   0.2137   0.2138
  0.2145   0.2149   0.2160   0.2163   0.2169   0.2173   0.2178   0.2191
  0.2195   0.2200   0.2204   0.2212   0.2215   0.2219   0.2227   0.2232
  0.2244   0.2247   0.2250   0.2260   0.2264   0.2273   0.2275   0.2282
  0.2285   0.2294   0.2302   0.2305   0.2313   0.2318   0.2320   0.2326
  0.2340   0.2345   0.2348   0.2350   0.2359   0.2362   0.2376   0.2378
  0.2380   0.2384   0.2394   0.2397   0.2401   0.2419   0.2421   0.2428
  0.2436   0.2442   0.2447   0.2456   0.2458   0.2463   0.2467   0.2475
  0.2483   0.2490   0.2498   0.2508   0.2513   0.2514   0.2524   0.2524
  0.2527   0.2542   0.2548   0.2550   0.2562   0.2572   0.2579   0.2584
  0.2592   0.2597   0.2602   0.2608   0.2619   0.2627   0.2635   0.2645
  0.2654   0.2659   0.2663   0.2669   0.2676   0.2681   0.2686   0.2697
  0.2704   0.2708   0.2718   0.2723   0.2732   0.2742   0.2749   0.2758
  0.2762   0.2773   0.2778   0.2790   0.2796   0.2807   0.2814   0.2826
  0.2829   0.2834   0.2844   0.2850   0.2855   0.2869   0.2872   0.2881
  0.2884   0.2890   0.2893   0.2907   0.2914   0.2924   0.2928   0.2933
  0.2950   0.2951   0.2958   0.2978   0.2979   0.2987   0.2989   0.3006
  0.3014   0.3027   0.3033   0.3038   0.3040   0.3047   0.3053   0.3063
  0.3070   0.3082   0.3088   0.3097   0.3099   0.3107   0.3115   0.3121
  0.3122   0.3131   0.3139   0.3150   0.3157   0.3167   0.3183   0.3188
  0.3198   0.3204   0.3210   0.3225   0.3231   0.3240   0.3241   0.3250
  0.3257   0.3266   0.3274   0.3278   0.3289   0.3300   0.3304   0.3314
  0.3327   0.3335   0.3335   0.3342   0.3353   0.3358   0.3365   0.3376
  0.3383   0.3391   0.3400   0.3412   0.3417   0.3432   0.3434   0.3438
  0.3443   0.3448   0.3463   0.3469   0.3477   0.3481   0.3490   0.3497
  0.3504   0.3516   0.3525   0.3531   0.3541   0.3553   0.3561   0.3565
  0.3573   0.3585   0.3591   0.3598   0.3604   0.3616   0.3622   0.3623
  0.3639   0.3646   0.3650   0.3665   0.3673   0.3679   0.3689   0.3691
  0.3693   0.3699   0.3707   0.3718   0.3724   0.3734   0.3736   0.3753
  0.3758   0.3770   0.3783   0.3789   0.3799   0.3815   0.3819   0.3827
  0.3833   0.3847   0.3852   0.3867   0.3869   0.3877   0.3892   0.3898
  0.3905   0.3913   0.3923   0.3935   0.3936   0.3947   0.3952   0.3956
  0.3961   0.3978   0.3986   0.3996   0.4004   0.4014   0.4017   0.4019
  0.4035   0.4038   0.4047   0.4051   0.4063   0.4068   0.4073   0.4076
  0.4083   0.4095   0.4103   0.4113   0.4115   0.4143   0.4155   0.4162
  0.4165   0.4176   0.4187   0.4191   0.4204   0.4211   0.4226   0.4229
  0.4244   0.4249   0.4259   0.4264   0.4276   0.4289   0.4299   0.4299
  0.4314   0.4326   0.4352   0.4361   0.4374   0.4381   0.4392   0.4393
  0.4404   0.4413   0.4417   0.4423   0.4433   0.4443   0.4446   0.4472
  0.4477   0.4494   0.4495   0.4508   0.4515   0.4546   0.4551   0.4563
  0.4580   0.4593   0.4608   0.4619   0.4635   0.4642   0.4651   0.4661
  0.4672   0.4686   0.4711   0.4722   0.4727   0.4739   0.4750   0.4761
  0.4772   0.4785   0.4796   0.4804   0.4817   0.4831   0.4851   0.4866
  0.4868   0.4880   0.4886   0.4902   0.4923   0.4944   0.4963   0.4974
  0.4982   0.4983   0.4992   0.5018   0.5025   0.5056   0.5070   0.5080
  0.5086   0.5105   0.5117   0.5124   0.5143   0.5155   0.5185   0.5214
  0.5231   0.5242   0.5264   0.5274   0.5296   0.5308   0.5316   0.5336
  0.5347   0.5363   0.5375   0.5388   0.5407   0.5414   0.5444   0.5462
  0.5464   0.5470   0.5480   0.5502   0.5518   0.5523   0.5536   0.5563
  0.5565   0.5582   0.5594   0.5622   0.5623   0.5653   0.5662   0.5671
  0.5680   0.5710   0.5726   0.5733   0.5744   0.5769   0.5783   0.5788
  0.5804   0.5813   0.5830   0.5845   0.5853   0.5860   0.5871   0.5882
  0.5896   0.5899   0.5923   0.5946   0.5953   0.5956   0.5970   0.5977
  0.6004   0.6017   0.6027   0.6042   0.6052   0.6069   0.6073   0.6096
  0.6105   0.6107   0.6120   0.6132   0.6145   0.6155   0.6177   0.6194
  0.6210   0.6224   0.6239   0.6247   0.6255   0.6267   0.6288   0.6294
  0.6297   0.6310   0.6325   0.6336   0.6346   0.6353   0.6366   0.6385
  0.6392   0.6398   0.6416   0.6434   0.6441   0.6454   0.6471   0.6475
  0.6481   0.6491   0.6495   0.6499   0.6510   0.6522   0.6537   0.6557
  0.6563   0.6570   0.6576   0.6593   0.6597   0.6623   0.6624   0.6639
  0.6644   0.6662   0.6674   0.6676   0.6685   0.6697   0.6704   0.6710
  0.6712   0.6715   0.6725   0.6747   0.6752   0.6763   0.6769   0.6782
  0.6790   0.6800   0.6806   0.6831   0.6836   0.6844   0.6858   0.6868
  0.6882   0.6889   0.6890   0.6903   0.6919   0.6937   0.6950   0.6962
  0.6981   0.6984   0.6990   0.7014   0.7020   0.7039   0.7043   0.7051
  0.7053   0.7069   0.7075   0.7084   0.7093   0.7108   0.7134   0.7140
  0.7143   0.7152   0.7168   0.7186   0.7198   0.7201   0.7202   0.7214
  0.7223   0.7240   0.7247   0.7276   0.7289   0.7303   0.7319   0.7346
  0.7361   0.7364   0.7373   0.7379   0.7391   0.7407   0.7421   0.7439
  0.7448   0.7459   0.7480   0.7504   0.7529   0.7537   0.7544   0.7553
  0.7563   0.7579   0.7590   0.7599   0.7613   0.7628   0.7641   0.7654
  0.7672   0.7678   0.7701   0.7717   0.7725   0.7733   0.7751   0.7763
  0.7781   0.7790   0.7796   0.7821   0.7835   0.7857   0.7864   0.7874
  0.7901   0.7903   0.7910   0.7944   0.7947   0.7957   0.7962   0.7994
  0.8010   0.8015   0.8031   0.8036   0.8053   0.8072   0.8086   0.8108
  0.8110   0.8117   0.8125   0.8160   0.8167   0.8187   0.8189   0.8194
  0.8211   0.8222   0.8242   0.8248   0.8260   0.8268   0.8277   0.8291
  0.8300   0.8346   0.8356   0.8359   0.8369   0.8385   0.8387   0.8416
  0.8420   0.8432   0.8439   0.8462   0.8474   0.8488   0.8503   0.8510
  0.8530   0.8555   0.8556   0.8577   0.8586   0.8597   0.8609   0.8616
  0.8622   0.8642   0.8651   0.8659   0.8677   0.8682   0.8689   0.8707
  0.8718   0.8724   0.8729   0.8737   0.8761   0.8764   0.8783   0.8791
  0.8799   0.8825   0.8830   0.8842   0.8851   0.8859   0.8872   0.8888
  0.8906   0.8912   0.8922   0.8942   0.8950   0.8954   0.8969   0.8975
  0.8980   0.8986   0.9006   0.9011   0.9021   0.9038   0.9043   0.9059
  0.9066   0.9080   0.9092   0.9109   0.9115   0.9128   0.9135   0.9138
  0.9155   0.9185   0.9192   0.9208   0.9219   0.9234   0.9239   0.9257
  0.9260   0.9278   0.9301   0.9311   0.9318   0.9325   0.9329   0.9338
  0.9351   0.9369   0.9373   0.9390   0.9395   0.9405   0.9411   0.9426
  0.9440   0.9451   0.9464   0.9472   0.9486   0.9512   0.9522   0.9551
  0.9555   0.9563   0.9569   0.9579   0.9587   0.9600   0.9608   0.9623
  0.9626   0.9645   0.9660   0.9671   0.9680   0.9692   0.9707   0.9709
  0.9726   0.9729   0.9736   0.9760   0.9772   0.9777   0.9797   0.9800
  0.9811   0.9819   0.9825   0.9838   0.9844   0.9847   0.9848   0.9867
  0.9883   0.9891   0.9905   0.9918   0.9933   0.9934   0.9947   0.9960
  0.9966   0.9973   0.9986   1.0001   1.0001   1.0014   1.0029   1.0039
  1.0041   1.0049   1.0065   1.0071   1.0075   1.0095   1.0112   1.0116
  1.0129   1.0150   1.0154   1.0163   1.0173   1.0186   1.0194   1.0200
  1.0212   1.0225   1.0233   1.0239   1.0248   1.0261   1.0268   1.0279
  1.0284   1.0298   1.0311   1.0312   1.0314   1.0342   1.0356   1.0360
  1.0362   1.0387   1.0393   1.0411   1.0427   1.0442   1.0453   1.0473
  1.0489   1.0497   1.0501   1.0513   1.0529   1.0533   1.0547   1.0557
  1.0572   1.0580   1.0592   1.0610   1.0614   1.0625   1.0636   1.0651
  1.0677   1.0681   1.0699   1.0713   1.0729   1.0739   1.0762   1.0767
  1.0783   1.0790   1.0809   1.0825   1.0832   1.0853   1.0862   1.0867
  1.0884   1.0896   1.0903   1.0915   1.0946   1.0962   1.0977   1.0990
  1.1004   1.1009   1.1030   1.1037   1.1053   1.1065   1.1075   1.1083
  1.1104   1.1105   1.1125   1.1139   1.1161   1.1166   1.1178   1.1185
  1.1195   1.1215   1.1232   1.1241   1.1249   1.1263   1.1271   1.1286
  1.1292   1.1316   1.1332   1.1335   1.1343   1.1356   1.1358   1.1372
  1.1387   1.1396   1.1405   1.1417   1.1425   1.1443   1.1459   1.1470
  1.1478   1.1498   1.1509   1.1526   1.1535   1.1563   1.1568   1.1575
  1.1582   1.1602   1.1620   1.1622   1.1628   1.1637   1.1647   1.1666
  1.1679   1.1692   1.1707   1.1724   1.1732   1.1734   1.1751   1.1758
  1.1797   1.1804   1.1832   1.1840   1.1851   1.1877   1.1878   1.1897
  1.1905   1.1911   1.1924   1.1942   1.1956   1.1977   1.1996   1.2010
  1.2032   1.2039   1.2059   1.2084   1.2094   1.2109   1.2125   1.2141
  1.2157   1.2176   1.2195   1.2225   1.2242   1.2259   1.2264   1.2289
  1.2307   1.2324   1.2353   1.2369   1.2389   1.2416   1.2432   1.2446
  1.2463   1.2478   1.2484   1.2502   1.2507   1.2514   1.2540   1.2552
  1.2593   1.2619   1.2641   1.2661   1.2675   1.2708   1.2715   1.2729
  1.2747   1.2782   1.2796   1.2812   1.2831   1.2849   1.2863   1.2887
  1.2915   1.2928   1.2962   1.2987   1.3002   1.3017   1.3058   1.3084
  1.3087   1.3124   1.3139   1.3153   1.3210   1.3211   1.3243   1.3263
  1.3290   1.3295   1.3306   1.3332   1.3346   1.3351   1.3388   1.3395
  1.3407   1.3435   1.3454   1.3467   1.3495   1.3499   1.3523   1.3538
  1.3554   1.3582   1.3590   1.3596   1.3612   1.3621   1.3631   1.3650
  1.3662   1.3679   1.3693   1.3710   1.3733   1.3756   1.3772   1.3780
  1.3803   1.3818   1.3838   1.3842   1.3862   1.3875   1.3903   1.3915
  1.3925   1.3934   1.3955   1.3965   1.3993   1.3997   1.4021   1.4028
  1.4044   1.4053   1.4056   1.4065   1.4083   1.4100   1.4110   1.4125
  1.4134   1.4153   1.4168   1.4170   1.4175   1.4206   1.4235   1.4246
  1.4248   1.4268   1.4273   1.4294   1.4306   1.4320   1.4333   1.4344
  1.4356   1.4368   1.4392   1.4399   1.4415   1.4427   1.4442   1.4457
  1.4461   1.4485   1.4498   1.4521   1.4537   1.4542   1.4565   1.4577
  1.4599   1.4626   1.4651   1.4655   1.4674   1.4682   1.4717   1.4739
  1.4743   1.4764   1.4774   1.4790   1.4810   1.4827   1.4837   1.4860
  1.4870   1.4890   1.4908   1.4920   1.4931   1.4958   1.4970   1.4998
  1.5009   1.5029   1.5038   1.5058   1.5100   1.5123   1.5132   1.5170
  1.5176   1.5198   1.5202   1.5218   1.5252   1.5287   1.5299   1.5323
  1.5356   1.5387   1.5403   1.5411   1.5451   1.5474   1.5493   1.5502
  1.5541   1.5551   1.5580   1.5639   1.5648   1.5671   1.5679   1.5777
  1.5799   1.5825   1.5853   1.5916   1.5926   1.5948   1.5994   1.6043
  1.6098   1.6138   1.6190   1.6236   1.6269   1.6283   1.6353   1.6378
  1.6451   1.6481   1.6488   1.6499   1.6561   1.6576   1.6586   1.6600
  1.6646   1.6671   1.6677   1.6696   1.6719   1.6726   1.6741   1.6750
  1.6759   1.6778   1.6782   1.6793   1.6796   1.6807   1.6822   1.6827
  1.6840   1.6852   1.6858   1.6868   1.6879   1.6886   1.6901   1.6914
  1.6920   1.6925   1.6937   1.6958   1.6964   1.6966   1.6979   1.6987
  1.7000   1.7000   1.7016   1.7017   1.7030   1.7048   1.7067   1.7083
  1.7093   1.7094   1.7118   1.7127   1.7158   1.7167   1.7172   1.7199
  1.7207   1.7218   1.7230   1.7238   1.7246   1.7274   1.7292   1.7305
  1.7324   1.7343   1.7347   1.7376   1.7383   1.7397   1.7405   1.7423
  1.7431   1.7436   1.7456   1.7470   1.7483   1.7484   1.7503   1.7511
  1.7537   1.7546   1.7554   1.7577   1.7608   1.7617   1.7617   1.7626
  1.7634   1.7649   1.7658   1.7683   1.7699   1.7708   1.7727   1.7730
  1.7742   1.7749   1.7780   1.7791   1.7817   1.7825   1.7844   1.7868
  1.7876   1.7889   1.7911   1.7924   1.7939   1.7972   1.7975   1.8008
  1.8078   1.8089   1.8108   1.8114   1.8135   1.8146   1.8187   1.8192
  1.8221   1.8250   1.8268   1.8273   1.8292   1.8335   1.8361   1.8393
  1.8403   1.8417   1.8450   1.8493   1.8541   1.8554   1.8567   1.8607
  1.8615   1.8656   1.8664   1.8703   1.8721   1.8739   1.8762   1.8794
  1.8812   1.8828   1.8840   1.8846   1.8865   1.8871   1.8880   1.8891
  1.8898   1.8912   1.8924   1.8932   1.8947   1.8954   1.8977   1.8993
  1.8994   1.9004   1.9022   1.9029   1.9036   1.9043   1.9062   1.9073
  1.9094   1.9099   1.9107   1.9113   1.9134   1.9134   1.9139   1.9155
  1.9167   1.9194   1.9204   1.9212   1.9222   1.9229   1.9236   1.9255
  1.9276   1.9281   1.9293   1.9300   1.9310   1.9327   1.9367   1.9381
  1.9402   1.9429   1.9450   1.9468   1.9482   1.9496   1.9522   1.9536
  1.9565   1.9604   1.9652   1.9685   1.9693   1.9733   1.9773   1.9790
  1.9860   1.9873   1.9921   2.0009   2.0064   2.0245   2.0324   2.0417
  2.0462   2.0487   2.0511   2.0524   2.0529   2.0537   2.0581   2.0597
  2.0614   2.0623   2.0640   2.0656   2.0680   2.0684   2.0710   2.0719
  2.0723   2.0739   2.0744   2.0752   2.0757   2.0784   2.0796   2.0818
  2.0831   2.0838   2.0859   2.0867   2.0878   2.0891   2.0904   2.0922
  2.0924   2.0938   2.0952   2.0953   2.0964   2.0975   2.0994   2.1007
  2.1029   2.1039   2.1056   2.1069   2.1081   2.1109   2.1124   2.1158
  2.1176   2.1189   2.1200   2.1218   2.1236   2.1264   2.1289   2.1312
  2.1335   2.1403   2.1432   2.1438   2.1507   2.1516   2.1528   2.1549
  2.1597   2.1617   2.1638   2.1644   2.1654   2.1786   2.1788   2.1812
  2.1848   2.1850   2.1921   2.1952   2.1962   2.1983   2.1999   2.2007
  2.2039   2.2071   2.2076   2.2088   2.2119   2.2129   2.2154   2.2169
  2.2174   2.2199   2.2210   2.2227   2.2229   2.2251   2.2266   2.2275
  2.2280   2.2286   2.2302   2.2306   2.2313   2.2329   2.2342   2.2347
  2.2377   2.2395   2.2413   2.2415   2.2434   2.2441   2.2455   2.2457
  2.2481   2.2483   2.2487   2.2498   2.2503   2.2512   2.2516   2.2525
  2.2550   2.2555   2.2563   2.2567   2.2575   2.2580   2.2588   2.2604
  2.2613   2.2622   2.2634   2.2646   2.2652   2.2667   2.2672   2.2681
  2.2682   2.2692   2.2702   2.2719   2.2721   2.2728   2.2745   2.2757
  2.2760   2.2768   2.2775   2.2785   2.2786   2.2796   2.2803   2.2806
  2.2825   2.2838   2.2851   2.2858   2.2863   2.2871   2.2877   2.2886
  2.2903   2.2919   2.2924   2.2928   2.2932   2.2949   2.2954   2.2968
  2.2989   2.3002   2.3015   2.3020   2.3038   2.3045   2.3050   2.3052
  2.3065   2.3078   2.3082   2.3094   2.3100   2.3115   2.3127   2.3129
  2.3138   2.3141   2.3154   2.3170   2.3179   2.3186   2.3190   2.3202
  2.3212   2.3225   2.3233   2.3247   2.3269   2.3274   2.3280   2.3291
  2.3312   2.3324   2.3361   2.3374   2.3384   2.3394   2.3404   2.3417
  2.3437   2.3456   2.3469   2.3485   2.3493   2.3500   2.3526   2.3551
  2.3559   2.3582   2.3587   2.3607   2.3631   2.3680   2.3712   2.3747
  2.3760   2.3769   2.3835   2.3869   2.3882   2.3930   2.3945   2.3979
  2.4040   2.4134   2.4179   2.4213   2.4295   2.4407   2.4597   2.4640
  2.4889   2.5179   2.5577   2.5835   2.6617   2.7183   2.7467   2.7668
  2.8131   2.8178   2.8251   2.8285   2.8308   2.8368   2.8396   2.8423
  2.8461   2.8471   2.8489   2.8505   2.8514   2.8525   2.8545   2.8559
  2.8577   2.8584   2.8628   2.8644   2.8667   2.8686   2.8725   2.8731
  2.8740   2.8776   2.8795   2.8841   2.8881   2.8924   2.8927   2.9187
  2.9552   3.1096   3.2377   3.9446   3.9520   3.9530   3.9530   3.9592
  3.9637   3.9682   3.9702   3.9729   3.9734   3.9752   3.9793   3.9802
  3.9836   3.9890   3.9911   3.9924   3.9951   3.9964   3.9981   4.0039
  4.0060   4.0118   4.0181   4.0204   4.0311   4.0335   4.0368   4.2028
  4.2119   4.2167   4.2198   4.2249   4.2298   4.2307   4.2330   4.2347
  4.2390   4.2395   4.2417   4.2487   4.2534   4.2549   4.2593   4.2596
  4.2632   4.2639   4.2666   4.2715   4.2731   4.2740   4.2769   4.2805
  4.2837   4.2847   4.2873   4.2928   4.2954   4.2990   4.2995   4.3022
  4.3036   4.3066   4.3078   4.3119   4.3125   4.3152   4.3156   4.3176
  4.3188   4.3194   4.3224   4.3237   4.3272   4.3291   4.3311   4.3367
  4.3375   4.3412   4.3418   4.3437   4.3461   4.3506   4.3514   4.3554
  4.3568   4.3602   4.3633   4.3638   4.3703   4.3717   4.3798   4.3862
  4.3900   4.3918   4.3949   4.3985   4.4027   4.4059   4.4110   4.4254
  4.4294   4.4420   4.4468   4.4477   4.4571   4.4635   4.4740   4.4804
  4.4898   4.4973   4.5207   4.5358   4.5520   4.5784   4.6095   4.6902
  4.6999   4.7341   4.8010   4.9153
 --------------------------------------------------------------
 
          Ground-State Mulliken Net Atomic Charges

     Atom                 Charge (a.u.)
  ----------------------------------------
      1 C                    -0.235625
      2 C                     0.007010
      3 C                     0.058582
      4 C                    -1.408631
      5 C                    -0.178636
      6 C                    -0.624802
      7 H                     0.233748
      8 H                     0.254427
      9 H                     0.226718
     10 H                     0.224663
     11 H                     0.245794
     12 H                     0.202157
     13 H                     0.213431
     14 H                     0.199961
     15 H                     0.230800
     16 H                     0.209730
     17 H                     0.223698
     18 N                     0.075266
     19 H                     0.507127
     20 C                    -0.910344
     21 H                     0.230246
     22 O                    -0.115561
     23 C                    -0.782136
     24 H                     0.273520
     25 H                     0.248220
     26 H                     0.259274
     27 S                     0.548435
     28 C                    -0.897686
     29 H                     0.248603
     30 H                     0.290993
     31 H                     0.254260
     32 O                    -0.548357
     33 C                    -0.919445
     34 H                     0.241426
     35 H                     0.236023
     36 H                     0.267754
     37 S                     1.028884
     38 C                    -0.859696
     39 H                     0.236044
     40 H                     0.259994
     41 H                     0.294356
     42 O                    -0.732746
     43 C                    -0.911412
     44 H                     0.273439
     45 H                     0.297180
     46 H                     0.239824
     47 S                     1.001381
     48 C                    -0.903826
     49 H                     0.237180
     50 H                     0.285381
     51 H                     0.247934
     52 O                    -0.722613
     53 C                    -1.021785
     54 H                     0.311725
     55 H                     0.268710
     56 H                     0.245224
     57 S                     0.960889
     58 C                    -0.910000
     59 H                     0.252742
     60 H                     0.302728
     61 H                     0.242874
     62 O                    -0.688220
     63 C                    -0.998869
     64 H                     0.279718
     65 H                     0.204286
     66 H                     0.285155
     67 S                     1.074835
     68 C                    -0.967710
     69 H                     0.273962
     70 H                     0.272308
     71 H                     0.226715
     72 O                    -0.648306
     73 C                    -0.851316
     74 H                     0.274351
     75 H                     0.215616
     76 H                     0.236801
     77 S                     1.065321
     78 C                    -0.878525
     79 H                     0.218311
     80 H                     0.266153
     81 H                     0.260564
     82 O                    -0.705566
     83 C                    -0.860242
     84 H                     0.283780
     85 H                     0.264302
     86 H                     0.270727
     87 S                     0.853497
     88 C                    -0.873838
     89 H                     0.247001
     90 H                     0.276946
     91 H                     0.278809
     92 O                    -0.682390
     93 C                    -1.032134
     94 H                     0.275937
     95 H                     0.267308
     96 H                     0.228169
     97 S                     1.100831
     98 C                    -0.908099
     99 H                     0.262068
    100 H                     0.231834
    101 H                     0.258879
    102 O                    -0.684987
    103 C                    -0.992938
    104 H                     0.268891
    105 H                     0.262648
    106 H                     0.269658
    107 S                     1.127156
    108 C                    -0.924035
    109 H                     0.265546
    110 H                     0.244013
    111 H                     0.250337
    112 O                    -0.748863
    113 C                    -0.795638
    114 H                     0.287114
    115 H                     0.286300
    116 H                     0.247066
    117 S                     0.800914
    118 C                    -0.807802
    119 H                     0.255965
    120 H                     0.239854
    121 H                     0.248906
    122 O                    -0.739330
    123 C                    -0.825637
    124 H                     0.237111
    125 H                     0.272757
    126 H                     0.239707
    127 S                     1.056056
    128 C                    -0.962652
    129 H                     0.239152
    130 H                     0.262978
    131 H                     0.251663
    132 O                    -0.704433
    133 C                    -0.929053
    134 H                     0.254439
    135 H                     0.240883
    136 H                     0.273437
    137 S                     0.804052
    138 C                    -0.783202
    139 H                     0.229689
    140 H                     0.345534
    141 H                     0.240165
    142 O                    -0.722157
    143 C                    -1.271826
    144 H                     0.285104
    145 H                     0.280212
    146 H                     0.318960
    147 S                     0.733221
    148 C                    -0.832909
    149 H                     0.262405
    150 H                     0.257780
    151 H                     0.282932
    152 O                    -0.421289
    153 C                    -0.740498
    154 H                     0.208906
    155 H                     0.251004
    156 H                     0.252221
    157 S                     0.898898
    158 C                    -0.864523
    159 H                     0.242565
    160 H                     0.259074
    161 H                     0.234396
    162 O                    -0.712598
    163 C                    -0.857182
    164 H                     0.258137
    165 H                     0.240198
    166 H                     0.255277
    167 S                     0.933354
    168 C                    -0.779724
    169 H                     0.274099
    170 H                     0.236477
    171 H                     0.245550
    172 O                    -0.802356
    173 C                    -1.002265
    174 H                     0.239011
    175 H                     0.287800
    176 H                     0.292019
    177 S                     0.925001
    178 C                    -0.796174
    179 H                     0.254939
    180 H                     0.279418
    181 H                     0.192622
    182 O                    -0.703303
    183 C                    -0.962808
    184 H                     0.229237
    185 H                     0.315030
    186 H                     0.235784
    187 S                     0.847138
    188 C                    -0.767456
    189 H                     0.231024
    190 H                     0.285065
    191 H                     0.287695
    192 O                    -0.704784
    193 C                    -0.693377
    194 H                     0.250225
    195 H                     0.255031
    196 H                     0.240579
    197 S                     0.630759
    198 C                    -0.777101
    199 H                     0.247757
    200 H                     0.238180
    201 H                     0.261302
    202 O                    -0.635151
    203 C                    -0.914736
    204 H                     0.260677
    205 H                     0.259749
    206 H                     0.278987
    207 S                     0.951777
    208 C                    -0.858710
    209 H                     0.256901
    210 H                     0.258110
    211 H                     0.243595
    212 O                    -0.729106
    213 C                    -0.968259
    214 H                     0.316478
    215 H                     0.252819
    216 H                     0.244513
    217 S                     0.679536
    218 C                    -0.667607
    219 H                     0.215054
    220 H                     0.295876
    221 H                     0.276760
    222 O                    -0.657371
    223 C                    -0.720816
    224 H                     0.235163
    225 H                     0.322736
    226 H                     0.215642
    227 S                     0.763814
    228 C                    -0.849660
    229 H                     0.229330
    230 H                     0.245238
    231 H                     0.312743
    232 O                    -0.613878
    233 C                    -0.864404
    234 H                     0.228559
    235 H                     0.274741
    236 H                     0.270533
    237 S                     0.933261
    238 C                    -0.978532
    239 H                     0.228761
    240 H                     0.294489
    241 H                     0.248529
    242 O                    -0.660407
    243 C                    -1.010612
    244 H                     0.282246
    245 H                     0.288644
    246 H                     0.295179
    247 S                     1.177617
    248 C                    -1.110180
    249 H                     0.275217
    250 H                     0.247277
    251 H                     0.296256
    252 O                    -0.747818
    253 C                    -0.779087
    254 H                     0.239169
    255 H                     0.329907
    256 H                     0.232135
    257 S                     0.772206
    258 C                    -0.802366
    259 H                     0.240095
    260 H                     0.254436
    261 H                     0.236520
    262 O                    -0.636165
    263 C                    -0.997163
    264 H                     0.271841
    265 H                     0.250868
    266 H                     0.251625
    267 S                     0.916721
    268 C                    -0.951037
    269 H                     0.260203
    270 H                     0.273032
    271 H                     0.309544
    272 O                    -0.650260
    273 C                    -1.110764
    274 H                     0.263464
    275 H                     0.268199
    276 H                     0.283529
    277 S                     1.056606
    278 C                    -0.943120
    279 H                     0.249576
    280 H                     0.290480
    281 H                     0.241079
    282 O                    -0.704927
    283 C                    -0.986605
    284 H                     0.265207
    285 H                     0.254669
    286 H                     0.262224
    287 S                     0.821479
    288 C                    -0.727701
    289 H                     0.277480
    290 H                     0.269604
    291 H                     0.276545
    292 O                    -0.740823
    293 C                    -0.629633
    294 H                     0.214841
    295 H                     0.256043
    296 H                     0.305674
    297 S                     0.733028
    298 C                    -0.884809
    299 H                     0.246143
    300 H                     0.264841
[...]
    2   0.0237603  -0.0047688   0.0051200  -0.0138915   0.0173209   0.0048049
    3   0.0117711   0.0093077  -0.0048540  -0.0436827   0.0020017  -0.0136499
          157         158         159         160         161         162
    1   0.0372026  -0.0091433   0.0008644  -0.0134608  -0.0087873  -0.0146559
    2  -0.0322770  -0.0027430  -0.0189785   0.0323777  -0.0194787   0.0850224
    3   0.0028002  -0.0018047   0.0252931   0.0053768  -0.0289911   0.0701769
          163         164         165         166         167         168
    1  -0.0025671   0.0278623  -0.0022036  -0.0212653   0.0342356  -0.0066349
    2  -0.0065227  -0.0124803  -0.0246431   0.0119592  -0.0027296   0.0056187
    3  -0.0054529  -0.0080343   0.0254598  -0.0268660   0.0460712   0.0009013
          169         170         171         172         173         174
    1  -0.0140712  -0.0275890  -0.0125512   0.0162106   0.0028890  -0.0227606
    2   0.0289907  -0.0089891   0.0015132   0.0709382  -0.0084657  -0.0090141
    3   0.0048757  -0.0154787   0.0305919  -0.0818406   0.0009525   0.0279590
          175         176         177         178         179         180
    1   0.0042850   0.0180816  -0.0032247  -0.0019586   0.0153739   0.0035474
    2  -0.0045010  -0.0253318   0.0195298   0.0047938   0.0307199  -0.0173578
    3  -0.0257368   0.0175718   0.0485450  -0.0060592  -0.0027975  -0.0239308
          181         182         183         184         185         186
    1  -0.0306822   0.0947418  -0.0029181  -0.0328471   0.0150411   0.0117283
    2   0.0068872  -0.0013769   0.0013954   0.0031780   0.0173264  -0.0272731
    3   0.0096028  -0.0592243  -0.0096192   0.0006992  -0.0261547  -0.0089254
          187         188         189         190         191         192
    1  -0.0177610  -0.0004000  -0.0285724  -0.0161187   0.0142852   0.1030195
    2  -0.0329873   0.0108423   0.0055238   0.0226583   0.0211317   0.0201116
    3   0.0433800   0.0038068  -0.0058870   0.0305418  -0.0187691  -0.0282162
          193         194         195         196         197         198
    1   0.0051264   0.0380477   0.0053623  -0.0086358  -0.0580704   0.0014490
    2   0.0004570   0.0056830   0.0221544   0.0259844   0.0147606  -0.0059697
    3  -0.0026942  -0.0089087  -0.0303111   0.0156648   0.0189934   0.0037666
          199         200         201         202         203         204
    1   0.0301515   0.0053638  -0.0160288   0.0121514   0.0014501  -0.0141370
    2  -0.0056150   0.0170925  -0.0242702  -0.0699484  -0.0004887  -0.0316479
    3  -0.0068246   0.0279336   0.0208611  -0.0854574   0.0109803  -0.0007018
          205         206         207         208         209         210
    1   0.0316480  -0.0108444   0.0238838  -0.0069340  -0.0150496  -0.0100981
    2   0.0002743   0.0272492   0.0403425   0.0019378   0.0275111  -0.0070966
    3   0.0056582   0.0215587  -0.0210500   0.0014992   0.0152446  -0.0289830
          211         212         213         214         215         216
    1  -0.0131482   0.0110284  -0.0093029  -0.0163945  -0.0027347  -0.0182487
    2  -0.0223994  -0.1049615   0.0024564   0.0055041  -0.0283056  -0.0000397
    3   0.0160059  -0.0347495  -0.0042001  -0.0302297  -0.0016564   0.0280752
          217         218         219         220         221         222
    1   0.0417626  -0.0037333  -0.0061076   0.0276786  -0.0257957   0.0157452
    2  -0.0272699   0.0098304   0.0002583   0.0147086   0.0172894   0.0135192
    3   0.0323431  -0.0061541   0.0270739  -0.0100759  -0.0197306  -0.1201135
          223         224         225         226         227         228
    1  -0.0099443   0.0109873  -0.0289096  -0.0213966   0.0374337  -0.0014679
    2  -0.0088077  -0.0125218  -0.0237081   0.0209188   0.0374233  -0.0108353
    3   0.0005396  -0.0293199   0.0150167   0.0057897  -0.0303137   0.0042922
          229         230         231         232         233         234
    1   0.0190810   0.0298178  -0.0284503  -0.0362281  -0.0041594   0.0091515
    2  -0.0117415   0.0009017  -0.0189056   0.0259611   0.0023045  -0.0258397
    3  -0.0268050   0.0122004   0.0138874   0.1008268  -0.0094728  -0.0201550
          235         236         237         238         239         240
    1  -0.0313765   0.0136382  -0.0095521   0.0095456   0.0045802   0.0000564
    2   0.0027364   0.0293683   0.0461181   0.0013535  -0.0109835   0.0370454
    3   0.0084051  -0.0026881   0.0443041  -0.0021059  -0.0290277  -0.0011916
          241         242         243         244         245         246
    1   0.0162691  -0.0233742   0.0021881   0.0049214   0.0285512  -0.0258013
    2  -0.0266229  -0.1042186   0.0075187  -0.0213061   0.0177968   0.0192800
    3   0.0144512   0.0262120   0.0078626   0.0251307  -0.0034265   0.0016294
          247         248         249         250         251         252
    1   0.0320517  -0.0034026   0.0292076   0.0169335  -0.0353033  -0.1091252
    2  -0.0411889   0.0080057   0.0173042  -0.0109370   0.0076861  -0.0040042
    3  -0.0060053  -0.0043781  -0.0056573  -0.0317268   0.0124459   0.0150739
          253         254         255         256         257         258
    1   0.0101534   0.0122427   0.0181860   0.0212143  -0.0068615  -0.0035852
    2  -0.0026235  -0.0075489  -0.0187762   0.0273271   0.0234231   0.0043675
    3  -0.0002836   0.0279458  -0.0201517  -0.0068113  -0.0594399   0.0066649
          259         260         261         262         263         264
    1   0.0130056  -0.0283159   0.0015873  -0.0598995   0.0032028  -0.0268161
    2   0.0281853   0.0172305  -0.0104445  -0.0817158   0.0071126   0.0070047
    3  -0.0065772  -0.0011754   0.0290349   0.0377714  -0.0010166   0.0073978
          265         266         267         268         269         270
    1   0.0271193  -0.0034180   0.0239710   0.0051088   0.0364422  -0.0006089
    2  -0.0036366   0.0263377  -0.0408785   0.0038443  -0.0181168  -0.0294622
    3   0.0254116  -0.0229257   0.0464426  -0.0049550   0.0072016  -0.0071284
          271         272         273         274         275         276
    1  -0.0128275  -0.1021571  -0.0051322   0.0134090  -0.0263605  -0.0136777
    2   0.0228715  -0.0163579   0.0009608   0.0248434   0.0095775  -0.0068879
    3  -0.0236383  -0.0355301   0.0086136  -0.0011186  -0.0210478   0.0325637
          277         278         279         280         281         282
    1   0.0227295  -0.0095124  -0.0145567  -0.0297625   0.0082826   0.0347840
    2   0.0046116  -0.0036602  -0.0002831   0.0029457  -0.0255078  -0.0516739
    3  -0.0483538  -0.0066917   0.0244866  -0.0270068  -0.0070858   0.0892122
          283         284         285         286         287         288
    1   0.0094226   0.0032852   0.0258219   0.0007537   0.0008464  -0.0032427
    2  -0.0007525   0.0265678  -0.0211151  -0.0014157  -0.0145400  -0.0038867
    3  -0.0046470   0.0109070   0.0080184  -0.0277981   0.0543694  -0.0078452
          289         290         291         292         293         294
    1   0.0223352  -0.0254254  -0.0054522  -0.0480861   0.0037279  -0.0054450
    2  -0.0228899  -0.0147886   0.0128988   0.0936309   0.0021010   0.0318739
    3  -0.0062576   0.0125312  -0.0305245  -0.0361792  -0.0035196  -0.0044208
          295         296         297         298         299         300
    1   0.0242813  -0.0037697  -0.0523989  -0.0015333  -0.0175940  -0.0022182
    2  -0.0104251  -0.0089131   0.0037315   0.0031117   0.0321943  -0.0223686
    3   0.0126122  -0.0265475  -0.0194364   0.0063727   0.0026006   0.0242057
          301         302
    1   0.0278345   0.0462298
    2   0.0064232  -0.1026736
    3   0.0059528   0.0223423
  --- DONE ESP SUMMARY ---
Archival summary:
1\1\node011\SP\ProcedureUnspecified\6-31+G*\282856h22\ymao90\FriDec311:52:432021FriDec311:52:432021\0\\#,ProcedureUnspecified,6-31+G*,\\0,1\S\O,1,1.4967\C,1,1.80672,2,107.293\H,3,1.09241,1,101.437,2,156.995,0\H,3,1.09294,1,111.28,2,-76.4091,0\H,3,1.09296,1,104.64,2,42.7535,0\C,1,1.80717,2,97.0968,3,95.8029,0\H,7,1.09275,1,103.736,2,-56.8028,0\H,7,1.09304,1,116.691,2,68.294,0\H,7,1.09349,1,111.364,2,-173.271,0\O,8,2.20738,7,145.616,1,-108.425,0\S,11,1.4978,8,137.387,7,41.9094,0\C,12,1.80671,11,104.762,8,-163.543,0\H,13,1.0929,12,106.61,11,-68.0356,0\H,13,1.09334,12,106.371,11,45.1189,0\H,13,1.09338,12,113.797,11,164.218,0\C,12,1.80672,11,114.07,8,-65.8509,0\H,17,1.09259,12,106.646,11,-45.8269,0\H,17,1.09304,12,102.866,11,-161.786,0\H,17,1.09368,12,113.895,11,80.1254,0\H,15,2.10149,13,155.405,12,14.2664,0\C,21,1.09355,15,140.817,13,-23.2444,0\H,22,1.09227,21,111.016,15,6.71285,0\H,22,1.09303,21,109.662,15,132.913,0\S,22,1.80694,21,109.027,15,-111.266,0\O,25,1.49701,22,101.363,21,-161.631,0\C,25,1.80634,22,97.991,21,-57.3773,0\H,27,1.09291,25,107.138,22,-154.876,0\H,27,1.09299,25,105.114,22,95.6853,0\H,27,1.09368,25,115.156,22,-27.4838,0\H,24,2.17831,22,120.681,21,-52.1008,0\C,31,1.09363,24,146.929,22,-115.861,0\H,32,1.09288,31,109.122,24,168.132,0\H,32,1.09346,31,111.648,24,53.1862,0\S,32,1.80664,31,110.104,24,-70.827,0\O,35,1.49716,32,99.6638,31,178.659,0\C,35,1.8063,32,96.0784,31,74.2977,0\H,37,1.09257,35,111.444,32,-82.0446,0\H,37,1.0935,35,110.712,32,35.4287,0\H,37,1.09377,35,103.056,32,156.12,0\Gh,26,2.28581,25,130.992,22,-61.238,0\Gh,41,1.1049,26,152.531,25,59.0343,0\Gh,42,1.21834,41,123.007,26,13.9531,0\Gh,42,1.37888,41,117.285,26,-160.536,0\Gh,44,1.01274,42,116.083,41,-13.5436,0\Gh,44,1.46268,42,121.808,41,-175.451,0\Gh,46,1.09667,44,113.558,42,35.2001,0\Gh,46,1.53695,44,109.464,42,-82.865,0\Gh,48,1.09677,46,113.329,44,-49.2087,0\Gh,48,1.09686,46,110.767,44,73.6237,0\Gh,48,1.53768,46,115.573,44,-169.657,0\Gh,51,1.09648,48,107.544,46,-63.8967,0\Gh,51,1.09735,48,111.506,46,-176.476,0\Gh,46,1.53814,44,109.957,42,161.461,0\Gh,54,1.09691,46,112.8,44,56.0123,0\Gh,54,1.0972,46,109.039,44,-58.687,0\Gh,54,1.53764,46,114.341,44,172.768,0\Gh,57,1.09657,54,108.765,46,172.224,0\Gh,57,1.09711,54,109.693,46,57.9699,0\Gh,57,1.53694,54,115.462,46,-57.9213,0\Gh,60,1.09604,57,105.683,54,-76.2506,0\Gh,60,1.09735,57,110.846,54,169.728,0\O,45,2.0264,44,154.057,42,-37.9737,0\S,63,1.49688,45,154.285,44,1.01344,0\C,64,1.80696,63,101.946,45,66.4792,0\H,65,1.09258,64,96.8051,63,46.0507,0\H,65,1.09259,64,115.493,63,162.877,0\H,65,1.09366,64,115.974,63,-64.3237,0\C,64,1.80759,63,102.408,45,167.579,0\H,69,1.09236,64,105.197,63,-34.9551,0\H,69,1.09272,64,107.123,63,-143.944,0\H,69,1.09305,64,109.522,63,90.1492,0\H,67,2.03731,65,146.466,64,-77.2321,0\C,73,1.09299,67,139.223,65,-74.0848,0\H,74,1.09271,73,116.651,67,-89.5889,0\H,74,1.09344,73,103.962,67,148.881,0\S,74,1.80709,73,117.05,67,40.2296,0\O,77,1.49744,74,108.833,73,34.7748,0\C,77,1.80683,74,98.0383,73,-78.6591,0\H,79,1.09254,77,97.8526,74,161.622,0\H,79,1.09272,77,109.946,74,-74.5211,0\H,79,1.0928,77,99.9881,74,43.3296,0\O,40,2.30048,37,145.612,35,108.357,0\S,83,1.49653,40,117.632,37,-44.9164,0\C,84,1.8069,83,104.248,40,156.955,0\H,85,1.09275,84,98.7518,83,70.0413,0\H,85,1.09281,84,111.189,83,-175.014,0\H,85,1.09323,84,105.727,83,-50.024,0\C,84,1.80697,83,102.48,40,-102.237,0\H,89,1.09289,84,107.618,83,-153.941,0\H,89,1.09309,84,109.425,83,-38.6751,0\H,89,1.09342,84,110.39,83,92.8882,0\H,87,2.20631,85,121.254,84,23.8339,0\C,93,1.09348,87,154.302,85,46.1679,0\H,94,1.09221,93,114.686,87,120.879,0\H,94,1.09227,93,107.286,87,-114.851,0\S,94,1.8075,93,103.064,87,7.76417,0\O,97,1.49734,94,98.854,93,95.2123,0\C,97,1.80688,94,97.4946,93,-164.145,0\H,99,1.09234,97,104.897,94,177.085,0\H,99,1.09312,97,113.789,94,-63.1293,0\H,99,1.09344,97,104.697,94,62.9421,0\O,88,2.30923,85,167.991,84,92.3495,0\S,103,1.49737,88,107.742,85,-89.4237,0\C,104,1.80707,103,95.7915,88,-146.63,0\H,105,1.09243,104,107.476,103,-64.8574,0\H,105,1.09285,104,109.229,103,57.9745,0\H,105,1.09352,104,107.143,103,-179.957,0\C,104,1.80756,103,101.434,88,-55.0952,0\H,109,1.09204,104,109.191,103,82.2956,0\H,109,1.09328,104,96.144,103,-26.9794,0\H,109,1.09341,104,117.904,103,-142.319,0\H,106,1.98101,105,111.632,104,128.35,0\C,113,1.09312,106,138.721,105,83.9745,0\H,114,1.09275,113,121.888,106,78.1976,0\H,114,1.09388,113,104.868,106,-52.2582,0\S,114,1.80653,113,104.55,106,-173.125,0\O,117,1.49651,114,104.996,113,74.1057,0\C,117,1.80701,114,95.9329,113,176.477,0\H,119,1.09258,117,110.668,114,46.8766,0\H,119,1.0927,117,115.024,114,-72.604,0\H,119,1.09364,117,112.598,114,166.314,0\H,50,2.34064,48,155.589,46,137.832,0\C,123,1.09346,50,132.212,48,8.47104,0\H,124,1.09259,123,100.599,50,-58.1303,0\H,124,1.09326,123,115.95,50,55.0352,0\S,124,1.80686,123,114.134,50,-167.171,0\O,127,1.49711,124,105.908,123,-50.2301,0\C,127,1.80723,124,100.555,123,57.8105,0\H,129,1.09261,127,112.321,124,52.7422,0\H,129,1.09267,127,106.091,124,179.85,0\H,129,1.09341,127,118.659,124,-63.5209,0\H,40,2.38167,37,128.152,35,-155.771,0\C,133,1.09353,40,129.068,37,52.4288,0\H,134,1.09305,133,104.942,40,-97.4604,0\H,134,1.0933,133,111.275,40,132.451,0\S,134,1.80724,133,107.606,40,16.044,0\O,137,1.49728,134,101.916,133,161.978,0\C,137,1.80616,134,93.5743,133,55.9774,0\H,139,1.09279,137,105.992,134,-163.02,0\H,139,1.09311,137,114.883,134,-37.8545,0\H,139,1.09326,137,110.168,134,84.672,0\O,125,2.42081,124,151.597,123,-177.132,0\S,143,1.49688,125,109.533,124,-62.1244,0\C,144,1.80725,143,106.014,125,153.139,0\H,145,1.09238,144,110.471,143,-89.9007,0\H,145,1.09263,144,106.769,143,22.5202,0\H,145,1.09284,144,109.344,143,140.886,0\C,144,1.80741,143,99.383,125,-110.476,0\H,149,1.09306,144,101.866,143,75.8748,0\H,149,1.09351,144,106.646,143,-41.5924,0\H,149,1.0937,144,102.491,143,-167.103,0\H,5,2.45842,3,129.292,1,-15.7397,0\C,153,1.09399,5,109.43,3,147.338,0\H,154,1.09278,153,104.315,5,-168.529,0\H,154,1.09281,153,104.199,5,67.6686,0\S,154,1.80683,153,111.577,5,-46.2043,0\O,157,1.4977,154,101.009,153,-176.203,0\C,157,1.8061,154,98.447,153,-75.9446,0\H,159,1.09294,157,104.108,154,-56.175,0\H,159,1.09315,157,109.607,154,-177.832,0\H,159,1.09316,157,110.506,154,62.9597,0\H,162,2.23273,159,141.109,157,-153.807,0\C,163,1.09299,162,128.51,159,97.744,0\H,164,1.0929,163,109.34,162,31.6885,0\H,164,1.09348,163,105.765,162,151.3,0\S,164,1.80678,163,112.338,162,-90.6086,0\O,167,1.49772,164,102.899,163,-32.5941,0\C,167,1.80687,164,100.557,163,69.8657,0\H,169,1.09275,167,104.524,164,157.045,0\H,169,1.09276,167,111.837,164,-95.6184,0\H,169,1.09315,167,111.5,164,23.5064,0\O,153,2.41312,5,123.091,3,-39.0938,0\S,173,1.49739,153,156.744,5,-85.7568,0\C,174,1.80669,173,107.836,153,-57.1524,0\H,175,1.0929,174,111.008,173,-145.281,0\H,175,1.09294,174,114.818,173,88.4502,0\H,175,1.09303,174,101.963,173,-37.2243,0\C,174,1.80679,173,104.069,153,-153.348,0\H,179,1.09216,174,106.973,173,174.753,0\H,179,1.09294,174,112.533,173,-65.7434,0\H,179,1.0939,174,101.635,173,48.6549,0\H,177,2.03534,175,139.352,174,-41.1853,0\C,183,1.09261,177,120.507,175,20.6127,0\H,184,1.09276,183,109.484,177,-72.9623,0\H,184,1.09397,183,106.775,177,45.7785,0\S,184,1.80634,183,102.383,177,169.316,0\O,187,1.4975,184,109.947,183,-62.4813,0\C,187,1.80734,184,96.1463,183,42.0959,0\H,189,1.09245,187,117.42,184,160.376,0\H,189,1.09263,187,105.949,184,-65.9325,0\H,189,1.09281,187,99.0598,184,40.807,0\H,45,2.47576,44,99.9799,42,112.734,0\C,193,1.09319,45,157.363,44,-173.632,0\H,194,1.09332,193,102.492,45,148.084,0\H,194,1.09339,193,119.894,45,-91.1673,0\S,194,1.80614,193,104.19,45,32.7781,0\O,197,1.49713,194,102.483,193,-178.591,0\C,197,1.80725,194,101.94,193,68.7013,0\H,199,1.09262,197,112.401,194,-89.9303,0\H,199,1.09279,197,102.934,194,22.3702,0\H,199,1.09332,197,110.508,194,146.703,0\H,201,2.45719,199,136.744,197,144.273,0\C,203,1.09279,201,104.271,199,-77.4233,0\H,204,1.09258,203,111.637,201,-29.5453,0\H,204,1.09347,203,111.2,201,103.344,0\S,204,1.80699,203,100.804,201,-139.674,0\O,207,1.49683,204,101.258,203,-176.504,0\C,207,1.80709,204,92.1643,203,-70.3197,0\H,209,1.09301,207,105.501,204,-78.0271,0\H,209,1.09329,207,119.445,204,59.7561,0\H,209,1.09343,207,96.9623,204,177.185,0\H,196,2.52046,194,136.212,193,179.752,0\C,213,1.09253,196,123.256,194,-106.213,0\H,214,1.09267,213,104.213,196,39.574,0\H,214,1.09307,213,112.378,196,166.831,0\S,214,1.80711,213,110.308,196,-67.8438,0\O,217,1.49745,214,108.245,213,10.3467,0\C,217,1.80596,214,92.9897,213,-94.3565,0\H,219,1.09263,217,105.504,214,68.0544,0\H,219,1.09296,217,110.246,214,-45.7262,0\H,219,1.09366,217,113.576,214,-163.695,0\H,220,2.27988,219,119.234,217,122.839,0\C,223,1.0929,220,134.049,219,-0.218439,0\H,224,1.09301,223,115.719,220,4.49951,0\H,224,1.09336,223,106.755,220,127.212,0\S,224,1.80753,223,109.31,220,-116.812,0\O,227,1.49735,224,100.996,223,178.879,0\C,227,1.80748,224,100.055,223,77.0729,0\H,229,1.09276,227,112.968,224,71.9238,0\H,229,1.093,227,105.158,224,-174.896,0\H,229,1.09327,227,115.317,224,-52.9214,0\H,151,2.52925,149,136.038,144,22.2298,0\C,233,1.0924,151,104.169,149,176.589,0\H,234,1.09311,233,108.597,151,124.905,0\H,234,1.09338,233,113.551,151,6.91318,0\S,234,1.80761,233,104.948,151,-111.765,0\O,237,1.49697,234,100.886,233,166.423,0\C,237,1.80735,234,95.8889,233,62.5669,0\H,239,1.09264,237,111.663,234,166.154,0\H,239,1.09303,237,107.172,234,36.119,0\H,239,1.09321,237,109.518,234,-80.4476,0\H,240,1.9235,239,131.406,237,-64.8409,0\C,243,1.09285,240,121.139,239,154.315,0\H,244,1.09296,243,110.285,240,-39.3243,0\H,244,1.09312,243,106.82,240,-157.16,0\S,244,1.80709,243,111.64,240,83.4977,0\O,247,1.49727,244,96.2987,243,-68.3051,0\C,247,1.80793,244,97.9116,243,41.3612,0\H,249,1.09249,247,104.348,244,-76.6297,0\H,249,1.09286,247,110.725,244,44.3189,0\H,249,1.09311,247,112.841,244,168.267,0\H,236,2.62801,234,132.947,233,-130.179,0\C,253,1.09275,236,166.484,234,129.138,0\H,254,1.09286,253,108.472,236,84.4524,0\H,254,1.09319,253,108.219,236,-27.4322,0\S,254,1.80775,253,111.692,236,-155.714,0\O,257,1.49708,254,109.21,253,-167.864,0\C,257,1.80689,254,94.9217,253,-55.0898,0\H,259,1.09269,257,112.436,254,91.1775,0\H,259,1.09293,257,106.584,254,-156.971,0\H,259,1.09314,257,111.733,254,-35.1396,0\H,255,2.35084,254,130.919,253,-61.4491,0\C,263,1.09351,255,151.659,254,-56.7718,0\H,264,1.09243,263,118.576,255,-166.161,0\H,264,1.09335,263,104.222,255,-46.8154,0\S,264,1.80763,263,106.508,255,70.9517,0\O,267,1.49716,264,107.328,263,-58.4778,0\C,267,1.80621,264,98.8546,263,-168.285,0\H,269,1.09269,267,101.516,264,52.7412,0\H,269,1.09342,267,116.352,264,-66.5393,0\H,269,1.09368,267,110.325,264,172.483,0\O,270,2.52098,269,164.696,267,25.6366,0\S,273,1.49738,270,143.537,269,69.3331,0\C,274,1.80663,273,98.3734,270,-79.1903,0\H,275,1.09263,274,111.183,273,49.6542,0\H,275,1.09319,274,108.323,273,-76.4048,0\H,275,1.09338,274,108.573,273,173.666,0\C,274,1.80687,273,108.824,270,174.56,0\H,279,1.09314,274,106.884,273,67.6086,0\H,279,1.09317,274,105.033,273,-54.3282,0\H,279,1.09324,274,104.787,273,-168.747,0\O,278,2.49661,275,138.405,274,56.5171,0\S,283,1.49775,278,162.855,275,82.3115,0\C,284,1.80634,283,104.861,278,-102.657,0\H,285,1.093,284,113.234,283,-49.5173,0\H,285,1.09302,284,109.163,283,68.0531,0\H,285,1.09375,284,112.506,283,-164.783,0\C,284,1.80657,283,101.599,278,154.17,0\H,289,1.09308,284,100.024,283,-32.9983,0\H,289,1.09327,284,106.547,283,83.4421,0\H,289,1.09359,284,109.228,283,-154.807,0\H,290,2.19516,289,175.815,284,-19.9876,0\C,293,1.09285,290,105.594,289,147.007,0\H,294,1.09278,293,112.91,290,-163.057,0\H,294,1.09338,293,108.289,290,-36.7095,0\S,294,1.80732,293,107.505,290,76.751,0\O,297,1.49686,294,99.9968,293,-16.3619,0\C,297,1.80721,294,99.7875,293,84.2456,0\H,299,1.09284,297,108.746,294,76.2191,0\H,299,1.09312,297,107.919,294,-45.8269,0\H,299,1.0934,297,102.673,294,-163.534,0\\\@

 Total job time:  46.79s(wall), 162.51s(cpu) 
 Fri Dec  3 11:52:43 2021

        *************************************************************
        *                                                           *
        *  Thank you very much for using Q-Chem.  Have a nice day.  *
        *                                                           *
        *************************************************************


