                  Welcome to Q-Chem
     A Quantum Leap Into The Future Of Chemistry


 Q-Chem 6.0 (devel), Q-Chem, Inc., Pleasanton, CA (2022)

 E. Epifanovsky,  A. T. B. Gilbert,  Xintian Feng,  Joonho Lee,  Yuezhi Mao,  
 N. Mardirossian,  P. Pokhilko,  A. White,  M. Wormit,  M. P. Coons,  
 A. L. Dempwolff,  Zhengting Gan,  D. Hait,  P. R. Horn,  L. D. Jacobson,  
 I. Kaliman,  J. Kussmann,  A. W. Lange,  Ka Un Lao,  D. S. Levine,  Jie Liu,  
 S. C. McKenzie,  A. F. Morrison,  K. Nanda,  F. Plasser,  D. R. Rehn,  
 M. L. Vidal,  Zhi-Qiang You,  Ying Zhu,  B. Alam,  B. Albrecht,  
 A. Aldossary,  E. Alguire,  J. H. Andersen,  V. Athavale,  D. Barton,  
 K. Begam,  A. Behn,  N. Bellonzi,  Y. A. Bernard,  E. J. Berquist,  
 H. Burton,  A. Carreras,  K. Carter-Fenk,  Romit Chakraborty,  
 Chandrima Chakravarty,  Junhan Chen,  A. D. Chien,  K. D. Closser,  
 V. Cofer-Shabica,  L. Cunha,  S. Dasgupta,  Jia Deng,  M. de Wergifosse,  
 M. Diedenhofen,  Hainam Do,  S. Ehlert,  Po-Tung Fang,  S. Fatehi,  
 Qingguo Feng,  T. Friedhoff,  B. Ganoe,  J. Gayvert,  Qinghui Ge,  
 G. Gidofalvi,  M. Goldey,  J. Gomes,  C. Gonzalez-Espinoza,  S. Gulania,  
 A. Gunina,  J. A. Gyamfi,  M. W. D. Hanson-Heine,  P. H. P. Harbach,  
 A. W. Hauser,  M. F. Herbst,  M. Hernandez Vera,  M. Hodecker,  
 Z. C. Holden,  S. Houck,  Xunkun Huang,  Kerwin Hui,  B. C. Huynh,  
 K. Ikeda,  M. Ivanov,  Hyunjun Ji,  Zuxin Jin,  Hanjie Jiang,  B. Kaduk,  
 S. Kaehler,  R. Kang,  K. Khistyaev,  Jaehoon Kim,  Yongbin Kim,  
 P. Klunzinger,  Z. Koczor-Benda,  Joong Hoon Koh,  D. Kosenkov,  
 Saikiran Kotaru,  L. Koulias,  T. Kowalczyk,  C. M. Krauter,  K. Kue,  
 A. Kunitsa,  T. Kus,  A. Landau,  K. V. Lawler,  D. Lefrancois,  S. Lehtola,  
 Rain Li,  Shaozhi Li,  Yi-Pei Li,  Jiashu Liang,  M. Liebenthal,  
 Hung-Hsuan Lin,  You-Sheng Lin,  Fenglai Liu,  Kuan-Yu Liu,  
 M. Loipersberger,  A. Luenser,  C. Malbon,  A. Manjanath,  P. Manohar,  
 E. Mansoor,  S. F. Manzer,  Shan-Ping Mao,  A. V. Marenich,  T. Markovich,  
 S. Mason,  F. Matz,  S. A. Maurer,  P. F. McLaughlin,  M. F. S. J. Menger,  
 J.-M. Mewes,  S. A. Mewes,  P. Morgante,  Mohammad Mostafanejad,  
 J. W. Mullinax,  K. J. Oosterbaan,  G. Paran,  V. Parravicini,  
 Alexander C. Paul,  Suranjan K. Paul,  F. Pavosevic,  Zheng Pei,  S. Prager,  
 E. I. Proynov,  E. Ramos,  B. Rana,  A. E. Rask,  A. Rettig,  R. M. Richard,  
 F. Rob,  E. Rossomme,  T. Scheele,  M. Scheurer,  M. Schneider,  
 P. E. Schneider,  N. Sergueev,  S. M. Sharada,  Hengyuan Shen,  
 W. Skomorowski,  D. W. Small,  C. J. Stein,  Yingli Su,  Yu-Chuan Su,  
 E. J. Sundstrom,  Zhen Tao,  J. Thirman,  Hung-Yi Tsai,  T. Tsuchimochi,  
 N. M. Tubman,  C. Utku,  S. P. Veccham,  O. Vydrov,  J. Wenzel,  
 Jonathan Wong,  J. Witte,  A. Yamada,  Chou-Hsun Yang,  Kun Yao,  
 S. Yeganeh,  S. R. Yost,  A. Zech,  F. Zeller,  Igor Ying Zhang,  
 Xing Zhang,  Yu Zhang,  D. Zuev,  A. Aspuru-Guzik,  A. T. Bell,  
 N. A. Besley,  K. B. Bravaya,  B. R. Brooks,  D. Casanova,  Jeng-Da Chai,  
 Hsing-Ta Chen,  S. Coriani,  C. J. Cramer,  A. E. DePrince, III,  
 R. A. DiStasio Jr.,  A. Dreuw,  B. D. Dunietz,  T. R. Furlani,  
 W. A. Goddard III,  S. Grimme,  S. Hammes-Schiffer,  T. Head-Gordon,  
 W. J. Hehre,  Chao-Ping Hsu,  T.-C. Jagau,  Yousung Jung,  A. Klamt,  
 Jing Kong,  D. S. Lambrecht,  Xiangyuan Li,  WanZhen Liang,  N. J. Mayhall,  
 C. W. McCurdy,  J. B. Neaton,  T. Neudecker,  C. Ochsenfeld,  
 J. A. Parkhill,  R. Peverati,  V. A. Rassolov,  Haisheng Ren,  Yihan Shao,  
 L. V. Slipchenko,  R. P. Steele,  J. E. Subotnik,  A. J. W. Thom,  
 A. Tkatchenko,  D. G. Truhlar,  T. Van Voorhis,  Fan Wang,  
 T. A. Wesolowski,  K. B. Whaley,  H. L. Woodcock III,  P. M. Zimmerman,  
 S. Faraji,  P. M. W. Gill,  M. Head-Gordon,  J. M. Herbert,  A. I. Krylov

 Contributors to earlier versions of Q-Chem not listed above: 
 R. D. Adamson,  B. Austin,  R. Baer,  J. Baker,  G. J. O. Beran,  
 K. Brandhorst,  S. T. Brown,  E. F. C. Byrd,  Arup K. Chakraborty,  
 G. K. L. Chan,  Chun-Min Chang,  Yunqing Chen,  C.-L. Cheng,  
 Siu Hung Chien,  D. M. Chipman,  D. L. Crittenden,  H. Dachsel,  
 R. J. Doerksen,  A. D. Dutoi,  R. G. Edgar,  J. Fosso-Tande,  
 L. Fusti-Molnar,  D. Ghosh,  A. Ghysels,  A. Golubeva-Zadorozhnaya,  
 J. Gonthier,  M. S. Gordon,  S. R. Gwaltney,  G. Hawkins,  J. E. Herr,  
 A. Heyden,  S. Hirata,  E. G. Hohenstein,  G. Kedziora,  F. J. Keil,  
 C. Kelley,  Jihan Kim,  R. A. King,  R. Z. Khaliullin,  P. P. Korambath,  
 W. Kurlancheek,  A. Laurent,  A. M. Lee,  M. S. Lee,  S. V. Levchenko,  
 Ching Yeh Lin,  D. Liotard,  E. Livshits,  R. C. Lochan,  I. Lotan,  
 L. A. Martinez-Martinez,  P. E. Maslen,  N. Nair,  D. P. O'Neill,  
 D. Neuhauser,  E. Neuscamman,  C. M. Oana,  R. Olivares-Amaya,  R. Olson,  
 T. M. Perrine,  B. Peters,  P. A. Pieniazek,  A. Prociuk,  Y. M. Rhee,  
 J. Ritchie,  M. A. Rohrdanz,  E. Rosta,  N. J. Russ,  H. F. Schaefer III,  
 M. W. Schmidt,  N. E. Schultz,  S. Sharma,  N. Shenvi,  C. D. Sherrill,  
 A. C. Simmonett,  A. Sodt,  T. Stein,  D. Stuck,  K. S. Thanthiriwatte,  
 V. Vanovschi,  L. Vogt,  Tao Wang,  A. Warshel,  M. A. Watson,  
 C. F. Williams,  Q. Wu,  X. Xu,  Jun Yang,  W. Zhang,  Yan Zhao

   Please cite Q-Chem as follows:
  "Software for the frontiers of quantum chemistry:
   An overview of developments in the Q-Chem 5 package"
   J. Chem. Phys. 155, 084801 (2021)
   https://doi.org/10.1063/5.0055522 (open access)

 Q-Chem 6.0.0 for Intel X86 EM64T Linux

 Parts of Q-Chem use Armadillo 9.900.5 (Nocturnal Misbehaviour).
 http://arma.sourceforge.net/

 Q-Chem begins on Thu Jul 21 03:14:54 2022  

 Host: nid00542
0

     Scratch files written to /global/cscratch1/sd/ymao90/r7.00_frame_0080_spade_B3LYP_dp20220721031334//
 Processing $rem in /global/homes/y/ymao90/my_qchem/qchem_embedding_5p4/config/preferences:
 Processing $rem in /global/homes/y/ymao90/.qchemrc:
 No nuclear gradient supported for projection-based embedding or EMFT. Set max ideriv = 0.

 Checking the input file for inconsistencies... 	...done.

--------------------------------------------------------------
User input:
--------------------------------------------------------------
$molecule
0 1
--
0 1
C    30.45800   28.83500   28.16900  
C    29.28200   28.47000   29.09100  
C    28.64200   27.15800   28.60900  
C    29.65300   26.00000   28.63300  
C    30.84300   26.29800   27.70700  
C    31.45700   27.68600   27.95600  
H    27.85500   26.90100   29.32900  
H    29.53900   28.25500   30.13500  
H    30.06300   29.07300   27.17400  
H    30.92600   29.76500   28.51200  
H    29.95400   25.97600   29.68800  
H    29.22100   25.03700   28.33300  
H    31.63700   25.55200   27.83500  
H    30.59200   26.22100   26.64200  
H    32.11900   27.56100   28.82100  
H    32.18400   27.93100   27.17200  
H    28.18300   27.11300   27.61400  
N    28.24500   29.49800   29.01600  
H    27.75600   29.66600   28.14400  
C    27.99000   30.49800   29.93000  
H    27.18900   31.16500   29.56500  
O    28.71400   30.56100   30.90800  
--
0 1
C    35.85200   33.09800   29.51500  
H    34.95500   32.47700   29.56900  
H    35.89500   33.57200   30.49900  
H    35.74400   33.84200   28.72100  
S    37.36800   32.13600   29.31200  
C    37.41900   31.22400   30.87100  
H    37.19600   31.85900   31.73200  
H    36.73000   30.37500   30.84600  
H    38.43900   30.87000   31.03900  
O    38.47600   33.14300   29.26300  
C    23.89000   32.09100   22.32300  
H    23.89800   32.75300   21.45400  
H    23.58600   31.11000   21.94900  
H    23.26300   32.51600   23.11100  
S    25.63000   32.13500   22.81000  
C    25.61700   33.86800   23.32000  
H    25.07100   33.92200   24.26500  
H    26.62900   34.27100   23.41900  
H    25.12700   34.50600   22.58000  
O    26.41300   32.03500   21.53800  
C    31.63900   31.51300   26.05900  
H    30.70900   32.08700   26.05000  
H    32.12900   31.53800   25.08200  
H    31.51400   30.45400   26.29700  
S    32.89600   32.13500   27.19900  
C    34.13500   30.94600   26.63500  
H    33.72800   29.93200   26.63600  
H    34.45600   31.13900   25.60900  
H    34.90500   31.03900   27.40600  
O    32.31800   31.72100   28.51600  
C    24.83100   27.37100   33.32300  
H    24.56900   26.76700   32.45100  
H    25.40600   26.70200   33.96800  
H    23.98700   27.84800   33.82900  
S    25.99100   28.66100   32.81900  
C    27.32300   27.49900   32.44500  
H    28.08500   27.95300   31.80700  
H    27.77700   27.17400   33.38400  
H    26.93500   26.61100   31.93800  
O    26.65500   29.29900   33.99900  
C    29.90000   31.60000   22.02100  
H    30.72300   31.29900   22.67400  
H    28.94200   31.13500   22.27100  
H    30.36700   31.32900   21.07100  
S    29.81600   33.40000   22.14900  
C    31.50200   33.95900   21.81300  
H    31.54700   33.89300   20.72300  
H    31.54500   34.99100   22.17000  
H    32.25000   33.32300   22.29300  
O    29.74100   33.59700   23.63100  
C    30.52900   28.20000   21.68500  
H    30.44500   27.33600   21.02100  
H    30.72100   29.14000   21.16100  
H    31.40500   28.11800   22.33400  
S    29.00100   28.13200   22.64700  
C    29.73800   28.76200   24.17200  
H    29.81600   29.85100   24.10700  
H    28.98300   28.61900   24.94800  
H    30.62700   28.18400   24.43800  
O    28.77400   26.65600   22.75600  
C    34.92700   24.35000   32.21000  
H    35.47100   25.29300   32.30600  
H    34.47600   24.05300   33.16000  
H    35.62000   23.57400   31.87500  
S    33.75800   24.62400   30.86000  
C    32.80400   23.12800   31.19900  
H    31.92500   23.20900   30.55500  
H    33.36100   22.27500   30.80200  
H    32.46500   22.93300   32.22000  
O    34.53900   24.23100   29.64500  
C    28.30400   34.21500   31.01900  
H    27.68800   35.07500   30.74000  
H    27.74600   33.30600   30.78000  
H    28.47700   34.13000   32.09400  
S    29.86600   34.42100   30.13500  
C    30.77000   33.11800   31.00100  
H    30.53000   33.19100   32.06500  
H    30.64500   32.14700   30.51500  
H    31.84900   33.29000   31.03700  
O    30.29500   35.69700   30.79000  
C    34.03000   35.37800   32.17500  
H    34.73100   34.80000   31.56600  
H    33.25200   35.87200   31.58800  
H    34.60500   36.14900   32.69500  
S    33.35700   34.24500   33.41200  
C    32.35900   35.47600   34.27900  
H    31.88300   34.98700   35.13300  
H    32.95000   36.28500   34.71500  
H    31.59900   35.90700   33.62200  
O    34.52600   34.05400   34.32800  
C    29.46600   24.26000   31.59000  
H    30.48400   24.44300   31.94200  
H    29.44300   23.86900   30.57000  
H    28.75300   25.08800   31.63000  
S    28.87500   22.85600   32.56200  
C    29.03300   23.63800   34.18300  
H    30.11300   23.72100   34.32600  
H    28.66400   24.66200   34.28300  
H    28.49900   23.14800   35.00100  
O    29.98600   21.85200   32.59700  
C    25.26300   24.84500   27.91300  
H    24.51500   24.74500   27.12300  
H    25.59000   25.88600   27.97300  
H    26.14900   24.22900   27.73400  
S    24.58300   24.35000   29.51200  
C    23.37700   25.69600   29.54600  
H    22.94700   25.68800   30.55000  
H    23.83400   26.62900   29.20400  
H    22.64500   25.38500   28.79700  
O    25.66100   24.59900   30.52100  
C    38.80400   27.70000   26.29200  
H    38.24500   26.99900   25.66600  
H    39.86500   27.45400   26.19600  
H    38.53100   27.52000   27.33400  
S    38.32100   29.37300   25.80900  
C    39.87900   30.19000   26.22200  
H    39.96900   31.26200   26.02900  
H    40.21800   30.11600   27.25800  
H    40.65400   29.81500   25.54800  
O    37.25500   29.87700   26.73200  
C    28.03800   22.87900   25.37900  
H    28.51300   22.05500   25.91700  
H    28.14000   23.75700   26.02300  
H    26.98100   22.68000   25.18600  
S    28.87600   23.10500   23.79400  
C    28.23700   21.58900   23.04600  
H    27.16900   21.72200   22.85300  
H    28.86000   21.31800   22.19000  
H    28.52100   20.75400   23.69200  
O    30.30900   22.82900   24.13000  
C    31.48000   22.70300   27.24500  
H    32.56500   22.64700   27.13000  
H    30.93500   22.78000   26.30100  
H    31.25000   23.65000   27.74100  
S    30.89700   21.37200   28.32000  
C    30.94600   20.04100   27.09900  
H    30.26100   19.24900   27.41200  
H    30.71400   20.46800   26.12000  
H    31.95700   19.63300   27.17400  
O    29.47100   21.74100   28.58700  
C    22.05300   36.10800   27.83200  
H    21.39200   35.39400   28.32900  
H    22.49300   36.93800   28.39200  
H    21.42500   36.54100   27.04900  
S    23.34500   35.25000   26.90600  
C    24.60400   35.19400   28.20100  
H    24.19400   34.68900   29.08000  
H    25.48500   34.65900   27.83600  
H    24.81600   36.22200   28.50400  
O    23.83600   36.16400   25.82700  
C    32.92700   27.28000   32.81200  
H    32.80800   27.89600   33.70700  
H    33.02000   26.22600   33.08800  
H    33.71300   27.57000   32.11100  
S    31.46400   27.58700   31.79800  
C    31.67400   29.37900   31.69800  
H    31.55800   29.63700   30.64300  
H    30.76100   29.80100   32.12700  
H    32.58900   29.64000   32.23700  
O    30.36000   27.26400   32.75600  
C    35.34600   27.92900   24.33800  
H    36.00100   28.61800   24.87800  
H    34.64400   27.40100   24.98900  
H    36.03200   27.29000   23.77600  
S    34.22000   28.75200   23.18800  
C    35.44800   29.95900   22.64100  
H    35.67400   30.56500   23.52200  
H    36.30100   29.41600   22.22600  
H    34.99400   30.64000   21.91700  
O    33.33500   29.40200   24.20500  
C    24.11500   29.08200   25.55100  
H    23.88600   28.88300   24.50100  
H    23.48800   28.58400   26.29500  
H    24.13800   30.14700   25.79700  
S    25.82900   28.60100   25.86200  
C    25.78200   26.91200   25.22100  
H    25.55700   26.88200   24.15200  
H    26.80900   26.59400   25.41900  
H    25.01200   26.30400   25.70200  
O    25.91000   28.47400   27.35100  
C    29.69200   28.01100   36.46000  
H    29.45900   28.14500   35.40000  
H    29.00800   27.27800   36.89600  
H    29.76400   28.97700   36.96600  
S    31.40200   27.42900   36.43600  
C    30.90500   25.79600   35.84400  
H    30.62900   25.89700   34.79100  
H    31.69700   25.06100   36.00900  
H    30.07200   25.39000   36.42400  
O    31.73500   27.26600   37.88600  
C    34.42700   18.13400   29.49400  
H    34.57500   18.07800   28.41300  
H    35.35400   17.77700   29.94800  
H    33.50300   17.61900   29.77000  
S    34.14900   19.88400   29.84900  
C    35.68500   20.39700   29.04800  
H    35.87200   21.47400   29.05700  
H    36.44600   19.82700   29.58700  
H    35.60300   19.97400   28.04300  
O    34.44800   20.05600   31.30600  
C    32.49700   25.51400   23.57200  
H    33.37300   25.81700   24.15000  
H    31.84400   26.38100   23.44500  
H    32.05700   24.58300   23.94000  
S    33.09700   25.20900   21.89500  
C    34.10600   23.79000   22.37800  
H    34.63600   23.36100   21.52300  
H    34.91100   24.08400   23.05600  
H    33.45500   22.99600   22.75200  
O    33.94100   26.38500   21.51400  
C    25.51300   32.56200   32.24200  
H    25.42300   33.16200   31.33400  
H    26.31700   33.00200   32.83800  
H    25.65000   31.49800   32.03200  
S    24.01300   32.85000   33.20700  
C    24.58400   31.90500   34.63700  
H    24.16700   32.32500   35.55600  
H    24.17100   30.89800   34.54200  
H    25.67600   31.93400   34.59200  
O    23.04700   31.98600   32.45700  
C    37.99200   22.88000   26.27300  
H    39.03100   23.18500   26.41800  
H    37.74800   22.41100   27.22900  
H    37.76100   22.33900   25.35100  
S    37.02300   24.39200   26.07400  
C    35.42800   23.57600   26.31400  
H    35.37700   22.70400   25.65600  
H    35.37300   23.33900   27.37900  
H    34.72000   24.33300   25.96900  
O    37.04700   24.68900   24.60700  
C    32.31800   36.19000   27.71000  
H    31.81500   36.24900   28.67800  
H    32.85500   35.24000   27.64700  
H    32.98600   37.02900   27.49900  
S    31.06700   35.87300   26.44500  
C    32.17300   35.94800   25.01800  
H    31.52900   36.00400   24.13600  
H    32.94400   36.72100   25.07100  
H    32.74500   35.01700   25.02600  
O    30.36200   37.19000   26.34300  
C    24.26200   31.66400   28.30400  
H    23.86700   32.23300   27.45900  
H    24.78500   32.36500   28.96000  
H    24.96000   30.90400   27.94400  
S    23.06600   30.87500   29.40500  
C    24.24700   29.58800   29.86700  
H    24.33300   28.91100   29.01300  
H    25.20500   30.06700   30.08600  
H    23.82300   29.06200   30.72600  
O    22.03300   30.14900   28.60100  
C    27.60400   34.57100   26.39300  
H    28.30400   34.65100   25.55800  
H    26.57000   34.54200   26.04100  
H    27.73700   35.42200   27.06700  
S    28.04900   33.03800   27.23900  
C    27.73800   31.83300   25.92900  
H    28.18700   30.87500   26.20100  
H    26.66400   31.65500   25.82800  
H    28.22800   32.25500   25.04800  
O    26.93000   32.76400   28.19500  
C    27.26800   19.41400   25.80000  
H    26.61400   20.23400   26.10800  
H    28.35000   19.55400   25.86200  
H    27.27200   19.09300   24.75500  
S    26.97900   18.07000   26.97200  
C    27.00500   19.15100   28.42000  
H    26.16700   19.83800   28.27900  
H    26.92100   18.42900   29.23700  
H    27.89800   19.74700   28.62300  
O    28.35600   17.48600   26.90800  
C    31.42500   31.88300   34.55900  
H    31.51300   30.82500   34.30000  
H    31.47100   32.47600   33.64200  
H    32.19800   32.14100   35.28700  
S    29.76600   32.09200   35.24400  
C    29.11200   31.19900   33.81500  
H    28.03400   31.32000   33.68600  
H    29.47600   31.59900   32.86500  
H    29.34200   30.13700   33.92900  
O    29.44400   33.52600   34.96000  
C    34.96100   27.42800   28.65500  
H    34.45700   28.37600   28.45000  
H    35.23700   26.85900   27.76400  
H    34.50200   26.70000   29.32900  
S    36.48000   27.91900   29.50300  
C    37.14600   26.27400   29.84500  
H    36.30500   25.70000   30.24200  
H    37.52400   25.84100   28.91500  
H    37.85000   26.47500   30.65600  
O    35.88300   28.24900   30.83500  
$end

$rem
JOBTYPE  SP
METHOD  B3LYP
BASIS  6-31+G(D)
SYMMETRY  FALSE
SYM_IGNORE  TRUE
MEM_TOTAL  12000
MEM_STATIC  4000
BASIS_LIN_DEP_THRESH  6
THRESH  14
SCF_CONVERGENCE  8
FD_MAT_VEC_PROD  FALSE
XC_GRID  000075000302
NL_GRID  1
MAX_SCF_CYCLES  200
ENV_METHOD  B3LYP
GEN_SCFMAN_EMBED  TRUE
SPADE_PARTITION  TRUE
EMBEDDING_EARLY_STOP  TRUE
$end

--------------------------------------------------------------
 ----------------------------------------------------------------
             Standard Nuclear Orientation (Angstroms)
    I     Atom           X                Y                Z
 ----------------------------------------------------------------
    1      C      30.4580000000    28.8350000000    28.1690000000
    2      C      29.2820000000    28.4700000000    29.0910000000
    3      C      28.6420000000    27.1580000000    28.6090000000
    4      C      29.6530000000    26.0000000000    28.6330000000
    5      C      30.8430000000    26.2980000000    27.7070000000
    6      C      31.4570000000    27.6860000000    27.9560000000
    7      H      27.8550000000    26.9010000000    29.3290000000
    8      H      29.5390000000    28.2550000000    30.1350000000
    9      H      30.0630000000    29.0730000000    27.1740000000
   10      H      30.9260000000    29.7650000000    28.5120000000
   11      H      29.9540000000    25.9760000000    29.6880000000
   12      H      29.2210000000    25.0370000000    28.3330000000
   13      H      31.6370000000    25.5520000000    27.8350000000
   14      H      30.5920000000    26.2210000000    26.6420000000
   15      H      32.1190000000    27.5610000000    28.8210000000
   16      H      32.1840000000    27.9310000000    27.1720000000
   17      H      28.1830000000    27.1130000000    27.6140000000
   18      N      28.2450000000    29.4980000000    29.0160000000
   19      H      27.7560000000    29.6660000000    28.1440000000
   20      C      27.9900000000    30.4980000000    29.9300000000
   21      H      27.1890000000    31.1650000000    29.5650000000
   22      O      28.7140000000    30.5610000000    30.9080000000
   23      C      35.8520000000    33.0980000000    29.5150000000
   24      H      34.9550000000    32.4770000000    29.5690000000
   25      H      35.8950000000    33.5720000000    30.4990000000
   26      H      35.7440000000    33.8420000000    28.7210000000
   27      S      37.3680000000    32.1360000000    29.3120000000
   28      C      37.4190000000    31.2240000000    30.8710000000
   29      H      37.1960000000    31.8590000000    31.7320000000
   30      H      36.7300000000    30.3750000000    30.8460000000
   31      H      38.4390000000    30.8700000000    31.0390000000
   32      O      38.4760000000    33.1430000000    29.2630000000
   33      C      23.8900000000    32.0910000000    22.3230000000
   34      H      23.8980000000    32.7530000000    21.4540000000
   35      H      23.5860000000    31.1100000000    21.9490000000
   36      H      23.2630000000    32.5160000000    23.1110000000
   37      S      25.6300000000    32.1350000000    22.8100000000
   38      C      25.6170000000    33.8680000000    23.3200000000
   39      H      25.0710000000    33.9220000000    24.2650000000
   40      H      26.6290000000    34.2710000000    23.4190000000
   41      H      25.1270000000    34.5060000000    22.5800000000
   42      O      26.4130000000    32.0350000000    21.5380000000
   43      C      31.6390000000    31.5130000000    26.0590000000
   44      H      30.7090000000    32.0870000000    26.0500000000
   45      H      32.1290000000    31.5380000000    25.0820000000
   46      H      31.5140000000    30.4540000000    26.2970000000
   47      S      32.8960000000    32.1350000000    27.1990000000
   48      C      34.1350000000    30.9460000000    26.6350000000
   49      H      33.7280000000    29.9320000000    26.6360000000
   50      H      34.4560000000    31.1390000000    25.6090000000
   51      H      34.9050000000    31.0390000000    27.4060000000
   52      O      32.3180000000    31.7210000000    28.5160000000
   53      C      24.8310000000    27.3710000000    33.3230000000
   54      H      24.5690000000    26.7670000000    32.4510000000
   55      H      25.4060000000    26.7020000000    33.9680000000
   56      H      23.9870000000    27.8480000000    33.8290000000
   57      S      25.9910000000    28.6610000000    32.8190000000
   58      C      27.3230000000    27.4990000000    32.4450000000
   59      H      28.0850000000    27.9530000000    31.8070000000
   60      H      27.7770000000    27.1740000000    33.3840000000
   61      H      26.9350000000    26.6110000000    31.9380000000
   62      O      26.6550000000    29.2990000000    33.9990000000
   63      C      29.9000000000    31.6000000000    22.0210000000
   64      H      30.7230000000    31.2990000000    22.6740000000
   65      H      28.9420000000    31.1350000000    22.2710000000
   66      H      30.3670000000    31.3290000000    21.0710000000
   67      S      29.8160000000    33.4000000000    22.1490000000
   68      C      31.5020000000    33.9590000000    21.8130000000
   69      H      31.5470000000    33.8930000000    20.7230000000
   70      H      31.5450000000    34.9910000000    22.1700000000
   71      H      32.2500000000    33.3230000000    22.2930000000
   72      O      29.7410000000    33.5970000000    23.6310000000
   73      C      30.5290000000    28.2000000000    21.6850000000
   74      H      30.4450000000    27.3360000000    21.0210000000
   75      H      30.7210000000    29.1400000000    21.1610000000
   76      H      31.4050000000    28.1180000000    22.3340000000
   77      S      29.0010000000    28.1320000000    22.6470000000
   78      C      29.7380000000    28.7620000000    24.1720000000
   79      H      29.8160000000    29.8510000000    24.1070000000
   80      H      28.9830000000    28.6190000000    24.9480000000
   81      H      30.6270000000    28.1840000000    24.4380000000
   82      O      28.7740000000    26.6560000000    22.7560000000
   83      C      34.9270000000    24.3500000000    32.2100000000
   84      H      35.4710000000    25.2930000000    32.3060000000
   85      H      34.4760000000    24.0530000000    33.1600000000
   86      H      35.6200000000    23.5740000000    31.8750000000
   87      S      33.7580000000    24.6240000000    30.8600000000
   88      C      32.8040000000    23.1280000000    31.1990000000
   89      H      31.9250000000    23.2090000000    30.5550000000
   90      H      33.3610000000    22.2750000000    30.8020000000
   91      H      32.4650000000    22.9330000000    32.2200000000
   92      O      34.5390000000    24.2310000000    29.6450000000
   93      C      28.3040000000    34.2150000000    31.0190000000
   94      H      27.6880000000    35.0750000000    30.7400000000
   95      H      27.7460000000    33.3060000000    30.7800000000
   96      H      28.4770000000    34.1300000000    32.0940000000
   97      S      29.8660000000    34.4210000000    30.1350000000
   98      C      30.7700000000    33.1180000000    31.0010000000
   99      H      30.5300000000    33.1910000000    32.0650000000
  100      H      30.6450000000    32.1470000000    30.5150000000
  101      H      31.8490000000    33.2900000000    31.0370000000
  102      O      30.2950000000    35.6970000000    30.7900000000
  103      C      34.0300000000    35.3780000000    32.1750000000
  104      H      34.7310000000    34.8000000000    31.5660000000
  105      H      33.2520000000    35.8720000000    31.5880000000
  106      H      34.6050000000    36.1490000000    32.6950000000
  107      S      33.3570000000    34.2450000000    33.4120000000
  108      C      32.3590000000    35.4760000000    34.2790000000
  109      H      31.8830000000    34.9870000000    35.1330000000
  110      H      32.9500000000    36.2850000000    34.7150000000
  111      H      31.5990000000    35.9070000000    33.6220000000
  112      O      34.5260000000    34.0540000000    34.3280000000
  113      C      29.4660000000    24.2600000000    31.5900000000
  114      H      30.4840000000    24.4430000000    31.9420000000
  115      H      29.4430000000    23.8690000000    30.5700000000
  116      H      28.7530000000    25.0880000000    31.6300000000
  117      S      28.8750000000    22.8560000000    32.5620000000
  118      C      29.0330000000    23.6380000000    34.1830000000
  119      H      30.1130000000    23.7210000000    34.3260000000
  120      H      28.6640000000    24.6620000000    34.2830000000
  121      H      28.4990000000    23.1480000000    35.0010000000
  122      O      29.9860000000    21.8520000000    32.5970000000
  123      C      25.2630000000    24.8450000000    27.9130000000
  124      H      24.5150000000    24.7450000000    27.1230000000
  125      H      25.5900000000    25.8860000000    27.9730000000
  126      H      26.1490000000    24.2290000000    27.7340000000
  127      S      24.5830000000    24.3500000000    29.5120000000
  128      C      23.3770000000    25.6960000000    29.5460000000
  129      H      22.9470000000    25.6880000000    30.5500000000
  130      H      23.8340000000    26.6290000000    29.2040000000
  131      H      22.6450000000    25.3850000000    28.7970000000
  132      O      25.6610000000    24.5990000000    30.5210000000
  133      C      38.8040000000    27.7000000000    26.2920000000
  134      H      38.2450000000    26.9990000000    25.6660000000
  135      H      39.8650000000    27.4540000000    26.1960000000
  136      H      38.5310000000    27.5200000000    27.3340000000
  137      S      38.3210000000    29.3730000000    25.8090000000
  138      C      39.8790000000    30.1900000000    26.2220000000
  139      H      39.9690000000    31.2620000000    26.0290000000
  140      H      40.2180000000    30.1160000000    27.2580000000
  141      H      40.6540000000    29.8150000000    25.5480000000
  142      O      37.2550000000    29.8770000000    26.7320000000
  143      C      28.0380000000    22.8790000000    25.3790000000
  144      H      28.5130000000    22.0550000000    25.9170000000
  145      H      28.1400000000    23.7570000000    26.0230000000
  146      H      26.9810000000    22.6800000000    25.1860000000
  147      S      28.8760000000    23.1050000000    23.7940000000
  148      C      28.2370000000    21.5890000000    23.0460000000
  149      H      27.1690000000    21.7220000000    22.8530000000
  150      H      28.8600000000    21.3180000000    22.1900000000
  151      H      28.5210000000    20.7540000000    23.6920000000
  152      O      30.3090000000    22.8290000000    24.1300000000
  153      C      31.4800000000    22.7030000000    27.2450000000
  154      H      32.5650000000    22.6470000000    27.1300000000
  155      H      30.9350000000    22.7800000000    26.3010000000
  156      H      31.2500000000    23.6500000000    27.7410000000
  157      S      30.8970000000    21.3720000000    28.3200000000
  158      C      30.9460000000    20.0410000000    27.0990000000
  159      H      30.2610000000    19.2490000000    27.4120000000
  160      H      30.7140000000    20.4680000000    26.1200000000
  161      H      31.9570000000    19.6330000000    27.1740000000
  162      O      29.4710000000    21.7410000000    28.5870000000
  163      C      22.0530000000    36.1080000000    27.8320000000
  164      H      21.3920000000    35.3940000000    28.3290000000
  165      H      22.4930000000    36.9380000000    28.3920000000
  166      H      21.4250000000    36.5410000000    27.0490000000
  167      S      23.3450000000    35.2500000000    26.9060000000
  168      C      24.6040000000    35.1940000000    28.2010000000
  169      H      24.1940000000    34.6890000000    29.0800000000
  170      H      25.4850000000    34.6590000000    27.8360000000
  171      H      24.8160000000    36.2220000000    28.5040000000
  172      O      23.8360000000    36.1640000000    25.8270000000
  173      C      32.9270000000    27.2800000000    32.8120000000
  174      H      32.8080000000    27.8960000000    33.7070000000
  175      H      33.0200000000    26.2260000000    33.0880000000
  176      H      33.7130000000    27.5700000000    32.1110000000
  177      S      31.4640000000    27.5870000000    31.7980000000
  178      C      31.6740000000    29.3790000000    31.6980000000
  179      H      31.5580000000    29.6370000000    30.6430000000
  180      H      30.7610000000    29.8010000000    32.1270000000
  181      H      32.5890000000    29.6400000000    32.2370000000
  182      O      30.3600000000    27.2640000000    32.7560000000
  183      C      35.3460000000    27.9290000000    24.3380000000
  184      H      36.0010000000    28.6180000000    24.8780000000
  185      H      34.6440000000    27.4010000000    24.9890000000
  186      H      36.0320000000    27.2900000000    23.7760000000
  187      S      34.2200000000    28.7520000000    23.1880000000
  188      C      35.4480000000    29.9590000000    22.6410000000
  189      H      35.6740000000    30.5650000000    23.5220000000
  190      H      36.3010000000    29.4160000000    22.2260000000
  191      H      34.9940000000    30.6400000000    21.9170000000
  192      O      33.3350000000    29.4020000000    24.2050000000
  193      C      24.1150000000    29.0820000000    25.5510000000
  194      H      23.8860000000    28.8830000000    24.5010000000
  195      H      23.4880000000    28.5840000000    26.2950000000
  196      H      24.1380000000    30.1470000000    25.7970000000
  197      S      25.8290000000    28.6010000000    25.8620000000
  198      C      25.7820000000    26.9120000000    25.2210000000
  199      H      25.5570000000    26.8820000000    24.1520000000
  200      H      26.8090000000    26.5940000000    25.4190000000
  201      H      25.0120000000    26.3040000000    25.7020000000
  202      O      25.9100000000    28.4740000000    27.3510000000
  203      C      29.6920000000    28.0110000000    36.4600000000
  204      H      29.4590000000    28.1450000000    35.4000000000
  205      H      29.0080000000    27.2780000000    36.8960000000
  206      H      29.7640000000    28.9770000000    36.9660000000
  207      S      31.4020000000    27.4290000000    36.4360000000
  208      C      30.9050000000    25.7960000000    35.8440000000
  209      H      30.6290000000    25.8970000000    34.7910000000
  210      H      31.6970000000    25.0610000000    36.0090000000
  211      H      30.0720000000    25.3900000000    36.4240000000
  212      O      31.7350000000    27.2660000000    37.8860000000
  213      C      34.4270000000    18.1340000000    29.4940000000
  214      H      34.5750000000    18.0780000000    28.4130000000
  215      H      35.3540000000    17.7770000000    29.9480000000
  216      H      33.5030000000    17.6190000000    29.7700000000
  217      S      34.1490000000    19.8840000000    29.8490000000
  218      C      35.6850000000    20.3970000000    29.0480000000
  219      H      35.8720000000    21.4740000000    29.0570000000
  220      H      36.4460000000    19.8270000000    29.5870000000
  221      H      35.6030000000    19.9740000000    28.0430000000
  222      O      34.4480000000    20.0560000000    31.3060000000
  223      C      32.4970000000    25.5140000000    23.5720000000
  224      H      33.3730000000    25.8170000000    24.1500000000
  225      H      31.8440000000    26.3810000000    23.4450000000
  226      H      32.0570000000    24.5830000000    23.9400000000
  227      S      33.0970000000    25.2090000000    21.8950000000
  228      C      34.1060000000    23.7900000000    22.3780000000
  229      H      34.6360000000    23.3610000000    21.5230000000
  230      H      34.9110000000    24.0840000000    23.0560000000
  231      H      33.4550000000    22.9960000000    22.7520000000
  232      O      33.9410000000    26.3850000000    21.5140000000
  233      C      25.5130000000    32.5620000000    32.2420000000
  234      H      25.4230000000    33.1620000000    31.3340000000
  235      H      26.3170000000    33.0020000000    32.8380000000
  236      H      25.6500000000    31.4980000000    32.0320000000
  237      S      24.0130000000    32.8500000000    33.2070000000
  238      C      24.5840000000    31.9050000000    34.6370000000
  239      H      24.1670000000    32.3250000000    35.5560000000
  240      H      24.1710000000    30.8980000000    34.5420000000
  241      H      25.6760000000    31.9340000000    34.5920000000
  242      O      23.0470000000    31.9860000000    32.4570000000
  243      C      37.9920000000    22.8800000000    26.2730000000
  244      H      39.0310000000    23.1850000000    26.4180000000
  245      H      37.7480000000    22.4110000000    27.2290000000
  246      H      37.7610000000    22.3390000000    25.3510000000
  247      S      37.0230000000    24.3920000000    26.0740000000
  248      C      35.4280000000    23.5760000000    26.3140000000
  249      H      35.3770000000    22.7040000000    25.6560000000
  250      H      35.3730000000    23.3390000000    27.3790000000
  251      H      34.7200000000    24.3330000000    25.9690000000
  252      O      37.0470000000    24.6890000000    24.6070000000
  253      C      32.3180000000    36.1900000000    27.7100000000
  254      H      31.8150000000    36.2490000000    28.6780000000
  255      H      32.8550000000    35.2400000000    27.6470000000
  256      H      32.9860000000    37.0290000000    27.4990000000
  257      S      31.0670000000    35.8730000000    26.4450000000
  258      C      32.1730000000    35.9480000000    25.0180000000
  259      H      31.5290000000    36.0040000000    24.1360000000
  260      H      32.9440000000    36.7210000000    25.0710000000
  261      H      32.7450000000    35.0170000000    25.0260000000
  262      O      30.3620000000    37.1900000000    26.3430000000
  263      C      24.2620000000    31.6640000000    28.3040000000
  264      H      23.8670000000    32.2330000000    27.4590000000
  265      H      24.7850000000    32.3650000000    28.9600000000
  266      H      24.9600000000    30.9040000000    27.9440000000
  267      S      23.0660000000    30.8750000000    29.4050000000
  268      C      24.2470000000    29.5880000000    29.8670000000
  269      H      24.3330000000    28.9110000000    29.0130000000
  270      H      25.2050000000    30.0670000000    30.0860000000
  271      H      23.8230000000    29.0620000000    30.7260000000
  272      O      22.0330000000    30.1490000000    28.6010000000
  273      C      27.6040000000    34.5710000000    26.3930000000
  274      H      28.3040000000    34.6510000000    25.5580000000
  275      H      26.5700000000    34.5420000000    26.0410000000
  276      H      27.7370000000    35.4220000000    27.0670000000
  277      S      28.0490000000    33.0380000000    27.2390000000
  278      C      27.7380000000    31.8330000000    25.9290000000
  279      H      28.1870000000    30.8750000000    26.2010000000
  280      H      26.6640000000    31.6550000000    25.8280000000
  281      H      28.2280000000    32.2550000000    25.0480000000
  282      O      26.9300000000    32.7640000000    28.1950000000
  283      C      27.2680000000    19.4140000000    25.8000000000
  284      H      26.6140000000    20.2340000000    26.1080000000
  285      H      28.3500000000    19.5540000000    25.8620000000
  286      H      27.2720000000    19.0930000000    24.7550000000
  287      S      26.9790000000    18.0700000000    26.9720000000
  288      C      27.0050000000    19.1510000000    28.4200000000
  289      H      26.1670000000    19.8380000000    28.2790000000
  290      H      26.9210000000    18.4290000000    29.2370000000
  291      H      27.8980000000    19.7470000000    28.6230000000
  292      O      28.3560000000    17.4860000000    26.9080000000
  293      C      31.4250000000    31.8830000000    34.5590000000
  294      H      31.5130000000    30.8250000000    34.3000000000
  295      H      31.4710000000    32.4760000000    33.6420000000
  296      H      32.1980000000    32.1410000000    35.2870000000
  297      S      29.7660000000    32.0920000000    35.2440000000
  298      C      29.1120000000    31.1990000000    33.8150000000
  299      H      28.0340000000    31.3200000000    33.6860000000
  300      H      29.4760000000    31.5990000000    32.8650000000
  301      H      29.3420000000    30.1370000000    33.9290000000
  302      O      29.4440000000    33.5260000000    34.9600000000
  303      C      34.9610000000    27.4280000000    28.6550000000
  304      H      34.4570000000    28.3760000000    28.4500000000
  305      H      35.2370000000    26.8590000000    27.7640000000
  306      H      34.5020000000    26.7000000000    29.3290000000
  307      S      36.4800000000    27.9190000000    29.5030000000
  308      C      37.1460000000    26.2740000000    29.8450000000
  309      H      36.3050000000    25.7000000000    30.2420000000
  310      H      37.5240000000    25.8410000000    28.9150000000
  311      H      37.8500000000    26.4750000000    30.6560000000
  312      O      35.8830000000    28.2490000000    30.8350000000
 ----------------------------------------------------------------
 Nuclear Repulsion Energy =       54447.51749208 hartrees
 There are      644 alpha and      644 beta electrons
 Requested basis set is 6-31+G(d)
 There are 1028 shells and 2865 basis functions

 Total QAlloc Memory Limit  12000 MB
 Mega-Array Size      3911 MB
 MEM_STATIC part      4000 MB

 A cutoff of  1.0D-14 yielded 199494 shell pairs
 There are   1727852 function pairs
 Smallest overlap matrix eigenvalue = 4.05E-07
 Linear dependence detected in AO basis
 Tighter screening thresholds may be required for diffuse basis sets
 Use S2THRESH > 14 and THRESH = 14 in case of SCF convergence issues
 Number of orthogonalized atomic orbitals = 2862
 Maximum deviation from orthogonality = 1.059E-10

 Scale SEOQF with 1.000000e-03/1.000000e-03/1.000000e-03

 Standard Electronic Orientation quadrupole field applied
 Nucleus-field energy     =     0.0000000659 hartrees
 Guess from superposition of atomic densities
 Warning:  Energy on first SCF cycle will be non-variational
 SAD guess density has 1288.000002 electrons

 -----------------------------------------------------------------------
  General SCF calculation program by
  Eric Jon Sundstrom, Paul Horn, Yuezhi Mao, Dmitri Zuev, Alec White,
  David Stuck, Shaama M.S., Shane Yost, Joonho Lee, David Small,
  Daniel Levine, Susi Lehtola, Hugh Burton, Evgeny Epifanovsky,
  Bang C. Huynh
 -----------------------------------------------------------------------
=================================================
        Doing projection-based embedding         
      F. Manby et al. JCTC, 8, 2564 (2012)       
=================================================

****************************************************
   Low-level SCF calculation for the whole system   
****************************************************
----------------------------------------------
 Summary of the low-level theory: 
 Exchange:     0.2000 Hartree-Fock + 0.0800 Slater + 0.7200 B88
 Correlation:  0.1900 VWN1RPA + 0.8100 LYP
 Using Euler-Maclaurin-Lebedev (75,302) quadrature formula
----------------------------------------------
 using 16 threads for integral computing
 -------------------------------------------------------
 OpenMP Integral computing Module                
 Release: version 1.0, May 2013, Q-Chem Inc. Pittsburgh 
 -------------------------------------------------------
 A restricted SCF calculation will be
 performed using DIIS
 SCF converges when DIIS error is below 1.0e-08
 ---------------------------------------
  Cycle       Energy         DIIS error
 ---------------------------------------
    1  -16467.6797828034      1.31e-02  
    2  -16441.9861620440      2.42e-03  
    3  -16429.6397340058      4.53e-03  
    4  -16446.2970786552      9.26e-04  
    5  -16447.0950361073      1.82e-04  
    6  -16447.1177923832      9.75e-05  
    7  -16447.1249290082      3.76e-05  
    8  -16447.1261045297      6.55e-06  
    9  -16447.1261400267      2.79e-06  
   10  -16447.1261461142      1.00e-06  
   11  -16447.1261468730      3.71e-07  
   12  -16447.1261469832      1.09e-07  
   13  -16447.1261469930      3.71e-08  
   14  -16447.1261469940      1.55e-08  
   15  -16447.1261469942      5.33e-09  Convergence criterion met
 ---------------------------------------
 SCF time:   CPU 349170.97s  wall 25069.00s 
 SCF   energy in the final basis set =   -16447.1261469942
 Total energy in the final basis set =   -16447.1261469942

****************************************************
             Start embedding calculation            
****************************************************
----------------------------------------------
 Summary of the high-level theory: 
 Exchange:     0.2000 Hartree-Fock + 0.0800 Slater + 0.7200 B88
 Correlation:  0.1900 VWN1RPA + 0.8100 LYP
 Using Euler-Maclaurin-Lebedev (75,302) quadrature formula
----------------------------------------------
Doing R-in-R Embedding Calculation
Number of fragments: 2
Embedded fragment(s): 1 
NOcc for each fragment
           35
          609
NBasis for each fragment
          197
         2668
Variational space of the embedded problem: 
NOcc (active)  = 35
NOcc (fixed)   = 609
NVir (total)   = 2218
Read converged orbitals from disk
=========================================================
       Doing SPADE partition for the orbital space       
     D. Claudino and N. Mayhall JCTC 15, 1053 (2019)     
=========================================================
SPADE singular values:
 1.0000 1.0000 1.0000 1.0000 1.0000 1.0000 1.0000 1.0000 1.0000 0.9999
 0.9998 0.9995 0.9995 0.9995 0.9993 0.9992 0.9990 0.9988 0.9974 0.9970
 0.9963 0.9961 0.9958 0.9952 0.9946 0.9935 0.9932 0.9920 0.9915 0.9901
 0.9900 0.9887 0.9874 0.9821 0.9735 0.2420 0.1985 0.1793 0.1728 0.1614
 0.1524 0.1495 0.1379 0.1253 0.1226 0.1128 0.0986 0.0950 0.0901 0.0773
 0.0716 0.0669 0.0639 0.0576 0.0529 0.0494 0.0462 0.0434 0.0409 0.0394
 0.0367 0.0350 0.0327 0.0318 0.0293 0.0287 0.0242 0.0237 0.0224 0.0212
 0.0200 0.0183 0.0175 0.0170 0.0164 0.0162 0.0148 0.0134 0.0131 0.0127
 0.0121 0.0115 0.0109 0.0103 0.0090 0.0087 0.0084 0.0080 0.0076 0.0073
 0.0071 0.0068 0.0067 0.0064 0.0061 0.0060 0.0055 0.0054 0.0050 0.0047
 0.0046 0.0044 0.0041 0.0040 0.0038 0.0038 0.0035 0.0034 0.0032 0.0032
 0.0030 0.0027 0.0026 0.0025 0.0023 0.0022 0.0021 0.0020 0.0019 0.0018
 0.0018 0.0017 0.0016 0.0016 0.0015 0.0015 0.0014 0.0014 0.0013 0.0013
 0.0012 0.0012 0.0011 0.0011 0.0010 0.0010 0.0010 0.0009 0.0009 0.0009
 0.0009 0.0009 0.0008 0.0007 0.0007 0.0007 0.0006 0.0006 0.0006 0.0005
 0.0005 0.0005 0.0005 0.0005 0.0004 0.0004 0.0004 0.0004 0.0004 0.0004
 0.0003 0.0003 0.0003 0.0003 0.0003 0.0003 0.0003 0.0003 0.0003 0.0003
 0.0003 0.0002 0.0002 0.0002 0.0002 0.0002 0.0002 0.0002 0.0002 0.0002
 0.0002 0.0002 0.0001 0.0001 0.0001 0.0001 0.0001 0.0001 0.0001 0.0001
 0.0001 0.0001 0.0001 0.0001 0.0001 0.0001 0.0001
Early stop requested; no embedded SCF will be performed

 609 environment occs will be part of frozen-core in future post-HF calculations

 --------------------------------------------------------------

                    Orbital Energies (a.u.)
 --------------------------------------------------------------

 Alpha MOs
 -- Occupied --
-89.0309 -89.0302 -89.0248 -89.0232 -89.0222 -89.0183 -89.0179 -89.0171
-89.0159 -89.0136 -89.0110 -89.0109 -89.0090 -89.0068 -89.0060 -89.0052
-89.0045 -89.0004 -89.0001 -88.9924 -88.9920 -88.9857 -88.9851 -88.9843
-88.9841 -88.9793 -88.9784 -88.9779 -88.9761 -19.1517 -19.1494 -19.1454
-19.1414 -19.1406 -19.1380 -19.1352 -19.1346 -19.1343 -19.1318 -19.1303
-19.1287 -19.1280 -19.1258 -19.1244 -19.1223 -19.1219 -19.1193 -19.1190
-19.1070 -19.1029 -19.0997 -19.0982 -19.0982 -19.0962 -19.0962 -19.0956
-19.0950 -19.0903 -10.2526 -10.2484 -10.2467 -10.2459 -10.2457 -10.2440
-10.2429 -10.2410 -10.2403 -10.2394 -10.2379 -10.2369 -10.2357 -10.2357
-10.2349 -10.2347 -10.2317 -10.2315 -10.2310 -10.2300 -10.2286 -10.2285
-10.2271 -10.2270 -10.2268 -10.2250 -10.2241 -10.2235 -10.2225 -10.2200
-10.2194 -10.2191 -10.2190 -10.2167 -10.2152 -10.2145 -10.2144 -10.2135
-10.2127 -10.2117 -10.2066 -10.2058 -10.2052 -10.2044 -10.2037 -10.2013
-10.1995 -10.1994 -10.1989 -10.1988 -10.1963 -10.1959 -10.1957 -10.1936
-10.1930 -10.1917 -10.1836 -10.1802  -8.0766  -8.0765  -8.0705  -8.0683
 -8.0683  -8.0642  -8.0634  -8.0632  -8.0616  -8.0595  -8.0577  -8.0563
 -8.0552  -8.0533  -8.0515  -8.0510  -8.0496  -8.0463  -8.0461  -8.0379
 -8.0374  -8.0310  -8.0308  -8.0307  -8.0300  -8.0250  -8.0243  -8.0240
 -8.0219  -6.0409  -6.0409  -6.0397  -6.0396  -6.0350  -6.0342  -6.0339
 -6.0336  -6.0328  -6.0327  -6.0316  -6.0315  -6.0286  -6.0278  -6.0277
 -6.0274  -6.0271  -6.0266  -6.0263  -6.0260  -6.0255  -6.0253  -6.0247
 -6.0239  -6.0226  -6.0218  -6.0217  -6.0210  -6.0209  -6.0207  -6.0207
 -6.0196  -6.0194  -6.0190  -6.0181  -6.0175  -6.0168  -6.0163  -6.0160
 -6.0155  -6.0152  -6.0147  -6.0141  -6.0141  -6.0135  -6.0127  -6.0123
 -6.0108  -6.0106  -6.0106  -6.0095  -6.0091  -6.0086  -6.0083  -6.0073
 -6.0035  -6.0035  -6.0022  -6.0017  -6.0011  -6.0005  -5.9955  -5.9953
 -5.9951  -5.9950  -5.9950  -5.9942  -5.9940  -5.9940  -5.9939  -5.9930
 -5.9894  -5.9888  -5.9885  -5.9884  -5.9882  -5.9881  -5.9879  -5.9877
 -5.9877  -5.9872  -5.9864  -5.9849  -5.9828  -5.9816  -5.9811  -5.9790
 -1.0610  -1.0577  -1.0528  -1.0511  -1.0476  -1.0445  -1.0439  -1.0435
 -1.0409  -1.0404  -1.0382  -1.0379  -1.0372  -1.0339  -1.0333  -1.0326
 -1.0316  -1.0301  -1.0259  -1.0174  -1.0100  -1.0086  -1.0085  -1.0073
 -1.0040  -1.0038  -1.0035  -1.0028  -0.9999  -0.8368  -0.8323  -0.8291
 -0.8271  -0.8245  -0.8242  -0.8222  -0.8203  -0.8197  -0.8159  -0.8144
 -0.8137  -0.8114  -0.8107  -0.8103  -0.8088  -0.8074  -0.8065  -0.8059
 -0.7953  -0.7918  -0.7904  -0.7899  -0.7897  -0.7871  -0.7838  -0.7836
 -0.7759  -0.7725  -0.7616  -0.7610  -0.7603  -0.7548  -0.7489  -0.7469
 -0.7468  -0.7450  -0.7424  -0.7421  -0.7409  -0.7406  -0.7397  -0.7382
 -0.7356  -0.7350  -0.7329  -0.7291  -0.7232  -0.7218  -0.7197  -0.7164
 -0.7150  -0.7134  -0.7094  -0.7091  -0.7061  -0.7018  -0.6950  -0.6412
 -0.6405  -0.6402  -0.6381  -0.6368  -0.6309  -0.6304  -0.6280  -0.6275
 -0.6268  -0.6257  -0.6242  -0.6229  -0.6191  -0.6176  -0.6174  -0.6119
 -0.6113  -0.6110  -0.6054  -0.6025  -0.6024  -0.6020  -0.5964  -0.5959
 -0.5941  -0.5938  -0.5917  -0.5885  -0.5231  -0.5106  -0.5095  -0.5079
 -0.5072  -0.5050  -0.5039  -0.5033  -0.5027  -0.5018  -0.5003  -0.4993
 -0.4988  -0.4976  -0.4961  -0.4948  -0.4938  -0.4932  -0.4927  -0.4926
 -0.4916  -0.4906  -0.4898  -0.4894  -0.4890  -0.4887  -0.4883  -0.4877
 -0.4876  -0.4868  -0.4861  -0.4853  -0.4848  -0.4847  -0.4841  -0.4830
 -0.4824  -0.4811  -0.4807  -0.4797  -0.4790  -0.4786  -0.4775  -0.4765
 -0.4761  -0.4755  -0.4742  -0.4740  -0.4735  -0.4727  -0.4723  -0.4721
 -0.4701  -0.4696  -0.4694  -0.4689  -0.4683  -0.4679  -0.4669  -0.4665
 -0.4647  -0.4640  -0.4634  -0.4633  -0.4631  -0.4616  -0.4615  -0.4612
 -0.4602  -0.4596  -0.4582  -0.4572  -0.4568  -0.4555  -0.4543  -0.4535
 -0.4531  -0.4521  -0.4512  -0.4504  -0.4492  -0.4487  -0.4486  -0.4484
 -0.4479  -0.4467  -0.4465  -0.4457  -0.4449  -0.4442  -0.4441  -0.4437
 -0.4430  -0.4429  -0.4428  -0.4425  -0.4415  -0.4403  -0.4399  -0.4393
 -0.4390  -0.4386  -0.4367  -0.4359  -0.4357  -0.4352  -0.4350  -0.4348
 -0.4339  -0.4317  -0.4308  -0.4306  -0.4300  -0.4296  -0.4273  -0.4261
 -0.4259  -0.4250  -0.4249  -0.4241  -0.4232  -0.4225  -0.4221  -0.4218
 -0.4213  -0.4204  -0.4193  -0.4192  -0.4186  -0.4184  -0.4167  -0.4159
 -0.4147  -0.4143  -0.4139  -0.4132  -0.4128  -0.4122  -0.4116  -0.4108
 -0.4097  -0.4094  -0.4078  -0.4075  -0.4065  -0.4057  -0.4040  -0.4023
 -0.4022  -0.4012  -0.4003  -0.3997  -0.3990  -0.3978  -0.3974  -0.3971
 -0.3968  -0.3963  -0.3959  -0.3956  -0.3949  -0.3929  -0.3925  -0.3914
 -0.3908  -0.3897  -0.3891  -0.3878  -0.3873  -0.3865  -0.3862  -0.3857
 -0.3854  -0.3852  -0.3834  -0.3820  -0.3798  -0.3791  -0.3783  -0.3760
 -0.3750  -0.3744  -0.3742  -0.3724  -0.3721  -0.3710  -0.3692  -0.3673
 -0.3670  -0.3667  -0.3654  -0.3649  -0.3624  -0.3539  -0.3530  -0.3498
 -0.3492  -0.3478  -0.3472  -0.3428  -0.3419  -0.3406  -0.3346  -0.3123
 -0.3081  -0.3067  -0.3039  -0.2996  -0.2994  -0.2987  -0.2961  -0.2951
 -0.2948  -0.2924  -0.2922  -0.2884  -0.2880  -0.2835  -0.2831  -0.2827
 -0.2803  -0.2770  -0.2770  -0.2753  -0.2699  -0.2683  -0.2671  -0.2645
 -0.2643  -0.2615  -0.2610  -0.2600  -0.2597  -0.2589  -0.2585  -0.2569
 -0.2563  -0.2559  -0.2547  -0.2543  -0.2535  -0.2527  -0.2515  -0.2503
 -0.2495  -0.2488  -0.2483  -0.2444  -0.2429  -0.2422  -0.2386  -0.2335
 -0.2293  -0.2276  -0.2265  -0.2260  -0.2232  -0.2213  -0.2176  -0.2164
 -0.2121 -13.7747 -10.2186 -10.2144 -10.2650 -17.3072 -10.9390 -10.1931
-10.8929 -10.4069  -0.7510  -0.6832  -0.7189  -0.6099  -0.7325  -0.7382
 -0.8119  -0.4137  -0.8552  -0.4197  -0.4507  -0.5123  -0.4776  -0.4525
 -0.3923  -0.4133  -0.4403  -0.4155  -0.4793  -0.4486  -0.5212  -0.4158
 -0.5226  -0.5117  -0.5363  -0.5728
 -- Virtual --
 -0.0392  -0.0387  -0.0358  -0.0344  -0.0277  -0.0257  -0.0238  -0.0225
 -0.0220  -0.0200  -0.0194  -0.0180  -0.0172  -0.0161  -0.0155  -0.0144
 -0.0133  -0.0118  -0.0112  -0.0098  -0.0095  -0.0090  -0.0077  -0.0075
 -0.0061  -0.0058  -0.0049  -0.0044  -0.0041  -0.0032  -0.0029  -0.0019
 -0.0018  -0.0016  -0.0003  -0.0002   0.0004   0.0020   0.0026   0.0031
  0.0041   0.0048   0.0060   0.0064   0.0067   0.0076   0.0083   0.0093
  0.0099   0.0104   0.0105   0.0116   0.0121   0.0122   0.0132   0.0139
  0.0142   0.0154   0.0158   0.0162   0.0177   0.0184   0.0186   0.0189
  0.0202   0.0203   0.0210   0.0215   0.0225   0.0231   0.0237   0.0244
  0.0250   0.0259   0.0260   0.0279   0.0284   0.0291   0.0299   0.0306
  0.0311   0.0322   0.0325   0.0327   0.0334   0.0337   0.0352   0.0359
  0.0361   0.0365   0.0372   0.0375   0.0385   0.0389   0.0392   0.0396
  0.0397   0.0404   0.0410   0.0413   0.0415   0.0416   0.0426   0.0431
  0.0436   0.0446   0.0449   0.0452   0.0460   0.0466   0.0473   0.0478
  0.0484   0.0491   0.0498   0.0500   0.0510   0.0517   0.0521   0.0525
  0.0529   0.0544   0.0546   0.0560   0.0560   0.0565   0.0573   0.0575
  0.0579   0.0585   0.0598   0.0603   0.0607   0.0610   0.0613   0.0618
  0.0623   0.0629   0.0630   0.0641   0.0648   0.0656   0.0661   0.0664
  0.0669   0.0683   0.0684   0.0696   0.0701   0.0710   0.0715   0.0717
  0.0725   0.0732   0.0737   0.0747   0.0749   0.0754   0.0764   0.0770
  0.0779   0.0784   0.0788   0.0796   0.0802   0.0810   0.0816   0.0818
  0.0828   0.0835   0.0842   0.0846   0.0854   0.0860   0.0862   0.0871
  0.0877   0.0880   0.0885   0.0892   0.0904   0.0911   0.0923   0.0925
  0.0930   0.0932   0.0938   0.0940   0.0947   0.0954   0.0958   0.0960
  0.0969   0.0979   0.0983   0.0986   0.0993   0.1002   0.1008   0.1011
  0.1017   0.1019   0.1023   0.1035   0.1039   0.1051   0.1057   0.1057
  0.1065   0.1073   0.1078   0.1083   0.1086   0.1097   0.1102   0.1103
  0.1118   0.1126   0.1129   0.1132   0.1139   0.1146   0.1149   0.1154
  0.1159   0.1160   0.1163   0.1169   0.1178   0.1182   0.1187   0.1189
  0.1192   0.1197   0.1204   0.1209   0.1215   0.1221   0.1231   0.1232
  0.1236   0.1242   0.1249   0.1253   0.1263   0.1265   0.1271   0.1277
  0.1285   0.1289   0.1294   0.1305   0.1311   0.1314   0.1325   0.1326
  0.1332   0.1337   0.1345   0.1350   0.1362   0.1365   0.1369   0.1374
  0.1378   0.1387   0.1394   0.1400   0.1405   0.1408   0.1416   0.1418
  0.1431   0.1433   0.1443   0.1454   0.1456   0.1459   0.1465   0.1471
  0.1476   0.1476   0.1482   0.1490   0.1494   0.1499   0.1508   0.1514
  0.1516   0.1518   0.1527   0.1532   0.1540   0.1545   0.1551   0.1561
  0.1563   0.1570   0.1574   0.1577   0.1582   0.1589   0.1594   0.1605
  0.1607   0.1612   0.1614   0.1621   0.1628   0.1638   0.1641   0.1652
  0.1654   0.1661   0.1663   0.1669   0.1675   0.1678   0.1685   0.1690
  0.1702   0.1706   0.1708   0.1711   0.1717   0.1722   0.1731   0.1736
  0.1740   0.1743   0.1751   0.1753   0.1765   0.1776   0.1786   0.1789
  0.1793   0.1799   0.1803   0.1811   0.1816   0.1822   0.1825   0.1829
  0.1836   0.1839   0.1846   0.1853   0.1855   0.1862   0.1867   0.1871
  0.1878   0.1878   0.1887   0.1895   0.1901   0.1904   0.1905   0.1913
  0.1920   0.1922   0.1926   0.1930   0.1937   0.1948   0.1954   0.1960
  0.1964   0.1969   0.1973   0.1975   0.1986   0.1998   0.2002   0.2006
  0.2014   0.2019   0.2023   0.2029   0.2037   0.2041   0.2046   0.2051
  0.2062   0.2064   0.2067   0.2078   0.2081   0.2086   0.2100   0.2106
  0.2108   0.2110   0.2118   0.2122   0.2129   0.2136   0.2142   0.2149
  0.2161   0.2166   0.2168   0.2173   0.2181   0.2193   0.2195   0.2202
  0.2212   0.2217   0.2224   0.2226   0.2234   0.2241   0.2246   0.2255
  0.2260   0.2262   0.2275   0.2284   0.2287   0.2297   0.2303   0.2307
  0.2311   0.2320   0.2328   0.2332   0.2337   0.2342   0.2348   0.2357
  0.2363   0.2367   0.2377   0.2380   0.2387   0.2392   0.2396   0.2403
  0.2411   0.2413   0.2422   0.2426   0.2427   0.2435   0.2444   0.2451
  0.2456   0.2462   0.2469   0.2471   0.2479   0.2489   0.2492   0.2495
  0.2510   0.2513   0.2518   0.2523   0.2541   0.2546   0.2552   0.2556
  0.2565   0.2579   0.2581   0.2590   0.2598   0.2604   0.2606   0.2609
  0.2618   0.2624   0.2625   0.2640   0.2644   0.2652   0.2663   0.2667
  0.2671   0.2678   0.2679   0.2690   0.2701   0.2713   0.2718   0.2724
  0.2733   0.2737   0.2740   0.2754   0.2757   0.2760   0.2767   0.2773
  0.2778   0.2792   0.2799   0.2806   0.2818   0.2820   0.2827   0.2840
  0.2843   0.2853   0.2865   0.2869   0.2879   0.2886   0.2890   0.2894
  0.2904   0.2911   0.2919   0.2921   0.2931   0.2932   0.2942   0.2949
  0.2958   0.2972   0.2980   0.2985   0.2992   0.2998   0.3001   0.3011
  0.3019   0.3026   0.3039   0.3039   0.3044   0.3056   0.3059   0.3071
  0.3079   0.3085   0.3089   0.3104   0.3110   0.3118   0.3123   0.3133
  0.3139   0.3148   0.3156   0.3163   0.3178   0.3184   0.3186   0.3198
  0.3206   0.3212   0.3217   0.3231   0.3236   0.3240   0.3249   0.3264
  0.3267   0.3287   0.3287   0.3292   0.3302   0.3307   0.3310   0.3331
  0.3332   0.3336   0.3348   0.3350   0.3358   0.3363   0.3369   0.3386
  0.3392   0.3402   0.3411   0.3413   0.3414   0.3434   0.3445   0.3453
  0.3455   0.3458   0.3462   0.3477   0.3487   0.3494   0.3501   0.3509
  0.3522   0.3526   0.3532   0.3535   0.3541   0.3556   0.3563   0.3566
  0.3572   0.3584   0.3596   0.3603   0.3612   0.3616   0.3626   0.3629
  0.3640   0.3643   0.3660   0.3672   0.3677   0.3687   0.3690   0.3701
  0.3702   0.3711   0.3717   0.3725   0.3729   0.3746   0.3749   0.3767
  0.3770   0.3772   0.3774   0.3783   0.3791   0.3804   0.3813   0.3819
  0.3827   0.3842   0.3845   0.3856   0.3859   0.3869   0.3883   0.3886
  0.3889   0.3897   0.3901   0.3919   0.3921   0.3924   0.3936   0.3951
  0.3961   0.3964   0.3978   0.3988   0.3993   0.3996   0.4003   0.4012
  0.4017   0.4029   0.4040   0.4053   0.4059   0.4069   0.4073   0.4090
  0.4091   0.4097   0.4103   0.4116   0.4125   0.4142   0.4149   0.4150
  0.4168   0.4176   0.4183   0.4191   0.4200   0.4207   0.4224   0.4240
  0.4246   0.4257   0.4262   0.4267   0.4274   0.4284   0.4297   0.4304
  0.4312   0.4320   0.4328   0.4336   0.4343   0.4346   0.4365   0.4376
  0.4386   0.4390   0.4404   0.4408   0.4421   0.4430   0.4445   0.4453
  0.4457   0.4478   0.4491   0.4504   0.4509   0.4521   0.4527   0.4534
  0.4547   0.4558   0.4576   0.4584   0.4598   0.4599   0.4607   0.4628
  0.4635   0.4654   0.4660   0.4678   0.4703   0.4710   0.4723   0.4732
  0.4737   0.4750   0.4762   0.4767   0.4783   0.4806   0.4830   0.4835
  0.4850   0.4862   0.4878   0.4883   0.4901   0.4915   0.4928   0.4940
  0.4956   0.4975   0.4982   0.4995   0.5005   0.5015   0.5032   0.5041
  0.5053   0.5070   0.5077   0.5111   0.5120   0.5129   0.5132   0.5154
  0.5155   0.5176   0.5198   0.5205   0.5215   0.5222   0.5238   0.5275
  0.5284   0.5288   0.5304   0.5320   0.5346   0.5347   0.5362   0.5367
  0.5372   0.5393   0.5406   0.5425   0.5446   0.5464   0.5472   0.5487
  0.5497   0.5502   0.5521   0.5525   0.5562   0.5565   0.5583   0.5590
  0.5601   0.5618   0.5628   0.5650   0.5663   0.5683   0.5702   0.5705
  0.5716   0.5724   0.5740   0.5761   0.5769   0.5779   0.5792   0.5804
  0.5806   0.5831   0.5860   0.5863   0.5883   0.5886   0.5896   0.5898
  0.5912   0.5942   0.5953   0.5959   0.5960   0.5973   0.5999   0.6006
  0.6019   0.6024   0.6038   0.6047   0.6076   0.6085   0.6092   0.6103
  0.6118   0.6131   0.6138   0.6157   0.6164   0.6171   0.6181   0.6189
  0.6198   0.6214   0.6220   0.6231   0.6250   0.6257   0.6267   0.6285
  0.6296   0.6300   0.6311   0.6322   0.6326   0.6341   0.6353   0.6374
  0.6378   0.6388   0.6413   0.6418   0.6436   0.6443   0.6458   0.6472
  0.6478   0.6497   0.6505   0.6515   0.6523   0.6531   0.6547   0.6551
  0.6563   0.6574   0.6584   0.6588   0.6608   0.6616   0.6634   0.6648
  0.6660   0.6664   0.6675   0.6682   0.6684   0.6706   0.6710   0.6721
  0.6727   0.6734   0.6764   0.6769   0.6775   0.6787   0.6791   0.6804
  0.6805   0.6811   0.6818   0.6828   0.6842   0.6872   0.6887   0.6892
  0.6899   0.6904   0.6917   0.6931   0.6941   0.6957   0.6964   0.6975
  0.6997   0.7007   0.7017   0.7021   0.7025   0.7040   0.7042   0.7056
  0.7063   0.7075   0.7087   0.7093   0.7112   0.7129   0.7141   0.7159
  0.7177   0.7178   0.7193   0.7205   0.7214   0.7222   0.7232   0.7249
  0.7260   0.7268   0.7289   0.7302   0.7313   0.7321   0.7334   0.7339
  0.7341   0.7368   0.7371   0.7381   0.7407   0.7412   0.7433   0.7458
  0.7465   0.7485   0.7492   0.7510   0.7528   0.7531   0.7554   0.7562
  0.7585   0.7595   0.7621   0.7629   0.7642   0.7657   0.7662   0.7671
  0.7688   0.7701   0.7713   0.7722   0.7736   0.7744   0.7761   0.7779
  0.7792   0.7808   0.7830   0.7831   0.7847   0.7857   0.7868   0.7889
  0.7897   0.7915   0.7920   0.7949   0.7971   0.7973   0.7975   0.7999
  0.8008   0.8029   0.8033   0.8044   0.8052   0.8071   0.8083   0.8099
  0.8107   0.8113   0.8118   0.8141   0.8151   0.8170   0.8182   0.8203
  0.8212   0.8242   0.8250   0.8259   0.8267   0.8275   0.8296   0.8300
  0.8308   0.8317   0.8336   0.8361   0.8377   0.8379   0.8398   0.8409
  0.8416   0.8429   0.8441   0.8448   0.8458   0.8484   0.8495   0.8503
  0.8514   0.8532   0.8540   0.8549   0.8561   0.8582   0.8596   0.8606
  0.8619   0.8639   0.8646   0.8651   0.8668   0.8675   0.8683   0.8698
  0.8702   0.8723   0.8732   0.8755   0.8759   0.8767   0.8780   0.8785
  0.8805   0.8810   0.8820   0.8844   0.8849   0.8862   0.8870   0.8881
  0.8890   0.8898   0.8906   0.8919   0.8922   0.8937   0.8945   0.8957
  0.8965   0.8972   0.8986   0.9006   0.9016   0.9030   0.9039   0.9040
  0.9051   0.9067   0.9089   0.9097   0.9109   0.9119   0.9131   0.9148
  0.9151   0.9173   0.9178   0.9186   0.9200   0.9208   0.9212   0.9232
  0.9245   0.9248   0.9264   0.9272   0.9285   0.9298   0.9301   0.9319
  0.9326   0.9330   0.9345   0.9354   0.9369   0.9372   0.9394   0.9396
  0.9406   0.9420   0.9435   0.9440   0.9453   0.9467   0.9478   0.9499
  0.9510   0.9517   0.9529   0.9541   0.9545   0.9554   0.9563   0.9572
  0.9595   0.9605   0.9613   0.9618   0.9625   0.9631   0.9650   0.9663
  0.9665   0.9674   0.9690   0.9698   0.9716   0.9723   0.9739   0.9748
  0.9757   0.9770   0.9774   0.9782   0.9786   0.9814   0.9821   0.9832
  0.9838   0.9849   0.9866   0.9874   0.9879   0.9897   0.9900   0.9904
  0.9918   0.9928   0.9933   0.9949   0.9960   0.9964   0.9980   1.0005
  1.0007   1.0020   1.0028   1.0042   1.0048   1.0059   1.0067   1.0076
  1.0079   1.0094   1.0114   1.0120   1.0126   1.0133   1.0148   1.0156
  1.0156   1.0161   1.0185   1.0195   1.0207   1.0212   1.0223   1.0242
  1.0264   1.0276   1.0290   1.0305   1.0308   1.0319   1.0335   1.0339
  1.0358   1.0373   1.0382   1.0392   1.0398   1.0414   1.0419   1.0435
  1.0439   1.0463   1.0470   1.0494   1.0500   1.0505   1.0517   1.0529
  1.0538   1.0555   1.0564   1.0575   1.0588   1.0591   1.0610   1.0621
  1.0625   1.0635   1.0647   1.0658   1.0669   1.0680   1.0689   1.0702
  1.0705   1.0743   1.0750   1.0756   1.0770   1.0772   1.0790   1.0807
  1.0841   1.0853   1.0863   1.0868   1.0877   1.0878   1.0895   1.0919
  1.0930   1.0939   1.0950   1.0963   1.0985   1.1005   1.1009   1.1018
  1.1027   1.1039   1.1051   1.1057   1.1076   1.1091   1.1102   1.1108
  1.1131   1.1143   1.1149   1.1165   1.1173   1.1179   1.1197   1.1211
  1.1215   1.1230   1.1250   1.1263   1.1275   1.1287   1.1310   1.1318
  1.1322   1.1330   1.1349   1.1360   1.1367   1.1375   1.1393   1.1404
  1.1407   1.1410   1.1424   1.1439   1.1456   1.1470   1.1482   1.1499
  1.1513   1.1520   1.1524   1.1540   1.1555   1.1558   1.1569   1.1581
  1.1589   1.1605   1.1611   1.1617   1.1635   1.1653   1.1659   1.1680
  1.1693   1.1715   1.1729   1.1738   1.1762   1.1765   1.1772   1.1792
  1.1801   1.1809   1.1826   1.1838   1.1866   1.1869   1.1890   1.1898
  1.1920   1.1929   1.1946   1.1963   1.1979   1.1980   1.2002   1.2022
  1.2045   1.2062   1.2072   1.2081   1.2101   1.2111   1.2126   1.2139
  1.2150   1.2156   1.2184   1.2190   1.2215   1.2255   1.2260   1.2275
  1.2281   1.2290   1.2320   1.2334   1.2372   1.2376   1.2402   1.2421
  1.2437   1.2447   1.2475   1.2489   1.2518   1.2527   1.2537   1.2553
  1.2571   1.2576   1.2603   1.2620   1.2642   1.2654   1.2662   1.2689
  1.2718   1.2735   1.2745   1.2766   1.2773   1.2794   1.2819   1.2848
  1.2866   1.2894   1.2905   1.2921   1.2944   1.2968   1.2984   1.2994
  1.3006   1.3059   1.3074   1.3091   1.3105   1.3128   1.3144   1.3157
  1.3170   1.3208   1.3225   1.3239   1.3260   1.3277   1.3291   1.3305
  1.3337   1.3352   1.3360   1.3369   1.3418   1.3427   1.3455   1.3470
  1.3487   1.3497   1.3506   1.3520   1.3530   1.3557   1.3575   1.3588
  1.3608   1.3612   1.3625   1.3630   1.3636   1.3649   1.3667   1.3686
  1.3710   1.3720   1.3730   1.3750   1.3769   1.3777   1.3793   1.3801
  1.3820   1.3836   1.3852   1.3862   1.3871   1.3886   1.3908   1.3914
  1.3933   1.3947   1.3952   1.3958   1.3959   1.3979   1.3990   1.4007
  1.4025   1.4045   1.4057   1.4064   1.4087   1.4095   1.4106   1.4123
  1.4134   1.4138   1.4156   1.4170   1.4178   1.4190   1.4200   1.4223
  1.4240   1.4261   1.4279   1.4282   1.4286   1.4316   1.4325   1.4330
  1.4336   1.4357   1.4367   1.4373   1.4386   1.4404   1.4423   1.4441
  1.4452   1.4470   1.4482   1.4494   1.4509   1.4522   1.4530   1.4559
  1.4562   1.4578   1.4588   1.4606   1.4650   1.4658   1.4689   1.4696
  1.4715   1.4743   1.4755   1.4761   1.4773   1.4805   1.4813   1.4831
  1.4864   1.4875   1.4894   1.4907   1.4915   1.4937   1.4969   1.4995
  1.5014   1.5018   1.5027   1.5049   1.5079   1.5098   1.5124   1.5132
  1.5140   1.5175   1.5191   1.5230   1.5250   1.5275   1.5304   1.5314
  1.5363   1.5377   1.5390   1.5406   1.5430   1.5488   1.5494   1.5505
  1.5552   1.5561   1.5586   1.5617   1.5663   1.5677   1.5707   1.5733
  1.5743   1.5776   1.5796   1.5847   1.5884   1.5894   1.5946   1.6006
  1.6062   1.6080   1.6092   1.6128   1.6154   1.6173   1.6230   1.6292
  1.6295   1.6341   1.6362   1.6381   1.6406   1.6453   1.6455   1.6460
  1.6477   1.6503   1.6507   1.6543   1.6555   1.6576   1.6594   1.6603
  1.6628   1.6641   1.6649   1.6677   1.6702   1.6715   1.6725   1.6745
  1.6767   1.6775   1.6800   1.6810   1.6816   1.6825   1.6833   1.6843
  1.6847   1.6858   1.6874   1.6883   1.6892   1.6896   1.6906   1.6912
  1.6933   1.6947   1.6956   1.6961   1.6976   1.6989   1.6999   1.7008
  1.7018   1.7026   1.7042   1.7057   1.7072   1.7074   1.7092   1.7095
  1.7105   1.7128   1.7133   1.7158   1.7168   1.7193   1.7200   1.7212
  1.7220   1.7226   1.7232   1.7239   1.7246   1.7252   1.7270   1.7286
  1.7301   1.7306   1.7325   1.7356   1.7368   1.7377   1.7384   1.7392
  1.7406   1.7420   1.7440   1.7453   1.7462   1.7478   1.7485   1.7508
  1.7516   1.7533   1.7541   1.7555   1.7559   1.7567   1.7571   1.7587
  1.7598   1.7613   1.7626   1.7640   1.7659   1.7667   1.7689   1.7705
  1.7733   1.7741   1.7753   1.7772   1.7788   1.7816   1.7828   1.7849
  1.7863   1.7885   1.7914   1.7942   1.7958   1.7970   1.7982   1.8009
  1.8023   1.8051   1.8077   1.8091   1.8138   1.8156   1.8184   1.8197
  1.8208   1.8253   1.8310   1.8340   1.8346   1.8362   1.8379   1.8391
  1.8406   1.8418   1.8436   1.8459   1.8483   1.8510   1.8541   1.8551
  1.8589   1.8605   1.8608   1.8656   1.8679   1.8698   1.8701   1.8705
  1.8715   1.8725   1.8730   1.8748   1.8757   1.8770   1.8782   1.8816
  1.8827   1.8843   1.8851   1.8878   1.8879   1.8897   1.8913   1.8918
  1.8939   1.8948   1.8963   1.8982   1.8989   1.8993   1.9018   1.9030
  1.9036   1.9049   1.9052   1.9061   1.9066   1.9081   1.9087   1.9099
  1.9109   1.9121   1.9141   1.9149   1.9154   1.9167   1.9200   1.9208
  1.9221   1.9232   1.9251   1.9274   1.9289   1.9298   1.9300   1.9314
  1.9346   1.9352   1.9374   1.9396   1.9411   1.9423   1.9447   1.9464
  1.9489   1.9532   1.9563   1.9586   1.9600   1.9619   1.9630   1.9658
  1.9685   1.9752   1.9794   1.9812   1.9891   1.9918   1.9951   2.0007
  2.0075   2.0150   2.0153   2.0242   2.0326   2.0336   2.0380   2.0399
  2.0408   2.0429   2.0452   2.0474   2.0531   2.0538   2.0540   2.0557
  2.0571   2.0583   2.0588   2.0611   2.0633   2.0642   2.0655   2.0661
  2.0693   2.0718   2.0720   2.0723   2.0761   2.0777   2.0785   2.0793
  2.0814   2.0833   2.0852   2.0875   2.0878   2.0882   2.0901   2.0910
  2.0920   2.0935   2.0941   2.0947   2.0955   2.0981   2.0987   2.1007
  2.1010   2.1045   2.1053   2.1082   2.1092   2.1109   2.1125   2.1139
  2.1146   2.1174   2.1177   2.1207   2.1240   2.1263   2.1273   2.1314
  2.1318   2.1327   2.1361   2.1414   2.1481   2.1490   2.1531   2.1573
  2.1588   2.1642   2.1650   2.1670   2.1675   2.1711   2.1724   2.1736
  2.1786   2.1819   2.1835   2.1845   2.1889   2.1905   2.1916   2.1942
  2.1974   2.1989   2.2026   2.2029   2.2037   2.2078   2.2096   2.2115
  2.2123   2.2126   2.2136   2.2174   2.2179   2.2180   2.2197   2.2209
  2.2221   2.2227   2.2245   2.2251   2.2267   2.2287   2.2289   2.2298
  2.2316   2.2333   2.2356   2.2364   2.2371   2.2381   2.2406   2.2418
  2.2430   2.2437   2.2445   2.2453   2.2456   2.2463   2.2489   2.2491
  2.2497   2.2499   2.2501   2.2513   2.2519   2.2522   2.2531   2.2540
  2.2555   2.2560   2.2562   2.2584   2.2585   2.2595   2.2608   2.2618
  2.2634   2.2649   2.2653   2.2664   2.2667   2.2680   2.2684   2.2688
  2.2695   2.2706   2.2711   2.2722   2.2725   2.2740   2.2748   2.2757
  2.2767   2.2785   2.2795   2.2802   2.2809   2.2827   2.2839   2.2842
  2.2850   2.2852   2.2862   2.2876   2.2890   2.2906   2.2915   2.2927
  2.2939   2.2958   2.2970   2.2977   2.2986   2.2997   2.3011   2.3018
  2.3023   2.3034   2.3036   2.3050   2.3070   2.3074   2.3078   2.3094
  2.3107   2.3112   2.3121   2.3130   2.3138   2.3152   2.3158   2.3169
  2.3183   2.3202   2.3207   2.3211   2.3222   2.3245   2.3252   2.3256
  2.3268   2.3287   2.3294   2.3306   2.3308   2.3345   2.3366   2.3380
  2.3403   2.3407   2.3416   2.3433   2.3445   2.3461   2.3470   2.3483
  2.3500   2.3542   2.3554   2.3564   2.3588   2.3605   2.3625   2.3636
  2.3669   2.3689   2.3707   2.3730   2.3738   2.3768   2.3784   2.3793
  2.3815   2.3830   2.3859   2.3887   2.3941   2.3983   2.4021   2.4039
  2.4093   2.4117   2.4139   2.4236   2.4270   2.4318   2.4469   2.4589
  2.4866   2.4967   2.5185   2.5620   2.5915   2.6647   2.7302   2.7482
  2.7906   2.8140   2.8176   2.8204   2.8237   2.8243   2.8261   2.8304
  2.8305   2.8310   2.8324   2.8342   2.8421   2.8456   2.8479   2.8530
  2.8538   2.8557   2.8584   2.8610   2.8614   2.8638   2.8658   2.8697
  2.8725   2.8747   2.8770   2.8784   2.8800   2.8855   2.8887   2.8936
  2.8994   2.9038   2.9353   3.1350   3.2700   3.9393   3.9434   3.9472
  3.9516   3.9542   3.9619   3.9625   3.9670   3.9678   3.9774   3.9790
  3.9803   3.9837   3.9881   3.9917   3.9921   3.9933   3.9955   4.0017
  4.0044   4.0090   4.0124   4.0138   4.0158   4.0251   4.0266   4.0322
  4.0409   4.0448   4.1760   4.1949   4.2112   4.2175   4.2198   4.2258
  4.2329   4.2337   4.2388   4.2401   4.2429   4.2457   4.2514   4.2547
  4.2617   4.2628   4.2647   4.2711   4.2718   4.2735   4.2768   4.2810
  4.2814   4.2825   4.2848   4.2871   4.2888   4.2902   4.2937   4.2974
  4.2985   4.3003   4.3007   4.3021   4.3049   4.3069   4.3104   4.3131
  4.3160   4.3176   4.3196   4.3219   4.3250   4.3266   4.3295   4.3311
  4.3346   4.3365   4.3389   4.3428   4.3437   4.3488   4.3525   4.3551
  4.3567   4.3625   4.3647   4.3711   4.3759   4.3774   4.3789   4.3861
  4.3908   4.3926   4.3967   4.4041   4.4070   4.4080   4.4130   4.4192
  4.4277   4.4291   4.4351   4.4380   4.4444   4.4553   4.4664   4.4751
  4.4802   4.4902   4.5019   4.5145   4.5274   4.5478   4.5683   4.5794
  4.6030   4.6224   4.6394   4.6931   4.7072   4.7351   4.7695   4.7803
  4.8305   4.9982
 --------------------------------------------------------------

          Ground-State Mulliken Net Atomic Charges

     Atom                 Charge (a.u.)
  ----------------------------------------
      1 C                     0.031617
      2 C                    -1.438697
      3 C                     0.405350
      4 C                    -0.766414
      5 C                    -1.072442
      6 C                    -0.267158
      7 H                     0.249566
      8 H                     0.224638
      9 H                     0.204283
     10 H                     0.288070
     11 H                     0.226991
     12 H                     0.212771
     13 H                     0.183675
     14 H                     0.214258
     15 H                     0.224087
     16 H                     0.210846
     17 H                     0.211034
     18 N                     0.668404
     19 H                     0.441127
     20 C                    -0.615908
     21 H                     0.259397
     22 O                    -0.240716
     23 C                    -0.881039
     24 H                     0.262208
     25 H                     0.242063
     26 H                     0.254333
     27 S                     0.886451
     28 C                    -0.853864
     29 H                     0.255817
     30 H                     0.289302
     31 H                     0.252838
     32 O                    -0.681697
     33 C                    -0.918900
     34 H                     0.263962
     35 H                     0.249073
     36 H                     0.249462
     37 S                     0.847470
     38 C                    -0.887020
     39 H                     0.253286
     40 H                     0.286120
     41 H                     0.263004
     42 O                    -0.632619
     43 C                    -0.740916
     44 H                     0.282947
     45 H                     0.269586
     46 H                     0.291854
     47 S                    -0.332124
     48 C                    -0.193834
     49 H                     0.275974
     50 H                     0.267963
     51 H                     0.264937
     52 O                    -0.453818
     53 C                    -1.060641
     54 H                     0.262205
     55 H                     0.258647
     56 H                     0.251088
     57 S                     0.888805
     58 C                    -0.900261
     59 H                     0.300504
     60 H                     0.283965
     61 H                     0.267886
     62 O                    -0.596269
     63 C                    -0.763541
     64 H                     0.279916
     65 H                     0.303607
     66 H                     0.242594
     67 S                     0.689035
     68 C                    -0.792104
     69 H                     0.235771
     70 H                     0.258912
     71 H                     0.251282
     72 O                    -0.776362
     73 C                    -0.893200
     74 H                     0.274069
     75 H                     0.232061
     76 H                     0.252778
     77 S                     0.960999
     78 C                    -0.896674
     79 H                     0.255779
     80 H                     0.254929
     81 H                     0.283829
     82 O                    -0.653556
     83 C                    -0.780756
     84 H                     0.282748
     85 H                     0.265770
     86 H                     0.290213
     87 S                     0.253746
     88 C                    -0.678832
     89 H                     0.271574
     90 H                     0.272436
     91 H                     0.298928
     92 O                    -0.625208
     93 C                    -0.917614
     94 H                     0.252510
     95 H                     0.279095
     96 H                     0.294350
     97 S                     0.820047
     98 C                    -0.880117
     99 H                     0.252943
    100 H                     0.298684
    101 H                     0.280320
    102 O                    -0.617199
    103 C                    -0.851912
    104 H                     0.224160
    105 H                     0.268310
    106 H                     0.259616
    107 S                     1.096704
    108 C                    -0.943614
    109 H                     0.274836
    110 H                     0.251905
    111 H                     0.272991
    112 O                    -0.719255
    113 C                    -1.093912
    114 H                     0.247538
    115 H                     0.298106
    116 H                     0.291662
    117 S                     0.911057
    118 C                    -0.821652
    119 H                     0.256988
    120 H                     0.249038
    121 H                     0.243585
    122 O                    -0.654958
    123 C                    -0.846573
    124 H                     0.227316
    125 H                     0.305575
    126 H                     0.259524
    127 S                     0.730018
    128 C                    -0.790465
    129 H                     0.251577
    130 H                     0.262039
    131 H                     0.242685
    132 O                    -0.659946
    133 C                    -0.744969
    134 H                     0.275309
    135 H                     0.244805
    136 H                     0.261443
    137 S                     0.843947
    138 C                    -1.020947
    139 H                     0.281799
    140 H                     0.272022
    141 H                     0.237936
    142 O                    -0.583374
    143 C                    -0.912281
    144 H                     0.302351
    145 H                     0.262330
    146 H                     0.229843
    147 S                     1.017834
    148 C                    -0.842463
    149 H                     0.239437
    150 H                     0.264063
    151 H                     0.239337
    152 O                    -0.748752
    153 C                    -0.929654
    154 H                     0.237795
    155 H                     0.326112
    156 H                     0.254649
    157 S                     0.663983
    158 C                    -0.853720
    159 H                     0.306604
    160 H                     0.260285
    161 H                     0.227808
    162 O                    -0.533359
    163 C                    -0.965678
    164 H                     0.254535
    165 H                     0.245381
    166 H                     0.262085
    167 S                     0.935972
    168 C                    -0.777333
    169 H                     0.244604
    170 H                     0.285399
    171 H                     0.254531
    172 O                    -0.679332
    173 C                    -0.963606
    174 H                     0.284007
    175 H                     0.244394
    176 H                     0.296946
    177 S                     0.846661
    178 C                    -0.930517
    179 H                     0.316380
    180 H                     0.347154
    181 H                     0.272218
    182 O                    -0.482050
    183 C                    -0.914784
    184 H                     0.252810
    185 H                     0.229321
    186 H                     0.290387
    187 S                     1.010948
    188 C                    -0.988581
    189 H                     0.259163
    190 H                     0.255466
    191 H                     0.245684
    192 O                    -0.652525
    193 C                    -0.727347
    194 H                     0.236476
    195 H                     0.306166
    196 H                     0.274027
    197 S                     0.492658
    198 C                    -0.797156
    199 H                     0.266501
    200 H                     0.264860
    201 H                     0.238719
    202 O                    -0.604464
    203 C                    -0.829711
    204 H                     0.261665
    205 H                     0.246026
    206 H                     0.255822
    207 S                     0.910947
    208 C                    -0.936413
    209 H                     0.282168
    210 H                     0.255536
    211 H                     0.251570
    212 O                    -0.716619
    213 C                    -0.857642
    214 H                     0.222911
    215 H                     0.261071
    216 H                     0.263008
[...]
    3   2.9049960   0.5395625  -0.3818418  -0.0961750   1.3475170  -2.3764889
          247         248         249         250         251         252
    1   2.2668040   0.3382182   0.7585341   1.0508183  -0.5042351   2.2210673
    2  -0.9364093  -2.1330635  -3.5970094  -2.2029753  -0.4203501  -0.7226444
    3  -0.0333404  -0.5720362  -2.0161658   1.1074483  -1.2201879  -3.3821930
          253         254         255         256         257         258
    1   1.9679093   0.5933548   2.7095838   2.6559644   0.3757381   1.8177528
    2   2.9522598   3.1682475   1.1636405   4.1494940   1.8841717   2.4903994
    3   0.6778527   1.8378568   0.0680503  -0.1636667  -0.6404905  -2.2539990
          259         260         261         262         263         264
    1   0.1382766   2.7771659   2.6595134  -0.9886430  -1.6166770  -2.8570663
    2   2.7208042   3.7056143   0.7940777   4.7617036   1.2193400   1.6690482
    3  -3.2860033  -1.5130553  -1.7717189  -0.7832542  -0.7299505  -1.9407953
          265         266         267         268         269         270
    1  -1.0049714  -0.6436127  -2.7452148  -1.4575621  -1.8202716   0.1848780
    2   2.2349224  -0.3975671   0.8493744  -1.0004562  -1.8098917   0.4231893
    3   1.1338707  -0.9441015   0.8486591   0.8848538  -0.7105927   0.9802694
          271         272         273         274         275         276
    1  -2.9411417  -4.5271229  -1.0689761   0.1466368  -2.5816503  -0.7696111
    2  -1.5013510  -0.9247809   3.2269661   2.8576263   2.5293589   4.3540147
    3   2.1385018  -1.1034341  -1.2234890  -2.4932201  -1.6454028   0.4306631
          277         278         279         280         281         282
    1   0.1181738  -0.8458024   0.1721437  -2.8053901   0.0030105  -2.3119857
    2   1.2735102  -0.1336786  -1.4748798   0.1012462   1.0488760   0.7359738
    3  -0.3374805  -1.5859498  -0.4367104  -1.3810380  -2.6473735   1.4234372
          283         284         285         286         287         288
    1  -1.2676072  -2.7657523   0.9579868  -1.1381096  -2.0441569  -1.4716271
    2  -1.2042499  -0.1918583  -1.5993137  -2.3327301  -2.5473341  -1.4582302
    3  -1.7743588  -0.6692097  -1.3886510  -3.2177662  -0.3289009   1.4358212
          289         290         291         292         293         294
    1  -3.1357190  -1.3844915  -0.0147511   1.3522941   1.7649817   1.5361595
    2  -0.5093053  -3.0329372  -1.1949897  -3.5299719   0.5330647  -1.0984145
    3   0.5332375   2.5260214   1.2581675  -0.4290784   2.1001340   1.7998496
          295         296         297         298         299         300
    1   1.0701414   2.4827912  -0.2835803  -0.8748556  -2.3427584  -0.0501609
    2   1.5288281   0.9099531   0.4992050   0.1535209   0.9393524   1.0599022
    3   0.4612718   3.7211123   3.3356972   1.1734191   1.4907052  -0.2303663
          301         302         303         304         305         306
    1  -0.1329755  -0.9823620   0.2115686  -0.2595910   1.2179791  -0.0863829
    2  -1.3061665   3.6054350  -0.4601256   1.2226268  -1.3711125  -1.3029405
    3   1.9084670   2.2068480  -0.5633882  -0.4730101  -1.7883011   0.7545797
          307         308         309         310         311         312
    1   2.6874380   3.2625219   1.7484598   3.5394475   4.2141082   1.2773177
    2   0.1718696  -1.7642228  -2.0866527  -1.9235487  -0.8305753   0.6299119
    3   0.2241533   1.1425472   1.7328625  -0.5998062   2.6880801   3.2716504
 EField
            1           2           3           4           5           6
    1  -0.0012109  -0.0055644  -0.0057835  -0.0027053  -0.0010811  -0.0013137
    2   0.0024489  -0.0006881   0.0025168   0.0019847   0.0027967   0.0003938
    3   0.0003492  -0.0042478   0.0004794   0.0030926   0.0018915   0.0016576
            7           8           9          10          11          12
    1  -0.0046895  -0.0073009  -0.0015494   0.0064891  -0.0015801  -0.0032498
    2   0.0012128  -0.0053460  -0.0008864   0.0129599   0.0025259  -0.0003884
    3  -0.0020704  -0.0102822   0.0071394  -0.0036217   0.0009569   0.0043529
           13          14          15          16          17          18
    1   0.0010786  -0.0006189  -0.0030774  -0.0023366  -0.0068215  -0.0101483
    2   0.0075692   0.0010347  -0.0013016   0.0000672   0.0076104  -0.0003186
    3   0.0012000   0.0008269   0.0001795   0.0004114   0.0082112  -0.0071749
           19          20          21          22          23          24
    1  -0.0182626  -0.0083278  -0.0039199  -0.0098812  -0.0058993  -0.0275256
    2  -0.0068644   0.0025937   0.0155782  -0.0015231   0.0040997  -0.0218914
    3   0.0006221  -0.0113715  -0.0228958  -0.0110771   0.0051014  -0.0027064
           25          26          27          28          29          30
    1   0.0069669   0.0030246  -0.0062628  -0.0022997  -0.0081212  -0.0199912
    2   0.0216757   0.0206430  -0.0439322  -0.0041722   0.0201639  -0.0271549
    3   0.0241012  -0.0218185  -0.0503434   0.0098808   0.0265533   0.0035567
           31          32          33          34          35          36
    1   0.0304653   0.0825438  -0.0059524  -0.0077691  -0.0086063  -0.0239832
    2  -0.0110710   0.0732307   0.0031879   0.0199085  -0.0294668   0.0079485
    3   0.0001879  -0.0070099  -0.0056278  -0.0277659  -0.0043412   0.0209357
           37          38          39          40          41          42
    1   0.0115587  -0.0002065  -0.0151973   0.0298069  -0.0163988   0.0579492
    2  -0.0343215   0.0103447   0.0120598   0.0055741   0.0183072  -0.0092748
    3   0.0486597   0.0018718   0.0285445   0.0065791  -0.0211986  -0.0927336
           43          44          45          46          47          48
    1  -0.0050429  -0.0231834   0.0040095  -0.0095119   0.0140803   0.0058358
    2  -0.0048738   0.0166100  -0.0037348  -0.0272958   0.0505446  -0.0088065
    3  -0.0067857   0.0017605  -0.0346438   0.0082237  -0.0169397  -0.0004001
           49          50          51          52          53          54
    1  -0.0122240   0.0121238   0.0355172  -0.0447898  -0.0029161  -0.0133765
    2  -0.0289033   0.0056079  -0.0054079  -0.0286865  -0.0065152  -0.0165147
    3  -0.0023163  -0.0256649   0.0083617   0.0935702   0.0036088  -0.0268993
           55          56          57          58          59          60
    1   0.0082641  -0.0273463  -0.0195188   0.0067706   0.0209895   0.0139113
    2  -0.0197532   0.0061782   0.0253692  -0.0116391   0.0053961  -0.0024897
    3   0.0275363   0.0145100  -0.0481002  -0.0047216  -0.0134264   0.0269089
           61          62          63          64          65          66
    1  -0.0109984   0.0478492   0.0038221   0.0159934  -0.0295335  -0.0046676
    2  -0.0298034   0.0456644  -0.0081906  -0.0089519  -0.0079151  -0.0114540
    3  -0.0222428   0.0858533   0.0015379   0.0340357  -0.0028103  -0.0386798
           67          68          69          70          71          72
    1  -0.0389554   0.0057236   0.0167393   0.0038716   0.0220638  -0.0050155
    2   0.0245367   0.0002648   0.0064959   0.0276139  -0.0157104   0.0155104
    3  -0.0380041  -0.0020085  -0.0344178   0.0072778   0.0163200   0.1077623
           73          74          75          76          77          78
    1   0.0089517   0.0027097  -0.0035691   0.0244453  -0.0407673   0.0019461
    2  -0.0021691  -0.0218245   0.0233952  -0.0088233   0.0396800   0.0005874
    3  -0.0039132  -0.0218127  -0.0223739   0.0169709  -0.0192026   0.0088830
           79          80          81          82          83          84
    1   0.0151614  -0.0224771   0.0284823  -0.0193445   0.0081380   0.0198838
    2   0.0281205  -0.0075128  -0.0055083  -0.1075769  -0.0019703   0.0243432
    3  -0.0002858   0.0283010   0.0097807   0.0049857   0.0046067   0.0119673
           85          86          87          88          89          90
    1  -0.0128707   0.0175593  -0.0326924  -0.0064111  -0.0297162   0.0195609
    2  -0.0081344  -0.0244370   0.0454354  -0.0132087  -0.0050605  -0.0228651
    3   0.0270214  -0.0100655   0.0102204  -0.0009988  -0.0125245  -0.0008557
           91          92          93          94          95          96
    1  -0.0110327   0.0549987  -0.0108625  -0.0168078  -0.0188643   0.0095014
    2  -0.0086088  -0.0269661  -0.0005280   0.0268227  -0.0236947   0.0162943
    3   0.0275795  -0.0884146   0.0029813  -0.0037195  -0.0256101   0.0316133
           97          98          99         100         101         102
    1  -0.0044999   0.0091371  -0.0142543  -0.0002928   0.0332703   0.0286956
    2  -0.0065721  -0.0025360   0.0046691  -0.0207153   0.0133370   0.0962764
    3  -0.0563412   0.0026780   0.0267339  -0.0163313  -0.0165113   0.0461116
          103         104         105         106         107         108
    1   0.0038647   0.0178006  -0.0238031   0.0186318  -0.0294919  -0.0066078
    2   0.0075834  -0.0104456   0.0121005   0.0196451  -0.0375149   0.0080118
    3  -0.0040380  -0.0197885  -0.0217523   0.0185228  -0.0214039   0.0055800
          109         110         111         112         113         114
    1  -0.0208475   0.0267392  -0.0270172   0.0870034   0.0016730   0.0249046
    2  -0.0135075   0.0211373   0.0112794  -0.0142104   0.0060610   0.0170791
    3   0.0206615   0.0085107  -0.0175263   0.0681262  -0.0065295   0.0044166
          115         116         117         118         119         120
    1   0.0036028  -0.0125482  -0.0579703   0.0036159   0.0297595  -0.0132418
    2  -0.0086391   0.0282869  -0.0134780   0.0049919  -0.0086810   0.0325262
    3  -0.0315833   0.0035922  -0.0161530   0.0061937   0.0123521  -0.0111368
          121         122         123         124         125         126
    1  -0.0075105   0.0778822   0.0069763  -0.0200621   0.0127459   0.0239141
    2  -0.0296008  -0.0772124   0.0065652  -0.0070926   0.0328240  -0.0177449
    3   0.0196255   0.0021514  -0.0038555  -0.0239830   0.0031382  -0.0073138
          127         128         129         130         131         132
    1  -0.0289709  -0.0020642  -0.0168177   0.0105416  -0.0316973   0.0789374
    2  -0.0508139   0.0066522   0.0096903   0.0313555  -0.0021340   0.0129756
    3  -0.0049320  -0.0010072   0.0256246   0.0000660  -0.0178686   0.0743368
          133         134         135         136         137         138
    1   0.0002469  -0.0158790   0.0322209  -0.0093989  -0.0079273   0.0109578
    2  -0.0101535  -0.0205975  -0.0014339   0.0002971   0.0029641   0.0060465
    3   0.0040677  -0.0188566  -0.0062422   0.0306246  -0.0620084   0.0041093
          139         140         141         142         143         144
    1  -0.0178635   0.0039636   0.0253500  -0.0781975  -0.0012402   0.0106021
    2   0.0347223  -0.0094962  -0.0189097   0.0396241  -0.0031554  -0.0228894
    3  -0.0063777   0.0331338  -0.0170534   0.0660377   0.0094997   0.0170589
          145         146         147         148         149         150
    1   0.0040283  -0.0327812  -0.0208989   0.0013239  -0.0298720   0.0105105
    2   0.0270361  -0.0057917   0.0510303  -0.0074398  -0.0055537   0.0047255
    3   0.0157144   0.0014450  -0.0293144  -0.0010324  -0.0113366  -0.0361569
          151         152         153         154         155         156
    1  -0.0034416   0.1043762  -0.0010629   0.0320419  -0.0110118  -0.0041687
    2  -0.0234213  -0.0177386   0.0080261   0.0006162  -0.0057421   0.0234338
    3   0.0265019   0.0227653  -0.0079310  -0.0079595  -0.0335658   0.0196707
          157         158         159         160         161         162
    1   0.0411070  -0.0032210  -0.0229509  -0.0048506   0.0297699  -0.1034024
    2  -0.0106310  -0.0058226  -0.0246961   0.0043316  -0.0149105   0.0276942
    3   0.0448412  -0.0048651   0.0037534  -0.0314760  -0.0073356   0.0244667
          163         164         165         166         167         168
    1  -0.0052924  -0.0136436   0.0059721  -0.0172669  -0.0174076   0.0084312
    2   0.0054250  -0.0191194   0.0219550   0.0176272  -0.0581082  -0.0002601
    3   0.0008254   0.0259597   0.0231285  -0.0233455  -0.0119146   0.0052209
          169         170         171         172         173         174
    1  -0.0092753   0.0228308   0.0149529   0.0352100   0.0081828   0.0058281
    2  -0.0189270  -0.0167152   0.0302483   0.0654658   0.0006610   0.0154414
    3   0.0251423  -0.0014798   0.0052094  -0.0817554   0.0020489   0.0271768
          175         176         177         178         179         180
    1  -0.0001596   0.0431659   0.0067399   0.0024451   0.0192799  -0.0102055
    2  -0.0272698   0.0089226  -0.0281489   0.0048443   0.0117049   0.0055764
    3   0.0076258  -0.0061819  -0.0554102  -0.0013920  -0.0353009   0.0210179
          181         182         183         184         185         186
    1   0.0284484  -0.0800455   0.0069428   0.0035059  -0.0100636   0.0133480
    2   0.0181702  -0.0288597  -0.0037505   0.0263942  -0.0169002  -0.0327825
    3   0.0057814   0.0651129   0.0033658   0.0211969   0.0234059  -0.0123281
          187         188         189         190         191         192
    1  -0.0189728   0.0029162   0.0157288   0.0277717  -0.0104154  -0.0652412
    2  -0.0384163   0.0060819   0.0161919  -0.0092875   0.0165068   0.0438579
    3  -0.0459400   0.0009941   0.0247103  -0.0131732  -0.0261983   0.0741598
          193         194         195         196         197         198
    1  -0.0062838  -0.0154450  -0.0218776  -0.0121594   0.0373613   0.0008733
    2   0.0031987  -0.0013552  -0.0116793   0.0308563   0.0343404  -0.0062695
    3   0.0039464  -0.0280504   0.0192854   0.0033839  -0.0312275  -0.0013337
          199         200         201         202         203         204
    1   0.0033102   0.0260286  -0.0157655   0.0145785  -0.0052964  -0.0190990
    2   0.0012078  -0.0229055  -0.0145099  -0.0016136   0.0023747   0.0080140
    3  -0.0335692   0.0007530   0.0205873   0.1096924  -0.0012099  -0.0285201
          205         206         207         208         209         210
    1  -0.0176566  -0.0113666   0.0280237  -0.0029049  -0.0065651   0.0287207
    2  -0.0153843   0.0256603   0.0257797  -0.0076087   0.0009461  -0.0176363
    3   0.0210646   0.0190226  -0.0339417  -0.0029310  -0.0320378   0.0011562
          211         212         213         214         215         216
    1  -0.0251056   0.0266434   0.0013411  -0.0004481   0.0206927  -0.0193352
    2  -0.0068225  -0.0104904  -0.0064253  -0.0133910  -0.0131611  -0.0235031
    3   0.0196602   0.1077264  -0.0006558  -0.0344352   0.0242385   0.0115398
          217         218         219         220         221         222
    1  -0.0455992   0.0056390   0.0003973   0.0288078   0.0082986   0.0197224
    2   0.0198675  -0.0006458   0.0294677  -0.0075060  -0.0028329   0.0131549
    3  -0.0244890  -0.0006299   0.0047756   0.0171293  -0.0358996   0.1083713
          223         224         225         226         227         228
    1  -0.0022254   0.0227268  -0.0269560  -0.0260117  -0.0487322   0.0085202
    2   0.0008984   0.0075823   0.0154469  -0.0200082  -0.0201766  -0.0048919
    3   0.0065875   0.0205017   0.0084677   0.0147138  -0.0339402   0.0027731
          229         230         231         232         233         234
    1   0.0122599   0.0224143  -0.0193430   0.0581838   0.0029024  -0.0023430
    2  -0.0080480   0.0094416  -0.0220092   0.0869068   0.0006216   0.0121648
    3  -0.0300791   0.0252612   0.0161639  -0.0315082  -0.0041985  -0.0321715
          235         236         237         238         239         240
    1   0.0289238  -0.0016460  -0.0074008   0.0013998  -0.0076548  -0.0059261
    2   0.0102306  -0.0279765   0.0520825  -0.0067762   0.0142301  -0.0306951
    3   0.0092663  -0.0061858   0.0092657   0.0053556   0.0284548  -0.0059181
          241         242         243         244         245         246
    1   0.0266278  -0.0730604   0.0039084   0.0345549  -0.0127197   0.0040889
    2  -0.0112163  -0.0610696  -0.0043891   0.0032555  -0.0239741  -0.0238476
    3   0.0138268  -0.0574976  -0.0008235  -0.0095698   0.0234489  -0.0234260
          247         248         249         250         251         252
    1   0.0076339  -0.0059972  -0.0047882  -0.0186691  -0.0298539   0.0025569
    2   0.0362317  -0.0024044  -0.0250451  -0.0044468   0.0153311   0.0238316
    3   0.0413322   0.0018296  -0.0182557   0.0324054  -0.0023643  -0.1076791
          253         254         255         256         257         258
    1   0.0036556  -0.0137628   0.0300299   0.0120906  -0.0234272   0.0042931
    2  -0.0001496   0.0077067  -0.0260852   0.0279652  -0.0446781  -0.0008507
    3   0.0062116   0.0291203   0.0133248  -0.0068191   0.0069743  -0.0042969
          259         260         261         262         263         264
    1  -0.0161333   0.0110545   0.0150664  -0.0524902   0.0117581  -0.0179540
    2   0.0046777   0.0331201  -0.0328278   0.0973694  -0.0002972   0.0134947
    3  -0.0221444   0.0021640  -0.0089993  -0.0069691  -0.0027914  -0.0199044
          265         266         267         268         269         270
    1   0.0299164   0.0303762  -0.0122546   0.0055405   0.0097183   0.0313294
    2   0.0153066  -0.0169284   0.0383597  -0.0052650  -0.0143956   0.0067597
    3   0.0082003  -0.0089706   0.0466145  -0.0033277  -0.0272714   0.0051335
          271         272         273         274         275         276
    1  -0.0073251  -0.0780002  -0.0019807   0.0180350  -0.0275562   0.0062035
    2  -0.0120630  -0.0505797   0.0074178   0.0097331   0.0003301   0.0235258
    3   0.0242500  -0.0557261  -0.0068022  -0.0284918  -0.0120857   0.0165003
          277         278         279         280         281         282
    1   0.0565206  -0.0034606   0.0122493  -0.0290177   0.0105877  -0.0807534
    2  -0.0033005  -0.0056104  -0.0291698  -0.0011066   0.0037987  -0.0308463
    3   0.0148192  -0.0042308   0.0144255  -0.0014086  -0.0328372   0.0725988
          283         284         285         286         287         288
    1   0.0051700  -0.0117520   0.0293281  -0.0232263  -0.0430878   0.0043351
    2   0.0034341   0.0330951   0.0134020  -0.0130782  -0.0235666   0.0055452
    3  -0.0018732  -0.0061600   0.0213062  -0.0306390  -0.0043089   0.0076637
          289         290         291         292         293         294
    1  -0.0293778  -0.0106665   0.0311981   0.1008350   0.0087284   0.0141272
    2   0.0206638  -0.0097632   0.0180433  -0.0451174   0.0011025  -0.0296119
    3   0.0147094   0.0332964  -0.0043458  -0.0058249  -0.0013215  -0.0048707
          295         296         297         298         299         300
    1   0.0076062   0.0261806  -0.0072177  -0.0058119  -0.0361620   0.0204324
    2   0.0178432   0.0106440  -0.0263532  -0.0022630  -0.0041318   0.0156460
    3  -0.0166996   0.0189185   0.0473647   0.0000548   0.0171074  -0.0090519
          301         302         303         304         305         306
    1  -0.0012192  -0.0244260  -0.0059350  -0.0233091   0.0000938  -0.0235575
    2  -0.0350252   0.1077343  -0.0051604   0.0185678  -0.0123657  -0.0121523
    3   0.0061102  -0.0157627  -0.0016309  -0.0071270  -0.0333732   0.0155744
          307         308         309         310         311         312
    1   0.0334285  -0.0031199  -0.0174677   0.0172132   0.0271573  -0.0424282
    2   0.0315104  -0.0069366  -0.0228010  -0.0206252  -0.0032523   0.0251761
    3  -0.0321322   0.0031172   0.0045035  -0.0207093   0.0198246   0.0970438
  --- DONE ESP SUMMARY ---
 Total job time:  39.68s(wall), 100.30s(cpu) 
 Thu Jul 21 10:18:49 2022

        *************************************************************
        *                                                           *
        *  Thank you very much for using Q-Chem.  Have a nice day.  *
        *                                                           *
        *************************************************************


