                  Welcome to Q-Chem
     A Quantum Leap Into The Future Of Chemistry


 Q-Chem 6.0 (devel), Q-Chem, Inc., Pleasanton, CA (2022)

 E. Epifanovsky,  A. T. B. Gilbert,  Xintian Feng,  Joonho Lee,  Yuezhi Mao,  
 N. Mardirossian,  P. Pokhilko,  A. White,  M. Wormit,  M. P. Coons,  
 A. L. Dempwolff,  Zhengting Gan,  D. Hait,  P. R. Horn,  L. D. Jacobson,  
 I. Kaliman,  J. Kussmann,  A. W. Lange,  Ka Un Lao,  D. S. Levine,  Jie Liu,  
 S. C. McKenzie,  A. F. Morrison,  K. Nanda,  F. Plasser,  D. R. Rehn,  
 M. L. Vidal,  Zhi-Qiang You,  Ying Zhu,  B. Alam,  B. Albrecht,  
 A. Aldossary,  E. Alguire,  J. H. Andersen,  V. Athavale,  D. Barton,  
 K. Begam,  A. Behn,  N. Bellonzi,  Y. A. Bernard,  E. J. Berquist,  
 H. Burton,  A. Carreras,  K. Carter-Fenk,  Romit Chakraborty,  
 Chandrima Chakravarty,  Junhan Chen,  A. D. Chien,  K. D. Closser,  
 V. Cofer-Shabica,  L. Cunha,  S. Dasgupta,  Jia Deng,  M. de Wergifosse,  
 M. Diedenhofen,  Hainam Do,  S. Ehlert,  Po-Tung Fang,  S. Fatehi,  
 Qingguo Feng,  T. Friedhoff,  B. Ganoe,  J. Gayvert,  Qinghui Ge,  
 G. Gidofalvi,  M. Goldey,  J. Gomes,  C. Gonzalez-Espinoza,  S. Gulania,  
 A. Gunina,  J. A. Gyamfi,  M. W. D. Hanson-Heine,  P. H. P. Harbach,  
 A. W. Hauser,  M. F. Herbst,  M. Hernandez Vera,  M. Hodecker,  
 Z. C. Holden,  S. Houck,  Xunkun Huang,  Kerwin Hui,  B. C. Huynh,  
 K. Ikeda,  M. Ivanov,  Hyunjun Ji,  Zuxin Jin,  Hanjie Jiang,  B. Kaduk,  
 S. Kaehler,  R. Kang,  K. Khistyaev,  Jaehoon Kim,  Yongbin Kim,  
 P. Klunzinger,  Z. Koczor-Benda,  Joong Hoon Koh,  D. Kosenkov,  
 Saikiran Kotaru,  L. Koulias,  T. Kowalczyk,  C. M. Krauter,  K. Kue,  
 A. Kunitsa,  T. Kus,  A. Landau,  K. V. Lawler,  D. Lefrancois,  S. Lehtola,  
 Rain Li,  Shaozhi Li,  Yi-Pei Li,  Jiashu Liang,  M. Liebenthal,  
 Hung-Hsuan Lin,  You-Sheng Lin,  Fenglai Liu,  Kuan-Yu Liu,  
 M. Loipersberger,  A. Luenser,  C. Malbon,  A. Manjanath,  P. Manohar,  
 E. Mansoor,  S. F. Manzer,  Shan-Ping Mao,  A. V. Marenich,  T. Markovich,  
 S. Mason,  F. Matz,  S. A. Maurer,  P. F. McLaughlin,  M. F. S. J. Menger,  
 J.-M. Mewes,  S. A. Mewes,  P. Morgante,  Mohammad Mostafanejad,  
 J. W. Mullinax,  K. J. Oosterbaan,  G. Paran,  V. Parravicini,  
 Alexander C. Paul,  Suranjan K. Paul,  F. Pavosevic,  Zheng Pei,  S. Prager,  
 E. I. Proynov,  E. Ramos,  B. Rana,  A. E. Rask,  A. Rettig,  R. M. Richard,  
 F. Rob,  E. Rossomme,  T. Scheele,  M. Scheurer,  M. Schneider,  
 P. E. Schneider,  N. Sergueev,  S. M. Sharada,  Hengyuan Shen,  
 W. Skomorowski,  D. W. Small,  C. J. Stein,  Yingli Su,  Yu-Chuan Su,  
 E. J. Sundstrom,  Zhen Tao,  J. Thirman,  Hung-Yi Tsai,  T. Tsuchimochi,  
 N. M. Tubman,  C. Utku,  S. P. Veccham,  O. Vydrov,  J. Wenzel,  
 Jonathan Wong,  J. Witte,  A. Yamada,  Chou-Hsun Yang,  Kun Yao,  
 S. Yeganeh,  S. R. Yost,  A. Zech,  F. Zeller,  Igor Ying Zhang,  
 Xing Zhang,  Yu Zhang,  D. Zuev,  A. Aspuru-Guzik,  A. T. Bell,  
 N. A. Besley,  K. B. Bravaya,  B. R. Brooks,  D. Casanova,  Jeng-Da Chai,  
 Hsing-Ta Chen,  S. Coriani,  C. J. Cramer,  A. E. DePrince, III,  
 R. A. DiStasio Jr.,  A. Dreuw,  B. D. Dunietz,  T. R. Furlani,  
 W. A. Goddard III,  S. Grimme,  S. Hammes-Schiffer,  T. Head-Gordon,  
 W. J. Hehre,  Chao-Ping Hsu,  T.-C. Jagau,  Yousung Jung,  A. Klamt,  
 Jing Kong,  D. S. Lambrecht,  Xiangyuan Li,  WanZhen Liang,  N. J. Mayhall,  
 C. W. McCurdy,  J. B. Neaton,  T. Neudecker,  C. Ochsenfeld,  
 J. A. Parkhill,  R. Peverati,  V. A. Rassolov,  Haisheng Ren,  Yihan Shao,  
 L. V. Slipchenko,  R. P. Steele,  J. E. Subotnik,  A. J. W. Thom,  
 A. Tkatchenko,  D. G. Truhlar,  T. Van Voorhis,  Fan Wang,  
 T. A. Wesolowski,  K. B. Whaley,  H. L. Woodcock III,  P. M. Zimmerman,  
 S. Faraji,  P. M. W. Gill,  M. Head-Gordon,  J. M. Herbert,  A. I. Krylov

 Contributors to earlier versions of Q-Chem not listed above: 
 R. D. Adamson,  B. Austin,  R. Baer,  J. Baker,  G. J. O. Beran,  
 K. Brandhorst,  S. T. Brown,  E. F. C. Byrd,  Arup K. Chakraborty,  
 G. K. L. Chan,  Chun-Min Chang,  Yunqing Chen,  C.-L. Cheng,  
 Siu Hung Chien,  D. M. Chipman,  D. L. Crittenden,  H. Dachsel,  
 R. J. Doerksen,  A. D. Dutoi,  R. G. Edgar,  J. Fosso-Tande,  
 L. Fusti-Molnar,  D. Ghosh,  A. Ghysels,  A. Golubeva-Zadorozhnaya,  
 J. Gonthier,  M. S. Gordon,  S. R. Gwaltney,  G. Hawkins,  J. E. Herr,  
 A. Heyden,  S. Hirata,  E. G. Hohenstein,  G. Kedziora,  F. J. Keil,  
 C. Kelley,  Jihan Kim,  R. A. King,  R. Z. Khaliullin,  P. P. Korambath,  
 W. Kurlancheek,  A. Laurent,  A. M. Lee,  M. S. Lee,  S. V. Levchenko,  
 Ching Yeh Lin,  D. Liotard,  E. Livshits,  R. C. Lochan,  I. Lotan,  
 L. A. Martinez-Martinez,  P. E. Maslen,  N. Nair,  D. P. O'Neill,  
 D. Neuhauser,  E. Neuscamman,  C. M. Oana,  R. Olivares-Amaya,  R. Olson,  
 T. M. Perrine,  B. Peters,  P. A. Pieniazek,  A. Prociuk,  Y. M. Rhee,  
 J. Ritchie,  M. A. Rohrdanz,  E. Rosta,  N. J. Russ,  H. F. Schaefer III,  
 M. W. Schmidt,  N. E. Schultz,  S. Sharma,  N. Shenvi,  C. D. Sherrill,  
 A. C. Simmonett,  A. Sodt,  T. Stein,  D. Stuck,  K. S. Thanthiriwatte,  
 V. Vanovschi,  L. Vogt,  Tao Wang,  A. Warshel,  M. A. Watson,  
 C. F. Williams,  Q. Wu,  X. Xu,  Jun Yang,  W. Zhang,  Yan Zhao

   Please cite Q-Chem as follows:
  "Software for the frontiers of quantum chemistry:
   An overview of developments in the Q-Chem 5 package"
   J. Chem. Phys. 155, 084801 (2021)
   https://doi.org/10.1063/5.0055522 (open access)

 Q-Chem 6.0.0 for Intel X86 EM64T Linux

 Parts of Q-Chem use Armadillo 9.900.5 (Nocturnal Misbehaviour).
 http://arma.sourceforge.net/

 Q-Chem begins on Thu Jul 21 03:14:49 2022  

 Host: nid00536
0

     Scratch files written to /global/cscratch1/sd/ymao90/r7.00_frame_0068_spade_B3LYP_dp20220721031328//
 Processing $rem in /global/homes/y/ymao90/my_qchem/qchem_embedding_5p4/config/preferences:
 Processing $rem in /global/homes/y/ymao90/.qchemrc:
 No nuclear gradient supported for projection-based embedding or EMFT. Set max ideriv = 0.

 Checking the input file for inconsistencies... 	...done.

--------------------------------------------------------------
User input:
--------------------------------------------------------------
$molecule
0 1
--
0 1
C    26.92200   25.60400   26.07500  
C    26.52600   26.20600   27.43300  
C    25.23300   27.03700   27.39900  
C    24.11900   26.43000   26.52900  
C    24.66800   25.98200   25.16400  
C    25.81000   24.95500   25.23400  
H    24.89300   27.35100   28.39300  
H    26.25000   25.32600   28.02600  
H    27.35900   26.38200   25.43700  
H    27.80700   24.96000   26.15200  
H    23.77000   25.58000   27.12700  
H    23.35700   27.19800   26.34700  
H    23.84700   25.55700   24.57400  
H    24.93000   26.82800   24.51700  
H    25.44300   24.03500   25.70400  
H    26.13000   24.55800   24.26300  
H    25.47100   27.99300   26.91700  
N    27.64900   26.92800   28.03000  
H    28.21500   27.50900   27.42300  
C    28.17800   26.62700   29.26700  
H    29.18000   27.03200   29.49700  
O    27.64400   25.84900   30.03800  
--
0 1
C    22.86600   29.50900   25.06900  
H    21.83600   29.82500   25.25100  
H    22.98800   28.62600   24.43700  
H    23.49300   29.31300   25.94300  
S    23.60800   30.78400   24.02400  
C    22.39200   30.42500   22.73600  
H    22.68500   31.08300   21.91400  
H    22.49600   29.38000   22.43300  
H    21.37400   30.62700   23.08000  
O    24.81400   30.10700   23.45100  
C    24.38700   26.41300   30.81300  
H    25.17900   25.78200   30.40300  
H    23.41700   26.19800   30.35700  
H    24.64500   27.46200   30.64400  
S    24.37700   26.29700   32.61600  
C    23.77700   24.59500   32.52800  
H    22.96600   24.56900   31.79500  
H    24.56300   23.96600   32.10500  
H    23.38200   24.31600   33.50800  
O    23.18300   27.10700   33.01400  
C    28.65000   29.89200   31.42100  
H    27.60000   29.78100   31.13700  
H    28.82600   30.94500   31.65100  
H    29.43200   29.49300   30.76900  
S    28.82000   29.21300   33.08700  
C    28.50300   27.48300   32.67200  
H    27.47200   27.46400   32.31000  
H    29.28800   27.12700   32.00000  
H    28.66800   27.02700   33.65200  
O    27.59300   29.72700   33.77300  
C    33.86700   26.11700   31.21700  
H    33.64400   25.04800   31.17900  
H    33.93800   26.49200   30.19300  
H    34.68000   26.40400   31.88900  
S    32.36900   26.96900   31.76200  
C    32.03300   26.04200   33.27700  
H    32.90600   26.05400   33.93500  
H    31.11500   26.47600   33.68100  
H    31.83400   25.05600   32.85000  
O    31.37900   26.58100   30.70900  
C    27.26700   18.14800   19.92000  
H    26.25600   17.93800   19.56300  
H    27.87100   18.75600   19.24100  
H    27.68500   17.14200   20.00700  
S    27.21900   19.00600   21.51000  
C    28.87200   18.54000   22.07300  
H    28.95000   17.45500   21.96300  
H    29.65900   19.03200   21.49600  
H    28.94500   18.76800   23.13900  
O    26.35100   18.19500   22.42200  
C    31.61600   28.86300   28.39600  
H    31.18200   29.82000   28.09800  
H    31.44400   28.10600   27.62500  
H    31.24800   28.53900   29.37300  
S    33.34600   29.35800   28.55600  
C    33.17800   30.55200   29.90200  
H    32.17000   30.93200   29.71800  
H    33.24300   29.97200   30.82600  
H    33.98900   31.28400   29.93900  
O    33.53400   30.24000   27.36100  
C    28.73100   20.85400   29.99900  
H    27.79300   20.41300   30.34600  
H    29.20800   21.40300   30.81500  
H    28.67600   21.45700   29.08900  
S    29.86700   19.50400   29.61200  
C    29.85800   18.61000   31.18300  
H    28.88200   18.14000   31.32800  
H    30.63300   17.83900   31.19300  
H    30.09600   19.40900   31.88900  
O    31.19500   20.18900   29.52200  
C    27.55700   24.56600   19.89700  
H    28.17200   25.06500   19.14300  
H    26.50800   24.78700   19.68100  
H    27.77200   24.97300   20.88800  
S    27.98400   22.81100   19.96400  
C    27.52200   22.53700   18.23900  
H    27.43400   21.45400   18.11700  
H    26.59500   23.08100   18.03600  
H    28.28400   22.87300   17.53100  
O    26.88800   22.22100   20.79500  
C    30.34600   33.16600   27.58200  
H    30.88700   33.68200   26.78400  
H    30.88100   32.29500   27.96900  
H    29.37300   32.84100   27.20500  
S    30.08500   34.31800   28.94900  
C    31.79600   34.25300   29.52400  
H    32.10300   33.20900   29.42200  
H    32.42000   34.91900   28.92300  
H    31.74400   34.54800   30.57500  
O    29.38900   33.36700   29.87100  
C    28.02900   23.10600   35.06000  
H    28.72600   23.66100   35.69200  
H    27.17400   23.69100   34.71100  
H    27.66300   22.31000   35.71400  
S    28.74300   22.41500   33.55100  
C    28.84700   23.91600   32.55000  
H    29.33900   23.68000   31.60300  
H    27.83400   24.28200   32.36100  
H    29.33300   24.73800   33.08200  
O    27.71000   21.56900   32.87500  
C    20.47300   21.85000   27.20000  
H    19.61200   21.18000   27.12800  
H    21.46100   21.44100   26.97400  
H    20.49100   22.30100   28.19500  
S    19.95300   23.20900   26.12800  
C    21.55500   23.93400   26.54200  
H    22.32300   23.26500   26.14600  
H    21.77800   24.90000   26.08200  
H    21.71300   24.01100   27.62100  
O    18.96100   24.07800   26.83500  
C    30.81700   25.66700   20.76600  
H    29.73300   25.66900   20.62100  
H    31.23400   26.67700   20.73200  
H    31.29000   25.03500   20.01100  
S    31.08400   25.11300   22.46400  
C    30.04000   26.33600   23.28900  
H    29.11300   26.42000   22.71600  
H    29.93900   26.18200   24.36600  
H    30.46200   27.33900   23.18000  
O    32.47100   25.63600   22.67200  
C    18.73100   29.02600   24.70900  
H    19.41900   29.84200   24.94500  
H    17.68900   29.29100   24.51100  
H    18.70000   28.42100   25.61900  
S    19.56400   28.24600   23.30800  
C    18.27000   27.03500   22.95600  
H    18.16600   26.38100   23.82500  
H    17.38700   27.63300   22.71700  
H    18.60900   26.41200   22.12400  
O    20.62700   27.42200   23.96600  
C    20.39700   29.28300   31.73800  
H    19.99700   30.29900   31.79400  
H    21.27600   29.13400   32.37000  
H    20.68500   28.98700   30.72600  
S    19.05200   28.27000   32.39200  
C    20.00800   26.77500   32.73400  
H    20.58300   26.54300   31.83400  
H    20.69900   26.92200   33.56800  
H    19.12100   26.16000   32.90100  
O    18.29000   27.89100   31.16000  
C    21.89400   33.02300   26.73200  
H    22.36400   33.21600   25.76500  
H    22.37300   33.66000   27.48000  
H    22.05800   31.95400   26.89300  
S    20.18400   33.60400   26.65800  
C    19.84300   33.05000   28.34400  
H    18.76000   32.90700   28.39000  
H    20.30100   32.06800   28.48600  
H    20.23200   33.68000   29.14800  
O    19.68000   32.63300   25.63600  
C    27.69800   29.63100   24.51700  
H    27.45800   30.49700   23.89500  
H    28.33700   28.82700   24.14500  
H    26.73700   29.21500   24.83200  
S    28.55100   30.13800   26.02800  
C    30.02100   30.71300   25.15000  
H    30.91900   30.64300   25.76900  
H    30.09500   30.09800   24.24900  
H    29.86100   31.77100   24.92500  
O    29.06100   28.78400   26.41200  
C    18.93100   23.95100   30.56100  
H    18.06100   23.39100   30.91500  
H    19.03900   24.95900   30.97000  
H    18.95200   24.11200   29.48000  
S    20.41100   23.06400   31.09600  
C    19.93100   21.32200   31.09400  
H    19.02900   21.04800   31.64700  
H    19.72600   21.05600   30.05400  
H    20.77600   20.66500   31.31600  
O    20.41000   23.26000   32.58000  
C    29.23500   29.40100   20.32400  
H    29.54600   29.20700   21.35400  
H    30.08600   29.13600   19.69200  
H    29.12900   30.48900   20.30700  
S    27.71300   28.45800   20.07900  
C    26.61900   29.64300   20.89400  
H    26.95000   29.64800   21.93500  
H    26.76200   30.60600   20.39500  
H    25.60000   29.27600   20.75300  
O    27.82200   27.37400   21.10600  
C    25.27700   33.52700   26.10300  
H    25.02000   34.11600   25.21900  
H    25.09200   32.48100   25.84500  
H    24.63800   33.76800   26.95600  
S    26.96700   33.83300   26.66400  
C    26.86400   35.62900   26.83400  
H    27.77900   36.09100   27.21200  
H    26.60300   36.01800   25.84600  
H    26.02500   35.76000   27.52200  
O    27.80400   33.50200   25.46900  
C    24.91200   30.51700   28.68600  
H    25.40400   30.92600   27.80000  
H    25.64300   29.77800   29.02300  
H    23.91100   30.08500   28.60300  
S    24.74100   31.88400   29.85600  
C    23.45300   31.06100   30.82000  
H    22.44600   31.11300   30.39700  
H    23.72800   30.07100   31.19300  
H    23.33500   31.54600   31.79300  
O    24.12100   32.91600   28.96700  
C    19.27000   22.66600   20.04400  
H    18.54300   21.88900   20.29300  
H    19.22200   22.93000   18.98500  
H    20.26800   22.41100   20.41100  
S    18.69500   24.15900   20.88500  
C    18.82400   23.56600   22.58700  
H    19.90200   23.49600   22.75300  
H    18.25500   24.19100   23.28000  
H    18.29100   22.61300   22.55800  
O    17.20300   24.03400   20.90100  
C    19.58700   28.68100   28.03200  
H    18.75300   28.07800   27.66500  
H    19.64400   28.86200   29.10900  
H    19.55000   29.63100   27.49400  
S    21.08900   27.75600   27.63900  
C    20.49100   26.43000   28.71000  
H    19.70300   25.87600   28.19500  
H    21.37600   25.81500   28.89500  
H    20.10800   26.75000   29.68300  
O    22.14500   28.50400   28.39100  
C    24.35200   20.77600   22.62500  
H    24.65200   21.80400   22.40400  
H    25.19700   20.29300   23.12300  
H    24.02400   20.15700   21.78600  
S    22.90700   20.68200   23.70600  
C    22.19900   22.21100   23.05300  
H    22.93300   22.99000   23.27400  
H    21.97400   22.02100   22.00000  
H    21.26900   22.33500   23.61500  
O    23.44800   21.10100   25.03700  
C    25.70300   22.84100   28.83900  
H    26.28400   23.61500   29.34600  
H    26.32100   21.94100   28.90000  
H    25.52900   23.05500   27.78100  
S    24.19000   22.61100   29.79800  
C    23.40200   21.21700   28.96200  
H    23.25300   21.47200   27.90900  
H    24.07900   20.37000   29.09800  
H    22.45100   21.00700   29.45900  
O    23.27400   23.75200   29.48500  
C    21.54000   26.99900   20.85400  
H    20.44900   26.95300   20.79800  
H    21.75400   27.95500   21.33900  
H    21.94100   26.89700   19.84300  
S    22.23300   25.63700   21.81800  
C    23.99800   25.95800   21.60200  
H    24.71000   25.16700   21.85100  
H    24.15300   26.15000   20.53700  
H    24.23400   26.90300   22.09800  
O    21.94000   24.46000   20.94100  
C    30.37300   20.78300   24.94700  
H    30.40000   19.92400   24.27200  
H    31.38700   21.15300   25.12000  
H    29.80700   20.76900   25.88200  
S    29.74800   22.23500   24.07100  
C    27.98800   21.82900   24.00200  
H    27.94600   20.74600   23.85600  
H    27.61800   22.12400   24.98700  
H    27.52900   22.46200   23.23900  
O    30.22500   22.03300   22.66700  
C    26.26000   26.95400   36.15500  
H    25.67300   26.04600   36.31700  
H    25.77500   27.86200   36.52200  
H    26.66700   27.01000   35.14200  
S    27.65100   26.56200   37.23800  
C    28.05300   28.30600   37.48500  
H    27.32100   28.65200   38.21900  
H    29.00900   28.20400   38.00600  
H    28.01200   28.89900   36.56800  
O    28.62600   26.07700   36.21000  
C    28.12400   17.73100   26.87400  
H    28.21600   17.22400   25.91000  
H    28.82000   18.57300   26.85900  
H    28.60900   17.06300   27.59000  
S    26.43100   18.29700   27.15800  
C    26.57200   19.76200   26.11000  
H    26.62800   19.33900   25.10400  
H    25.76900   20.49000   26.25400  
H    27.46000   20.32000   26.41800  
O    26.40000   18.92500   28.51600  
C    31.66400   32.53900   32.90100  
H    31.81500   32.28800   31.84800  
H    30.67500   32.24000   33.25900  
H    31.95600   33.57400   33.10000  
S    32.86100   31.49900   33.76800  
C    34.31500   32.10800   32.88500  
H    34.42300   33.17600   33.08700  
H    35.13500   31.48100   33.24600  
H    34.21000   31.89100   31.81900  
O    32.79200   30.06300   33.35300  
C    24.56800   20.01300   19.12500  
H    25.20000   20.05900   18.23400  
H    25.09800   20.45900   19.97100  
H    24.31200   18.96800   19.31700  
S    23.01300   20.84100   18.72400  
C    23.52900   22.57300   18.72300  
H    23.97300   22.80200   19.69500  
H    24.28400   22.77000   17.95700  
H    22.60800   23.15500   18.63800  
O    22.11300   20.51400   19.87500  
C    30.97700   23.86000   29.20200  
H    31.17600   23.02900   29.88300  
H    31.74100   24.63100   29.33200  
H    29.96900   24.22400   29.41500  
S    31.02100   23.08900   27.56800  
C    31.57900   24.63900   26.82600  
H    31.54200   24.25000   25.80500  
H    30.96200   25.50800   27.06900  
H    32.62400   24.79500   27.10300  
O    29.57400   22.97000   27.20400  
$end

$rem
JOBTYPE  SP
METHOD  B3LYP
BASIS  6-31+G(D)
SYMMETRY  FALSE
SYM_IGNORE  TRUE
MEM_TOTAL  12000
MEM_STATIC  4000
BASIS_LIN_DEP_THRESH  6
THRESH  14
SCF_CONVERGENCE  8
FD_MAT_VEC_PROD  FALSE
XC_GRID  000075000302
NL_GRID  1
MAX_SCF_CYCLES  200
ENV_METHOD  B3LYP
GEN_SCFMAN_EMBED  TRUE
SPADE_PARTITION  TRUE
EMBEDDING_EARLY_STOP  TRUE
$end

--------------------------------------------------------------
 ----------------------------------------------------------------
             Standard Nuclear Orientation (Angstroms)
    I     Atom           X                Y                Z
 ----------------------------------------------------------------
    1      C      26.9220000000    25.6040000000    26.0750000000
    2      C      26.5260000000    26.2060000000    27.4330000000
    3      C      25.2330000000    27.0370000000    27.3990000000
    4      C      24.1190000000    26.4300000000    26.5290000000
    5      C      24.6680000000    25.9820000000    25.1640000000
    6      C      25.8100000000    24.9550000000    25.2340000000
    7      H      24.8930000000    27.3510000000    28.3930000000
    8      H      26.2500000000    25.3260000000    28.0260000000
    9      H      27.3590000000    26.3820000000    25.4370000000
   10      H      27.8070000000    24.9600000000    26.1520000000
   11      H      23.7700000000    25.5800000000    27.1270000000
   12      H      23.3570000000    27.1980000000    26.3470000000
   13      H      23.8470000000    25.5570000000    24.5740000000
   14      H      24.9300000000    26.8280000000    24.5170000000
   15      H      25.4430000000    24.0350000000    25.7040000000
   16      H      26.1300000000    24.5580000000    24.2630000000
   17      H      25.4710000000    27.9930000000    26.9170000000
   18      N      27.6490000000    26.9280000000    28.0300000000
   19      H      28.2150000000    27.5090000000    27.4230000000
   20      C      28.1780000000    26.6270000000    29.2670000000
   21      H      29.1800000000    27.0320000000    29.4970000000
   22      O      27.6440000000    25.8490000000    30.0380000000
   23      C      22.8660000000    29.5090000000    25.0690000000
   24      H      21.8360000000    29.8250000000    25.2510000000
   25      H      22.9880000000    28.6260000000    24.4370000000
   26      H      23.4930000000    29.3130000000    25.9430000000
   27      S      23.6080000000    30.7840000000    24.0240000000
   28      C      22.3920000000    30.4250000000    22.7360000000
   29      H      22.6850000000    31.0830000000    21.9140000000
   30      H      22.4960000000    29.3800000000    22.4330000000
   31      H      21.3740000000    30.6270000000    23.0800000000
   32      O      24.8140000000    30.1070000000    23.4510000000
   33      C      24.3870000000    26.4130000000    30.8130000000
   34      H      25.1790000000    25.7820000000    30.4030000000
   35      H      23.4170000000    26.1980000000    30.3570000000
   36      H      24.6450000000    27.4620000000    30.6440000000
   37      S      24.3770000000    26.2970000000    32.6160000000
   38      C      23.7770000000    24.5950000000    32.5280000000
   39      H      22.9660000000    24.5690000000    31.7950000000
   40      H      24.5630000000    23.9660000000    32.1050000000
   41      H      23.3820000000    24.3160000000    33.5080000000
   42      O      23.1830000000    27.1070000000    33.0140000000
   43      C      28.6500000000    29.8920000000    31.4210000000
   44      H      27.6000000000    29.7810000000    31.1370000000
   45      H      28.8260000000    30.9450000000    31.6510000000
   46      H      29.4320000000    29.4930000000    30.7690000000
   47      S      28.8200000000    29.2130000000    33.0870000000
   48      C      28.5030000000    27.4830000000    32.6720000000
   49      H      27.4720000000    27.4640000000    32.3100000000
   50      H      29.2880000000    27.1270000000    32.0000000000
   51      H      28.6680000000    27.0270000000    33.6520000000
   52      O      27.5930000000    29.7270000000    33.7730000000
   53      C      33.8670000000    26.1170000000    31.2170000000
   54      H      33.6440000000    25.0480000000    31.1790000000
   55      H      33.9380000000    26.4920000000    30.1930000000
   56      H      34.6800000000    26.4040000000    31.8890000000
   57      S      32.3690000000    26.9690000000    31.7620000000
   58      C      32.0330000000    26.0420000000    33.2770000000
   59      H      32.9060000000    26.0540000000    33.9350000000
   60      H      31.1150000000    26.4760000000    33.6810000000
   61      H      31.8340000000    25.0560000000    32.8500000000
   62      O      31.3790000000    26.5810000000    30.7090000000
   63      C      27.2670000000    18.1480000000    19.9200000000
   64      H      26.2560000000    17.9380000000    19.5630000000
   65      H      27.8710000000    18.7560000000    19.2410000000
   66      H      27.6850000000    17.1420000000    20.0070000000
   67      S      27.2190000000    19.0060000000    21.5100000000
   68      C      28.8720000000    18.5400000000    22.0730000000
   69      H      28.9500000000    17.4550000000    21.9630000000
   70      H      29.6590000000    19.0320000000    21.4960000000
   71      H      28.9450000000    18.7680000000    23.1390000000
   72      O      26.3510000000    18.1950000000    22.4220000000
   73      C      31.6160000000    28.8630000000    28.3960000000
   74      H      31.1820000000    29.8200000000    28.0980000000
   75      H      31.4440000000    28.1060000000    27.6250000000
   76      H      31.2480000000    28.5390000000    29.3730000000
   77      S      33.3460000000    29.3580000000    28.5560000000
   78      C      33.1780000000    30.5520000000    29.9020000000
   79      H      32.1700000000    30.9320000000    29.7180000000
   80      H      33.2430000000    29.9720000000    30.8260000000
   81      H      33.9890000000    31.2840000000    29.9390000000
   82      O      33.5340000000    30.2400000000    27.3610000000
   83      C      28.7310000000    20.8540000000    29.9990000000
   84      H      27.7930000000    20.4130000000    30.3460000000
   85      H      29.2080000000    21.4030000000    30.8150000000
   86      H      28.6760000000    21.4570000000    29.0890000000
   87      S      29.8670000000    19.5040000000    29.6120000000
   88      C      29.8580000000    18.6100000000    31.1830000000
   89      H      28.8820000000    18.1400000000    31.3280000000
   90      H      30.6330000000    17.8390000000    31.1930000000
   91      H      30.0960000000    19.4090000000    31.8890000000
   92      O      31.1950000000    20.1890000000    29.5220000000
   93      C      27.5570000000    24.5660000000    19.8970000000
   94      H      28.1720000000    25.0650000000    19.1430000000
   95      H      26.5080000000    24.7870000000    19.6810000000
   96      H      27.7720000000    24.9730000000    20.8880000000
   97      S      27.9840000000    22.8110000000    19.9640000000
   98      C      27.5220000000    22.5370000000    18.2390000000
   99      H      27.4340000000    21.4540000000    18.1170000000
  100      H      26.5950000000    23.0810000000    18.0360000000
  101      H      28.2840000000    22.8730000000    17.5310000000
  102      O      26.8880000000    22.2210000000    20.7950000000
  103      C      30.3460000000    33.1660000000    27.5820000000
  104      H      30.8870000000    33.6820000000    26.7840000000
  105      H      30.8810000000    32.2950000000    27.9690000000
  106      H      29.3730000000    32.8410000000    27.2050000000
  107      S      30.0850000000    34.3180000000    28.9490000000
  108      C      31.7960000000    34.2530000000    29.5240000000
  109      H      32.1030000000    33.2090000000    29.4220000000
  110      H      32.4200000000    34.9190000000    28.9230000000
  111      H      31.7440000000    34.5480000000    30.5750000000
  112      O      29.3890000000    33.3670000000    29.8710000000
  113      C      28.0290000000    23.1060000000    35.0600000000
  114      H      28.7260000000    23.6610000000    35.6920000000
  115      H      27.1740000000    23.6910000000    34.7110000000
  116      H      27.6630000000    22.3100000000    35.7140000000
  117      S      28.7430000000    22.4150000000    33.5510000000
  118      C      28.8470000000    23.9160000000    32.5500000000
  119      H      29.3390000000    23.6800000000    31.6030000000
  120      H      27.8340000000    24.2820000000    32.3610000000
  121      H      29.3330000000    24.7380000000    33.0820000000
  122      O      27.7100000000    21.5690000000    32.8750000000
  123      C      20.4730000000    21.8500000000    27.2000000000
  124      H      19.6120000000    21.1800000000    27.1280000000
  125      H      21.4610000000    21.4410000000    26.9740000000
  126      H      20.4910000000    22.3010000000    28.1950000000
  127      S      19.9530000000    23.2090000000    26.1280000000
  128      C      21.5550000000    23.9340000000    26.5420000000
  129      H      22.3230000000    23.2650000000    26.1460000000
  130      H      21.7780000000    24.9000000000    26.0820000000
  131      H      21.7130000000    24.0110000000    27.6210000000
  132      O      18.9610000000    24.0780000000    26.8350000000
  133      C      30.8170000000    25.6670000000    20.7660000000
  134      H      29.7330000000    25.6690000000    20.6210000000
  135      H      31.2340000000    26.6770000000    20.7320000000
  136      H      31.2900000000    25.0350000000    20.0110000000
  137      S      31.0840000000    25.1130000000    22.4640000000
  138      C      30.0400000000    26.3360000000    23.2890000000
  139      H      29.1130000000    26.4200000000    22.7160000000
  140      H      29.9390000000    26.1820000000    24.3660000000
  141      H      30.4620000000    27.3390000000    23.1800000000
  142      O      32.4710000000    25.6360000000    22.6720000000
  143      C      18.7310000000    29.0260000000    24.7090000000
  144      H      19.4190000000    29.8420000000    24.9450000000
  145      H      17.6890000000    29.2910000000    24.5110000000
  146      H      18.7000000000    28.4210000000    25.6190000000
  147      S      19.5640000000    28.2460000000    23.3080000000
  148      C      18.2700000000    27.0350000000    22.9560000000
  149      H      18.1660000000    26.3810000000    23.8250000000
  150      H      17.3870000000    27.6330000000    22.7170000000
  151      H      18.6090000000    26.4120000000    22.1240000000
  152      O      20.6270000000    27.4220000000    23.9660000000
  153      C      20.3970000000    29.2830000000    31.7380000000
  154      H      19.9970000000    30.2990000000    31.7940000000
  155      H      21.2760000000    29.1340000000    32.3700000000
  156      H      20.6850000000    28.9870000000    30.7260000000
  157      S      19.0520000000    28.2700000000    32.3920000000
  158      C      20.0080000000    26.7750000000    32.7340000000
  159      H      20.5830000000    26.5430000000    31.8340000000
  160      H      20.6990000000    26.9220000000    33.5680000000
  161      H      19.1210000000    26.1600000000    32.9010000000
  162      O      18.2900000000    27.8910000000    31.1600000000
  163      C      21.8940000000    33.0230000000    26.7320000000
  164      H      22.3640000000    33.2160000000    25.7650000000
  165      H      22.3730000000    33.6600000000    27.4800000000
  166      H      22.0580000000    31.9540000000    26.8930000000
  167      S      20.1840000000    33.6040000000    26.6580000000
  168      C      19.8430000000    33.0500000000    28.3440000000
  169      H      18.7600000000    32.9070000000    28.3900000000
  170      H      20.3010000000    32.0680000000    28.4860000000
  171      H      20.2320000000    33.6800000000    29.1480000000
  172      O      19.6800000000    32.6330000000    25.6360000000
  173      C      27.6980000000    29.6310000000    24.5170000000
  174      H      27.4580000000    30.4970000000    23.8950000000
  175      H      28.3370000000    28.8270000000    24.1450000000
  176      H      26.7370000000    29.2150000000    24.8320000000
  177      S      28.5510000000    30.1380000000    26.0280000000
  178      C      30.0210000000    30.7130000000    25.1500000000
  179      H      30.9190000000    30.6430000000    25.7690000000
  180      H      30.0950000000    30.0980000000    24.2490000000
  181      H      29.8610000000    31.7710000000    24.9250000000
  182      O      29.0610000000    28.7840000000    26.4120000000
  183      C      18.9310000000    23.9510000000    30.5610000000
  184      H      18.0610000000    23.3910000000    30.9150000000
  185      H      19.0390000000    24.9590000000    30.9700000000
  186      H      18.9520000000    24.1120000000    29.4800000000
  187      S      20.4110000000    23.0640000000    31.0960000000
  188      C      19.9310000000    21.3220000000    31.0940000000
  189      H      19.0290000000    21.0480000000    31.6470000000
  190      H      19.7260000000    21.0560000000    30.0540000000
  191      H      20.7760000000    20.6650000000    31.3160000000
  192      O      20.4100000000    23.2600000000    32.5800000000
  193      C      29.2350000000    29.4010000000    20.3240000000
  194      H      29.5460000000    29.2070000000    21.3540000000
  195      H      30.0860000000    29.1360000000    19.6920000000
  196      H      29.1290000000    30.4890000000    20.3070000000
  197      S      27.7130000000    28.4580000000    20.0790000000
  198      C      26.6190000000    29.6430000000    20.8940000000
  199      H      26.9500000000    29.6480000000    21.9350000000
  200      H      26.7620000000    30.6060000000    20.3950000000
  201      H      25.6000000000    29.2760000000    20.7530000000
  202      O      27.8220000000    27.3740000000    21.1060000000
  203      C      25.2770000000    33.5270000000    26.1030000000
  204      H      25.0200000000    34.1160000000    25.2190000000
  205      H      25.0920000000    32.4810000000    25.8450000000
  206      H      24.6380000000    33.7680000000    26.9560000000
  207      S      26.9670000000    33.8330000000    26.6640000000
  208      C      26.8640000000    35.6290000000    26.8340000000
  209      H      27.7790000000    36.0910000000    27.2120000000
  210      H      26.6030000000    36.0180000000    25.8460000000
  211      H      26.0250000000    35.7600000000    27.5220000000
  212      O      27.8040000000    33.5020000000    25.4690000000
  213      C      24.9120000000    30.5170000000    28.6860000000
  214      H      25.4040000000    30.9260000000    27.8000000000
  215      H      25.6430000000    29.7780000000    29.0230000000
  216      H      23.9110000000    30.0850000000    28.6030000000
  217      S      24.7410000000    31.8840000000    29.8560000000
  218      C      23.4530000000    31.0610000000    30.8200000000
  219      H      22.4460000000    31.1130000000    30.3970000000
  220      H      23.7280000000    30.0710000000    31.1930000000
  221      H      23.3350000000    31.5460000000    31.7930000000
  222      O      24.1210000000    32.9160000000    28.9670000000
  223      C      19.2700000000    22.6660000000    20.0440000000
  224      H      18.5430000000    21.8890000000    20.2930000000
  225      H      19.2220000000    22.9300000000    18.9850000000
  226      H      20.2680000000    22.4110000000    20.4110000000
  227      S      18.6950000000    24.1590000000    20.8850000000
  228      C      18.8240000000    23.5660000000    22.5870000000
  229      H      19.9020000000    23.4960000000    22.7530000000
  230      H      18.2550000000    24.1910000000    23.2800000000
  231      H      18.2910000000    22.6130000000    22.5580000000
  232      O      17.2030000000    24.0340000000    20.9010000000
  233      C      19.5870000000    28.6810000000    28.0320000000
  234      H      18.7530000000    28.0780000000    27.6650000000
  235      H      19.6440000000    28.8620000000    29.1090000000
  236      H      19.5500000000    29.6310000000    27.4940000000
  237      S      21.0890000000    27.7560000000    27.6390000000
  238      C      20.4910000000    26.4300000000    28.7100000000
  239      H      19.7030000000    25.8760000000    28.1950000000
  240      H      21.3760000000    25.8150000000    28.8950000000
  241      H      20.1080000000    26.7500000000    29.6830000000
  242      O      22.1450000000    28.5040000000    28.3910000000
  243      C      24.3520000000    20.7760000000    22.6250000000
  244      H      24.6520000000    21.8040000000    22.4040000000
  245      H      25.1970000000    20.2930000000    23.1230000000
  246      H      24.0240000000    20.1570000000    21.7860000000
  247      S      22.9070000000    20.6820000000    23.7060000000
  248      C      22.1990000000    22.2110000000    23.0530000000
  249      H      22.9330000000    22.9900000000    23.2740000000
  250      H      21.9740000000    22.0210000000    22.0000000000
  251      H      21.2690000000    22.3350000000    23.6150000000
  252      O      23.4480000000    21.1010000000    25.0370000000
  253      C      25.7030000000    22.8410000000    28.8390000000
  254      H      26.2840000000    23.6150000000    29.3460000000
  255      H      26.3210000000    21.9410000000    28.9000000000
  256      H      25.5290000000    23.0550000000    27.7810000000
  257      S      24.1900000000    22.6110000000    29.7980000000
  258      C      23.4020000000    21.2170000000    28.9620000000
  259      H      23.2530000000    21.4720000000    27.9090000000
  260      H      24.0790000000    20.3700000000    29.0980000000
  261      H      22.4510000000    21.0070000000    29.4590000000
  262      O      23.2740000000    23.7520000000    29.4850000000
  263      C      21.5400000000    26.9990000000    20.8540000000
  264      H      20.4490000000    26.9530000000    20.7980000000
  265      H      21.7540000000    27.9550000000    21.3390000000
  266      H      21.9410000000    26.8970000000    19.8430000000
  267      S      22.2330000000    25.6370000000    21.8180000000
  268      C      23.9980000000    25.9580000000    21.6020000000
  269      H      24.7100000000    25.1670000000    21.8510000000
  270      H      24.1530000000    26.1500000000    20.5370000000
  271      H      24.2340000000    26.9030000000    22.0980000000
  272      O      21.9400000000    24.4600000000    20.9410000000
  273      C      30.3730000000    20.7830000000    24.9470000000
  274      H      30.4000000000    19.9240000000    24.2720000000
  275      H      31.3870000000    21.1530000000    25.1200000000
  276      H      29.8070000000    20.7690000000    25.8820000000
  277      S      29.7480000000    22.2350000000    24.0710000000
  278      C      27.9880000000    21.8290000000    24.0020000000
  279      H      27.9460000000    20.7460000000    23.8560000000
  280      H      27.6180000000    22.1240000000    24.9870000000
  281      H      27.5290000000    22.4620000000    23.2390000000
  282      O      30.2250000000    22.0330000000    22.6670000000
  283      C      26.2600000000    26.9540000000    36.1550000000
  284      H      25.6730000000    26.0460000000    36.3170000000
  285      H      25.7750000000    27.8620000000    36.5220000000
  286      H      26.6670000000    27.0100000000    35.1420000000
  287      S      27.6510000000    26.5620000000    37.2380000000
  288      C      28.0530000000    28.3060000000    37.4850000000
  289      H      27.3210000000    28.6520000000    38.2190000000
  290      H      29.0090000000    28.2040000000    38.0060000000
  291      H      28.0120000000    28.8990000000    36.5680000000
  292      O      28.6260000000    26.0770000000    36.2100000000
  293      C      28.1240000000    17.7310000000    26.8740000000
  294      H      28.2160000000    17.2240000000    25.9100000000
  295      H      28.8200000000    18.5730000000    26.8590000000
  296      H      28.6090000000    17.0630000000    27.5900000000
  297      S      26.4310000000    18.2970000000    27.1580000000
  298      C      26.5720000000    19.7620000000    26.1100000000
  299      H      26.6280000000    19.3390000000    25.1040000000
  300      H      25.7690000000    20.4900000000    26.2540000000
  301      H      27.4600000000    20.3200000000    26.4180000000
  302      O      26.4000000000    18.9250000000    28.5160000000
  303      C      31.6640000000    32.5390000000    32.9010000000
  304      H      31.8150000000    32.2880000000    31.8480000000
  305      H      30.6750000000    32.2400000000    33.2590000000
  306      H      31.9560000000    33.5740000000    33.1000000000
  307      S      32.8610000000    31.4990000000    33.7680000000
  308      C      34.3150000000    32.1080000000    32.8850000000
  309      H      34.4230000000    33.1760000000    33.0870000000
  310      H      35.1350000000    31.4810000000    33.2460000000
  311      H      34.2100000000    31.8910000000    31.8190000000
  312      O      32.7920000000    30.0630000000    33.3530000000
  313      C      24.5680000000    20.0130000000    19.1250000000
  314      H      25.2000000000    20.0590000000    18.2340000000
  315      H      25.0980000000    20.4590000000    19.9710000000
  316      H      24.3120000000    18.9680000000    19.3170000000
  317      S      23.0130000000    20.8410000000    18.7240000000
  318      C      23.5290000000    22.5730000000    18.7230000000
  319      H      23.9730000000    22.8020000000    19.6950000000
  320      H      24.2840000000    22.7700000000    17.9570000000
  321      H      22.6080000000    23.1550000000    18.6380000000
  322      O      22.1130000000    20.5140000000    19.8750000000
  323      C      30.9770000000    23.8600000000    29.2020000000
  324      H      31.1760000000    23.0290000000    29.8830000000
  325      H      31.7410000000    24.6310000000    29.3320000000
  326      H      29.9690000000    24.2240000000    29.4150000000
  327      S      31.0210000000    23.0890000000    27.5680000000
  328      C      31.5790000000    24.6390000000    26.8260000000
  329      H      31.5420000000    24.2500000000    25.8050000000
  330      H      30.9620000000    25.5080000000    27.0690000000
  331      H      32.6240000000    24.7950000000    27.1030000000
  332      O      29.5740000000    22.9700000000    27.2040000000
 ----------------------------------------------------------------
 Nuclear Repulsion Energy =       60304.70311710 hartrees
 There are      686 alpha and      686 beta electrons
 Requested basis set is 6-31+G(d)
 There are 1094 shells and 3049 basis functions

 Total QAlloc Memory Limit  12000 MB
 Mega-Array Size      3911 MB
 MEM_STATIC part      4000 MB

 A cutoff of  1.0D-14 yielded 216829 shell pairs
 There are   1885955 function pairs
 Smallest overlap matrix eigenvalue = 3.49E-07
 Linear dependence detected in AO basis
 Tighter screening thresholds may be required for diffuse basis sets
 Use S2THRESH > 14 and THRESH = 14 in case of SCF convergence issues
 Number of orthogonalized atomic orbitals = 3046
 Maximum deviation from orthogonality = 1.237E-10

 Scale SEOQF with 1.000000e-03/1.000000e-03/1.000000e-03

 Standard Electronic Orientation quadrupole field applied
 Nucleus-field energy     =    -0.0000000833 hartrees
 Guess from superposition of atomic densities
 Warning:  Energy on first SCF cycle will be non-variational
 SAD guess density has 1372.000003 electrons

 -----------------------------------------------------------------------
  General SCF calculation program by
  Eric Jon Sundstrom, Paul Horn, Yuezhi Mao, Dmitri Zuev, Alec White,
  David Stuck, Shaama M.S., Shane Yost, Joonho Lee, David Small,
  Daniel Levine, Susi Lehtola, Hugh Burton, Evgeny Epifanovsky,
  Bang C. Huynh
 -----------------------------------------------------------------------
=================================================
        Doing projection-based embedding         
      F. Manby et al. JCTC, 8, 2564 (2012)       
=================================================

****************************************************
   Low-level SCF calculation for the whole system   
****************************************************
----------------------------------------------
 Summary of the low-level theory: 
 Exchange:     0.2000 Hartree-Fock + 0.0800 Slater + 0.7200 B88
 Correlation:  0.1900 VWN1RPA + 0.8100 LYP
 Using Euler-Maclaurin-Lebedev (75,302) quadrature formula
----------------------------------------------
 using 16 threads for integral computing
 -------------------------------------------------------
 OpenMP Integral computing Module                
 Release: version 1.0, May 2013, Q-Chem Inc. Pittsburgh 
 -------------------------------------------------------
 A restricted SCF calculation will be
 performed using DIIS
 SCF converges when DIIS error is below 1.0e-08
 ---------------------------------------
  Cycle       Energy         DIIS error
 ---------------------------------------
    1  -17575.4711409006      1.27e-02  
    2  -17548.0381995401      2.34e-03  
    3  -17535.4605591150      4.33e-03  
    4  -17552.7038444434      8.56e-04  
    5  -17553.4714920633      1.68e-04  
    6  -17553.4959679701      7.74e-05  
    7  -17553.5010625363      3.49e-05  
    8  -17553.5021829793      6.04e-06  
    9  -17553.5022183929      2.30e-06  
   10  -17553.5022233998      8.11e-07  
   11  -17553.5022239324      3.39e-07  
   12  -17553.5022240374      9.65e-08  
   13  -17553.5022240462      3.45e-08  
   14  -17553.5022240474      1.35e-08  
   15  -17553.5022240474      4.99e-09  Convergence criterion met
 ---------------------------------------
 SCF time:   CPU 411083.95s  wall 29654.00s 
 SCF   energy in the final basis set =   -17553.5022240474
 Total energy in the final basis set =   -17553.5022240474

****************************************************
             Start embedding calculation            
****************************************************
----------------------------------------------
 Summary of the high-level theory: 
 Exchange:     0.2000 Hartree-Fock + 0.0800 Slater + 0.7200 B88
 Correlation:  0.1900 VWN1RPA + 0.8100 LYP
 Using Euler-Maclaurin-Lebedev (75,302) quadrature formula
----------------------------------------------
Doing R-in-R Embedding Calculation
Number of fragments: 2
Embedded fragment(s): 1 
NOcc for each fragment
           35
          651
NBasis for each fragment
          197
         2852
Variational space of the embedded problem: 
NOcc (active)  = 35
NOcc (fixed)   = 651
NVir (total)   = 2360
Read converged orbitals from disk
=========================================================
       Doing SPADE partition for the orbital space       
     D. Claudino and N. Mayhall JCTC 15, 1053 (2019)     
=========================================================
SPADE singular values:
 1.0000 1.0000 1.0000 1.0000 1.0000 1.0000 1.0000 1.0000 1.0000 0.9999
 0.9998 0.9997 0.9996 0.9995 0.9993 0.9992 0.9992 0.9988 0.9982 0.9978
 0.9967 0.9965 0.9963 0.9960 0.9949 0.9944 0.9935 0.9934 0.9932 0.9919
 0.9911 0.9902 0.9872 0.9836 0.9776 0.2213 0.1903 0.1802 0.1719 0.1579
 0.1527 0.1413 0.1204 0.1195 0.1093 0.1008 0.0915 0.0863 0.0774 0.0719
 0.0673 0.0571 0.0539 0.0510 0.0458 0.0428 0.0386 0.0355 0.0336 0.0332
 0.0320 0.0296 0.0268 0.0257 0.0242 0.0226 0.0221 0.0206 0.0198 0.0196
 0.0180 0.0163 0.0151 0.0146 0.0142 0.0133 0.0120 0.0116 0.0110 0.0106
 0.0101 0.0094 0.0091 0.0087 0.0083 0.0081 0.0078 0.0074 0.0067 0.0065
 0.0064 0.0061 0.0059 0.0055 0.0053 0.0051 0.0047 0.0045 0.0044 0.0041
 0.0039 0.0038 0.0035 0.0033 0.0032 0.0029 0.0029 0.0027 0.0026 0.0025
 0.0024 0.0023 0.0021 0.0020 0.0020 0.0019 0.0019 0.0017 0.0016 0.0016
 0.0016 0.0015 0.0014 0.0014 0.0013 0.0013 0.0012 0.0012 0.0012 0.0011
 0.0011 0.0011 0.0010 0.0010 0.0009 0.0009 0.0009 0.0009 0.0008 0.0008
 0.0007 0.0007 0.0007 0.0006 0.0006 0.0006 0.0006 0.0005 0.0005 0.0005
 0.0005 0.0005 0.0005 0.0004 0.0004 0.0004 0.0004 0.0004 0.0003 0.0003
 0.0003 0.0003 0.0003 0.0003 0.0003 0.0003 0.0003 0.0002 0.0002 0.0002
 0.0002 0.0002 0.0002 0.0002 0.0002 0.0002 0.0002 0.0002 0.0002 0.0002
 0.0001 0.0001 0.0001 0.0001 0.0001 0.0001 0.0001 0.0001 0.0001 0.0001
 0.0001 0.0001 0.0001 0.0001 0.0001 0.0001 0.0001
Early stop requested; no embedded SCF will be performed

 651 environment occs will be part of frozen-core in future post-HF calculations

 --------------------------------------------------------------

                    Orbital Energies (a.u.)
 --------------------------------------------------------------

 Alpha MOs
 -- Occupied --
-89.0209 -89.0131 -89.0123 -89.0096 -89.0091 -89.0082 -89.0060 -89.0056
-89.0054 -89.0037 -89.0020 -89.0008 -88.9989 -88.9980 -88.9947 -88.9919
-88.9916 -88.9898 -88.9885 -88.9841 -88.9835 -88.9807 -88.9796 -88.9790
-88.9784 -88.9779 -88.9777 -88.9761 -88.9760 -88.9734 -88.9689 -19.1354
-19.1311 -19.1309 -19.1297 -19.1294 -19.1236 -19.1231 -19.1229 -19.1213
-19.1213 -19.1188 -19.1178 -19.1172 -19.1150 -19.1147 -19.1118 -19.1099
-19.1089 -19.1059 -19.1032 -19.1023 -19.0999 -19.0999 -19.0995 -19.0956
-19.0931 -19.0927 -19.0904 -19.0847 -19.0825 -19.0820 -10.2370 -10.2343
-10.2328 -10.2326 -10.2321 -10.2318 -10.2308 -10.2298 -10.2297 -10.2287
-10.2276 -10.2273 -10.2268 -10.2238 -10.2221 -10.2217 -10.2212 -10.2209
-10.2208 -10.2202 -10.2199 -10.2184 -10.2174 -10.2168 -10.2112 -10.2107
-10.2107 -10.2100 -10.2087 -10.2084 -10.2064 -10.2059 -10.2051 -10.2047
-10.2046 -10.2027 -10.2026 -10.2024 -10.2017 -10.2008 -10.2008 -10.2008
-10.2001 -10.1976 -10.1975 -10.1974 -10.1973 -10.1969 -10.1968 -10.1967
-10.1957 -10.1952 -10.1935 -10.1917 -10.1897 -10.1897 -10.1889 -10.1888
-10.1861 -10.1827 -10.1814 -10.1784  -8.0670  -8.0583  -8.0583  -8.0560
 -8.0554  -8.0530  -8.0527  -8.0515  -8.0513  -8.0492  -8.0486  -8.0467
 -8.0451  -8.0432  -8.0409  -8.0393  -8.0370  -8.0352  -8.0337  -8.0302
 -8.0289  -8.0267  -8.0256  -8.0253  -8.0247  -8.0242  -8.0238  -8.0232
 -8.0218  -8.0189  -8.0154  -6.0314  -6.0301  -6.0245  -6.0227  -6.0227
 -6.0215  -6.0211  -6.0202  -6.0197  -6.0190  -6.0185  -6.0176  -6.0170
 -6.0163  -6.0161  -6.0159  -6.0158  -6.0158  -6.0157  -6.0145  -6.0144
 -6.0137  -6.0137  -6.0131  -6.0129  -6.0120  -6.0117  -6.0111  -6.0100
 -6.0099  -6.0098  -6.0095  -6.0091  -6.0085  -6.0084  -6.0077  -6.0071
 -6.0063  -6.0056  -6.0053  -6.0040  -6.0037  -6.0035  -6.0021  -6.0021
 -6.0015  -6.0006  -6.0001  -5.9996  -5.9983  -5.9983  -5.9980  -5.9969
 -5.9965  -5.9945  -5.9943  -5.9935  -5.9931  -5.9930  -5.9921  -5.9913
 -5.9912  -5.9900  -5.9896  -5.9895  -5.9888  -5.9887  -5.9885  -5.9884
 -5.9881  -5.9877  -5.9876  -5.9875  -5.9874  -5.9870  -5.9862  -5.9861
 -5.9860  -5.9850  -5.9843  -5.9834  -5.9828  -5.9827  -5.9823  -5.9818
 -5.9813  -5.9810  -5.9806  -5.9799  -5.9790  -5.9785  -5.9767  -5.9726
 -1.0471  -1.0411  -1.0393  -1.0391  -1.0350  -1.0347  -1.0329  -1.0328
 -1.0322  -1.0314  -1.0299  -1.0265  -1.0264  -1.0255  -1.0211  -1.0196
 -1.0190  -1.0175  -1.0168  -1.0123  -1.0108  -1.0101  -1.0100  -1.0063
 -1.0054  -1.0041  -1.0010  -1.0007  -0.9980  -0.9976  -0.9971  -0.8194
 -0.8192  -0.8172  -0.8158  -0.8130  -0.8101  -0.8090  -0.8088  -0.8073
 -0.8062  -0.8057  -0.8039  -0.7999  -0.7991  -0.7979  -0.7966  -0.7965
 -0.7937  -0.7907  -0.7895  -0.7858  -0.7855  -0.7845  -0.7824  -0.7812
 -0.7791  -0.7776  -0.7744  -0.7738  -0.7736  -0.7734  -0.7447  -0.7432
 -0.7427  -0.7416  -0.7404  -0.7387  -0.7367  -0.7351  -0.7346  -0.7333
 -0.7318  -0.7287  -0.7259  -0.7216  -0.7205  -0.7203  -0.7191  -0.7180
 -0.7155  -0.7153  -0.7135  -0.7109  -0.7099  -0.7098  -0.7091  -0.7068
 -0.7057  -0.7050  -0.7026  -0.6992  -0.6895  -0.6342  -0.6287  -0.6262
 -0.6238  -0.6234  -0.6209  -0.6191  -0.6187  -0.6185  -0.6158  -0.6138
 -0.6133  -0.6126  -0.6109  -0.6083  -0.6059  -0.6058  -0.6012  -0.6009
 -0.5947  -0.5935  -0.5930  -0.5927  -0.5921  -0.5913  -0.5887  -0.5862
 -0.5860  -0.5856  -0.5810  -0.5792  -0.5009  -0.4995  -0.4980  -0.4976
 -0.4966  -0.4944  -0.4917  -0.4903  -0.4895  -0.4887  -0.4880  -0.4869
 -0.4861  -0.4846  -0.4843  -0.4839  -0.4824  -0.4818  -0.4817  -0.4808
 -0.4807  -0.4803  -0.4791  -0.4789  -0.4789  -0.4781  -0.4774  -0.4770
 -0.4761  -0.4755  -0.4753  -0.4745  -0.4736  -0.4734  -0.4720  -0.4717
 -0.4712  -0.4707  -0.4695  -0.4693  -0.4681  -0.4678  -0.4674  -0.4669
 -0.4667  -0.4652  -0.4652  -0.4645  -0.4626  -0.4619  -0.4617  -0.4616
 -0.4612  -0.4608  -0.4605  -0.4603  -0.4600  -0.4585  -0.4575  -0.4573
 -0.4572  -0.4570  -0.4565  -0.4562  -0.4552  -0.4545  -0.4541  -0.4535
 -0.4528  -0.4525  -0.4524  -0.4511  -0.4508  -0.4501  -0.4491  -0.4487
 -0.4482  -0.4478  -0.4471  -0.4467  -0.4463  -0.4446  -0.4439  -0.4425
 -0.4424  -0.4422  -0.4416  -0.4412  -0.4399  -0.4399  -0.4397  -0.4391
 -0.4389  -0.4375  -0.4369  -0.4364  -0.4360  -0.4353  -0.4342  -0.4339
 -0.4330  -0.4324  -0.4322  -0.4308  -0.4302  -0.4297  -0.4293  -0.4287
 -0.4282  -0.4278  -0.4270  -0.4254  -0.4247  -0.4238  -0.4226  -0.4222
 -0.4218  -0.4214  -0.4210  -0.4199  -0.4194  -0.4180  -0.4173  -0.4170
 -0.4163  -0.4158  -0.4153  -0.4149  -0.4145  -0.4142  -0.4134  -0.4131
 -0.4112  -0.4108  -0.4105  -0.4096  -0.4093  -0.4082  -0.4076  -0.4072
 -0.4065  -0.4061  -0.4061  -0.4043  -0.4034  -0.4032  -0.4015  -0.4010
 -0.4000  -0.3993  -0.3990  -0.3981  -0.3978  -0.3972  -0.3959  -0.3954
 -0.3949  -0.3938  -0.3934  -0.3924  -0.3920  -0.3904  -0.3897  -0.3893
 -0.3887  -0.3878  -0.3873  -0.3859  -0.3850  -0.3842  -0.3838  -0.3831
 -0.3826  -0.3820  -0.3808  -0.3800  -0.3789  -0.3787  -0.3783  -0.3772
 -0.3770  -0.3767  -0.3757  -0.3740  -0.3738  -0.3726  -0.3722  -0.3704
 -0.3696  -0.3684  -0.3680  -0.3674  -0.3668  -0.3660  -0.3652  -0.3641
 -0.3619  -0.3601  -0.3596  -0.3581  -0.3563  -0.3553  -0.3549  -0.3542
 -0.3535  -0.3524  -0.3513  -0.3501  -0.3497  -0.3486  -0.3434  -0.3433
 -0.3408  -0.3386  -0.3361  -0.3333  -0.3290  -0.2980  -0.2937  -0.2936
 -0.2903  -0.2880  -0.2880  -0.2866  -0.2843  -0.2822  -0.2808  -0.2808
 -0.2789  -0.2769  -0.2760  -0.2706  -0.2687  -0.2678  -0.2669  -0.2657
 -0.2651  -0.2641  -0.2639  -0.2629  -0.2610  -0.2602  -0.2588  -0.2574
 -0.2562  -0.2542  -0.2540  -0.2518  -0.2516  -0.2506  -0.2498  -0.2490
 -0.2481  -0.2454  -0.2449  -0.2447  -0.2440  -0.2431  -0.2415  -0.2410
 -0.2397  -0.2394  -0.2389  -0.2382  -0.2354  -0.2352  -0.2310  -0.2296
 -0.2276  -0.2257  -0.2228  -0.2220  -0.2191  -0.2190  -0.2168  -0.2145
 -0.2089  -0.2086  -0.2081 -10.5488 -12.7753 -11.2121 -11.8633 -14.0042
-11.0713 -10.6691 -11.7372 -10.1068  -0.8063  -0.6643  -0.8113  -0.8509
 -0.6698  -0.5842  -0.7258  -0.6356  -0.5028  -0.3950  -0.3906  -0.4759
 -0.4302  -0.4310  -0.3771  -0.4469  -0.4217  -0.4577  -0.4081  -0.4229
 -0.4160  -0.4581  -0.4732  -0.4415  -0.5412  -0.5276
 -- Virtual --
 -0.0303  -0.0261  -0.0235  -0.0211  -0.0195  -0.0186  -0.0152  -0.0128
 -0.0114  -0.0104  -0.0094  -0.0085  -0.0076  -0.0063  -0.0051  -0.0040
 -0.0024  -0.0023  -0.0018  -0.0016  -0.0008  -0.0004   0.0005   0.0015
  0.0021   0.0032   0.0036   0.0045   0.0055   0.0061   0.0062   0.0071
  0.0077   0.0082   0.0087   0.0093   0.0096   0.0104   0.0115   0.0120
  0.0123   0.0137   0.0139   0.0145   0.0153   0.0156   0.0162   0.0170
  0.0175   0.0176   0.0186   0.0198   0.0200   0.0208   0.0212   0.0214
  0.0220   0.0224   0.0235   0.0240   0.0245   0.0255   0.0259   0.0264
  0.0267   0.0271   0.0277   0.0285   0.0288   0.0293   0.0302   0.0303
  0.0308   0.0314   0.0319   0.0325   0.0331   0.0339   0.0345   0.0349
  0.0357   0.0363   0.0369   0.0377   0.0387   0.0391   0.0393   0.0396
  0.0405   0.0410   0.0418   0.0421   0.0428   0.0430   0.0439   0.0442
  0.0447   0.0452   0.0456   0.0465   0.0466   0.0476   0.0479   0.0484
  0.0487   0.0493   0.0503   0.0504   0.0509   0.0512   0.0522   0.0528
  0.0533   0.0534   0.0542   0.0551   0.0560   0.0565   0.0571   0.0575
  0.0585   0.0591   0.0592   0.0596   0.0606   0.0610   0.0614   0.0618
  0.0627   0.0629   0.0637   0.0643   0.0649   0.0656   0.0661   0.0672
  0.0674   0.0676   0.0680   0.0687   0.0695   0.0702   0.0710   0.0713
  0.0720   0.0732   0.0742   0.0746   0.0748   0.0752   0.0758   0.0763
  0.0771   0.0776   0.0779   0.0780   0.0786   0.0788   0.0795   0.0804
  0.0812   0.0820   0.0823   0.0829   0.0836   0.0842   0.0849   0.0852
  0.0855   0.0862   0.0867   0.0871   0.0875   0.0886   0.0893   0.0897
  0.0900   0.0905   0.0911   0.0923   0.0931   0.0936   0.0944   0.0948
  0.0953   0.0958   0.0964   0.0965   0.0972   0.0979   0.0981   0.0984
  0.0996   0.1002   0.1010   0.1014   0.1023   0.1025   0.1029   0.1034
  0.1046   0.1050   0.1056   0.1061   0.1066   0.1069   0.1074   0.1079
  0.1086   0.1091   0.1097   0.1104   0.1109   0.1114   0.1119   0.1124
  0.1129   0.1143   0.1147   0.1149   0.1155   0.1160   0.1165   0.1167
  0.1181   0.1183   0.1188   0.1191   0.1198   0.1200   0.1208   0.1211
  0.1219   0.1223   0.1226   0.1233   0.1241   0.1248   0.1254   0.1260
  0.1263   0.1268   0.1274   0.1278   0.1282   0.1291   0.1296   0.1305
  0.1305   0.1306   0.1317   0.1325   0.1330   0.1336   0.1340   0.1343
  0.1348   0.1351   0.1358   0.1365   0.1370   0.1375   0.1380   0.1386
  0.1395   0.1395   0.1400   0.1406   0.1411   0.1421   0.1423   0.1433
  0.1434   0.1442   0.1450   0.1455   0.1459   0.1461   0.1466   0.1472
  0.1479   0.1487   0.1490   0.1493   0.1494   0.1499   0.1504   0.1515
  0.1518   0.1526   0.1530   0.1532   0.1537   0.1544   0.1547   0.1559
  0.1567   0.1569   0.1575   0.1581   0.1583   0.1593   0.1597   0.1598
  0.1607   0.1612   0.1615   0.1621   0.1631   0.1633   0.1637   0.1645
  0.1648   0.1651   0.1656   0.1664   0.1668   0.1677   0.1684   0.1691
  0.1695   0.1699   0.1701   0.1712   0.1719   0.1724   0.1729   0.1731
  0.1740   0.1743   0.1748   0.1750   0.1757   0.1764   0.1774   0.1776
  0.1786   0.1790   0.1795   0.1802   0.1804   0.1805   0.1818   0.1819
  0.1820   0.1828   0.1834   0.1838   0.1848   0.1850   0.1852   0.1861
  0.1867   0.1878   0.1883   0.1886   0.1889   0.1899   0.1900   0.1902
  0.1911   0.1920   0.1926   0.1929   0.1937   0.1942   0.1945   0.1951
  0.1954   0.1957   0.1963   0.1973   0.1976   0.1983   0.1988   0.1993
  0.1999   0.2001   0.2011   0.2020   0.2028   0.2031   0.2036   0.2037
  0.2046   0.2048   0.2055   0.2057   0.2065   0.2070   0.2077   0.2089
  0.2091   0.2096   0.2100   0.2104   0.2111   0.2112   0.2119   0.2127
  0.2131   0.2135   0.2143   0.2147   0.2148   0.2151   0.2155   0.2163
  0.2169   0.2176   0.2182   0.2186   0.2191   0.2198   0.2202   0.2207
  0.2217   0.2220   0.2225   0.2230   0.2241   0.2244   0.2251   0.2255
  0.2264   0.2270   0.2275   0.2286   0.2291   0.2297   0.2303   0.2305
  0.2314   0.2319   0.2324   0.2325   0.2334   0.2340   0.2342   0.2348
  0.2352   0.2364   0.2372   0.2376   0.2382   0.2388   0.2395   0.2401
  0.2404   0.2409   0.2414   0.2418   0.2424   0.2430   0.2431   0.2433
  0.2441   0.2450   0.2456   0.2466   0.2469   0.2482   0.2490   0.2494
  0.2500   0.2509   0.2517   0.2518   0.2521   0.2525   0.2528   0.2528
  0.2551   0.2556   0.2563   0.2567   0.2573   0.2576   0.2586   0.2589
  0.2592   0.2601   0.2603   0.2615   0.2623   0.2633   0.2637   0.2642
  0.2645   0.2649   0.2657   0.2662   0.2664   0.2669   0.2675   0.2676
  0.2690   0.2695   0.2700   0.2709   0.2712   0.2720   0.2721   0.2727
  0.2734   0.2741   0.2747   0.2755   0.2759   0.2769   0.2770   0.2772
  0.2784   0.2790   0.2791   0.2796   0.2805   0.2812   0.2822   0.2826
  0.2828   0.2835   0.2843   0.2848   0.2850   0.2863   0.2865   0.2869
  0.2877   0.2887   0.2894   0.2905   0.2907   0.2908   0.2922   0.2925
  0.2941   0.2946   0.2955   0.2960   0.2970   0.2977   0.2982   0.2990
  0.2991   0.3001   0.3009   0.3017   0.3021   0.3025   0.3028   0.3041
  0.3046   0.3052   0.3063   0.3076   0.3083   0.3085   0.3090   0.3092
  0.3101   0.3106   0.3116   0.3120   0.3129   0.3141   0.3148   0.3152
  0.3155   0.3162   0.3170   0.3179   0.3184   0.3191   0.3195   0.3203
  0.3210   0.3215   0.3221   0.3237   0.3242   0.3246   0.3256   0.3266
  0.3269   0.3275   0.3290   0.3293   0.3299   0.3311   0.3320   0.3322
  0.3325   0.3333   0.3343   0.3349   0.3354   0.3363   0.3368   0.3376
  0.3377   0.3388   0.3396   0.3405   0.3410   0.3418   0.3430   0.3441
  0.3444   0.3460   0.3463   0.3469   0.3475   0.3486   0.3488   0.3500
  0.3514   0.3517   0.3522   0.3528   0.3534   0.3542   0.3552   0.3558
  0.3566   0.3572   0.3587   0.3591   0.3596   0.3607   0.3611   0.3615
  0.3627   0.3636   0.3640   0.3645   0.3654   0.3664   0.3670   0.3675
  0.3684   0.3694   0.3698   0.3707   0.3712   0.3715   0.3726   0.3731
  0.3738   0.3744   0.3750   0.3771   0.3779   0.3790   0.3800   0.3806
  0.3809   0.3814   0.3824   0.3831   0.3847   0.3849   0.3851   0.3862
  0.3873   0.3876   0.3884   0.3889   0.3897   0.3908   0.3915   0.3927
  0.3935   0.3938   0.3950   0.3959   0.3961   0.3971   0.3979   0.3988
  0.3991   0.4002   0.4005   0.4010   0.4024   0.4026   0.4036   0.4047
  0.4050   0.4059   0.4073   0.4080   0.4089   0.4103   0.4108   0.4114
  0.4120   0.4125   0.4134   0.4138   0.4147   0.4148   0.4167   0.4169
  0.4175   0.4187   0.4191   0.4200   0.4202   0.4219   0.4226   0.4251
  0.4255   0.4264   0.4265   0.4277   0.4285   0.4288   0.4292   0.4301
  0.4314   0.4316   0.4325   0.4338   0.4347   0.4353   0.4369   0.4370
  0.4379   0.4385   0.4391   0.4411   0.4421   0.4422   0.4431   0.4439
  0.4443   0.4463   0.4472   0.4489   0.4498   0.4513   0.4520   0.4535
  0.4538   0.4546   0.4552   0.4571   0.4584   0.4588   0.4601   0.4607
  0.4614   0.4623   0.4627   0.4639   0.4666   0.4675   0.4684   0.4695
  0.4711   0.4719   0.4726   0.4736   0.4750   0.4760   0.4761   0.4772
  0.4779   0.4792   0.4799   0.4815   0.4827   0.4852   0.4855   0.4859
  0.4875   0.4890   0.4901   0.4923   0.4927   0.4932   0.4937   0.4955
  0.4967   0.4976   0.4984   0.4991   0.5010   0.5019   0.5032   0.5044
  0.5053   0.5064   0.5080   0.5088   0.5112   0.5119   0.5123   0.5141
  0.5147   0.5154   0.5176   0.5193   0.5202   0.5210   0.5237   0.5244
  0.5260   0.5269   0.5271   0.5296   0.5312   0.5322   0.5332   0.5348
  0.5358   0.5384   0.5398   0.5419   0.5426   0.5431   0.5448   0.5462
  0.5485   0.5495   0.5510   0.5521   0.5538   0.5541   0.5554   0.5563
  0.5573   0.5587   0.5599   0.5615   0.5622   0.5641   0.5647   0.5651
  0.5669   0.5680   0.5700   0.5715   0.5723   0.5743   0.5752   0.5758
  0.5772   0.5804   0.5813   0.5824   0.5828   0.5850   0.5867   0.5871
  0.5891   0.5899   0.5914   0.5929   0.5945   0.5966   0.5975   0.5986
  0.5991   0.6000   0.6021   0.6033   0.6034   0.6052   0.6061   0.6063
  0.6070   0.6079   0.6091   0.6105   0.6120   0.6138   0.6146   0.6155
  0.6159   0.6165   0.6180   0.6199   0.6206   0.6222   0.6234   0.6252
  0.6262   0.6265   0.6281   0.6291   0.6303   0.6321   0.6330   0.6340
  0.6354   0.6363   0.6377   0.6383   0.6399   0.6406   0.6410   0.6417
  0.6428   0.6433   0.6439   0.6460   0.6464   0.6478   0.6502   0.6507
  0.6516   0.6521   0.6531   0.6550   0.6556   0.6562   0.6567   0.6583
  0.6605   0.6612   0.6629   0.6633   0.6640   0.6644   0.6668   0.6672
  0.6679   0.6691   0.6700   0.6706   0.6713   0.6719   0.6725   0.6742
  0.6761   0.6764   0.6772   0.6778   0.6783   0.6796   0.6800   0.6814
  0.6826   0.6837   0.6848   0.6856   0.6867   0.6878   0.6889   0.6899
  0.6913   0.6915   0.6928   0.6932   0.6943   0.6951   0.6974   0.6984
  0.6989   0.6994   0.7004   0.7022   0.7035   0.7042   0.7046   0.7062
  0.7067   0.7075   0.7093   0.7099   0.7105   0.7113   0.7122   0.7130
  0.7153   0.7156   0.7166   0.7171   0.7181   0.7197   0.7212   0.7218
  0.7233   0.7237   0.7254   0.7258   0.7260   0.7281   0.7288   0.7308
  0.7313   0.7329   0.7345   0.7356   0.7360   0.7382   0.7394   0.7405
  0.7408   0.7423   0.7437   0.7447   0.7459   0.7466   0.7477   0.7494
  0.7507   0.7516   0.7527   0.7535   0.7544   0.7552   0.7570   0.7583
  0.7592   0.7610   0.7615   0.7628   0.7660   0.7664   0.7674   0.7685
  0.7693   0.7708   0.7715   0.7725   0.7732   0.7745   0.7756   0.7774
  0.7788   0.7802   0.7823   0.7846   0.7853   0.7868   0.7884   0.7891
  0.7896   0.7901   0.7912   0.7930   0.7936   0.7950   0.7977   0.7984
  0.7995   0.8003   0.8036   0.8048   0.8057   0.8074   0.8095   0.8105
  0.8113   0.8132   0.8139   0.8153   0.8165   0.8169   0.8192   0.8202
  0.8218   0.8227   0.8245   0.8250   0.8265   0.8280   0.8295   0.8307
  0.8317   0.8322   0.8336   0.8345   0.8362   0.8367   0.8396   0.8405
  0.8415   0.8419   0.8426   0.8434   0.8464   0.8473   0.8495   0.8511
  0.8519   0.8526   0.8540   0.8543   0.8550   0.8564   0.8575   0.8581
  0.8595   0.8605   0.8614   0.8630   0.8635   0.8652   0.8656   0.8661
  0.8676   0.8686   0.8699   0.8707   0.8721   0.8726   0.8732   0.8746
  0.8755   0.8763   0.8786   0.8797   0.8807   0.8824   0.8836   0.8844
  0.8848   0.8858   0.8874   0.8889   0.8893   0.8910   0.8915   0.8933
  0.8944   0.8953   0.8958   0.8968   0.8980   0.8986   0.8992   0.9009
  0.9022   0.9032   0.9049   0.9054   0.9067   0.9075   0.9091   0.9098
  0.9104   0.9121   0.9129   0.9144   0.9154   0.9160   0.9171   0.9183
  0.9202   0.9208   0.9222   0.9231   0.9244   0.9261   0.9271   0.9288
  0.9297   0.9298   0.9308   0.9319   0.9333   0.9346   0.9352   0.9363
  0.9377   0.9396   0.9402   0.9410   0.9425   0.9437   0.9450   0.9458
  0.9470   0.9481   0.9493   0.9505   0.9519   0.9522   0.9527   0.9536
  0.9556   0.9562   0.9565   0.9590   0.9594   0.9597   0.9613   0.9622
  0.9636   0.9645   0.9657   0.9672   0.9687   0.9690   0.9708   0.9714
  0.9726   0.9735   0.9740   0.9754   0.9765   0.9781   0.9789   0.9793
  0.9801   0.9808   0.9825   0.9837   0.9847   0.9853   0.9867   0.9870
  0.9882   0.9895   0.9898   0.9908   0.9923   0.9928   0.9944   0.9948
  0.9959   0.9962   0.9972   0.9987   0.9996   1.0004   1.0011   1.0020
  1.0037   1.0048   1.0052   1.0062   1.0075   1.0089   1.0101   1.0107
  1.0116   1.0125   1.0138   1.0140   1.0143   1.0158   1.0161   1.0168
  1.0177   1.0182   1.0192   1.0205   1.0218   1.0226   1.0240   1.0248
  1.0262   1.0269   1.0282   1.0292   1.0299   1.0309   1.0322   1.0322
  1.0345   1.0355   1.0356   1.0363   1.0374   1.0386   1.0392   1.0406
  1.0411   1.0415   1.0429   1.0435   1.0450   1.0459   1.0465   1.0474
  1.0489   1.0502   1.0516   1.0519   1.0541   1.0546   1.0560   1.0569
  1.0577   1.0580   1.0589   1.0602   1.0604   1.0625   1.0637   1.0643
  1.0650   1.0667   1.0672   1.0688   1.0699   1.0717   1.0728   1.0736
  1.0740   1.0752   1.0767   1.0776   1.0780   1.0797   1.0802   1.0817
  1.0828   1.0836   1.0850   1.0855   1.0871   1.0885   1.0887   1.0914
  1.0921   1.0931   1.0944   1.0954   1.0968   1.0974   1.0988   1.0991
  1.0999   1.1010   1.1031   1.1042   1.1048   1.1064   1.1068   1.1098
  1.1106   1.1119   1.1126   1.1146   1.1161   1.1174   1.1192   1.1199
  1.1207   1.1220   1.1228   1.1243   1.1254   1.1272   1.1280   1.1293
  1.1300   1.1314   1.1321   1.1331   1.1334   1.1359   1.1361   1.1383
  1.1397   1.1401   1.1409   1.1419   1.1451   1.1466   1.1469   1.1475
  1.1485   1.1497   1.1508   1.1520   1.1525   1.1540   1.1552   1.1569
  1.1577   1.1586   1.1591   1.1594   1.1623   1.1633   1.1639   1.1652
  1.1660   1.1678   1.1689   1.1695   1.1705   1.1715   1.1737   1.1751
  1.1760   1.1782   1.1787   1.1800   1.1809   1.1823   1.1832   1.1837
  1.1851   1.1861   1.1887   1.1894   1.1899   1.1911   1.1926   1.1936
  1.1942   1.1965   1.1970   1.1981   1.1994   1.2002   1.2027   1.2035
  1.2048   1.2070   1.2079   1.2086   1.2102   1.2118   1.2132   1.2146
  1.2148   1.2179   1.2185   1.2206   1.2214   1.2236   1.2243   1.2262
  1.2293   1.2309   1.2323   1.2330   1.2360   1.2377   1.2383   1.2405
  1.2430   1.2455   1.2461   1.2483   1.2503   1.2510   1.2537   1.2549
  1.2578   1.2586   1.2603   1.2616   1.2633   1.2647   1.2667   1.2674
  1.2688   1.2705   1.2731   1.2745   1.2754   1.2779   1.2809   1.2845
  1.2849   1.2864   1.2876   1.2921   1.2923   1.2944   1.2954   1.2959
  1.2969   1.3011   1.3042   1.3070   1.3089   1.3104   1.3123   1.3145
  1.3150   1.3172   1.3192   1.3194   1.3230   1.3232   1.3256   1.3274
  1.3288   1.3333   1.3340   1.3344   1.3351   1.3377   1.3386   1.3419
  1.3439   1.3460   1.3480   1.3484   1.3498   1.3517   1.3538   1.3556
  1.3581   1.3613   1.3624   1.3631   1.3649   1.3668   1.3692   1.3696
  1.3714   1.3717   1.3736   1.3743   1.3759   1.3772   1.3801   1.3813
  1.3824   1.3830   1.3846   1.3862   1.3881   1.3884   1.3902   1.3920
  1.3935   1.3958   1.3959   1.3973   1.3984   1.3998   1.4014   1.4036
  1.4043   1.4053   1.4060   1.4092   1.4099   1.4106   1.4116   1.4139
  1.4151   1.4158   1.4176   1.4188   1.4191   1.4212   1.4222   1.4234
  1.4243   1.4251   1.4254   1.4273   1.4294   1.4298   1.4306   1.4321
  1.4330   1.4337   1.4344   1.4386   1.4397   1.4404   1.4409   1.4427
  1.4437   1.4443   1.4459   1.4469   1.4477   1.4489   1.4501   1.4509
  1.4515   1.4526   1.4531   1.4557   1.4584   1.4598   1.4611   1.4626
  1.4643   1.4646   1.4661   1.4664   1.4676   1.4709   1.4732   1.4739
  1.4747   1.4752   1.4768   1.4794   1.4805   1.4825   1.4843   1.4856
  1.4876   1.4887   1.4906   1.4916   1.4928   1.4950   1.4972   1.4985
  1.4992   1.5019   1.5034   1.5066   1.5073   1.5091   1.5101   1.5135
  1.5137   1.5155   1.5175   1.5192   1.5211   1.5220   1.5236   1.5257
  1.5283   1.5287   1.5319   1.5360   1.5372   1.5379   1.5381   1.5420
  1.5436   1.5467   1.5471   1.5482   1.5513   1.5525   1.5586   1.5587
  1.5599   1.5629   1.5635   1.5661   1.5678   1.5688   1.5708   1.5733
  1.5760   1.5785   1.5807   1.5823   1.5838   1.5874   1.5905   1.5945
  1.5949   1.5980   1.6006   1.6040   1.6077   1.6089   1.6115   1.6157
  1.6184   1.6204   1.6230   1.6260   1.6335   1.6365   1.6387   1.6393
  1.6413   1.6445   1.6483   1.6530   1.6562   1.6583   1.6587   1.6615
  1.6644   1.6645   1.6654   1.6680   1.6690   1.6704   1.6713   1.6734
  1.6762   1.6768   1.6777   1.6800   1.6808   1.6817   1.6845   1.6855
  1.6869   1.6874   1.6894   1.6904   1.6915   1.6933   1.6937   1.6953
  1.6972   1.6978   1.6989   1.6995   1.7007   1.7011   1.7025   1.7041
  1.7058   1.7063   1.7078   1.7086   1.7087   1.7091   1.7116   1.7122
  1.7133   1.7142   1.7158   1.7174   1.7187   1.7200   1.7218   1.7222
  1.7241   1.7242   1.7249   1.7252   1.7275   1.7278   1.7293   1.7315
  1.7329   1.7339   1.7345   1.7356   1.7368   1.7380   1.7395   1.7405
  1.7409   1.7421   1.7436   1.7448   1.7467   1.7482   1.7489   1.7497
  1.7510   1.7529   1.7542   1.7552   1.7561   1.7565   1.7578   1.7607
  1.7616   1.7627   1.7634   1.7640   1.7659   1.7679   1.7683   1.7703
  1.7710   1.7739   1.7744   1.7764   1.7779   1.7791   1.7798   1.7813
  1.7819   1.7834   1.7858   1.7873   1.7884   1.7898   1.7907   1.7931
  1.7943   1.7964   1.7978   1.7985   1.8009   1.8024   1.8043   1.8062
  1.8072   1.8093   1.8108   1.8135   1.8159   1.8160   1.8169   1.8188
  1.8202   1.8229   1.8237   1.8279   1.8289   1.8309   1.8329   1.8371
  1.8389   1.8414   1.8421   1.8452   1.8466   1.8496   1.8516   1.8553
  1.8589   1.8600   1.8620   1.8637   1.8663   1.8664   1.8698   1.8717
  1.8730   1.8752   1.8782   1.8801   1.8816   1.8828   1.8839   1.8844
  1.8861   1.8878   1.8895   1.8907   1.8921   1.8932   1.8938   1.8952
  1.8970   1.8980   1.9000   1.9008   1.9011   1.9020   1.9030   1.9052
  1.9063   1.9071   1.9076   1.9099   1.9108   1.9116   1.9130   1.9143
  1.9151   1.9157   1.9160   1.9173   1.9179   1.9195   1.9209   1.9215
  1.9223   1.9232   1.9245   1.9253   1.9271   1.9288   1.9294   1.9313
  1.9314   1.9338   1.9355   1.9359   1.9381   1.9399   1.9401   1.9425
  1.9438   1.9449   1.9480   1.9496   1.9515   1.9541   1.9557   1.9565
  1.9592   1.9606   1.9628   1.9643   1.9653   1.9676   1.9700   1.9719
  1.9727   1.9791   1.9810   1.9831   1.9850   1.9905   1.9915   1.9977
  1.9989   2.0053   2.0081   2.0121   2.0124   2.0147   2.0229   2.0267
  2.0317   2.0441   2.0469   2.0495   2.0505   2.0534   2.0555   2.0590
  2.0605   2.0617   2.0632   2.0638   2.0662   2.0673   2.0709   2.0736
  2.0743   2.0761   2.0772   2.0785   2.0786   2.0797   2.0803   2.0811
  2.0823   2.0827   2.0839   2.0855   2.0866   2.0880   2.0885   2.0910
  2.0923   2.0926   2.0934   2.0940   2.0959   2.0975   2.0977   2.0985
  2.1001   2.1007   2.1027   2.1036   2.1045   2.1052   2.1068   2.1071
  2.1085   2.1101   2.1135   2.1144   2.1151   2.1166   2.1210   2.1219
  2.1242   2.1262   2.1283   2.1287   2.1307   2.1342   2.1368   2.1396
  2.1425   2.1447   2.1485   2.1508   2.1528   2.1608   2.1629   2.1666
  2.1719   2.1756   2.1771   2.1804   2.1826   2.1850   2.1883   2.1886
  2.1941   2.1957   2.1962   2.1972   2.1989   2.2026   2.2035   2.2046
  2.2077   2.2104   2.2141   2.2157   2.2163   2.2185   2.2225   2.2245
  2.2250   2.2257   2.2266   2.2282   2.2294   2.2321   2.2327   2.2338
  2.2343   2.2346   2.2360   2.2365   2.2379   2.2381   2.2392   2.2399
  2.2413   2.2424   2.2430   2.2437   2.2455   2.2469   2.2477   2.2486
  2.2497   2.2507   2.2515   2.2527   2.2529   2.2544   2.2552   2.2558
  2.2568   2.2572   2.2578   2.2584   2.2594   2.2602   2.2620   2.2625
  2.2634   2.2640   2.2657   2.2661   2.2668   2.2675   2.2687   2.2703
  2.2705   2.2711   2.2720   2.2736   2.2739   2.2746   2.2771   2.2772
  2.2778   2.2786   2.2795   2.2808   2.2816   2.2822   2.2828   2.2835
  2.2841   2.2851   2.2866   2.2870   2.2881   2.2893   2.2899   2.2906
  2.2910   2.2922   2.2929   2.2937   2.2947   2.2954   2.2966   2.2970
  2.2980   2.2997   2.3002   2.3004   2.3019   2.3033   2.3040   2.3045
  2.3060   2.3067   2.3070   2.3074   2.3092   2.3095   2.3107   2.3121
  2.3130   2.3146   2.3157   2.3168   2.3174   2.3185   2.3194   2.3199
  2.3217   2.3221   2.3230   2.3239   2.3250   2.3260   2.3263   2.3285
  2.3295   2.3300   2.3314   2.3324   2.3326   2.3338   2.3366   2.3383
  2.3392   2.3401   2.3415   2.3425   2.3451   2.3474   2.3502   2.3505
  2.3513   2.3522   2.3534   2.3536   2.3551   2.3581   2.3583   2.3592
  2.3597   2.3622   2.3632   2.3652   2.3668   2.3685   2.3721   2.3731
  2.3733   2.3744   2.3778   2.3803   2.3807   2.3824   2.3854   2.3905
  2.3917   2.3931   2.3946   2.3975   2.3987   2.4008   2.4024   2.4066
  2.4105   2.4117   2.4187   2.4190   2.4216   2.4314   2.4327   2.4367
  2.4414   2.4456   2.4563   2.4567   2.4683   2.5039   2.5290   2.5498
  2.6069   2.6794   2.7716   2.7863   2.8053   2.8271   2.8281   2.8289
  2.8301   2.8340   2.8385   2.8417   2.8470   2.8485   2.8494   2.8527
  2.8553   2.8561   2.8568   2.8574   2.8579   2.8584   2.8618   2.8647
  2.8660   2.8674   2.8692   2.8730   2.8772   2.8805   2.8809   2.8819
  2.8854   2.8873   2.8890   2.8928   2.8956   2.8992   2.9013   2.9282
  2.9511   3.1017   3.2667   3.9569   3.9649   3.9682   3.9709   3.9715
  3.9789   3.9822   3.9835   3.9845   3.9850   3.9882   3.9903   3.9915
  3.9948   3.9973   3.9978   3.9993   4.0020   4.0025   4.0041   4.0073
  4.0169   4.0184   4.0200   4.0222   4.0234   4.0264   4.0319   4.0367
  4.0492   4.0573   4.2359   4.2382   4.2426   4.2470   4.2505   4.2521
  4.2534   4.2557   4.2566   4.2577   4.2634   4.2656   4.2705   4.2717
  4.2750   4.2767   4.2772   4.2803   4.2827   4.2854   4.2878   4.2890
  4.2896   4.2913   4.2939   4.2968   4.2988   4.3003   4.3010   4.3040
  4.3054   4.3083   4.3117   4.3131   4.3201   4.3221   4.3231   4.3237
  4.3248   4.3263   4.3291   4.3327   4.3355   4.3367   4.3377   4.3426
  4.3433   4.3462   4.3471   4.3486   4.3530   4.3553   4.3588   4.3597
  4.3633   4.3642   4.3694   4.3698   4.3765   4.3776   4.3804   4.3844
  4.3865   4.3909   4.3965   4.4000   4.4030   4.4037   4.4068   4.4100
  4.4141   4.4147   4.4210   4.4219   4.4247   4.4311   4.4358   4.4442
  4.4496   4.4547   4.4601   4.4641   4.4718   4.4972   4.5056   4.5112
  4.5203   4.5334   4.5384   4.5450   4.5532   4.5688   4.5826   4.5988
  4.6176   4.6643   4.6795   4.7144   4.7423   4.7769   4.8095   4.9654
 --------------------------------------------------------------

          Ground-State Mulliken Net Atomic Charges

     Atom                 Charge (a.u.)
  ----------------------------------------
      1 C                    -0.225969
      2 C                    -0.631876
      3 C                     0.019818
      4 C                    -0.909842
      5 C                    -0.543064
      6 C                    -0.668898
      7 H                     0.254632
      8 H                     0.218873
      9 H                     0.236351
     10 H                     0.261312
     11 H                     0.242114
     12 H                     0.195952
     13 H                     0.212847
     14 H                     0.217000
     15 H                     0.214877
     16 H                     0.201246
     17 H                     0.203778
     18 N                     0.195091
     19 H                     0.520798
     20 C                    -0.214936
     21 H                     0.195505
     22 O                    -0.233282
     23 C                    -1.327424
     24 H                     0.257871
     25 H                     0.291306
     26 H                     0.298587
     27 S                     1.057289
     28 C                    -0.826425
     29 H                     0.248041
     30 H                     0.248595
     31 H                     0.260731
     32 O                    -0.634329
     33 C                    -1.076983
     34 H                     0.307209
     35 H                     0.305543
     36 H                     0.232467
     37 S                     0.844244
     38 C                    -0.870959
     39 H                     0.298060
     40 H                     0.245706
     41 H                     0.254835
     42 O                    -0.584255
     43 C                    -0.764520
     44 H                     0.252657
     45 H                     0.270367
     46 H                     0.234695
     47 S                     0.722152
     48 C                    -1.135559
     49 H                     0.274955
     50 H                     0.291123
     51 H                     0.283163
     52 O                    -0.605824
     53 C                    -0.744443
     54 H                     0.262002
     55 H                     0.264451
     56 H                     0.242349
     57 S                     0.618741
     58 C                    -0.710713
     59 H                     0.248728
     60 H                     0.293212
     61 H                     0.256377
     62 O                    -0.623844
     63 C                    -0.937488
     64 H                     0.249261
     65 H                     0.231860
     66 H                     0.249493
     67 S                     1.157701
     68 C                    -0.900009
     69 H                     0.246047
     70 H                     0.265645
     71 H                     0.234612
     72 O                    -0.678633
     73 C                    -0.791542
     74 H                     0.226211
     75 H                     0.290572
     76 H                     0.269141
     77 S                     0.564114
     78 C                    -0.760517
     79 H                     0.224726
     80 H                     0.291078
     81 H                     0.247551
     82 O                    -0.709464
     83 C                    -0.952769
     84 H                     0.293237
     85 H                     0.235037
     86 H                     0.290267
     87 S                     0.963704
     88 C                    -0.928010
     89 H                     0.246340
     90 H                     0.246132
     91 H                     0.253403
     92 O                    -0.689923
     93 C                    -0.868276
     94 H                     0.247072
     95 H                     0.260774
     96 H                     0.297839
     97 S                     0.778132
     98 C                    -0.824676
     99 H                     0.238595
    100 H                     0.237452
    101 H                     0.249423
    102 O                    -0.617158
    103 C                    -0.796041
    104 H                     0.244190
    105 H                     0.238778
    106 H                     0.274993
    107 S                     0.734057
    108 C                    -0.786006
    109 H                     0.238331
    110 H                     0.238516
    111 H                     0.245493
    112 O                    -0.695000
    113 C                    -0.837452
    114 H                     0.287225
    115 H                     0.239575
    116 H                     0.249261
    117 S                     0.696626
    118 C                    -0.758026
    119 H                     0.255303
    120 H                     0.287584
[...]
    2   0.4007735  -1.6350469   2.1172936   0.3847991  -0.3661638   1.9073845
    3   2.0167854   2.7118116   2.9214968   0.6793342   3.5796427   2.9421143
          289         290         291         292         293         294
    1  -1.1009732   2.3771665   0.3194938   2.1031588   1.6976932   1.3127643
    2   1.8593242   0.9842290   2.4890158  -1.0334712  -3.4780817  -4.0043706
    3   3.9122274   3.5905627   1.4589962   1.4015857  -0.1256393  -1.6853436
          295         296         297         298         299         300
    1   2.6515939   1.8513958  -0.6705068  -0.0068292   0.1227206  -1.3303232
    2  -1.7261855  -4.2572536  -3.4731645  -1.3317662  -2.7487000  -0.4942562
    3  -0.2059383   1.2376941  -0.0946189  -0.6633885  -1.8760604   0.0887722
          301         302         303         304         305         306
    1   1.6705120  -0.4950547   0.2197741   1.1236261  -1.1455482   1.1114016
    2  -0.6477542  -1.9780814   2.6444365   1.8014380   1.8576165   4.0499000
    3   0.2662712   2.7088813   1.2126348  -0.5162252   2.2963028   1.7231525
          307         308         309         310         311         312
    1   1.5559048   3.1733275   2.5115599   4.0949574   2.7469061   1.7791493
    2   1.7000389   1.8408627   3.4770859   0.1851884   1.3784484  -1.0834587
    3   2.5783494   0.7245654   1.2616291   1.5856560  -0.9281141   1.5074426
          313         314         315         316         317         318
    1   0.4821237   1.1970437   0.6728603  -0.6823613  -0.9364398  -0.3216477
    2  -2.3511715  -1.7715700  -1.2072558  -4.1549058  -1.4429440   0.6231164
    3  -2.2790262  -4.0958947  -1.0277736  -1.7822413  -3.2800646  -2.9638073
          319         320         321         322         323         324
    1   0.3462049   0.7908594  -2.1024909  -2.6678657   1.9312800   2.5516020
    2   0.3789938   0.4566903   1.0519924  -2.3686184  -0.3115678  -2.0419187
    3  -1.0891657  -4.2759398  -3.2304878  -0.5488502   1.6060034   2.4023953
          325         326         327         328         329         330
    1   3.3555067  -0.3600272   2.8757625   2.7849295   2.7670644   1.0308795
    2   0.3676086   0.2971303  -1.2704631   0.7438822  -0.3437255   1.6841128
    3   0.8857329   1.3336093   0.1511051  -0.7365448  -2.1506232  -0.1023642
          331         332
    1   4.6174682  -0.7218325
    2   0.2142617  -0.8012141
    3  -0.0957421  -0.2680524
 EField
            1           2           3           4           5           6
    1   0.0057195   0.0055364  -0.0005383   0.0009652   0.0018250   0.0020905
    2   0.0033175   0.0032538  -0.0005616   0.0003616   0.0004339   0.0016344
    3   0.0016355  -0.0040051  -0.0001038   0.0032017   0.0032552   0.0025392
            7           8           9          10          11          12
    1  -0.0074005   0.0014672   0.0061074   0.0069909   0.0027484   0.0011514
    2   0.0000736   0.0053084   0.0044765  -0.0005660  -0.0010640  -0.0018458
    3  -0.0053206  -0.0096301   0.0057818   0.0042086   0.0055131   0.0038093
           13          14          15          16          17          18
    1  -0.0001399   0.0040924  -0.0005927   0.0016478   0.0025068   0.0112223
    2   0.0012999   0.0004273   0.0017451   0.0018767  -0.0066211   0.0093546
    3   0.0050125   0.0034836  -0.0022825   0.0047439   0.0021497  -0.0136923
           19          20          21          22          23          24
    1   0.0207345   0.0060039   0.0092034   0.0073754   0.0003635  -0.0282380
    2   0.0275461   0.0053168   0.0011710   0.0063910  -0.0111615  -0.0048472
    3  -0.0237354  -0.0115683  -0.0068918  -0.0099286   0.0040121   0.0149034
           25          26          27          28          29          30
    1  -0.0110340   0.0083416  -0.0052874  -0.0040049   0.0003738   0.0072664
    2  -0.0319907  -0.0027249   0.0468950  -0.0014546   0.0164370  -0.0260662
    3  -0.0097271   0.0320821   0.0214382  -0.0054011  -0.0290006  -0.0042099
           31          32          33          34          35          36
    1  -0.0300629   0.0894462  -0.0073412   0.0057393  -0.0277837   0.0013639
    2   0.0095755  -0.0481264   0.0035136  -0.0123646  -0.0075211   0.0333280
    3   0.0037537  -0.0411523  -0.0122078  -0.0187952  -0.0121046  -0.0192857
           37          38          39          40          41          42
    1   0.0466018  -0.0107726  -0.0273364   0.0187033  -0.0119056  -0.0872481
    2   0.0018721  -0.0082752  -0.0030111  -0.0281578  -0.0167496   0.0602994
    3   0.0197991  -0.0017969  -0.0162427   0.0004606   0.0263330   0.0313051
           43          44          45          46          47          48
    1  -0.0000408  -0.0253105   0.0032743   0.0172299   0.0564040   0.0019719
    2   0.0058773  -0.0028671   0.0370760  -0.0103736   0.0069842   0.0000203
    3  -0.0050015  -0.0158636  -0.0137599  -0.0295463   0.0163151   0.0015176
           49          50          51          52          53          54
    1  -0.0254968   0.0217486  -0.0050379  -0.0882796   0.0027584   0.0009975
    2  -0.0049131  -0.0084993  -0.0240923   0.0414290  -0.0028361  -0.0327803
    3  -0.0062935  -0.0298441   0.0297929   0.0515901  -0.0040313  -0.0015248
           55          56          57          58          59          60
    1   0.0163193   0.0310075   0.0169330  -0.0028677   0.0205665  -0.0189668
    2   0.0086876   0.0044146   0.0631650  -0.0054880   0.0013653   0.0093153
    3  -0.0306323   0.0115102   0.0134677   0.0034092   0.0245144   0.0233210
           61          62          63          64          65          66
    1  -0.0073566  -0.0718684   0.0001324  -0.0290652   0.0143551   0.0183494
    2  -0.0357694  -0.0233454  -0.0064844   0.0038713   0.0138125  -0.0286540
    3   0.0017801  -0.0821728  -0.0041166  -0.0106084  -0.0264774   0.0064664
           67          68          69          70          71          72
    1  -0.0066541   0.0076084   0.0032580   0.0257702   0.0025507  -0.0650357
    2   0.0623938  -0.0036737  -0.0322158   0.0191679   0.0081013  -0.0576862
    3  -0.0064171   0.0012992  -0.0002794  -0.0113572   0.0268044   0.0668751
           73          74          75          76          77          78
    1  -0.0142814  -0.0280088  -0.0093185  -0.0204601   0.0340212  -0.0036560
    2  -0.0012850   0.0170171  -0.0175613  -0.0196084  -0.0438408  -0.0013353
    3  -0.0003418  -0.0153226  -0.0222127   0.0220087   0.0108665   0.0063557
           79          80          81          82          83          84
    1  -0.0265458  -0.0093032   0.0203720   0.0157545  -0.0052869  -0.0313859
    2   0.0223025  -0.0128190   0.0195306   0.0626418   0.0040453  -0.0055231
    3   0.0063732   0.0342016  -0.0158629  -0.0890231   0.0041364   0.0067957
           85          86          87          88          89          90
    1   0.0080674  -0.0051575  -0.0231846   0.0006192  -0.0299879   0.0250120
    2   0.0144398   0.0178404  -0.0331264  -0.0005767  -0.0104847  -0.0190350
    3   0.0218605  -0.0263944  -0.0459980   0.0073491   0.0108179  -0.0021006
           91          92          93          94          95          96
    1   0.0045863   0.0987487  -0.0008776   0.0187632  -0.0314676   0.0032741
    2   0.0135576   0.0479222   0.0095924   0.0199932  -0.0018872   0.0213542
    3   0.0329483  -0.0100577   0.0043611  -0.0172356  -0.0037104   0.0235043
           97          98          99         100         101         102
    1   0.0586094  -0.0029060  -0.0091043  -0.0283590   0.0252347  -0.0760434
    2  -0.0052577  -0.0011137  -0.0293914   0.0082491   0.0120836  -0.0445489
    3   0.0096383  -0.0053219  -0.0073758  -0.0073662  -0.0183988   0.0638502
          103         104         105         106         107         108
    1  -0.0007857   0.0170877   0.0151671  -0.0251849  -0.0168349   0.0052432
    2  -0.0069192   0.0059673  -0.0244163  -0.0067426   0.0439321  -0.0029448
    3  -0.0080942  -0.0298708   0.0073921  -0.0122121  -0.0158673   0.0014370
          109         110         111         112         113         114
    1   0.0141615   0.0238360   0.0044853  -0.0543868  -0.0046585   0.0208773
    2  -0.0260883   0.0187935   0.0089034  -0.0700306   0.0047383   0.0295408
    3   0.0004042  -0.0145651   0.0290773   0.0662864   0.0093997   0.0110547
          115         116         117         118         119         120
    1  -0.0259594  -0.0136362   0.0581644   0.0003067   0.0185107  -0.0276102
    2   0.0210023  -0.0298914  -0.0230021   0.0043959  -0.0073642   0.0002769
    3   0.0029705   0.0124149   0.0122622  -0.0001178  -0.0227642  -0.0037426
          121         122         123         124         125         126
    1   0.0231809  -0.0734212  -0.0001854  -0.0153164   0.0207429   0.0010713
    2   0.0197548  -0.0672198  -0.0048708  -0.0344680  -0.0170221   0.0083478
    3   0.0186712  -0.0489172   0.0065707   0.0054664  -0.0161485   0.0288927
          127         128         129         130         131         132
    1   0.0021914   0.0130502   0.0271609  -0.0036375   0.0057666  -0.0743737
    2  -0.0157933   0.0054346  -0.0192420   0.0290917   0.0021102   0.0640686
    3  -0.0552712   0.0027612  -0.0113657  -0.0145439   0.0298560   0.0463700
          133         134         135         136         137         138
    1  -0.0042492  -0.0282486   0.0134293   0.0184949  -0.0156536  -0.0061607
    2   0.0051599   0.0104631   0.0278789  -0.0215277  -0.0551503   0.0086280
    3  -0.0036667  -0.0116307  -0.0014017  -0.0139732   0.0124263   0.0023522
          139         140         141         142         143         144
    1  -0.0369541  -0.0084638   0.0239895   0.1019603  -0.0020372   0.0025492
    2   0.0030650  -0.0093088   0.0254006   0.0379440   0.0035205   0.0378912
    3  -0.0041104   0.0306087  -0.0017463   0.0154036   0.0093361   0.0117415
          145         146         147         148         149         150
    1  -0.0266180   0.0050168   0.0052931  -0.0042191  -0.0061523  -0.0347435
    2   0.0209440  -0.0289416   0.0327916  -0.0066873  -0.0148182   0.0033507
    3  -0.0079223   0.0151492  -0.0396447  -0.0008083   0.0274446  -0.0112543
          151         152         153         154         155         156
    1   0.0005507   0.0778227   0.0065868  -0.0014015   0.0288319   0.0068089
    2  -0.0139734  -0.0606085   0.0019480   0.0335253   0.0006709  -0.0083435
    3  -0.0255168   0.0487228  -0.0027742  -0.0040992   0.0185269  -0.0266600
          157         158         159         160         161         162
    1  -0.0174755   0.0043261   0.0160957   0.0206663  -0.0074179  -0.0590741
    2   0.0206959  -0.0054737  -0.0132691  -0.0052129  -0.0435787  -0.0263948
    3   0.0459494   0.0013840  -0.0199852   0.0247726   0.0120747  -0.0892175
          163         164         165         166         167         168
    1   0.0106855   0.0116525   0.0278843  -0.0056515   0.0019433  -0.0025566
    2   0.0006503   0.0108377   0.0051220  -0.0287468   0.0545804  -0.0078098
    3   0.0020730  -0.0290128   0.0257241   0.0152877  -0.0057364   0.0067102
          169         170         171         172         173         174
    1  -0.0320612   0.0107920   0.0088545  -0.0361019  -0.0048774  -0.0060699
    2  -0.0021764  -0.0307484   0.0253375  -0.0672676  -0.0059296   0.0202743
    3   0.0100973   0.0033301   0.0191270  -0.0786636  -0.0025873  -0.0217506
          175         176         177         178         179         180
    1   0.0146246  -0.0255299  -0.0242266   0.0067717   0.0238307   0.0098308
    2  -0.0242544  -0.0153983   0.0308774   0.0030609  -0.0108404  -0.0165826
    3  -0.0128709   0.0029166   0.0291115  -0.0028349   0.0180511  -0.0215654
          181         182         183         184         185         186
    1  -0.0036604   0.0306965  -0.0072200  -0.0304387  -0.0070275  -0.0089726
    2   0.0306869  -0.1137990   0.0047095  -0.0055367   0.0243293  -0.0031022
    3  -0.0139405   0.0376270  -0.0045890   0.0097488   0.0187406  -0.0358965
          187         188         189         190         191         192
    1   0.0463904  -0.0048967  -0.0217390  -0.0132472   0.0246939  -0.0002099
    2   0.0109337  -0.0071292   0.0010640  -0.0126717  -0.0118401   0.0131140
    3  -0.0326174  -0.0033743   0.0267581  -0.0348353   0.0207053   0.1100255
          193         194         195         196         197         198
    1   0.0092060   0.0077431   0.0196694  -0.0070106  -0.0152632  -0.0032619
    2   0.0047953  -0.0134295  -0.0128813   0.0323905  -0.0066170   0.0045227
    3   0.0066835   0.0307356  -0.0216689  -0.0069628  -0.0532098   0.0080437
          199         200         201         202         203         204
    1  -0.0039293  -0.0035798  -0.0302592   0.0071805  -0.0116113  -0.0037626
    2   0.0021064   0.0329089  -0.0052347  -0.0784389   0.0002430   0.0191855
    3   0.0324071  -0.0072181   0.0080340   0.0749254   0.0003923  -0.0264644
          205         206         207         208         209         210
    1   0.0039316  -0.0232946   0.0088519  -0.0026214   0.0264141  -0.0049223
    2  -0.0298135   0.0012927  -0.0282189   0.0069456   0.0093600   0.0165332
    3  -0.0046532   0.0242067   0.0538887  -0.0023462   0.0113484  -0.0282161
          211         212         213         214         215         216
    1  -0.0225577   0.0614027  -0.0016226   0.0037004   0.0162501  -0.0250681
    2   0.0152625  -0.0259163  -0.0081444   0.0132016  -0.0258060  -0.0197056
    3   0.0230470  -0.0875281  -0.0060320  -0.0305723   0.0138032  -0.0184221
          217         218         219         220         221         222
    1   0.0517978  -0.0086078  -0.0232934   0.0068846  -0.0002660  -0.0421979
    2   0.0063093  -0.0034521  -0.0053106  -0.0354722   0.0265451   0.0755456
    3   0.0321438   0.0061841  -0.0241819  -0.0043076   0.0266944  -0.0645718
          223         224         225         226         227         228
    1   0.0029438  -0.0215538   0.0033184   0.0311961   0.0253704   0.0040172
    2  -0.0077889  -0.0233557  -0.0024389  -0.0112283   0.0418479  -0.0045696
    3  -0.0000490   0.0027131  -0.0330939  -0.0004394  -0.0086502   0.0049999
          229         230         231         232         233         234
    1   0.0271219  -0.0107699  -0.0115466  -0.1103622  -0.0050429  -0.0326161
    2  -0.0057428   0.0206034  -0.0294702  -0.0088785   0.0056310  -0.0153067
    3   0.0223076   0.0152852   0.0018498   0.0030404   0.0040131   0.0050691
          235         236         237         238         239         240
    1  -0.0152512   0.0013939   0.0010786  -0.0023668  -0.0189493   0.0207252
    2   0.0015886   0.0297362  -0.0182908  -0.0092103  -0.0228625  -0.0262046
    3   0.0257512  -0.0140363  -0.0559710   0.0065004  -0.0182723   0.0051464
          241         242         243         244         245         246
    1  -0.0137095   0.0787202   0.0083263   0.0074548   0.0184858   0.0006992
    2   0.0179465   0.0528696  -0.0024221   0.0272526  -0.0195023  -0.0111921
    3   0.0220172   0.0507515  -0.0038460  -0.0118071   0.0125991  -0.0307303
          247         248         249         250         251         252
    1  -0.0290956  -0.0031658   0.0158185  -0.0033281  -0.0246898   0.0405552
    2  -0.0418855   0.0041619   0.0244482   0.0060716   0.0118549   0.0278735
    3  -0.0137906  -0.0047433   0.0031157  -0.0329759   0.0130113   0.0956797
          253         254         255         256         257         258
    1   0.0067731   0.0102064   0.0147907  -0.0093313   0.0125541  -0.0005621
    2  -0.0009686   0.0194869  -0.0318713   0.0127920  -0.0179016  -0.0078783
    3  -0.0102236  -0.0004756  -0.0012100  -0.0325963   0.0545342  -0.0073474
          259         260         261         262         263         264
    1  -0.0010143   0.0175761  -0.0254627  -0.0687788  -0.0012185  -0.0282881
    2   0.0027826  -0.0325085  -0.0044630   0.0822232   0.0070303  -0.0121665
    3  -0.0310316  -0.0046855   0.0122015  -0.0218408  -0.0052113  -0.0023369
          265         266         267         268         269         270
    1   0.0100745   0.0105776  -0.0179662   0.0084798   0.0118400   0.0060664
    2   0.0280473   0.0012646   0.0004653   0.0049947  -0.0252255   0.0040492
    3   0.0072484  -0.0309905   0.0630895  -0.0036554   0.0172266  -0.0337659
          271         272         273         274         275         276
    1   0.0157512  -0.0217350   0.0020745  -0.0005834   0.0343063  -0.0082455
    2   0.0249164  -0.0864536  -0.0014723  -0.0235544  -0.0057192  -0.0100628
    3   0.0209156  -0.0619947   0.0030045  -0.0159580   0.0137368   0.0307707
          277         278         279         280         281         282
    1   0.0087216  -0.0058417  -0.0134827  -0.0186433  -0.0149964   0.0365986
    2   0.0496357   0.0010069  -0.0233052   0.0066081   0.0080706  -0.0104793
    3   0.0303127   0.0006774  -0.0104150   0.0273842  -0.0278072  -0.1022068
          283         284         285         286         287         288
    1  -0.0043920  -0.0358370  -0.0234579   0.0079814  -0.0161310   0.0026865
    2   0.0004171  -0.0179503   0.0248469   0.0069659  -0.0196938   0.0057225
    3  -0.0045261  -0.0107111   0.0003554  -0.0243497   0.0431786   0.0011956
          289         290         291         292         293         294
    1  -0.0194757   0.0340508   0.0059639   0.0710549   0.0123494  -0.0015610
    2   0.0208320   0.0170417   0.0163495  -0.0366990   0.0000315  -0.0148566
    3   0.0229810   0.0092568  -0.0278230  -0.0728687  -0.0024176  -0.0317361
          295         296         297         298         299         300
    1   0.0177244  -0.0018869  -0.0411458   0.0010176  -0.0015811  -0.0354586
    2   0.0271882  -0.0213001  -0.0345836   0.0076441   0.0015941   0.0078614
    3   0.0007088   0.0298990  -0.0197082  -0.0056837  -0.0373198  -0.0030882
          301         302         303         304         305         306
    1   0.0289635  -0.0047387  -0.0050746  -0.0104945  -0.0308447  -0.0025793
    2   0.0108954   0.0444983  -0.0004111  -0.0023992   0.0008278   0.0325301
    3   0.0067299   0.0990566  -0.0071525  -0.0332722   0.0047886   0.0056863
          307         308         309         310         311         312
    1   0.0033099   0.0044484   0.0140929   0.0279745  -0.0027879  -0.0044315
    2   0.0176742  -0.0003929   0.0310374  -0.0103532  -0.0023436  -0.1070134
    3   0.0584577  -0.0045658   0.0038798   0.0112834  -0.0278791  -0.0262537
          313         314         315         316         317         318
    1   0.0076688   0.0213046   0.0144198  -0.0099866  -0.0152896   0.0010898
    2  -0.0013771  -0.0012068   0.0153600  -0.0276126  -0.0165399   0.0095292
    3   0.0049287  -0.0253856   0.0235824   0.0080655  -0.0592754   0.0078379
          319         320         321         322         323         324
    1   0.0096847   0.0154593  -0.0217116  -0.0688723   0.0013989   0.0088050
    2   0.0109025   0.0063607   0.0233140  -0.0283186   0.0035300  -0.0227665
    3   0.0299622  -0.0270735  -0.0025349   0.0807751   0.0074931   0.0243721
          325         326         327         328         329         330
    1   0.0145292  -0.0206726   0.0431700   0.0004261   0.0020742  -0.0246029
    2   0.0272710   0.0164302  -0.0349524   0.0043439   0.0210328   0.0241013
    3   0.0046249  -0.0071073  -0.0036840  -0.0067135  -0.0430400   0.0012703
          331         332
    1   0.0310779  -0.1039825
    2   0.0092319  -0.0069339
    3   0.0028698  -0.0283697
  --- DONE ESP SUMMARY ---
 Total job time:  47.04s(wall), 119.97s(cpu) 
 Thu Jul 21 11:36:02 2022

        *************************************************************
        *                                                           *
        *  Thank you very much for using Q-Chem.  Have a nice day.  *
        *                                                           *
        *************************************************************


