                  Welcome to Q-Chem
     A Quantum Leap Into The Future Of Chemistry


 Q-Chem 6.0 (devel), Q-Chem, Inc., Pleasanton, CA (2022)

 E. Epifanovsky,  A. T. B. Gilbert,  Xintian Feng,  Joonho Lee,  Yuezhi Mao,  
 N. Mardirossian,  P. Pokhilko,  A. White,  M. Wormit,  M. P. Coons,  
 A. L. Dempwolff,  Zhengting Gan,  D. Hait,  P. R. Horn,  L. D. Jacobson,  
 I. Kaliman,  J. Kussmann,  A. W. Lange,  Ka Un Lao,  D. S. Levine,  Jie Liu,  
 S. C. McKenzie,  A. F. Morrison,  K. Nanda,  F. Plasser,  D. R. Rehn,  
 M. L. Vidal,  Zhi-Qiang You,  Ying Zhu,  B. Alam,  B. Albrecht,  
 A. Aldossary,  E. Alguire,  J. H. Andersen,  V. Athavale,  D. Barton,  
 K. Begam,  A. Behn,  N. Bellonzi,  Y. A. Bernard,  E. J. Berquist,  
 H. Burton,  A. Carreras,  K. Carter-Fenk,  Romit Chakraborty,  
 Chandrima Chakravarty,  Junhan Chen,  A. D. Chien,  K. D. Closser,  
 V. Cofer-Shabica,  L. Cunha,  S. Dasgupta,  Jia Deng,  M. de Wergifosse,  
 M. Diedenhofen,  Hainam Do,  S. Ehlert,  Po-Tung Fang,  S. Fatehi,  
 Qingguo Feng,  T. Friedhoff,  B. Ganoe,  J. Gayvert,  Qinghui Ge,  
 G. Gidofalvi,  M. Goldey,  J. Gomes,  C. Gonzalez-Espinoza,  S. Gulania,  
 A. Gunina,  J. A. Gyamfi,  M. W. D. Hanson-Heine,  P. H. P. Harbach,  
 A. W. Hauser,  M. F. Herbst,  M. Hernandez Vera,  M. Hodecker,  
 Z. C. Holden,  S. Houck,  Xunkun Huang,  Kerwin Hui,  B. C. Huynh,  
 K. Ikeda,  M. Ivanov,  Hyunjun Ji,  Zuxin Jin,  Hanjie Jiang,  B. Kaduk,  
 S. Kaehler,  R. Kang,  K. Khistyaev,  Jaehoon Kim,  Yongbin Kim,  
 P. Klunzinger,  Z. Koczor-Benda,  Joong Hoon Koh,  D. Kosenkov,  
 Saikiran Kotaru,  L. Koulias,  T. Kowalczyk,  C. M. Krauter,  K. Kue,  
 A. Kunitsa,  T. Kus,  A. Landau,  K. V. Lawler,  D. Lefrancois,  S. Lehtola,  
 Rain Li,  Shaozhi Li,  Yi-Pei Li,  Jiashu Liang,  M. Liebenthal,  
 Hung-Hsuan Lin,  You-Sheng Lin,  Fenglai Liu,  Kuan-Yu Liu,  
 M. Loipersberger,  A. Luenser,  C. Malbon,  A. Manjanath,  P. Manohar,  
 E. Mansoor,  S. F. Manzer,  Shan-Ping Mao,  A. V. Marenich,  T. Markovich,  
 S. Mason,  F. Matz,  S. A. Maurer,  P. F. McLaughlin,  M. F. S. J. Menger,  
 J.-M. Mewes,  S. A. Mewes,  P. Morgante,  Mohammad Mostafanejad,  
 J. W. Mullinax,  K. J. Oosterbaan,  G. Paran,  V. Parravicini,  
 Alexander C. Paul,  Suranjan K. Paul,  F. Pavosevic,  Zheng Pei,  S. Prager,  
 E. I. Proynov,  E. Ramos,  B. Rana,  A. E. Rask,  A. Rettig,  R. M. Richard,  
 F. Rob,  E. Rossomme,  T. Scheele,  M. Scheurer,  M. Schneider,  
 P. E. Schneider,  N. Sergueev,  S. M. Sharada,  Hengyuan Shen,  
 W. Skomorowski,  D. W. Small,  C. J. Stein,  Yingli Su,  Yu-Chuan Su,  
 E. J. Sundstrom,  Zhen Tao,  J. Thirman,  Hung-Yi Tsai,  T. Tsuchimochi,  
 N. M. Tubman,  C. Utku,  S. P. Veccham,  O. Vydrov,  J. Wenzel,  
 Jonathan Wong,  J. Witte,  A. Yamada,  Chou-Hsun Yang,  Kun Yao,  
 S. Yeganeh,  S. R. Yost,  A. Zech,  F. Zeller,  Igor Ying Zhang,  
 Xing Zhang,  Yu Zhang,  D. Zuev,  A. Aspuru-Guzik,  A. T. Bell,  
 N. A. Besley,  K. B. Bravaya,  B. R. Brooks,  D. Casanova,  Jeng-Da Chai,  
 Hsing-Ta Chen,  S. Coriani,  C. J. Cramer,  A. E. DePrince, III,  
 R. A. DiStasio Jr.,  A. Dreuw,  B. D. Dunietz,  T. R. Furlani,  
 W. A. Goddard III,  S. Grimme,  S. Hammes-Schiffer,  T. Head-Gordon,  
 W. J. Hehre,  Chao-Ping Hsu,  T.-C. Jagau,  Yousung Jung,  A. Klamt,  
 Jing Kong,  D. S. Lambrecht,  Xiangyuan Li,  WanZhen Liang,  N. J. Mayhall,  
 C. W. McCurdy,  J. B. Neaton,  T. Neudecker,  C. Ochsenfeld,  
 J. A. Parkhill,  R. Peverati,  V. A. Rassolov,  Haisheng Ren,  Yihan Shao,  
 L. V. Slipchenko,  R. P. Steele,  J. E. Subotnik,  A. J. W. Thom,  
 A. Tkatchenko,  D. G. Truhlar,  T. Van Voorhis,  Fan Wang,  
 T. A. Wesolowski,  K. B. Whaley,  H. L. Woodcock III,  P. M. Zimmerman,  
 S. Faraji,  P. M. W. Gill,  M. Head-Gordon,  J. M. Herbert,  A. I. Krylov

 Contributors to earlier versions of Q-Chem not listed above: 
 R. D. Adamson,  B. Austin,  R. Baer,  J. Baker,  G. J. O. Beran,  
 K. Brandhorst,  S. T. Brown,  E. F. C. Byrd,  Arup K. Chakraborty,  
 G. K. L. Chan,  Chun-Min Chang,  Yunqing Chen,  C.-L. Cheng,  
 Siu Hung Chien,  D. M. Chipman,  D. L. Crittenden,  H. Dachsel,  
 R. J. Doerksen,  A. D. Dutoi,  R. G. Edgar,  J. Fosso-Tande,  
 L. Fusti-Molnar,  D. Ghosh,  A. Ghysels,  A. Golubeva-Zadorozhnaya,  
 J. Gonthier,  M. S. Gordon,  S. R. Gwaltney,  G. Hawkins,  J. E. Herr,  
 A. Heyden,  S. Hirata,  E. G. Hohenstein,  G. Kedziora,  F. J. Keil,  
 C. Kelley,  Jihan Kim,  R. A. King,  R. Z. Khaliullin,  P. P. Korambath,  
 W. Kurlancheek,  A. Laurent,  A. M. Lee,  M. S. Lee,  S. V. Levchenko,  
 Ching Yeh Lin,  D. Liotard,  E. Livshits,  R. C. Lochan,  I. Lotan,  
 L. A. Martinez-Martinez,  P. E. Maslen,  N. Nair,  D. P. O'Neill,  
 D. Neuhauser,  E. Neuscamman,  C. M. Oana,  R. Olivares-Amaya,  R. Olson,  
 T. M. Perrine,  B. Peters,  P. A. Pieniazek,  A. Prociuk,  Y. M. Rhee,  
 J. Ritchie,  M. A. Rohrdanz,  E. Rosta,  N. J. Russ,  H. F. Schaefer III,  
 M. W. Schmidt,  N. E. Schultz,  S. Sharma,  N. Shenvi,  C. D. Sherrill,  
 A. C. Simmonett,  A. Sodt,  T. Stein,  D. Stuck,  K. S. Thanthiriwatte,  
 V. Vanovschi,  L. Vogt,  Tao Wang,  A. Warshel,  M. A. Watson,  
 C. F. Williams,  Q. Wu,  X. Xu,  Jun Yang,  W. Zhang,  Yan Zhao

   Please cite Q-Chem as follows:
  "Software for the frontiers of quantum chemistry:
   An overview of developments in the Q-Chem 5 package"
   J. Chem. Phys. 155, 084801 (2021)
   https://doi.org/10.1063/5.0055522 (open access)

 Q-Chem 6.0.0 for Intel X86 EM64T Linux

 Parts of Q-Chem use Armadillo 9.900.5 (Nocturnal Misbehaviour).
 http://arma.sourceforge.net/

 Q-Chem begins on Thu Jul 21 03:14:50 2022  

 Host: nid00541
0

     Scratch files written to /global/cscratch1/sd/ymao90/r7.00_frame_0049_spade_B3LYP_dp20220721031333//
 Processing $rem in /global/homes/y/ymao90/my_qchem/qchem_embedding_5p4/config/preferences:
 Processing $rem in /global/homes/y/ymao90/.qchemrc:
 No nuclear gradient supported for projection-based embedding or EMFT. Set max ideriv = 0.

 Checking the input file for inconsistencies... 	...done.

--------------------------------------------------------------
User input:
--------------------------------------------------------------
$molecule
0 1
--
0 1
C    29.68200   18.71800   25.50000  
C    29.14500   19.83700   26.40800  
C    29.75200   19.79200   27.81900  
C    31.28100   19.82200   27.65800  
C    31.85900   18.81900   26.64600  
C    31.19700   18.82800   25.25900  
H    29.51100   20.65500   28.45200  
H    29.45000   20.75600   25.89200  
H    29.60500   17.74800   26.00700  
H    29.07300   18.59400   24.59700  
H    31.54100   20.79600   27.22700  
H    31.81900   19.65800   28.60000  
H    32.94500   18.96100   26.58600  
H    31.75800   17.81000   27.06500  
H    31.44200   19.72100   24.67100  
H    31.44000   17.91700   24.69800  
H    29.53700   18.88100   28.39100  
N    27.71500   19.54700   26.50100  
H    27.43500   18.61000   26.76600  
C    26.72000   20.39600   26.06500  
H    25.75900   19.90700   25.82500  
O    26.98300   21.57500   25.90600  
--
0 1
C    24.51600   25.45700   21.57200  
H    25.48200   25.96600   21.62100  
H    24.69400   24.40900   21.82800  
H    24.01600   25.66100   20.62200  
S    23.59000   26.38900   22.81300  
C    24.04200   28.00200   22.13500  
H    24.48500   28.56700   22.96000  
H    24.87900   27.77400   21.47100  
H    23.19200   28.43000   21.59700  
O    24.37700   26.23200   24.07700  
C    31.29200   20.76900   31.91100  
H    31.79100   19.79700   31.87000  
H    31.21000   21.36800   31.00100  
H    31.80500   21.34900   32.68300  
S    29.57100   20.39400   32.31400  
C    29.86600   19.35100   33.76000  
H    30.77200   18.77500   33.55500  
H    29.88000   20.04900   34.60100  
H    28.98900   18.71600   33.90700  
O    29.18700   19.50400   31.17300  
C    31.25600   25.20100   30.99800  
H    30.18000   25.01700   31.05400  
H    31.62200   26.22500   30.88800  
H    31.65300   24.68800   30.11900  
S    31.90400   24.53200   32.54700  
C    31.53300   25.98700   33.55200  
H    30.46300   26.12200   33.73000  
H    31.87600   25.88200   34.58400  
H    31.98500   26.91000   33.17900  
O    33.34700   24.68900   32.18000  
C    34.21500   21.69400   27.90200  
H    33.39600   22.14700   27.33700  
H    34.72500   20.98200   27.24900  
H    33.79600   21.12900   28.73900  
S    35.28800   23.02500   28.48700  
C    33.90100   23.92500   29.21500  
H    33.13800   24.22600   28.49300  
H    33.56000   23.16100   29.91900  
H    34.23800   24.83400   29.72100  
O    35.69400   23.72600   27.22900  
C    27.79600   14.73200   26.06300  
H    27.09900   15.25400   25.40200  
H    27.32600   13.92900   26.63600  
H    28.32800   15.48500   26.64900  
S    28.96400   13.82700   25.02400  
C    29.86700   13.30600   26.50000  
H    29.25600   12.74800   27.21400  
H    30.71000   12.65800   26.24900  
H    30.31000   14.17800   26.98800  
O    29.83800   14.88300   24.42400  
C    24.89100   19.02600   32.46300  
H    24.99300   17.93700   32.45600  
H    24.01900   19.31600   33.05400  
H    24.72400   19.43900   31.46500  
S    26.33700   19.85900   33.15500  
C    26.17000   19.25100   34.84900  
H    26.21600   18.16000   34.82000  
H    27.10200   19.63400   35.27200  
H    25.23300   19.68000   35.21400  
O    25.72000   21.22200   33.15500  
C    25.36500   19.43600   22.91900  
H    26.10700   20.02200   23.46800  
H    24.46500   19.29500   23.52200  
H    25.74200   18.43200   22.70800  
S    24.94300   20.28600   21.38100  
C    24.01800   21.51800   22.32500  
H    23.62300   22.34500   21.72900  
H    23.12600   20.98800   22.67100  
H    24.64000   21.79900   23.17800  
O    23.82500   19.42600   20.87900  
C    32.36900   13.08800   20.82900  
H    31.90800   13.12400   21.82000  
H    31.64900   13.41300   20.07300  
H    32.71700   12.06100   20.69000  
S    33.70900   14.28400   21.02200  
C    32.53900   15.62900   21.32000  
H    33.02900   16.59700   21.45000  
H    31.86500   15.72100   20.46500  
H    31.86400   15.44300   22.16000  
O    34.22700   14.62300   19.65900  
C    33.61900   14.12000   26.36900  
H    34.19700   15.03700   26.50600  
H    33.06100   14.19100   25.43100  
H    33.01300   13.89000   27.24800  
S    34.95100   12.89800   26.37600  
C    35.40000   12.86800   24.62600  
H    35.83500   13.85700   24.46400  
H    36.17600   12.11100   24.48700  
H    34.46800   12.73100   24.07100  
O    34.27000   11.60000   26.68000  
C    39.40400   20.01000   27.05300  
H    40.27600   20.48900   26.60100  
H    39.68000   19.43200   27.93900  
H    38.88700   19.40300   26.30500  
S    38.31400   21.41100   27.38800  
C    38.93300   22.49700   26.08300  
H    38.97000   22.01800   25.10200  
H    38.42200   23.45400   25.94500  
H    39.95200   22.66900   26.43900  
O    39.07400   21.92500   28.57100  
C    31.72700   15.51100   29.97700  
H    31.93700   14.67900   30.65300  
H    32.10200   15.21100   28.99500  
H    32.25800   16.39200   30.34800  
S    29.93600   15.75200   29.94300  
C    29.98300   16.21800   31.68800  
H    28.97400   16.34800   32.08900  
H    30.46800   15.39500   32.21900  
H    30.47500   17.18200   31.83900  
O    29.27100   14.41000   29.95500  
C    26.89900   24.19900   23.99200  
H    26.96100   23.92800   25.04900  
H    27.52800   25.05900   23.74500  
H    25.85400   24.35300   23.71500  
S    27.47300   22.75500   23.07100  
C    29.25000   22.91900   23.35200  
H    29.80600   22.73500   22.42900  
H    29.55100   23.88900   23.75700  
H    29.39100   22.06500   24.01900  
O    27.38000   23.17800   21.63800  
C    28.75900   23.59300   27.20400  
H    28.28100   24.28700   27.90000  
H    28.58100   23.71600   26.13200  
H    28.67000   22.51500   27.35700  
S    30.52300   23.94600   27.36600  
C    30.43400   25.69400   26.91800  
H    29.73800   26.02800   27.69200  
H    31.34400   26.26400   27.11900  
H    29.97900   25.88700   25.94300  
O    31.23900   23.27200   26.23800  
C    33.42300   17.56400   32.81000  
H    33.37100   16.92600   31.92400  
H    32.39600   17.50600   33.17800  
H    33.89500   18.55000   32.79900  
S    34.38200   16.68500   34.06500  
C    34.07700   17.71700   35.51700  
H    33.29100   17.24800   36.11400  
H    35.02600   17.71500   36.05800  
H    33.81700   18.75100   35.27700  
O    35.77000   17.03900   33.63300  
C    33.37000   20.97500   17.67500  
H    33.59400   20.83800   16.61400  
H    32.35100   20.71100   17.96800  
H    33.53600   22.04100   17.85100  
S    34.37100   19.86500   18.69000  
C    34.42700   21.09400   20.01400  
H    34.86000   20.68100   20.92800  
H    35.11600   21.82300   19.57800  
H    33.43700   21.51500   20.20500  
O    35.74400   20.00100   18.10800  
C    25.62600   15.76100   28.97900  
H    24.95800   16.13800   29.75700  
H    24.96600   15.21500   28.30000  
H    26.33800   14.99900   29.30800  
S    26.35700   17.17500   28.12400  
C    26.87900   17.82000   29.72900  
H    27.38400   17.06900   30.34200  
H    27.59000   18.60500   29.45700  
H    26.10800   18.31800   30.32200  
O    25.17400   18.05300   27.85900  
C    35.04600   21.97000   32.14300  
H    33.98900   21.79000   32.35800  
H    35.62000   22.23200   33.03600  
H    35.17500   22.72100   31.35900  
S    35.77900   20.42400   31.56300  
C    37.25000   21.02700   30.70400  
H    37.66000   20.15800   30.18500  
H    37.11700   21.83400   29.97900  
H    37.91900   21.41200   31.47800  
O    34.83300   20.01900   30.47500  
C    35.92100   19.18500   24.68100  
H    36.82600   18.64700   24.97400  
H    35.89700   19.83700   23.80400  
H    35.66200   19.75400   25.57800  
S    34.62800   17.98300   24.29600  
C    35.82500   16.88600   23.50300  
H    35.28300   16.23900   22.80900  
H    36.57300   17.47100   22.96100  
H    36.34400   16.40500   24.33600  
O    34.06700   18.54400   23.02600  
C    29.14900   19.16800   19.98100  
H    28.58000   19.69500   20.75200  
H    29.00400   19.39200   18.92100  
H    29.09500   18.08700   20.13400  
S    30.89000   19.53200   20.30100  
C    30.64700   19.20800   22.06200  
H    30.19000   18.22000   22.15800  
H    31.61900   19.29500   22.55400  
H    30.03600   20.05800   22.37700  
O    30.94700   21.02800   20.31900  
C    36.74500   18.54100   27.93500  
H    36.19000   19.48000   28.00700  
H    37.62900   18.70300   28.55700  
H    37.03500   18.22900   26.92900  
S    35.77600   17.22300   28.70200  
C    36.87300   15.92500   28.09000  
H    36.47100   15.02500   28.56300  
H    36.76300   15.73100   27.02000  
H    37.92400   16.12800   28.31300  
O    34.60000   17.02800   27.79600  
C    25.29500   24.18700   27.15700  
H    25.05300   23.22100   26.70600  
H    25.86700   24.85800   26.51200  
H    25.82700   24.19300   28.11200  
S    23.69200   24.97900   27.41600  
C    24.27900   26.65700   27.73800  
H    23.42300   27.27900   28.01200  
H    24.92300   26.57800   28.61800  
H    24.83000   27.05200   26.88000  
O    23.30700   24.52900   28.79100  
C    27.80100   16.01300   21.97100  
H    28.73600   16.20200   22.50500  
H    27.36500   16.98400   21.72500  
H    27.17400   15.37100   22.59400  
S    28.10800   15.03200   20.48400  
C    28.71000   13.56000   21.34200  
H    29.47900   13.83800   22.06700  
H    27.97100   13.05900   21.97200  
H    29.02700   12.79500   20.62700  
O    29.38700   15.57500   19.92900  
C    20.90900   19.36500   26.99900  
H    20.16300   20.14900   26.84900  
H    20.91000   18.61700   26.20200  
H    20.68500   18.86000   27.94300  
S    22.54200   20.13300   27.08800  
C    22.22000   21.46200   28.26800  
H    21.45700   22.11400   27.83600  
H    21.86600   20.91200   29.14400  
H    23.09200   22.11300   28.36100  
O    22.60600   20.90600   25.80700  
C    33.29300   21.81200   23.86200  
H    32.77500   21.96100   24.81400  
H    32.73800   22.29500   23.05400  
H    33.40100   20.74600   23.65000  
S    34.93900   22.51100   24.12300  
C    34.52200   24.26300   24.27300  
H    34.11400   24.57600   23.30900  
H    33.83500   24.26800   25.12300  
H    35.50600   24.72700   24.38000  
O    35.55600   22.56400   22.76000  
C    26.94600   22.05800   29.89800  
H    26.18400   22.53200   29.27400  
H    27.85800   21.78700   29.36000  
H    26.46900   21.19600   30.37100  
S    27.38000   23.22600   31.20700  
C    25.75700   24.01800   31.27500  
H    25.01100   23.30800   31.64200  
H    25.80400   24.82800   32.00600  
H    25.48600   24.41500   30.29300  
O    28.13200   24.35900   30.58000  
C    22.92100   16.24800   26.15100  
H    23.21500   15.25700   25.79400  
H    23.28900   16.43400   27.16300  
H    21.83100   16.30900   26.20100  
S    23.61500   17.41600   24.95900  
C    22.15700   17.20500   23.91200  
H    21.31000   17.76900   24.31100  
H    22.59100   17.60800   22.99300  
H    21.88400   16.15200   23.81000  
O    24.63700   16.60100   24.22900  
C    34.29500   12.83100   29.86800  
H    34.51800   11.98500   29.21200  
H    33.33400   12.68300   30.36800  
H    34.37300   13.75900   29.29600  
S    35.67400   13.05200   31.01400  
C    35.18800   14.68100   31.62800  
H    35.06700   15.40200   30.81600  
H    34.28400   14.54000   32.22600  
H    35.98900   15.05300   32.27200  
O    36.87800   13.26600   30.15200  
$end

$rem
JOBTYPE  SP
METHOD  B3LYP
BASIS  6-31+G(D)
SYMMETRY  FALSE
SYM_IGNORE  TRUE
MEM_TOTAL  12000
MEM_STATIC  4000
BASIS_LIN_DEP_THRESH  6
THRESH  14
SCF_CONVERGENCE  8
FD_MAT_VEC_PROD  FALSE
XC_GRID  000075000302
NL_GRID  1
MAX_SCF_CYCLES  200
ENV_METHOD  B3LYP
GEN_SCFMAN_EMBED  TRUE
SPADE_PARTITION  TRUE
EMBEDDING_EARLY_STOP  TRUE
$end

--------------------------------------------------------------
 ----------------------------------------------------------------
             Standard Nuclear Orientation (Angstroms)
    I     Atom           X                Y                Z
 ----------------------------------------------------------------
    1      C      29.6820000000    18.7180000000    25.5000000000
    2      C      29.1450000000    19.8370000000    26.4080000000
    3      C      29.7520000000    19.7920000000    27.8190000000
    4      C      31.2810000000    19.8220000000    27.6580000000
    5      C      31.8590000000    18.8190000000    26.6460000000
    6      C      31.1970000000    18.8280000000    25.2590000000
    7      H      29.5110000000    20.6550000000    28.4520000000
    8      H      29.4500000000    20.7560000000    25.8920000000
    9      H      29.6050000000    17.7480000000    26.0070000000
   10      H      29.0730000000    18.5940000000    24.5970000000
   11      H      31.5410000000    20.7960000000    27.2270000000
   12      H      31.8190000000    19.6580000000    28.6000000000
   13      H      32.9450000000    18.9610000000    26.5860000000
   14      H      31.7580000000    17.8100000000    27.0650000000
   15      H      31.4420000000    19.7210000000    24.6710000000
   16      H      31.4400000000    17.9170000000    24.6980000000
   17      H      29.5370000000    18.8810000000    28.3910000000
   18      N      27.7150000000    19.5470000000    26.5010000000
   19      H      27.4350000000    18.6100000000    26.7660000000
   20      C      26.7200000000    20.3960000000    26.0650000000
   21      H      25.7590000000    19.9070000000    25.8250000000
   22      O      26.9830000000    21.5750000000    25.9060000000
   23      C      24.5160000000    25.4570000000    21.5720000000
   24      H      25.4820000000    25.9660000000    21.6210000000
   25      H      24.6940000000    24.4090000000    21.8280000000
   26      H      24.0160000000    25.6610000000    20.6220000000
   27      S      23.5900000000    26.3890000000    22.8130000000
   28      C      24.0420000000    28.0020000000    22.1350000000
   29      H      24.4850000000    28.5670000000    22.9600000000
   30      H      24.8790000000    27.7740000000    21.4710000000
   31      H      23.1920000000    28.4300000000    21.5970000000
   32      O      24.3770000000    26.2320000000    24.0770000000
   33      C      31.2920000000    20.7690000000    31.9110000000
   34      H      31.7910000000    19.7970000000    31.8700000000
   35      H      31.2100000000    21.3680000000    31.0010000000
   36      H      31.8050000000    21.3490000000    32.6830000000
   37      S      29.5710000000    20.3940000000    32.3140000000
   38      C      29.8660000000    19.3510000000    33.7600000000
   39      H      30.7720000000    18.7750000000    33.5550000000
   40      H      29.8800000000    20.0490000000    34.6010000000
   41      H      28.9890000000    18.7160000000    33.9070000000
   42      O      29.1870000000    19.5040000000    31.1730000000
   43      C      31.2560000000    25.2010000000    30.9980000000
   44      H      30.1800000000    25.0170000000    31.0540000000
   45      H      31.6220000000    26.2250000000    30.8880000000
   46      H      31.6530000000    24.6880000000    30.1190000000
   47      S      31.9040000000    24.5320000000    32.5470000000
   48      C      31.5330000000    25.9870000000    33.5520000000
   49      H      30.4630000000    26.1220000000    33.7300000000
   50      H      31.8760000000    25.8820000000    34.5840000000
   51      H      31.9850000000    26.9100000000    33.1790000000
   52      O      33.3470000000    24.6890000000    32.1800000000
   53      C      34.2150000000    21.6940000000    27.9020000000
   54      H      33.3960000000    22.1470000000    27.3370000000
   55      H      34.7250000000    20.9820000000    27.2490000000
   56      H      33.7960000000    21.1290000000    28.7390000000
   57      S      35.2880000000    23.0250000000    28.4870000000
   58      C      33.9010000000    23.9250000000    29.2150000000
   59      H      33.1380000000    24.2260000000    28.4930000000
   60      H      33.5600000000    23.1610000000    29.9190000000
   61      H      34.2380000000    24.8340000000    29.7210000000
   62      O      35.6940000000    23.7260000000    27.2290000000
   63      C      27.7960000000    14.7320000000    26.0630000000
   64      H      27.0990000000    15.2540000000    25.4020000000
   65      H      27.3260000000    13.9290000000    26.6360000000
   66      H      28.3280000000    15.4850000000    26.6490000000
   67      S      28.9640000000    13.8270000000    25.0240000000
   68      C      29.8670000000    13.3060000000    26.5000000000
   69      H      29.2560000000    12.7480000000    27.2140000000
   70      H      30.7100000000    12.6580000000    26.2490000000
   71      H      30.3100000000    14.1780000000    26.9880000000
   72      O      29.8380000000    14.8830000000    24.4240000000
   73      C      24.8910000000    19.0260000000    32.4630000000
   74      H      24.9930000000    17.9370000000    32.4560000000
   75      H      24.0190000000    19.3160000000    33.0540000000
   76      H      24.7240000000    19.4390000000    31.4650000000
   77      S      26.3370000000    19.8590000000    33.1550000000
   78      C      26.1700000000    19.2510000000    34.8490000000
   79      H      26.2160000000    18.1600000000    34.8200000000
   80      H      27.1020000000    19.6340000000    35.2720000000
   81      H      25.2330000000    19.6800000000    35.2140000000
   82      O      25.7200000000    21.2220000000    33.1550000000
   83      C      25.3650000000    19.4360000000    22.9190000000
   84      H      26.1070000000    20.0220000000    23.4680000000
   85      H      24.4650000000    19.2950000000    23.5220000000
   86      H      25.7420000000    18.4320000000    22.7080000000
   87      S      24.9430000000    20.2860000000    21.3810000000
   88      C      24.0180000000    21.5180000000    22.3250000000
   89      H      23.6230000000    22.3450000000    21.7290000000
   90      H      23.1260000000    20.9880000000    22.6710000000
   91      H      24.6400000000    21.7990000000    23.1780000000
   92      O      23.8250000000    19.4260000000    20.8790000000
   93      C      32.3690000000    13.0880000000    20.8290000000
   94      H      31.9080000000    13.1240000000    21.8200000000
   95      H      31.6490000000    13.4130000000    20.0730000000
   96      H      32.7170000000    12.0610000000    20.6900000000
   97      S      33.7090000000    14.2840000000    21.0220000000
   98      C      32.5390000000    15.6290000000    21.3200000000
   99      H      33.0290000000    16.5970000000    21.4500000000
  100      H      31.8650000000    15.7210000000    20.4650000000
  101      H      31.8640000000    15.4430000000    22.1600000000
  102      O      34.2270000000    14.6230000000    19.6590000000
  103      C      33.6190000000    14.1200000000    26.3690000000
  104      H      34.1970000000    15.0370000000    26.5060000000
  105      H      33.0610000000    14.1910000000    25.4310000000
  106      H      33.0130000000    13.8900000000    27.2480000000
  107      S      34.9510000000    12.8980000000    26.3760000000
  108      C      35.4000000000    12.8680000000    24.6260000000
  109      H      35.8350000000    13.8570000000    24.4640000000
  110      H      36.1760000000    12.1110000000    24.4870000000
  111      H      34.4680000000    12.7310000000    24.0710000000
  112      O      34.2700000000    11.6000000000    26.6800000000
  113      C      39.4040000000    20.0100000000    27.0530000000
  114      H      40.2760000000    20.4890000000    26.6010000000
  115      H      39.6800000000    19.4320000000    27.9390000000
  116      H      38.8870000000    19.4030000000    26.3050000000
  117      S      38.3140000000    21.4110000000    27.3880000000
  118      C      38.9330000000    22.4970000000    26.0830000000
  119      H      38.9700000000    22.0180000000    25.1020000000
  120      H      38.4220000000    23.4540000000    25.9450000000
  121      H      39.9520000000    22.6690000000    26.4390000000
  122      O      39.0740000000    21.9250000000    28.5710000000
  123      C      31.7270000000    15.5110000000    29.9770000000
  124      H      31.9370000000    14.6790000000    30.6530000000
  125      H      32.1020000000    15.2110000000    28.9950000000
  126      H      32.2580000000    16.3920000000    30.3480000000
  127      S      29.9360000000    15.7520000000    29.9430000000
  128      C      29.9830000000    16.2180000000    31.6880000000
  129      H      28.9740000000    16.3480000000    32.0890000000
  130      H      30.4680000000    15.3950000000    32.2190000000
  131      H      30.4750000000    17.1820000000    31.8390000000
  132      O      29.2710000000    14.4100000000    29.9550000000
  133      C      26.8990000000    24.1990000000    23.9920000000
  134      H      26.9610000000    23.9280000000    25.0490000000
  135      H      27.5280000000    25.0590000000    23.7450000000
  136      H      25.8540000000    24.3530000000    23.7150000000
  137      S      27.4730000000    22.7550000000    23.0710000000
  138      C      29.2500000000    22.9190000000    23.3520000000
  139      H      29.8060000000    22.7350000000    22.4290000000
  140      H      29.5510000000    23.8890000000    23.7570000000
  141      H      29.3910000000    22.0650000000    24.0190000000
  142      O      27.3800000000    23.1780000000    21.6380000000
  143      C      28.7590000000    23.5930000000    27.2040000000
  144      H      28.2810000000    24.2870000000    27.9000000000
  145      H      28.5810000000    23.7160000000    26.1320000000
  146      H      28.6700000000    22.5150000000    27.3570000000
  147      S      30.5230000000    23.9460000000    27.3660000000
  148      C      30.4340000000    25.6940000000    26.9180000000
  149      H      29.7380000000    26.0280000000    27.6920000000
  150      H      31.3440000000    26.2640000000    27.1190000000
  151      H      29.9790000000    25.8870000000    25.9430000000
  152      O      31.2390000000    23.2720000000    26.2380000000
  153      C      33.4230000000    17.5640000000    32.8100000000
  154      H      33.3710000000    16.9260000000    31.9240000000
  155      H      32.3960000000    17.5060000000    33.1780000000
  156      H      33.8950000000    18.5500000000    32.7990000000
  157      S      34.3820000000    16.6850000000    34.0650000000
  158      C      34.0770000000    17.7170000000    35.5170000000
  159      H      33.2910000000    17.2480000000    36.1140000000
  160      H      35.0260000000    17.7150000000    36.0580000000
  161      H      33.8170000000    18.7510000000    35.2770000000
  162      O      35.7700000000    17.0390000000    33.6330000000
  163      C      33.3700000000    20.9750000000    17.6750000000
  164      H      33.5940000000    20.8380000000    16.6140000000
  165      H      32.3510000000    20.7110000000    17.9680000000
  166      H      33.5360000000    22.0410000000    17.8510000000
  167      S      34.3710000000    19.8650000000    18.6900000000
  168      C      34.4270000000    21.0940000000    20.0140000000
  169      H      34.8600000000    20.6810000000    20.9280000000
  170      H      35.1160000000    21.8230000000    19.5780000000
  171      H      33.4370000000    21.5150000000    20.2050000000
  172      O      35.7440000000    20.0010000000    18.1080000000
  173      C      25.6260000000    15.7610000000    28.9790000000
  174      H      24.9580000000    16.1380000000    29.7570000000
  175      H      24.9660000000    15.2150000000    28.3000000000
  176      H      26.3380000000    14.9990000000    29.3080000000
  177      S      26.3570000000    17.1750000000    28.1240000000
  178      C      26.8790000000    17.8200000000    29.7290000000
  179      H      27.3840000000    17.0690000000    30.3420000000
  180      H      27.5900000000    18.6050000000    29.4570000000
  181      H      26.1080000000    18.3180000000    30.3220000000
  182      O      25.1740000000    18.0530000000    27.8590000000
  183      C      35.0460000000    21.9700000000    32.1430000000
  184      H      33.9890000000    21.7900000000    32.3580000000
  185      H      35.6200000000    22.2320000000    33.0360000000
  186      H      35.1750000000    22.7210000000    31.3590000000
  187      S      35.7790000000    20.4240000000    31.5630000000
  188      C      37.2500000000    21.0270000000    30.7040000000
  189      H      37.6600000000    20.1580000000    30.1850000000
  190      H      37.1170000000    21.8340000000    29.9790000000
  191      H      37.9190000000    21.4120000000    31.4780000000
  192      O      34.8330000000    20.0190000000    30.4750000000
  193      C      35.9210000000    19.1850000000    24.6810000000
  194      H      36.8260000000    18.6470000000    24.9740000000
  195      H      35.8970000000    19.8370000000    23.8040000000
  196      H      35.6620000000    19.7540000000    25.5780000000
  197      S      34.6280000000    17.9830000000    24.2960000000
  198      C      35.8250000000    16.8860000000    23.5030000000
  199      H      35.2830000000    16.2390000000    22.8090000000
  200      H      36.5730000000    17.4710000000    22.9610000000
  201      H      36.3440000000    16.4050000000    24.3360000000
  202      O      34.0670000000    18.5440000000    23.0260000000
  203      C      29.1490000000    19.1680000000    19.9810000000
  204      H      28.5800000000    19.6950000000    20.7520000000
  205      H      29.0040000000    19.3920000000    18.9210000000
  206      H      29.0950000000    18.0870000000    20.1340000000
  207      S      30.8900000000    19.5320000000    20.3010000000
  208      C      30.6470000000    19.2080000000    22.0620000000
  209      H      30.1900000000    18.2200000000    22.1580000000
  210      H      31.6190000000    19.2950000000    22.5540000000
  211      H      30.0360000000    20.0580000000    22.3770000000
  212      O      30.9470000000    21.0280000000    20.3190000000
  213      C      36.7450000000    18.5410000000    27.9350000000
  214      H      36.1900000000    19.4800000000    28.0070000000
  215      H      37.6290000000    18.7030000000    28.5570000000
  216      H      37.0350000000    18.2290000000    26.9290000000
  217      S      35.7760000000    17.2230000000    28.7020000000
  218      C      36.8730000000    15.9250000000    28.0900000000
  219      H      36.4710000000    15.0250000000    28.5630000000
  220      H      36.7630000000    15.7310000000    27.0200000000
  221      H      37.9240000000    16.1280000000    28.3130000000
  222      O      34.6000000000    17.0280000000    27.7960000000
  223      C      25.2950000000    24.1870000000    27.1570000000
  224      H      25.0530000000    23.2210000000    26.7060000000
  225      H      25.8670000000    24.8580000000    26.5120000000
  226      H      25.8270000000    24.1930000000    28.1120000000
  227      S      23.6920000000    24.9790000000    27.4160000000
  228      C      24.2790000000    26.6570000000    27.7380000000
  229      H      23.4230000000    27.2790000000    28.0120000000
  230      H      24.9230000000    26.5780000000    28.6180000000
  231      H      24.8300000000    27.0520000000    26.8800000000
  232      O      23.3070000000    24.5290000000    28.7910000000
  233      C      27.8010000000    16.0130000000    21.9710000000
  234      H      28.7360000000    16.2020000000    22.5050000000
  235      H      27.3650000000    16.9840000000    21.7250000000
  236      H      27.1740000000    15.3710000000    22.5940000000
  237      S      28.1080000000    15.0320000000    20.4840000000
  238      C      28.7100000000    13.5600000000    21.3420000000
  239      H      29.4790000000    13.8380000000    22.0670000000
  240      H      27.9710000000    13.0590000000    21.9720000000
  241      H      29.0270000000    12.7950000000    20.6270000000
  242      O      29.3870000000    15.5750000000    19.9290000000
  243      C      20.9090000000    19.3650000000    26.9990000000
  244      H      20.1630000000    20.1490000000    26.8490000000
  245      H      20.9100000000    18.6170000000    26.2020000000
  246      H      20.6850000000    18.8600000000    27.9430000000
  247      S      22.5420000000    20.1330000000    27.0880000000
  248      C      22.2200000000    21.4620000000    28.2680000000
  249      H      21.4570000000    22.1140000000    27.8360000000
  250      H      21.8660000000    20.9120000000    29.1440000000
  251      H      23.0920000000    22.1130000000    28.3610000000
  252      O      22.6060000000    20.9060000000    25.8070000000
  253      C      33.2930000000    21.8120000000    23.8620000000
  254      H      32.7750000000    21.9610000000    24.8140000000
  255      H      32.7380000000    22.2950000000    23.0540000000
  256      H      33.4010000000    20.7460000000    23.6500000000
  257      S      34.9390000000    22.5110000000    24.1230000000
  258      C      34.5220000000    24.2630000000    24.2730000000
  259      H      34.1140000000    24.5760000000    23.3090000000
  260      H      33.8350000000    24.2680000000    25.1230000000
  261      H      35.5060000000    24.7270000000    24.3800000000
  262      O      35.5560000000    22.5640000000    22.7600000000
  263      C      26.9460000000    22.0580000000    29.8980000000
  264      H      26.1840000000    22.5320000000    29.2740000000
  265      H      27.8580000000    21.7870000000    29.3600000000
  266      H      26.4690000000    21.1960000000    30.3710000000
  267      S      27.3800000000    23.2260000000    31.2070000000
  268      C      25.7570000000    24.0180000000    31.2750000000
  269      H      25.0110000000    23.3080000000    31.6420000000
  270      H      25.8040000000    24.8280000000    32.0060000000
  271      H      25.4860000000    24.4150000000    30.2930000000
  272      O      28.1320000000    24.3590000000    30.5800000000
  273      C      22.9210000000    16.2480000000    26.1510000000
  274      H      23.2150000000    15.2570000000    25.7940000000
  275      H      23.2890000000    16.4340000000    27.1630000000
  276      H      21.8310000000    16.3090000000    26.2010000000
  277      S      23.6150000000    17.4160000000    24.9590000000
  278      C      22.1570000000    17.2050000000    23.9120000000
  279      H      21.3100000000    17.7690000000    24.3110000000
  280      H      22.5910000000    17.6080000000    22.9930000000
  281      H      21.8840000000    16.1520000000    23.8100000000
  282      O      24.6370000000    16.6010000000    24.2290000000
  283      C      34.2950000000    12.8310000000    29.8680000000
  284      H      34.5180000000    11.9850000000    29.2120000000
  285      H      33.3340000000    12.6830000000    30.3680000000
  286      H      34.3730000000    13.7590000000    29.2960000000
  287      S      35.6740000000    13.0520000000    31.0140000000
  288      C      35.1880000000    14.6810000000    31.6280000000
  289      H      35.0670000000    15.4020000000    30.8160000000
  290      H      34.2840000000    14.5400000000    32.2260000000
  291      H      35.9890000000    15.0530000000    32.2720000000
  292      O      36.8780000000    13.2660000000    30.1520000000
 ----------------------------------------------------------------
 Nuclear Repulsion Energy =       48739.44586085 hartrees
 There are      602 alpha and      602 beta electrons
 Requested basis set is 6-31+G(d)
 There are 962 shells and 2681 basis functions

 Total QAlloc Memory Limit  12000 MB
 Mega-Array Size      3911 MB
 MEM_STATIC part      4000 MB

 A cutoff of  1.0D-14 yielded 180382 shell pairs
 There are   1559772 function pairs
 Smallest overlap matrix eigenvalue = 3.38E-07
 Linear dependence detected in AO basis
 Tighter screening thresholds may be required for diffuse basis sets
 Use S2THRESH > 14 and THRESH = 14 in case of SCF convergence issues
 Number of orthogonalized atomic orbitals = 2678
 Maximum deviation from orthogonality = 1.759E-10

 Scale SEOQF with 1.000000e-03/1.000000e-03/1.000000e-03

 Standard Electronic Orientation quadrupole field applied
 Nucleus-field energy     =    -0.0000001964 hartrees
 Guess from superposition of atomic densities
 Warning:  Energy on first SCF cycle will be non-variational
 SAD guess density has 1204.000002 electrons

 -----------------------------------------------------------------------
  General SCF calculation program by
  Eric Jon Sundstrom, Paul Horn, Yuezhi Mao, Dmitri Zuev, Alec White,
  David Stuck, Shaama M.S., Shane Yost, Joonho Lee, David Small,
  Daniel Levine, Susi Lehtola, Hugh Burton, Evgeny Epifanovsky,
  Bang C. Huynh
 -----------------------------------------------------------------------
=================================================
        Doing projection-based embedding         
      F. Manby et al. JCTC, 8, 2564 (2012)       
=================================================

****************************************************
   Low-level SCF calculation for the whole system   
****************************************************
----------------------------------------------
 Summary of the low-level theory: 
 Exchange:     0.2000 Hartree-Fock + 0.0800 Slater + 0.7200 B88
 Correlation:  0.1900 VWN1RPA + 0.8100 LYP
 Using Euler-Maclaurin-Lebedev (75,302) quadrature formula
----------------------------------------------
 using 16 threads for integral computing
 -------------------------------------------------------
 OpenMP Integral computing Module                
 Release: version 1.0, May 2013, Q-Chem Inc. Pittsburgh 
 -------------------------------------------------------
 A restricted SCF calculation will be
 performed using DIIS
 SCF converges when DIIS error is below 1.0e-08
 ---------------------------------------
  Cycle       Energy         DIIS error
 ---------------------------------------
    1  -15360.1990633140      1.35e-02  
    2  -15335.7380019361      2.52e-03  
    3  -15303.6587203441      5.57e-03  
    4  -15202.7222101305      6.57e-03  
    5  -15339.2642773610      1.29e-03  
    6  -15340.5439079323      3.39e-04  
    7  -15340.6150444031      2.23e-04  
    8  -15340.6531496766      1.04e-04  
    9  -15340.6628168634      4.37e-05  
   10  -15340.6643696190      2.06e-05  
   11  -15340.6646362764      9.96e-06  
   12  -15340.6647065950      2.56e-06  
   13  -15340.6647114716      7.66e-07  
   14  -15340.6647118597      3.46e-07  
   15  -15340.6647119350      1.29e-07  
   16  -15340.6647119472      3.38e-08  
   17  -15340.6647119480      1.14e-08  
   18  -15340.6647119481      5.04e-09  Convergence criterion met
 ---------------------------------------
 SCF time:   CPU 357477.43s  wall 25643.00s 
 SCF   energy in the final basis set =   -15340.6647119481
 Total energy in the final basis set =   -15340.6647119481

****************************************************
             Start embedding calculation            
****************************************************
----------------------------------------------
 Summary of the high-level theory: 
 Exchange:     0.2000 Hartree-Fock + 0.0800 Slater + 0.7200 B88
 Correlation:  0.1900 VWN1RPA + 0.8100 LYP
 Using Euler-Maclaurin-Lebedev (75,302) quadrature formula
----------------------------------------------
Doing R-in-R Embedding Calculation
Number of fragments: 2
Embedded fragment(s): 1 
NOcc for each fragment
           35
          567
NBasis for each fragment
          197
         2484
Variational space of the embedded problem: 
NOcc (active)  = 35
NOcc (fixed)   = 567
NVir (total)   = 2076
Read converged orbitals from disk
=========================================================
       Doing SPADE partition for the orbital space       
     D. Claudino and N. Mayhall JCTC 15, 1053 (2019)     
=========================================================
SPADE singular values:
 1.0000 1.0000 1.0000 1.0000 1.0000 1.0000 1.0000 1.0000 1.0000 0.9999
 0.9998 0.9996 0.9995 0.9995 0.9994 0.9993 0.9989 0.9988 0.9981 0.9979
 0.9966 0.9965 0.9958 0.9956 0.9954 0.9949 0.9944 0.9936 0.9920 0.9907
 0.9906 0.9893 0.9871 0.9836 0.9763 0.2222 0.2012 0.1780 0.1686 0.1609
 0.1545 0.1335 0.1281 0.1219 0.1162 0.1029 0.0952 0.0879 0.0821 0.0778
 0.0675 0.0608 0.0561 0.0540 0.0485 0.0430 0.0384 0.0371 0.0369 0.0351
 0.0321 0.0312 0.0280 0.0270 0.0257 0.0243 0.0236 0.0221 0.0218 0.0211
 0.0196 0.0184 0.0173 0.0166 0.0150 0.0138 0.0126 0.0122 0.0118 0.0116
 0.0111 0.0103 0.0097 0.0096 0.0089 0.0081 0.0080 0.0079 0.0075 0.0070
 0.0064 0.0060 0.0059 0.0056 0.0054 0.0050 0.0048 0.0046 0.0045 0.0043
 0.0041 0.0038 0.0037 0.0033 0.0033 0.0032 0.0030 0.0029 0.0028 0.0026
 0.0025 0.0022 0.0021 0.0020 0.0020 0.0020 0.0018 0.0018 0.0017 0.0017
 0.0016 0.0016 0.0016 0.0015 0.0015 0.0014 0.0013 0.0013 0.0013 0.0012
 0.0012 0.0011 0.0011 0.0011 0.0011 0.0010 0.0010 0.0010 0.0009 0.0008
 0.0008 0.0008 0.0008 0.0007 0.0007 0.0006 0.0006 0.0006 0.0006 0.0006
 0.0005 0.0005 0.0005 0.0004 0.0004 0.0004 0.0004 0.0004 0.0004 0.0003
 0.0003 0.0003 0.0003 0.0003 0.0003 0.0003 0.0003 0.0003 0.0003 0.0002
 0.0002 0.0002 0.0002 0.0002 0.0002 0.0002 0.0002 0.0002 0.0002 0.0002
 0.0002 0.0001 0.0001 0.0001 0.0001 0.0001 0.0001 0.0001 0.0001 0.0001
 0.0001 0.0001 0.0001 0.0001 0.0001 0.0001 0.0001
Early stop requested; no embedded SCF will be performed

 567 environment occs will be part of frozen-core in future post-HF calculations

 --------------------------------------------------------------

                    Orbital Energies (a.u.)
 --------------------------------------------------------------

 Alpha MOs
 -- Occupied --
-89.0410 -89.0395 -89.0376 -89.0372 -89.0289 -89.0222 -89.0198 -89.0119
-89.0083 -89.0054 -89.0044 -89.0042 -89.0040 -89.0022 -89.0008 -89.0001
-88.9988 -88.9957 -88.9946 -88.9945 -88.9919 -88.9787 -88.9781 -88.9773
-88.9689 -88.9643 -88.9395 -19.1573 -19.1565 -19.1513 -19.1474 -19.1372
-19.1356 -19.1273 -19.1267 -19.1250 -19.1244 -19.1236 -19.1221 -19.1218
-19.1214 -19.1112 -19.1107 -19.1101 -19.1088 -19.1083 -19.1065 -19.1049
-19.0880 -19.0866 -19.0852 -19.0840 -19.0740 -19.0519 -10.2720 -10.2663
-10.2580 -10.2569 -10.2559 -10.2528 -10.2527 -10.2482 -10.2438 -10.2359
-10.2356 -10.2332 -10.2305 -10.2299 -10.2296 -10.2280 -10.2276 -10.2256
-10.2253 -10.2252 -10.2248 -10.2232 -10.2229 -10.2220 -10.2219 -10.2182
-10.2180 -10.2168 -10.2167 -10.2165 -10.2164 -10.2154 -10.2149 -10.2143
-10.2131 -10.2129 -10.2126 -10.2113 -10.2111 -10.2094 -10.2072 -10.2007
-10.1981 -10.1973 -10.1928 -10.1926 -10.1925 -10.1877 -10.1858 -10.1834
-10.1783 -10.1770 -10.1589 -10.1457  -8.0875  -8.0852  -8.0824  -8.0824
 -8.0755  -8.0679  -8.0655  -8.0570  -8.0537  -8.0512  -8.0508  -8.0500
 -8.0500  -8.0484  -8.0478  -8.0461  -8.0446  -8.0412  -8.0410  -8.0402
 -8.0382  -8.0243  -8.0234  -8.0233  -8.0150  -8.0104  -7.9858  -6.0515
 -6.0506  -6.0496  -6.0484  -6.0468  -6.0467  -6.0455  -6.0454  -6.0450
 -6.0424  -6.0405  -6.0401  -6.0397  -6.0388  -6.0329  -6.0323  -6.0309
 -6.0299  -6.0284  -6.0257  -6.0232  -6.0214  -6.0201  -6.0184  -6.0167
 -6.0158  -6.0154  -6.0147  -6.0143  -6.0142  -6.0141  -6.0139  -6.0130
 -6.0130  -6.0127  -6.0122  -6.0116  -6.0110  -6.0107  -6.0105  -6.0094
 -6.0089  -6.0086  -6.0080  -6.0077  -6.0076  -6.0076  -6.0057  -6.0056
 -6.0055  -6.0050  -6.0046  -6.0044  -6.0040  -6.0034  -6.0033  -6.0026
 -6.0023  -6.0014  -5.9986  -5.9982  -5.9976  -5.9955  -5.9886  -5.9878
 -5.9876  -5.9873  -5.9866  -5.9865  -5.9821  -5.9812  -5.9807  -5.9793
 -5.9779  -5.9747  -5.9735  -5.9728  -5.9679  -5.9501  -5.9486  -5.9435
 -1.0672  -1.0656  -1.0614  -1.0600  -1.0508  -1.0444  -1.0406  -1.0377
 -1.0353  -1.0347  -1.0345  -1.0320  -1.0300  -1.0281  -1.0264  -1.0236
 -1.0231  -1.0205  -1.0194  -1.0182  -1.0161  -1.0003  -0.9986  -0.9959
 -0.9943  -0.9877  -0.9625  -0.8493  -0.8425  -0.8418  -0.8336  -0.8312
 -0.8222  -0.8171  -0.8140  -0.8132  -0.8111  -0.8103  -0.8091  -0.8062
 -0.8060  -0.8040  -0.8025  -0.8014  -0.8004  -0.7995  -0.7953  -0.7922
 -0.7801  -0.7795  -0.7787  -0.7778  -0.7773  -0.7738  -0.7707  -0.7630
 -0.7575  -0.7497  -0.7419  -0.7410  -0.7394  -0.7389  -0.7385  -0.7376
 -0.7373  -0.7356  -0.7338  -0.7305  -0.7282  -0.7279  -0.7271  -0.7262
 -0.7250  -0.7207  -0.7166  -0.7113  -0.7005  -0.6968  -0.6956  -0.6943
 -0.6604  -0.6560  -0.6529  -0.6512  -0.6496  -0.6418  -0.6344  -0.6310
 -0.6259  -0.6200  -0.6197  -0.6173  -0.6172  -0.6160  -0.6156  -0.6152
 -0.6134  -0.6132  -0.6089  -0.6081  -0.6054  -0.6047  -0.5946  -0.5889
 -0.5886  -0.5804  -0.5736  -0.5526  -0.5451  -0.5302  -0.5285  -0.5188
 -0.5166  -0.5155  -0.5094  -0.5065  -0.5052  -0.5043  -0.5034  -0.5017
 -0.5003  -0.4977  -0.4961  -0.4956  -0.4951  -0.4936  -0.4932  -0.4929
 -0.4921  -0.4912  -0.4905  -0.4896  -0.4887  -0.4871  -0.4868  -0.4856
 -0.4848  -0.4836  -0.4814  -0.4802  -0.4794  -0.4788  -0.4783  -0.4778
 -0.4761  -0.4757  -0.4749  -0.4749  -0.4745  -0.4745  -0.4731  -0.4726
 -0.4721  -0.4716  -0.4713  -0.4709  -0.4704  -0.4698  -0.4688  -0.4687
 -0.4683  -0.4682  -0.4670  -0.4652  -0.4648  -0.4646  -0.4638  -0.4633
 -0.4631  -0.4618  -0.4608  -0.4600  -0.4595  -0.4590  -0.4579  -0.4559
 -0.4555  -0.4541  -0.4540  -0.4531  -0.4528  -0.4520  -0.4516  -0.4504
 -0.4484  -0.4467  -0.4465  -0.4461  -0.4460  -0.4449  -0.4448  -0.4433
 -0.4413  -0.4407  -0.4400  -0.4397  -0.4386  -0.4381  -0.4377  -0.4373
 -0.4369  -0.4363  -0.4357  -0.4339  -0.4332  -0.4329  -0.4317  -0.4306
 -0.4303  -0.4301  -0.4299  -0.4292  -0.4285  -0.4267  -0.4262  -0.4254
 -0.4234  -0.4219  -0.4208  -0.4187  -0.4170  -0.4168  -0.4162  -0.4158
 -0.4149  -0.4143  -0.4133  -0.4110  -0.4106  -0.4106  -0.4101  -0.4098
 -0.4095  -0.4087  -0.4083  -0.4078  -0.4073  -0.4068  -0.4060  -0.4058
 -0.4048  -0.4039  -0.4033  -0.4032  -0.4027  -0.4025  -0.4011  -0.4009
 -0.4004  -0.3998  -0.3996  -0.3982  -0.3980  -0.3978  -0.3962  -0.3960
 -0.3956  -0.3936  -0.3918  -0.3892  -0.3878  -0.3871  -0.3870  -0.3847
 -0.3836  -0.3810  -0.3801  -0.3789  -0.3779  -0.3770  -0.3749  -0.3740
 -0.3731  -0.3721  -0.3716  -0.3712  -0.3702  -0.3695  -0.3690  -0.3681
 -0.3666  -0.3637  -0.3598  -0.3596  -0.3586  -0.3583  -0.3564  -0.3552
 -0.3527  -0.3483  -0.3418  -0.3395  -0.3365  -0.3353  -0.3294  -0.3242
 -0.3217  -0.3154  -0.3110  -0.3038  -0.3025  -0.2996  -0.2936  -0.2884
 -0.2874  -0.2867  -0.2861  -0.2850  -0.2838  -0.2832  -0.2828  -0.2821
 -0.2811  -0.2802  -0.2785  -0.2742  -0.2714  -0.2695  -0.2694  -0.2686
 -0.2674  -0.2657  -0.2651  -0.2644  -0.2594  -0.2585  -0.2514  -0.2506
 -0.2493  -0.2482  -0.2465  -0.2461  -0.2452  -0.2418  -0.2418  -0.2416
 -0.2403  -0.2392  -0.2374  -0.2339  -0.2335  -0.2332  -0.2330  -0.2327
 -0.2204  -0.2160  -0.2154  -0.2143  -0.2095  -0.2032  -0.1834 -10.2253
-13.6056 -10.7209 -15.1260 -11.3412 -10.9225 -10.9750 -10.2660 -10.6801
 -0.8808  -0.7228  -0.6563  -0.7994  -0.8280  -0.8130  -0.6158  -0.7750
 -0.5119  -0.4653  -0.4334  -0.4767  -0.4596  -0.4212  -0.4246  -0.4281
 -0.4317  -0.4351  -0.4761  -0.3874  -0.4304  -0.4547  -0.4994  -0.5297
 -0.5617  -0.5915
 -- Virtual --
 -0.0598  -0.0516  -0.0414  -0.0394  -0.0361  -0.0335  -0.0326  -0.0295
 -0.0267  -0.0255  -0.0240  -0.0217  -0.0205  -0.0203  -0.0184  -0.0173
 -0.0154  -0.0146  -0.0141  -0.0128  -0.0124  -0.0109  -0.0104  -0.0090
 -0.0076  -0.0067  -0.0060  -0.0053  -0.0043  -0.0032  -0.0017  -0.0010
 -0.0005   0.0006   0.0016   0.0024   0.0028   0.0033   0.0037   0.0050
  0.0058   0.0059   0.0064   0.0076   0.0090   0.0097   0.0105   0.0108
  0.0120   0.0127   0.0128   0.0134   0.0151   0.0152   0.0162   0.0168
  0.0181   0.0182   0.0189   0.0192   0.0200   0.0211   0.0215   0.0227
  0.0240   0.0248   0.0252   0.0258   0.0269   0.0270   0.0279   0.0280
  0.0285   0.0295   0.0297   0.0305   0.0306   0.0311   0.0317   0.0328
  0.0335   0.0341   0.0353   0.0359   0.0367   0.0370   0.0375   0.0383
  0.0389   0.0397   0.0404   0.0413   0.0415   0.0427   0.0431   0.0438
  0.0442   0.0444   0.0448   0.0454   0.0468   0.0481   0.0483   0.0488
  0.0491   0.0500   0.0511   0.0517   0.0519   0.0530   0.0532   0.0546
  0.0549   0.0552   0.0555   0.0566   0.0573   0.0580   0.0585   0.0589
  0.0594   0.0594   0.0605   0.0610   0.0614   0.0620   0.0628   0.0633
  0.0639   0.0644   0.0661   0.0666   0.0671   0.0676   0.0686   0.0687
  0.0698   0.0705   0.0710   0.0719   0.0723   0.0724   0.0738   0.0746
  0.0753   0.0755   0.0760   0.0764   0.0769   0.0776   0.0786   0.0791
  0.0793   0.0801   0.0815   0.0817   0.0820   0.0839   0.0841   0.0854
  0.0859   0.0866   0.0873   0.0878   0.0882   0.0883   0.0899   0.0903
  0.0911   0.0917   0.0933   0.0937   0.0942   0.0948   0.0951   0.0962
  0.0965   0.0969   0.0978   0.0984   0.0990   0.1001   0.1004   0.1013
  0.1016   0.1027   0.1029   0.1034   0.1042   0.1047   0.1062   0.1063
  0.1068   0.1076   0.1082   0.1083   0.1092   0.1096   0.1099   0.1110
  0.1113   0.1124   0.1127   0.1131   0.1134   0.1140   0.1148   0.1159
  0.1163   0.1172   0.1178   0.1178   0.1192   0.1196   0.1203   0.1210
  0.1218   0.1221   0.1226   0.1242   0.1244   0.1254   0.1257   0.1259
  0.1269   0.1276   0.1284   0.1286   0.1293   0.1298   0.1304   0.1305
  0.1323   0.1327   0.1333   0.1334   0.1344   0.1346   0.1352   0.1358
  0.1365   0.1374   0.1375   0.1387   0.1392   0.1399   0.1404   0.1406
  0.1412   0.1420   0.1424   0.1433   0.1435   0.1443   0.1447   0.1452
  0.1458   0.1462   0.1470   0.1471   0.1482   0.1491   0.1496   0.1503
  0.1508   0.1515   0.1522   0.1524   0.1531   0.1535   0.1543   0.1549
  0.1553   0.1558   0.1568   0.1579   0.1584   0.1589   0.1594   0.1601
  0.1610   0.1614   0.1620   0.1624   0.1630   0.1633   0.1643   0.1648
  0.1658   0.1666   0.1670   0.1674   0.1679   0.1683   0.1692   0.1703
  0.1706   0.1719   0.1725   0.1729   0.1735   0.1746   0.1748   0.1758
  0.1758   0.1765   0.1768   0.1777   0.1781   0.1786   0.1793   0.1801
  0.1810   0.1818   0.1821   0.1822   0.1833   0.1839   0.1843   0.1846
  0.1856   0.1859   0.1865   0.1880   0.1883   0.1890   0.1892   0.1895
  0.1904   0.1913   0.1915   0.1925   0.1927   0.1938   0.1940   0.1947
  0.1952   0.1963   0.1971   0.1976   0.1980   0.1982   0.1987   0.1999
  0.2002   0.2008   0.2020   0.2023   0.2026   0.2029   0.2049   0.2053
  0.2055   0.2060   0.2070   0.2075   0.2082   0.2088   0.2090   0.2095
  0.2103   0.2109   0.2114   0.2116   0.2128   0.2133   0.2137   0.2142
  0.2151   0.2165   0.2165   0.2168   0.2176   0.2178   0.2184   0.2195
  0.2198   0.2209   0.2222   0.2224   0.2229   0.2232   0.2238   0.2245
  0.2248   0.2253   0.2265   0.2269   0.2285   0.2290   0.2293   0.2299
  0.2306   0.2313   0.2317   0.2319   0.2325   0.2332   0.2341   0.2342
  0.2351   0.2357   0.2361   0.2370   0.2384   0.2388   0.2394   0.2396
  0.2404   0.2415   0.2423   0.2433   0.2438   0.2441   0.2452   0.2455
  0.2458   0.2462   0.2469   0.2479   0.2486   0.2487   0.2498   0.2502
  0.2516   0.2516   0.2527   0.2531   0.2541   0.2546   0.2559   0.2566
  0.2570   0.2582   0.2587   0.2593   0.2599   0.2613   0.2618   0.2619
  0.2625   0.2635   0.2637   0.2655   0.2664   0.2665   0.2670   0.2680
  0.2688   0.2695   0.2706   0.2712   0.2716   0.2720   0.2727   0.2734
  0.2744   0.2753   0.2765   0.2770   0.2782   0.2785   0.2799   0.2804
  0.2806   0.2816   0.2823   0.2832   0.2840   0.2850   0.2857   0.2864
  0.2869   0.2879   0.2889   0.2907   0.2909   0.2914   0.2922   0.2928
  0.2936   0.2940   0.2946   0.2957   0.2961   0.2973   0.2985   0.2992
  0.3006   0.3009   0.3012   0.3018   0.3026   0.3035   0.3043   0.3048
  0.3050   0.3056   0.3068   0.3072   0.3080   0.3090   0.3093   0.3099
  0.3108   0.3110   0.3114   0.3137   0.3141   0.3151   0.3160   0.3169
  0.3181   0.3184   0.3190   0.3198   0.3215   0.3219   0.3234   0.3237
  0.3245   0.3258   0.3262   0.3268   0.3271   0.3277   0.3296   0.3299
  0.3313   0.3321   0.3331   0.3334   0.3338   0.3349   0.3352   0.3362
  0.3365   0.3385   0.3395   0.3397   0.3404   0.3419   0.3428   0.3434
  0.3438   0.3447   0.3458   0.3462   0.3468   0.3471   0.3483   0.3489
  0.3499   0.3510   0.3522   0.3538   0.3546   0.3565   0.3569   0.3573
  0.3587   0.3593   0.3596   0.3598   0.3601   0.3612   0.3624   0.3629
  0.3649   0.3652   0.3663   0.3666   0.3675   0.3680   0.3688   0.3692
  0.3702   0.3705   0.3717   0.3723   0.3734   0.3745   0.3762   0.3766
  0.3771   0.3783   0.3787   0.3796   0.3805   0.3815   0.3822   0.3833
  0.3838   0.3843   0.3856   0.3861   0.3865   0.3877   0.3888   0.3899
  0.3906   0.3914   0.3934   0.3946   0.3952   0.3959   0.3967   0.3971
  0.3980   0.3989   0.3997   0.4003   0.4020   0.4030   0.4042   0.4056
  0.4066   0.4078   0.4086   0.4089   0.4099   0.4109   0.4114   0.4121
  0.4125   0.4131   0.4138   0.4149   0.4169   0.4171   0.4187   0.4189
  0.4193   0.4197   0.4212   0.4224   0.4227   0.4245   0.4254   0.4259
  0.4267   0.4277   0.4286   0.4298   0.4304   0.4315   0.4337   0.4349
  0.4355   0.4364   0.4368   0.4371   0.4389   0.4397   0.4403   0.4417
  0.4419   0.4434   0.4452   0.4468   0.4485   0.4490   0.4501   0.4513
  0.4525   0.4530   0.4554   0.4566   0.4573   0.4586   0.4595   0.4605
  0.4620   0.4626   0.4628   0.4655   0.4660   0.4673   0.4678   0.4702
  0.4718   0.4725   0.4728   0.4748   0.4760   0.4774   0.4799   0.4803
  0.4818   0.4839   0.4853   0.4867   0.4879   0.4900   0.4905   0.4934
  0.4944   0.4956   0.4973   0.4983   0.5010   0.5020   0.5034   0.5039
  0.5053   0.5078   0.5088   0.5116   0.5132   0.5143   0.5153   0.5184
  0.5191   0.5213   0.5229   0.5238   0.5257   0.5279   0.5296   0.5307
  0.5320   0.5337   0.5352   0.5376   0.5376   0.5400   0.5419   0.5431
  0.5448   0.5467   0.5495   0.5506   0.5523   0.5537   0.5562   0.5565
  0.5583   0.5595   0.5617   0.5637   0.5650   0.5659   0.5672   0.5707
  0.5711   0.5727   0.5743   0.5754   0.5771   0.5783   0.5799   0.5807
  0.5822   0.5838   0.5850   0.5853   0.5864   0.5870   0.5902   0.5927
  0.5930   0.5947   0.5962   0.5966   0.5973   0.5982   0.5985   0.5999
  0.6017   0.6028   0.6033   0.6045   0.6069   0.6096   0.6115   0.6143
  0.6155   0.6162   0.6172   0.6185   0.6193   0.6203   0.6216   0.6240
  0.6252   0.6264   0.6265   0.6269   0.6285   0.6294   0.6311   0.6316
  0.6331   0.6337   0.6349   0.6364   0.6372   0.6387   0.6392   0.6411
  0.6416   0.6435   0.6444   0.6454   0.6466   0.6478   0.6485   0.6502
  0.6519   0.6524   0.6541   0.6550   0.6555   0.6568   0.6572   0.6594
  0.6602   0.6605   0.6619   0.6631   0.6656   0.6665   0.6674   0.6680
  0.6684   0.6689   0.6701   0.6722   0.6739   0.6740   0.6748   0.6764
  0.6777   0.6784   0.6793   0.6799   0.6807   0.6818   0.6832   0.6850
  0.6867   0.6873   0.6877   0.6881   0.6901   0.6911   0.6917   0.6932
  0.6943   0.6960   0.6963   0.6977   0.6987   0.6992   0.7010   0.7020
  0.7024   0.7030   0.7045   0.7072   0.7076   0.7093   0.7104   0.7113
  0.7122   0.7137   0.7147   0.7175   0.7178   0.7182   0.7209   0.7214
  0.7233   0.7238   0.7258   0.7268   0.7274   0.7296   0.7318   0.7318
  0.7334   0.7342   0.7357   0.7365   0.7373   0.7391   0.7401   0.7409
  0.7431   0.7433   0.7450   0.7461   0.7487   0.7494   0.7501   0.7519
  0.7522   0.7528   0.7540   0.7559   0.7567   0.7595   0.7605   0.7613
  0.7651   0.7659   0.7671   0.7689   0.7703   0.7724   0.7730   0.7753
  0.7758   0.7769   0.7793   0.7801   0.7816   0.7833   0.7854   0.7876
  0.7885   0.7896   0.7909   0.7919   0.7951   0.7953   0.7965   0.7972
  0.7993   0.8003   0.8016   0.8025   0.8052   0.8054   0.8078   0.8096
  0.8111   0.8118   0.8135   0.8149   0.8158   0.8189   0.8197   0.8201
  0.8227   0.8244   0.8265   0.8267   0.8285   0.8302   0.8316   0.8322
  0.8333   0.8377   0.8385   0.8399   0.8410   0.8417   0.8421   0.8433
  0.8448   0.8482   0.8494   0.8510   0.8518   0.8529   0.8542   0.8561
  0.8565   0.8573   0.8595   0.8618   0.8626   0.8638   0.8647   0.8661
  0.8685   0.8694   0.8708   0.8714   0.8717   0.8732   0.8761   0.8764
  0.8781   0.8785   0.8806   0.8812   0.8826   0.8842   0.8859   0.8875
  0.8880   0.8886   0.8899   0.8910   0.8920   0.8938   0.8947   0.8957
  0.8961   0.8970   0.8978   0.8985   0.9004   0.9017   0.9030   0.9047
  0.9053   0.9073   0.9082   0.9097   0.9106   0.9122   0.9131   0.9158
  0.9165   0.9173   0.9185   0.9189   0.9215   0.9220   0.9232   0.9243
  0.9247   0.9266   0.9275   0.9287   0.9299   0.9306   0.9327   0.9339
  0.9342   0.9355   0.9364   0.9382   0.9389   0.9409   0.9412   0.9423
  0.9437   0.9449   0.9454   0.9462   0.9468   0.9490   0.9510   0.9515
  0.9523   0.9534   0.9537   0.9546   0.9572   0.9583   0.9591   0.9593
  0.9610   0.9613   0.9631   0.9642   0.9651   0.9660   0.9668   0.9679
  0.9695   0.9696   0.9710   0.9724   0.9727   0.9734   0.9747   0.9756
  0.9768   0.9774   0.9793   0.9801   0.9823   0.9831   0.9837   0.9839
  0.9861   0.9870   0.9871   0.9877   0.9901   0.9908   0.9915   0.9935
  0.9940   0.9944   0.9971   0.9977   0.9986   0.9990   1.0012   1.0019
  1.0033   1.0059   1.0065   1.0070   1.0086   1.0094   1.0110   1.0114
  1.0118   1.0128   1.0138   1.0163   1.0168   1.0173   1.0192   1.0205
  1.0211   1.0216   1.0226   1.0247   1.0259   1.0263   1.0273   1.0297
  1.0305   1.0316   1.0317   1.0330   1.0344   1.0361   1.0371   1.0382
  1.0385   1.0389   1.0409   1.0418   1.0427   1.0453   1.0463   1.0471
  1.0485   1.0492   1.0510   1.0513   1.0537   1.0556   1.0563   1.0588
  1.0596   1.0605   1.0618   1.0629   1.0642   1.0659   1.0674   1.0681
  1.0688   1.0715   1.0723   1.0735   1.0748   1.0757   1.0784   1.0786
  1.0803   1.0805   1.0836   1.0844   1.0853   1.0858   1.0869   1.0892
  1.0904   1.0910   1.0928   1.0949   1.0968   1.0978   1.0985   1.0991
  1.1006   1.1010   1.1021   1.1049   1.1068   1.1083   1.1088   1.1097
  1.1118   1.1127   1.1137   1.1151   1.1164   1.1177   1.1201   1.1209
  1.1216   1.1229   1.1241   1.1263   1.1271   1.1276   1.1279   1.1304
  1.1309   1.1323   1.1325   1.1351   1.1360   1.1368   1.1395   1.1410
  1.1419   1.1446   1.1449   1.1464   1.1472   1.1479   1.1496   1.1509
  1.1514   1.1532   1.1545   1.1564   1.1579   1.1586   1.1599   1.1608
  1.1618   1.1632   1.1646   1.1673   1.1681   1.1683   1.1708   1.1724
  1.1741   1.1749   1.1756   1.1790   1.1814   1.1819   1.1830   1.1843
  1.1848   1.1854   1.1875   1.1905   1.1918   1.1934   1.1967   1.1975
  1.1981   1.1993   1.2008   1.2015   1.2044   1.2058   1.2072   1.2100
  1.2117   1.2129   1.2135   1.2150   1.2186   1.2197   1.2214   1.2231
  1.2236   1.2273   1.2287   1.2314   1.2316   1.2341   1.2346   1.2374
  1.2397   1.2403   1.2415   1.2451   1.2466   1.2484   1.2506   1.2515
  1.2543   1.2547   1.2567   1.2583   1.2608   1.2626   1.2651   1.2654
  1.2675   1.2709   1.2719   1.2752   1.2777   1.2795   1.2819   1.2852
  1.2858   1.2879   1.2888   1.2902   1.2965   1.2982   1.2997   1.3024
  1.3059   1.3075   1.3091   1.3106   1.3150   1.3178   1.3191   1.3210
  1.3214   1.3234   1.3259   1.3268   1.3284   1.3321   1.3334   1.3351
  1.3374   1.3404   1.3413   1.3432   1.3445   1.3471   1.3482   1.3491
  1.3513   1.3521   1.3539   1.3555   1.3571   1.3594   1.3613   1.3627
  1.3658   1.3678   1.3699   1.3723   1.3726   1.3737   1.3750   1.3770
  1.3783   1.3812   1.3821   1.3828   1.3848   1.3861   1.3891   1.3906
  1.3916   1.3929   1.3942   1.3951   1.3985   1.4007   1.4032   1.4033
  1.4035   1.4048   1.4074   1.4083   1.4099   1.4112   1.4125   1.4138
  1.4166   1.4177   1.4182   1.4212   1.4220   1.4238   1.4256   1.4275
  1.4279   1.4287   1.4316   1.4324   1.4334   1.4354   1.4366   1.4369
  1.4392   1.4401   1.4422   1.4447   1.4453   1.4458   1.4467   1.4473
  1.4494   1.4520   1.4545   1.4551   1.4573   1.4587   1.4602   1.4622
  1.4628   1.4652   1.4662   1.4675   1.4700   1.4721   1.4737   1.4737
  1.4788   1.4795   1.4814   1.4832   1.4840   1.4866   1.4883   1.4891
  1.4898   1.4927   1.4940   1.4966   1.4977   1.4992   1.5021   1.5049
  1.5073   1.5087   1.5104   1.5137   1.5142   1.5159   1.5177   1.5188
  1.5230   1.5240   1.5272   1.5298   1.5308   1.5347   1.5363   1.5389
  1.5416   1.5429   1.5484   1.5494   1.5518   1.5534   1.5564   1.5584
  1.5590   1.5663   1.5668   1.5706   1.5749   1.5771   1.5778   1.5836
  1.5873   1.5899   1.5931   1.5940   1.5988   1.6019   1.6037   1.6075
  1.6079   1.6139   1.6185   1.6212   1.6236   1.6286   1.6312   1.6371
  1.6391   1.6406   1.6416   1.6456   1.6475   1.6517   1.6546   1.6564
  1.6573   1.6581   1.6620   1.6642   1.6651   1.6676   1.6681   1.6708
  1.6726   1.6729   1.6759   1.6777   1.6781   1.6800   1.6807   1.6822
  1.6836   1.6851   1.6873   1.6878   1.6892   1.6905   1.6926   1.6934
  1.6944   1.6960   1.6966   1.6991   1.7004   1.7022   1.7035   1.7056
  1.7068   1.7093   1.7098   1.7116   1.7144   1.7149   1.7159   1.7178
  1.7181   1.7187   1.7199   1.7210   1.7229   1.7242   1.7260   1.7271
  1.7293   1.7307   1.7325   1.7331   1.7342   1.7361   1.7379   1.7391
  1.7402   1.7407   1.7429   1.7452   1.7454   1.7465   1.7485   1.7499
  1.7524   1.7527   1.7545   1.7554   1.7568   1.7579   1.7589   1.7602
  1.7619   1.7631   1.7652   1.7665   1.7691   1.7695   1.7700   1.7712
  1.7730   1.7755   1.7765   1.7784   1.7795   1.7830   1.7839   1.7859
  1.7870   1.7885   1.7909   1.7917   1.7944   1.7958   1.7969   1.7991
  1.8004   1.8019   1.8041   1.8071   1.8102   1.8119   1.8143   1.8162
  1.8190   1.8221   1.8256   1.8291   1.8298   1.8322   1.8341   1.8387
  1.8412   1.8428   1.8468   1.8473   1.8492   1.8520   1.8524   1.8551
  1.8575   1.8608   1.8623   1.8630   1.8642   1.8658   1.8684   1.8696
  1.8712   1.8737   1.8740   1.8789   1.8805   1.8815   1.8827   1.8854
  1.8863   1.8879   1.8905   1.8922   1.8940   1.8955   1.8970   1.8985
  1.8987   1.9012   1.9037   1.9056   1.9062   1.9081   1.9087   1.9099
  1.9110   1.9118   1.9132   1.9143   1.9149   1.9163   1.9181   1.9193
  1.9209   1.9230   1.9241   1.9245   1.9265   1.9278   1.9297   1.9307
  1.9322   1.9340   1.9348   1.9371   1.9388   1.9394   1.9414   1.9422
  1.9440   1.9449   1.9459   1.9460   1.9501   1.9513   1.9536   1.9565
  1.9595   1.9607   1.9630   1.9656   1.9678   1.9715   1.9753   1.9774
  1.9802   1.9846   1.9881   1.9921   1.9952   1.9977   2.0085   2.0142
  2.0219   2.0305   2.0310   2.0320   2.0383   2.0424   2.0455   2.0462
  2.0485   2.0528   2.0542   2.0560   2.0572   2.0596   2.0626   2.0631
  2.0652   2.0674   2.0707   2.0714   2.0724   2.0730   2.0735   2.0752
  2.0763   2.0773   2.0804   2.0832   2.0868   2.0873   2.0881   2.0901
  2.0920   2.0936   2.0951   2.0967   2.0988   2.0991   2.1000   2.1015
  2.1030   2.1036   2.1052   2.1067   2.1083   2.1108   2.1116   2.1118
  2.1152   2.1159   2.1177   2.1187   2.1228   2.1244   2.1265   2.1276
  2.1299   2.1361   2.1407   2.1436   2.1462   2.1477   2.1506   2.1520
  2.1561   2.1610   2.1629   2.1681   2.1690   2.1717   2.1774   2.1794
  2.1829   2.1872   2.1901   2.1926   2.1946   2.1962   2.2004   2.2015
  2.2024   2.2039   2.2055   2.2092   2.2094   2.2125   2.2140   2.2160
  2.2174   2.2197   2.2226   2.2243   2.2252   2.2261   2.2283   2.2302
  2.2314   2.2325   2.2339   2.2348   2.2350   2.2360   2.2362   2.2377
  2.2386   2.2403   2.2419   2.2437   2.2443   2.2450   2.2464   2.2470
  2.2482   2.2488   2.2499   2.2512   2.2522   2.2529   2.2541   2.2549
  2.2555   2.2573   2.2582   2.2593   2.2600   2.2609   2.2611   2.2629
  2.2645   2.2649   2.2663   2.2683   2.2687   2.2696   2.2713   2.2717
  2.2722   2.2736   2.2742   2.2756   2.2762   2.2776   2.2779   2.2789
  2.2798   2.2810   2.2819   2.2827   2.2833   2.2840   2.2844   2.2853
  2.2869   2.2887   2.2889   2.2892   2.2904   2.2913   2.2929   2.2938
  2.2949   2.2962   2.2977   2.2989   2.2999   2.3006   2.3018   2.3026
  2.3040   2.3045   2.3062   2.3079   2.3087   2.3091   2.3108   2.3117
  2.3119   2.3136   2.3158   2.3167   2.3175   2.3183   2.3187   2.3201
  2.3209   2.3222   2.3244   2.3252   2.3271   2.3275   2.3297   2.3307
  2.3312   2.3323   2.3333   2.3349   2.3358   2.3386   2.3389   2.3405
  2.3421   2.3424   2.3446   2.3457   2.3464   2.3478   2.3482   2.3502
  2.3516   2.3572   2.3579   2.3622   2.3647   2.3674   2.3702   2.3723
  2.3747   2.3750   2.3771   2.3787   2.3790   2.3828   2.3860   2.3899
  2.3909   2.3965   2.4004   2.4054   2.4071   2.4084   2.4148   2.4206
  2.4283   2.4385   2.4417   2.4508   2.4830   2.4924   2.5236   2.5764
  2.6057   2.6764   2.7290   2.7640   2.7927   2.8099   2.8168   2.8235
  2.8310   2.8326   2.8338   2.8358   2.8368   2.8408   2.8428   2.8468
  2.8499   2.8505   2.8519   2.8536   2.8559   2.8564   2.8659   2.8695
  2.8696   2.8747   2.8776   2.8787   2.8811   2.8822   2.8859   2.8984
  2.9009   2.9108   2.9125   2.9129   2.9574   3.1075   3.2318   3.9324
  3.9337   3.9547   3.9652   3.9653   3.9703   3.9728   3.9752   3.9770
  3.9818   3.9828   3.9830   3.9878   3.9892   3.9919   3.9983   4.0011
  4.0063   4.0081   4.0111   4.0187   4.0197   4.0238   4.0254   4.0331
  4.0340   4.0480   4.2149   4.2196   4.2291   4.2405   4.2422   4.2432
  4.2468   4.2492   4.2520   4.2542   4.2594   4.2612   4.2619   4.2650
  4.2661   4.2676   4.2708   4.2734   4.2753   4.2788   4.2791   4.2813
  4.2838   4.2871   4.2891   4.2942   4.2979   4.2993   4.3007   4.3034
  4.3051   4.3064   4.3082   4.3140   4.3167   4.3193   4.3203   4.3224
  4.3252   4.3298   4.3328   4.3373   4.3388   4.3441   4.3480   4.3514
  4.3533   4.3537   4.3622   4.3645   4.3681   4.3695   4.3722   4.3780
  4.3806   4.3864   4.3879   4.3915   4.3932   4.3968   4.4006   4.4065
  4.4070   4.4141   4.4178   4.4211   4.4289   4.4362   4.4403   4.4462
  4.4557   4.4606   4.4775   4.4824   4.4953   4.5089   4.5266   4.5299
  4.5382   4.5541   4.5585   4.5864   4.5980   4.6080   4.6345   4.6940
  4.7382   4.7725   4.7880   4.8897
 --------------------------------------------------------------

          Ground-State Mulliken Net Atomic Charges

     Atom                 Charge (a.u.)
  ----------------------------------------
      1 C                    -0.559995
      2 C                    -1.543560
      3 C                    -0.372803
      4 C                     0.429366
      5 C                     0.017731
      6 C                    -0.677355
      7 H                     0.191709
      8 H                     0.264156
      9 H                     0.226476
     10 H                     0.225357
     11 H                     0.241241
     12 H                     0.207354
     13 H                     0.222698
     14 H                     0.210465
     15 H                     0.221596
     16 H                     0.246242
     17 H                     0.221451
     18 N                     0.176813
     19 H                     0.396336
     20 C                    -0.186815
     21 H                     0.225425
     22 O                    -0.236914
     23 C                    -0.814760
     24 H                     0.248814
     25 H                     0.275689
     26 H                     0.238607
     27 S                     1.008977
     28 C                    -0.883301
     29 H                     0.272445
     30 H                     0.240189
     31 H                     0.242399
     32 O                    -0.808236
     33 C                    -0.218188
     34 H                     0.265956
     35 H                     0.268714
     36 H                     0.248734
     37 S                    -0.133294
     38 C                    -0.725813
     39 H                     0.226874
     40 H                     0.257353
     41 H                     0.259949
     42 O                    -0.453724
     43 C                    -0.893329
     44 H                     0.306212
     45 H                     0.247870
     46 H                     0.270656
     47 S                     1.117169
     48 C                    -1.037741
     49 H                     0.244267
     50 H                     0.249381
     51 H                     0.264012
     52 O                    -0.699299
     53 C                    -1.120991
     54 H                     0.301993
     55 H                     0.249138
     56 H                     0.309397
     57 S                     0.681527
     58 C                    -0.820587
     59 H                     0.253728
     60 H                     0.242062
     61 H                     0.294168
     62 O                    -0.630620
     63 C                    -0.737540
     64 H                     0.298837
     65 H                     0.231790
     66 H                     0.263082
     67 S                     0.722137
     68 C                    -0.892005
     69 H                     0.261477
     70 H                     0.274444
     71 H                     0.255227
     72 O                    -0.665846
     73 C                    -0.829270
     74 H                     0.228608
     75 H                     0.267757
     76 H                     0.267442
     77 S                     0.791976
     78 C                    -0.876326
     79 H                     0.244618
     80 H                     0.239123
     81 H                     0.272034
     82 O                    -0.653742
     83 C                    -1.057436
     84 H                     0.243343
     85 H                     0.253801
     86 H                     0.279729
     87 S                     1.036557
     88 C                    -0.829980
     89 H                     0.230521
     90 H                     0.285018
     91 H                     0.249778
     92 O                    -0.720852
     93 C                    -0.879868
     94 H                     0.217188
     95 H                     0.282639
     96 H                     0.241571
     97 S                     0.953395
     98 C                    -1.050564
     99 H                     0.295480
    100 H                     0.312629
    101 H                     0.251247
    102 O                    -0.674940
    103 C                    -0.902657
    104 H                     0.291469
    105 H                     0.266764
    106 H                     0.237132
    107 S                     1.110172
    108 C                    -0.972866
    109 H                     0.228222
    110 H                     0.262590
    111 H                     0.251490
    112 O                    -0.693961
    113 C                    -0.848369
    114 H                     0.252943
    115 H                     0.268266
    116 H                     0.226041
    117 S                     1.034859
    118 C                    -0.971003
    119 H                     0.260321
    120 H                     0.289145
    121 H                     0.257069
    122 O                    -0.684505
    123 C                    -1.134044
    124 H                     0.257997
    125 H                     0.275671
    126 H                     0.253957
    127 S                     1.287071
    128 C                    -1.128345
    129 H                     0.243968
    130 H                     0.251374
    131 H                     0.252084
    132 O                    -0.658273
    133 C                    -1.032548
    134 H                     0.229198
    135 H                     0.250908
    136 H                     0.277235
    137 S                     1.139013
    138 C                    -1.068196
    139 H                     0.334307
    140 H                     0.246601
    141 H                     0.242093
    142 O                    -0.692000
    143 C                    -0.492198
    144 H                     0.260375
    145 H                     0.272738
    146 H                     0.305670
    147 S                     0.285449
    148 C                    -0.807954
    149 H                     0.241117
    150 H                     0.265543
    151 H                     0.263693
    152 O                    -0.557254
    153 C                    -0.706441
    154 H                     0.247526
    155 H                     0.195263
    156 H                     0.272292
    157 S                     1.006261
    158 C                    -0.995578
    159 H                     0.239361
    160 H                     0.282746
    161 H                     0.244782
    162 O                    -0.692341
    163 C                    -0.880843
    164 H                     0.241011
    165 H                     0.234721
    166 H                     0.245056
    167 S                     1.055870
    168 C                    -0.882904
    169 H                     0.273148
    170 H                     0.259838
    171 H                     0.270811
    172 O                    -0.767668
    173 C                    -1.047857
    174 H                     0.256529
    175 H                     0.266414
    176 H                     0.287582
    177 S                     1.139741
    178 C                    -0.997079
    179 H                     0.232381
    180 H                     0.316509
    181 H                     0.256125
    182 O                    -0.636401
    183 C                    -0.559682
    184 H                     0.230523
    185 H                     0.244318
    186 H                     0.291276
    187 S                     0.287779
    188 C                    -0.504297
    189 H                     0.237329
    190 H                     0.296766
    191 H                     0.246578
    192 O                    -0.619500
    193 C                    -0.930619
    194 H                     0.219280
    195 H                     0.326009
    196 H                     0.261643
    197 S                     0.992796
    198 C                    -0.949141
    199 H                     0.268913
    200 H                     0.286055
    201 H                     0.210937
    202 O                    -0.676599
    203 C                    -0.973822
    204 H                     0.245855
    205 H                     0.245976
    206 H                     0.266060
    207 S                     1.338481
    208 C                    -1.200571
    209 H                     0.231860
    210 H                     0.308729
    211 H                     0.260400
    212 O                    -0.736608
    213 C                    -0.648174
    214 H                     0.310836
    215 H                     0.242266
    216 H                     0.229385
    217 S                    -0.107029
    218 C                    -0.684822
    219 H                     0.307800
    220 H                     0.255357
    221 H                     0.240926
    222 O                    -0.430981
    223 C                    -0.925627
    224 H                     0.287827
    225 H                     0.252664
    226 H                     0.234003
    227 S                     1.046546
    228 C                    -0.907826
    229 H                     0.248459
    230 H                     0.247203
    231 H                     0.256752
    232 O                    -0.710294
    233 C                    -0.993583
    234 H                     0.310733
    235 H                     0.256727
    236 H                     0.248686
    237 S                     0.959207
    238 C                    -0.904250
    239 H                     0.286247
    240 H                     0.235656
    241 H                     0.254306
    242 O                    -0.687871
    243 C                    -0.878871
    244 H                     0.257035
    245 H                     0.230694
    246 H                     0.234124
    247 S                     1.014069
    248 C                    -0.859653
    249 H                     0.274198
    250 H                     0.206154
    251 H                     0.290765
    252 O                    -0.667508
    253 C                    -0.686743
    254 H                     0.265895
    255 H                     0.274029
    256 H                     0.294982
    257 S                     0.655133
    258 C                    -0.833532
    259 H                     0.256140
    260 H                     0.246156
    261 H                     0.255754
    262 O                    -0.639300
    263 C                    -1.125060
    264 H                     0.264344
    265 H                     0.256571
    266 H                     0.254578
    267 S                     1.107059
    268 C                    -0.919209
    269 H                     0.268995
    270 H                     0.244152
    271 H                     0.266337
    272 O                    -0.671329
    273 C                    -1.079124
    274 H                     0.272920
    275 H                     0.265079
    276 H                     0.240159
    277 S                     1.233813
    278 C                    -0.940110
    279 H                     0.229773
    280 H                     0.285522
    281 H                     0.249907
    282 O                    -0.745396
    283 C                    -0.821226
    284 H                     0.315877
    285 H                     0.231509
    286 H                     0.230263
    287 S                     0.672198
    288 C                    -0.902708
    289 H                     0.247834
    290 H                     0.220985
    291 H                     0.317444
    292 O                    -0.640206
  ----------------------------------------
  Sum of atomic charges =     0.000000

 -----------------------------------------------------------------
                    Cartesian Multipole Moments
 -----------------------------------------------------------------
    Charge (ESU x 10^10)
                 0.0000
    Dipole Moment (Debye)
         X     -18.7436      Y       0.7996      Z      36.8824
       Tot      41.3796
    Quadrupole Moments (Debye-Ang)
        XX   -2143.3422     XY    -308.9358     YY    -896.3907
        XZ     653.8999     YZ     711.4797     ZZ     949.5080
    Octopole Moments (Debye-Ang^2)
[...]
          205         206         207         208         209         210
    1  -1.3843799  -1.1768511   0.3285016  -0.2169788  -0.8985181   1.3186234
    2   0.3676247  -1.8212961  -0.5089678  -0.3320175  -1.8773662   0.0276642
    3  -4.5617526  -2.3201826  -2.5214353  -0.0307805  -0.4180133   0.0945429
          211         212         213         214         215         216
    1  -1.2125324   0.0654150   2.7134064   1.0434556   4.1458460   3.1368425
    2   1.3385209   3.0265425   0.1580114   1.2727841  -0.3087463  -0.8883894
    3   0.0415435  -2.2219884  -0.1918631   0.0866397   1.4173300  -1.8926173
          217         218         219         220         221         222
    1   1.8062049   3.2025551   1.9894243   2.6569760   4.6883133  -0.8148036
    2  -0.7400325  -2.0143139  -2.9062836  -1.9119093  -1.1820323  -0.9964740
    3   1.3573038  -0.1295031   0.7525143  -2.0171171   0.5067806  -0.8711370
          223         224         225         226         227         228
    1  -0.2664061  -1.3036953   0.3513875   0.0507226  -2.2002766  -0.9540964
    2   0.9276773  -0.6948205   2.7152939   1.4602468   1.7203738   3.4996660
    3  -0.1423432  -0.8385679  -1.0402348   1.5612036  -0.4705635   0.6086426
          229         230         231         232         233         234
    1  -2.6865853   0.1335790   0.0325764  -2.7495005  -1.4492243   0.5216602
    2   3.6686062   2.9432029   3.5955209   0.8985678  -0.4626281  -0.2488197
    3   1.0158636   2.2193366  -0.9597453   2.7091110  -0.5873590  -0.0333057
          235         236         237         238         239         240
    1  -1.8934173  -2.5472489  -1.8849489  -0.5565509   0.7864195  -2.1843254
    2   0.7663386  -2.1674275  -1.6499382  -3.2093247  -2.2553206  -3.5576873
    3  -1.6540637  -0.0047547  -2.3043473  -1.1230145  -0.2170372  -0.2409499
          241         242         243         244         245         246
    1  -0.1034332   1.0570879  -3.8847723  -4.5419604  -3.4739756  -3.4611777
    2  -3.8663920  -0.4835870  -0.8184830   1.0211403  -1.7659894  -1.5344788
    3  -2.5699118  -3.2408212   0.3491538  -0.1017195  -1.0950765   2.2343749
          247         248         249         250         251         252
    1  -1.9204292  -2.6223739  -4.0477830  -3.1078911  -1.0031793  -2.1608039
    2  -0.4167253   1.1629096   2.0250813  -0.3037882   1.4962720   1.5096361
    3   0.8767142   1.7249235   0.2835481   3.0095561   1.3384781  -2.0518557
          253         254         255         256         257         258
    1  -0.4717307  -0.8088773  -0.7730200   0.1985430   1.5408648   0.8461342
    2   0.6804824   0.8725391   2.0693893  -0.8246638   1.2378918   3.5878542
    3  -1.2461400   0.4469384  -2.6642289  -1.3473235  -0.5155020  -1.0275597
          259         260         261         262         263         264
    1   0.1187555  -0.2552664   2.9169698   2.7004206  -1.3521382  -2.5010920
    2   3.5032005   3.0601262   3.7649071   1.5384949  -0.0661179   1.0142712
    3  -2.8710000   0.3058382  -0.8652119  -3.3850458  -0.0998228  -0.6192681
          265         266         267         268         269         270
    1   0.5003326  -2.2475338  -0.8650688  -2.5519499  -3.4762033  -1.7045364
    2  -0.2161743  -1.0689711   1.0585081   2.2166813   0.5359233   3.4224431
    3  -0.7291850   1.0471321   2.1639105   1.8413495   2.3528213   3.0767460
          271         272         273         274         275         276
    1  -2.2023777   0.3575318  -2.7141369  -1.8359460  -2.0962066  -4.3406870
    2   2.6362703   3.5600886  -2.4902633  -4.0602504  -1.7834911  -1.8630188
    3   0.1531365   0.5266887   0.8890516  -0.2509748   2.2431531   0.5972817
          277         278         279         280         281         282
    1  -1.9945597  -3.4667140  -4.3852115  -2.2777623  -3.1979719  -0.1384953
    2  -0.4480236  -1.1842900  -0.0098182  -0.4296510  -3.1463071  -2.5547008
    3  -0.2829226  -1.7611971  -0.6287056  -3.2215991  -1.4897138  -1.8646816
          283         284         285         286         287         288
    1  -0.4101128   0.5809059  -1.6734874   0.2733167   1.0368613   0.9092877
    2  -2.7263275  -4.1493839  -2.9389855  -0.7975562  -2.6540320  -0.8597997
    3   0.4783753  -0.1705123   1.7884345  -0.2752766   2.0014948   2.0244025
          289         290         291         292
    1   0.8983938  -0.8942515   2.9595034   3.6899716
    2  -0.0893697  -1.9990694  -0.7841094  -1.7703151
    3   0.4142918   2.8600258   2.7547722  -0.1326495
 EField
            1           2           3           4           5           6
    1   0.0032190   0.0043293   0.0057101   0.0033997   0.0037876   0.0021128
    2  -0.0043143  -0.0062527  -0.0054362  -0.0023994  -0.0033230  -0.0027076
    3  -0.0021295  -0.0031114  -0.0001425  -0.0033682  -0.0005979  -0.0013660
            7           8           9          10          11          12
    1   0.0083416   0.0111130   0.0037676   0.0028595   0.0013519   0.0027295
    2  -0.0137806  -0.0069173  -0.0022391  -0.0050547   0.0024853  -0.0046793
    3   0.0026298  -0.0017894  -0.0060613   0.0005783  -0.0078593  -0.0037249
           13          14          15          16          17          18
    1   0.0002791   0.0084834   0.0020072   0.0001158   0.0065438  -0.0036493
    2  -0.0095707   0.0001703  -0.0016919  -0.0035508   0.0000389  -0.0074999
    3   0.0053487  -0.0025436   0.0011384  -0.0013412   0.0024034  -0.0037809
           19          20          21          22          23          24
    1  -0.0013313  -0.0071827  -0.0086103  -0.0061357   0.0075848   0.0358455
    2   0.0010606  -0.0119945  -0.0114696  -0.0161089  -0.0025553   0.0010676
    3  -0.0127698   0.0005740   0.0058604  -0.0002568  -0.0050057  -0.0104512
           25          26          27          28          29          30
    1  -0.0009456  -0.0083928  -0.0596990   0.0051907   0.0024409   0.0220888
    2  -0.0285211  -0.0055059  -0.0107000   0.0050003   0.0220492   0.0084905
    3  -0.0017335  -0.0355533  -0.0047650  -0.0023845   0.0242704  -0.0265043
           31          32          33          34          35          36
    1  -0.0214781   0.0534126   0.0082436   0.0206251   0.0100216   0.0110157
    2   0.0208912  -0.0106211  -0.0009502  -0.0228478   0.0075512   0.0214087
    3  -0.0125077   0.0926917  -0.0020209  -0.0222113  -0.0308683   0.0227609
           37          38          39          40          41          42
    1  -0.0305893   0.0012516   0.0239944   0.0124164  -0.0201944  -0.0294646
    2   0.0504541  -0.0040540  -0.0186102   0.0149153  -0.0232487  -0.0637686
    3   0.0152029   0.0024196   0.0071620   0.0304281  -0.0002007  -0.0847214
           43          44          45          46          47          48
    1  -0.0095730  -0.0397586   0.0041764   0.0118507  -0.0216535  -0.0013352
    2   0.0021001   0.0080318   0.0320469  -0.0244013  -0.0424987   0.0091098
    3  -0.0079159  -0.0137097   0.0019077  -0.0156961   0.0114002   0.0055377
           49          50          51          52          53          54
    1  -0.0361988   0.0220087   0.0150625   0.1060630  -0.0102273  -0.0237932
    2   0.0067559  -0.0096536   0.0222681   0.0113403  -0.0084039   0.0115148
    3  -0.0058762   0.0285101  -0.0175843  -0.0288877  -0.0026126  -0.0209462
           55          56          57          58          59          60
    1   0.0173425  -0.0056930   0.0344583  -0.0040457  -0.0172049  -0.0229939
    2  -0.0158800  -0.0209186  -0.0175446   0.0046805  -0.0002415  -0.0068734
    3  -0.0180822   0.0244558   0.0395243   0.0032526  -0.0263333   0.0284737
           61          62          63          64          65          66
    1   0.0105977   0.0312856  -0.0048170  -0.0259225  -0.0233449   0.0163704
    2   0.0192854   0.0510693   0.0079601   0.0167293  -0.0105711   0.0208324
    3   0.0227294  -0.0917971   0.0013098  -0.0145985   0.0250773   0.0183017
           67          68          69          70          71          72
    1  -0.0246969   0.0069915  -0.0179529   0.0241021   0.0074325   0.0635452
    2  -0.0386260  -0.0018318  -0.0124661  -0.0192578   0.0286337   0.0785972
    3  -0.0240133   0.0080741   0.0235172  -0.0112548   0.0113212  -0.0443217
           73          74          75          76          77          78
    1  -0.0075208  -0.0009265  -0.0237601  -0.0057808   0.0462399  -0.0022103
    2  -0.0036581  -0.0339581   0.0111971   0.0086332  -0.0148916   0.0001279
    3  -0.0022956  -0.0052663   0.0187380  -0.0284431  -0.0234843   0.0041260
           79          80          81          82          83          84
    1  -0.0036481   0.0171917  -0.0220784  -0.0458289   0.0017114   0.0208939
    2  -0.0343234   0.0116323   0.0121886   0.1003009  -0.0080508   0.0073797
    3   0.0082377   0.0331524   0.0199029  -0.0003937   0.0090649   0.0211152
           85          86          87          88          89          90
    1  -0.0236826   0.0095491   0.0412152  -0.0082470  -0.0042841  -0.0233668
    2   0.0019473  -0.0299799   0.0161321  -0.0002897   0.0235678  -0.0190866
    3   0.0173387  -0.0030855  -0.0277171   0.0050362  -0.0204794   0.0138196
           91          92          93          94          95          96
    1   0.0050501  -0.0814904  -0.0063254  -0.0244811  -0.0166935   0.0130242
    2   0.0148375  -0.0636530  -0.0026649  -0.0047130   0.0099359  -0.0268032
    3   0.0246205  -0.0391856  -0.0016933   0.0273855  -0.0237971  -0.0110514
           97          98          99         100         101         102
    1   0.0300059  -0.0100324   0.0176488  -0.0167186  -0.0178740   0.0397481
    2  -0.0095419   0.0101328   0.0266298   0.0018537  -0.0027858   0.0261026
    3   0.0410070  -0.0009818   0.0055163  -0.0291587   0.0308037  -0.1002495
          103         104         105         106         107         108
    1  -0.0024288  -0.0013118  -0.0224861  -0.0196099   0.0435872  -0.0009768
    2   0.0087924   0.0416902  -0.0005798  -0.0043466   0.0206352   0.0003872
    3  -0.0016142   0.0115028  -0.0232937   0.0200078   0.0330472  -0.0062050
          109         110         111         112         113         114
    1   0.0134349   0.0166058  -0.0196001  -0.0488140   0.0047701   0.0317206
    2   0.0286113  -0.0245262  -0.0093419  -0.0958024  -0.0032931   0.0029848
    3  -0.0193191  -0.0081675  -0.0247577   0.0240019  -0.0052934  -0.0094739
          115         116         117         118         119         120
    1   0.0055709  -0.0042337  -0.0536940   0.0066883  -0.0000063  -0.0229123
    2  -0.0082951  -0.0259959  -0.0117307   0.0072368  -0.0153574   0.0231710
    3   0.0266160  -0.0244375   0.0002142  -0.0067534  -0.0316499   0.0076121
          121         122         123         124         125         126
    1   0.0301242   0.0567318   0.0090934   0.0035788   0.0122960   0.0138121
    2   0.0132878   0.0375701  -0.0035141  -0.0263024   0.0005697   0.0279542
    3   0.0087360   0.0864890  -0.0025364   0.0179879  -0.0291590  -0.0021271
          127         128         129         130         131         132
    1  -0.0153023  -0.0005166  -0.0297897   0.0115801   0.0136121  -0.0501949
    2   0.0464504   0.0020027   0.0000500  -0.0232439   0.0267698  -0.0969729
    3  -0.0362013   0.0068858   0.0069980   0.0175997  -0.0022374  -0.0014785
          133         134         135         136         137         138
    1  -0.0031859  -0.0033112   0.0139592  -0.0298778  -0.0166917   0.0131949
    2   0.0101331   0.0093221   0.0299138   0.0170803  -0.0459662  -0.0022560
    3  -0.0019427   0.0221854  -0.0132422  -0.0048813   0.0093423  -0.0039344
          139         140         141         142         143         144
    1   0.0098674   0.0157896   0.0354273  -0.0032745   0.0014846  -0.0231713
    2  -0.0082390   0.0234035  -0.0205346   0.0284525   0.0016921   0.0131764
    3  -0.0339815   0.0128745   0.0256763  -0.1099354   0.0003139   0.0256704
          145         146         147         148         149         150
    1  -0.0043893  -0.0006384   0.0194859  -0.0004322  -0.0223318   0.0324771
    2   0.0155312  -0.0241236  -0.0055949   0.0079637   0.0267612   0.0105486
    3  -0.0243689   0.0188568   0.0565034  -0.0005591   0.0204988  -0.0028361
          151         152         153         154         155         156
    1  -0.0043084   0.0565133  -0.0014496   0.0154160  -0.0342473   0.0100259
    2   0.0044934  -0.0514836   0.0030552  -0.0048298   0.0108582   0.0260397
    3  -0.0307725  -0.0821356  -0.0030897  -0.0311005   0.0103910  -0.0195439
          157         158         159         160         161         162
    1  -0.0166228   0.0007970  -0.0220803   0.0272618  -0.0051007   0.1030892
    2  -0.0530286   0.0040662  -0.0113807  -0.0000042   0.0309712   0.0250466
    3   0.0057033   0.0059611   0.0225747   0.0165853  -0.0076405  -0.0326993
          163         164         165         166         167         168
    1  -0.0039375   0.0039785  -0.0366024   0.0083748  -0.0251518   0.0023596
    2   0.0036028  -0.0140805   0.0026877   0.0286565  -0.0441369   0.0072433
    3  -0.0034860  -0.0298682  -0.0016972   0.0128846   0.0126063   0.0072864
          169         170         171         172         173         174
    1   0.0127856   0.0213425  -0.0291581   0.1007666  -0.0046118  -0.0140624
    2  -0.0078158   0.0233689   0.0132215   0.0079766  -0.0085465   0.0121234
    3   0.0270036  -0.0039786   0.0093608  -0.0427108   0.0008613   0.0237341
          175         176         177         178         179         180
    1  -0.0181629   0.0265196   0.0433750   0.0082039   0.0175511   0.0258664
    2  -0.0129101  -0.0158489  -0.0054010   0.0066526  -0.0186989   0.0187911
    3  -0.0252955   0.0153743  -0.0357600   0.0029458   0.0141888   0.0057393
          181         182         183         184         185         186
    1  -0.0298234  -0.0804792  -0.0001704  -0.0256413   0.0089460  -0.0015225
    2   0.0054298   0.0665388   0.0082636  -0.0007393   0.0195938   0.0257747
    3   0.0015490  -0.0257868  -0.0007092   0.0054213   0.0284921  -0.0127656
          187         188         189         190         191         192
    1   0.0161662   0.0072102   0.0198218  -0.0063626   0.0310809  -0.0690709
    2  -0.0328871   0.0077719  -0.0195585   0.0200866   0.0076483  -0.0313618
    3   0.0442848  -0.0073517  -0.0100482  -0.0184510   0.0163051  -0.0788143
          193         194         195         196         197         198
    1   0.0007936   0.0323079   0.0122546  -0.0127275  -0.0270534   0.0040184
    2   0.0082658  -0.0081768   0.0161228   0.0211502  -0.0223522  -0.0030520
    3   0.0007341  -0.0064010  -0.0270412   0.0206852   0.0411129  -0.0040073
          199         200         201         202         203         204
    1  -0.0116014   0.0139923   0.0191805  -0.0405425  -0.0041092  -0.0234422
    2  -0.0212603   0.0188352  -0.0298850   0.0386745  -0.0046501   0.0212339
    3  -0.0167601  -0.0214634   0.0168371  -0.0930894  -0.0008675   0.0078185
          205         206         207         208         209         210
    1  -0.0187358  -0.0097932   0.0322226   0.0031277  -0.0108972   0.0279979
    2   0.0102583  -0.0362393  -0.0351322  -0.0002248  -0.0287031  -0.0066860
    3  -0.0259969  -0.0037839  -0.0230894   0.0083575   0.0164240   0.0164795
          211         212         213         214         215         216
    1  -0.0181283   0.0051432   0.0002544  -0.0198269   0.0274229   0.0036277
    2   0.0185532   0.1085593   0.0068230   0.0218273   0.0004362  -0.0050017
    3   0.0125353  -0.0001910  -0.0019423  -0.0028014   0.0151732  -0.0250505
          217         218         219         220         221         222
    1   0.0008956   0.0019629   0.0100035  -0.0078886   0.0305146  -0.0883004
    2   0.0022458  -0.0102611  -0.0341881   0.0041294  -0.0045263  -0.0127824
    3   0.0544248  -0.0007374   0.0165643  -0.0319280   0.0125687  -0.0651317
          223         224         225         226         227         228
    1   0.0012740  -0.0025749   0.0135280   0.0082856  -0.0355821   0.0032383
    2   0.0034857  -0.0251401   0.0168660  -0.0040390  -0.0027160   0.0072589
    3   0.0026394  -0.0075216  -0.0260755   0.0308664  -0.0469547   0.0026899
          229         230         231         232         233         234
    1  -0.0252179   0.0179712   0.0106789  -0.0324721   0.0027481   0.0300260
    2   0.0189850   0.0018223   0.0168239  -0.0316976   0.0042455  -0.0013427
    3   0.0053677   0.0278756  -0.0265260   0.1013135   0.0101048   0.0166568
          235         236         237         238         239         240
    1  -0.0196932  -0.0272367  -0.0463710   0.0046352   0.0301178  -0.0307744
    2   0.0221920  -0.0040502  -0.0074141  -0.0057575   0.0132836  -0.0132394
    3  -0.0059895   0.0259454  -0.0286691   0.0076359   0.0123874   0.0160616
          241         242         243         244         245         246
    1   0.0152456   0.0932728  -0.0062896  -0.0221298  -0.0025119  -0.0089897
    2  -0.0148625   0.0391339  -0.0002898   0.0207116  -0.0149030  -0.0179528
    3  -0.0220069  -0.0430213   0.0007433  -0.0126534  -0.0233713   0.0279182
          247         248         249         250         251         252
    1   0.0443643  -0.0030119  -0.0260148  -0.0083516   0.0228916   0.0051973
    2  -0.0367018   0.0060851   0.0172475   0.0012146   0.0141941   0.0542728
    3   0.0175730   0.0020516  -0.0107270   0.0401031   0.0154077  -0.0938816
          253         254         255         256         257         258
    1  -0.0085551  -0.0271316  -0.0112664   0.0016089   0.0228108  -0.0021775
    2  -0.0048941   0.0003346   0.0131951  -0.0322557  -0.0191824   0.0040372
    3   0.0003343   0.0253420  -0.0252490  -0.0099941   0.0435000   0.0007712
          259         260         261         262         263         264
    1  -0.0147761  -0.0166850   0.0220648   0.0455232  -0.0037752  -0.0170132
    2   0.0059643   0.0215238   0.0201267   0.0049560  -0.0045714   0.0071291
    3  -0.0272372   0.0272008   0.0140043  -0.1003106  -0.0027843  -0.0196819
          265         266         267         268         269         270
    1   0.0224684  -0.0093627   0.0128846  -0.0114862  -0.0253665   0.0026011
    2  -0.0137188  -0.0292704  -0.0268882   0.0026003  -0.0202759   0.0253339
    3  -0.0109564   0.0130495   0.0521430   0.0009897   0.0101424   0.0202387
          271         272         273         274         275         276
    1  -0.0122779   0.0539172   0.0014058   0.0113986   0.0180768  -0.0304836
    2   0.0114173   0.0841842  -0.0045652  -0.0264971   0.0084559  -0.0002932
    3  -0.0222474  -0.0402453   0.0067563  -0.0113131   0.0256183   0.0001624
          277         278         279         280         281         282
    1   0.0054317  -0.0009847  -0.0244090  -0.0075131  -0.0016468   0.0757859
    2   0.0537865   0.0006974   0.0209507   0.0099532  -0.0306870  -0.0564564
    3   0.0210553  -0.0080185   0.0004473  -0.0391612  -0.0076242  -0.0528832
          283         284         285         286         287         288
    1  -0.0021897   0.0039879  -0.0286775  -0.0101387  -0.0017072   0.0033594
    2  -0.0018560  -0.0239068  -0.0037303   0.0228508  -0.0395020   0.0070887
    3  -0.0089656  -0.0217398   0.0122677  -0.0253204   0.0448714   0.0016881
          289         290         291         292
    1  -0.0041839  -0.0272348   0.0220471   0.0915365
    2   0.0215386  -0.0009413   0.0138646   0.0120554
    3  -0.0226369   0.0181750   0.0185636  -0.0611612
  --- DONE ESP SUMMARY ---
 Total job time:  36.19s(wall), 82.76s(cpu) 
 Thu Jul 21 10:27:15 2022

        *************************************************************
        *                                                           *
        *  Thank you very much for using Q-Chem.  Have a nice day.  *
        *                                                           *
        *************************************************************


