                  Welcome to Q-Chem
     A Quantum Leap Into The Future Of Chemistry


 Q-Chem 6.0 (devel), Q-Chem, Inc., Pleasanton, CA (2022)

 E. Epifanovsky,  A. T. B. Gilbert,  Xintian Feng,  Joonho Lee,  Yuezhi Mao,  
 N. Mardirossian,  P. Pokhilko,  A. White,  M. Wormit,  M. P. Coons,  
 A. L. Dempwolff,  Zhengting Gan,  D. Hait,  P. R. Horn,  L. D. Jacobson,  
 I. Kaliman,  J. Kussmann,  A. W. Lange,  Ka Un Lao,  D. S. Levine,  Jie Liu,  
 S. C. McKenzie,  A. F. Morrison,  K. Nanda,  F. Plasser,  D. R. Rehn,  
 M. L. Vidal,  Zhi-Qiang You,  Ying Zhu,  B. Alam,  B. Albrecht,  
 A. Aldossary,  E. Alguire,  J. H. Andersen,  V. Athavale,  D. Barton,  
 K. Begam,  A. Behn,  N. Bellonzi,  Y. A. Bernard,  E. J. Berquist,  
 H. Burton,  A. Carreras,  K. Carter-Fenk,  Romit Chakraborty,  
 Chandrima Chakravarty,  Junhan Chen,  A. D. Chien,  K. D. Closser,  
 V. Cofer-Shabica,  L. Cunha,  S. Dasgupta,  Jia Deng,  M. de Wergifosse,  
 M. Diedenhofen,  Hainam Do,  S. Ehlert,  Po-Tung Fang,  S. Fatehi,  
 Qingguo Feng,  T. Friedhoff,  B. Ganoe,  J. Gayvert,  Qinghui Ge,  
 G. Gidofalvi,  M. Goldey,  J. Gomes,  C. Gonzalez-Espinoza,  S. Gulania,  
 A. Gunina,  J. A. Gyamfi,  M. W. D. Hanson-Heine,  P. H. P. Harbach,  
 A. W. Hauser,  M. F. Herbst,  M. Hernandez Vera,  M. Hodecker,  
 Z. C. Holden,  S. Houck,  Xunkun Huang,  Kerwin Hui,  B. C. Huynh,  
 K. Ikeda,  M. Ivanov,  Hyunjun Ji,  Zuxin Jin,  Hanjie Jiang,  B. Kaduk,  
 S. Kaehler,  R. Kang,  K. Khistyaev,  Jaehoon Kim,  Yongbin Kim,  
 P. Klunzinger,  Z. Koczor-Benda,  Joong Hoon Koh,  D. Kosenkov,  
 Saikiran Kotaru,  L. Koulias,  T. Kowalczyk,  C. M. Krauter,  K. Kue,  
 A. Kunitsa,  T. Kus,  A. Landau,  K. V. Lawler,  D. Lefrancois,  S. Lehtola,  
 Rain Li,  Shaozhi Li,  Yi-Pei Li,  Jiashu Liang,  M. Liebenthal,  
 Hung-Hsuan Lin,  You-Sheng Lin,  Fenglai Liu,  Kuan-Yu Liu,  
 M. Loipersberger,  A. Luenser,  C. Malbon,  A. Manjanath,  P. Manohar,  
 E. Mansoor,  S. F. Manzer,  Shan-Ping Mao,  A. V. Marenich,  T. Markovich,  
 S. Mason,  F. Matz,  S. A. Maurer,  P. F. McLaughlin,  M. F. S. J. Menger,  
 J.-M. Mewes,  S. A. Mewes,  P. Morgante,  Mohammad Mostafanejad,  
 J. W. Mullinax,  K. J. Oosterbaan,  G. Paran,  V. Parravicini,  
 Alexander C. Paul,  Suranjan K. Paul,  F. Pavosevic,  Zheng Pei,  S. Prager,  
 E. I. Proynov,  E. Ramos,  B. Rana,  A. E. Rask,  A. Rettig,  R. M. Richard,  
 F. Rob,  E. Rossomme,  T. Scheele,  M. Scheurer,  M. Schneider,  
 P. E. Schneider,  N. Sergueev,  S. M. Sharada,  Hengyuan Shen,  
 W. Skomorowski,  D. W. Small,  C. J. Stein,  Yingli Su,  Yu-Chuan Su,  
 E. J. Sundstrom,  Zhen Tao,  J. Thirman,  Hung-Yi Tsai,  T. Tsuchimochi,  
 N. M. Tubman,  C. Utku,  S. P. Veccham,  O. Vydrov,  J. Wenzel,  
 Jonathan Wong,  J. Witte,  A. Yamada,  Chou-Hsun Yang,  Kun Yao,  
 S. Yeganeh,  S. R. Yost,  A. Zech,  F. Zeller,  Igor Ying Zhang,  
 Xing Zhang,  Yu Zhang,  D. Zuev,  A. Aspuru-Guzik,  A. T. Bell,  
 N. A. Besley,  K. B. Bravaya,  B. R. Brooks,  D. Casanova,  Jeng-Da Chai,  
 Hsing-Ta Chen,  S. Coriani,  C. J. Cramer,  A. E. DePrince, III,  
 R. A. DiStasio Jr.,  A. Dreuw,  B. D. Dunietz,  T. R. Furlani,  
 W. A. Goddard III,  S. Grimme,  S. Hammes-Schiffer,  T. Head-Gordon,  
 W. J. Hehre,  Chao-Ping Hsu,  T.-C. Jagau,  Yousung Jung,  A. Klamt,  
 Jing Kong,  D. S. Lambrecht,  Xiangyuan Li,  WanZhen Liang,  N. J. Mayhall,  
 C. W. McCurdy,  J. B. Neaton,  T. Neudecker,  C. Ochsenfeld,  
 J. A. Parkhill,  R. Peverati,  V. A. Rassolov,  Haisheng Ren,  Yihan Shao,  
 L. V. Slipchenko,  R. P. Steele,  J. E. Subotnik,  A. J. W. Thom,  
 A. Tkatchenko,  D. G. Truhlar,  T. Van Voorhis,  Fan Wang,  
 T. A. Wesolowski,  K. B. Whaley,  H. L. Woodcock III,  P. M. Zimmerman,  
 S. Faraji,  P. M. W. Gill,  M. Head-Gordon,  J. M. Herbert,  A. I. Krylov

 Contributors to earlier versions of Q-Chem not listed above: 
 R. D. Adamson,  B. Austin,  R. Baer,  J. Baker,  G. J. O. Beran,  
 K. Brandhorst,  S. T. Brown,  E. F. C. Byrd,  Arup K. Chakraborty,  
 G. K. L. Chan,  Chun-Min Chang,  Yunqing Chen,  C.-L. Cheng,  
 Siu Hung Chien,  D. M. Chipman,  D. L. Crittenden,  H. Dachsel,  
 R. J. Doerksen,  A. D. Dutoi,  R. G. Edgar,  J. Fosso-Tande,  
 L. Fusti-Molnar,  D. Ghosh,  A. Ghysels,  A. Golubeva-Zadorozhnaya,  
 J. Gonthier,  M. S. Gordon,  S. R. Gwaltney,  G. Hawkins,  J. E. Herr,  
 A. Heyden,  S. Hirata,  E. G. Hohenstein,  G. Kedziora,  F. J. Keil,  
 C. Kelley,  Jihan Kim,  R. A. King,  R. Z. Khaliullin,  P. P. Korambath,  
 W. Kurlancheek,  A. Laurent,  A. M. Lee,  M. S. Lee,  S. V. Levchenko,  
 Ching Yeh Lin,  D. Liotard,  E. Livshits,  R. C. Lochan,  I. Lotan,  
 L. A. Martinez-Martinez,  P. E. Maslen,  N. Nair,  D. P. O'Neill,  
 D. Neuhauser,  E. Neuscamman,  C. M. Oana,  R. Olivares-Amaya,  R. Olson,  
 T. M. Perrine,  B. Peters,  P. A. Pieniazek,  A. Prociuk,  Y. M. Rhee,  
 J. Ritchie,  M. A. Rohrdanz,  E. Rosta,  N. J. Russ,  H. F. Schaefer III,  
 M. W. Schmidt,  N. E. Schultz,  S. Sharma,  N. Shenvi,  C. D. Sherrill,  
 A. C. Simmonett,  A. Sodt,  T. Stein,  D. Stuck,  K. S. Thanthiriwatte,  
 V. Vanovschi,  L. Vogt,  Tao Wang,  A. Warshel,  M. A. Watson,  
 C. F. Williams,  Q. Wu,  X. Xu,  Jun Yang,  W. Zhang,  Yan Zhao

   Please cite Q-Chem as follows:
  "Software for the frontiers of quantum chemistry:
   An overview of developments in the Q-Chem 5 package"
   J. Chem. Phys. 155, 084801 (2021)
   https://doi.org/10.1063/5.0055522 (open access)

 Q-Chem 6.0.0 for Intel X86 EM64T Linux

 Parts of Q-Chem use Armadillo 9.900.5 (Nocturnal Misbehaviour).
 http://arma.sourceforge.net/

 Q-Chem begins on Thu Jul 21 03:14:53 2022  

 Host: nid00539
0

     Scratch files written to /global/cscratch1/sd/ymao90/r7.00_frame_0047_spade_B3LYP_dp20220721031332//
 Processing $rem in /global/homes/y/ymao90/my_qchem/qchem_embedding_5p4/config/preferences:
 Processing $rem in /global/homes/y/ymao90/.qchemrc:
 No nuclear gradient supported for projection-based embedding or EMFT. Set max ideriv = 0.

 Checking the input file for inconsistencies... 	...done.

--------------------------------------------------------------
User input:
--------------------------------------------------------------
$molecule
0 1
--
0 1
C    28.54900   19.22800   26.41800  
C    27.44900   20.23600   26.04600  
C    28.06500   21.64300   26.12100  
C    29.45800   21.86300   25.51100  
C    30.44500   20.75200   25.90400  
C    29.86900   19.35100   25.63900  
H    27.39900   22.32800   25.58100  
H    27.23600   19.91700   25.01900  
H    28.78100   19.40100   27.47600  
H    28.19100   18.21200   26.21200  
H    29.41200   21.81500   24.41600  
H    29.78100   22.83800   25.89500  
H    31.41100   20.99800   25.44700  
H    30.62100   20.88000   26.97900  
H    29.75500   19.18300   24.56100  
H    30.52300   18.55200   26.00800  
H    28.11000   21.92100   27.18200  
N    26.21000   20.24600   26.82200  
H    26.28600   20.13400   27.82600  
C    24.94200   20.42300   26.30900  
H    24.21200   20.20400   27.10900  
O    24.57300   20.67000   25.17500  
--
0 1
C    27.38800   18.30600   21.25400  
H    27.59400   18.02700   20.21800  
H    28.11700   19.06400   21.55300  
H    27.63700   17.41300   21.83200  
S    25.72100   18.94400   21.53900  
C    24.91100   17.42100   21.00200  
H    25.21100   17.04500   20.02000  
H    25.07800   16.77400   21.86800  
H    23.83400   17.60500   20.96200  
O    25.63200   19.86600   20.36300  
C    31.39600   21.40100   32.27400  
H    31.93600   21.15500   31.35700  
H    30.55300   22.04800   32.02000  
H    31.97500   22.08400   32.90100  
S    30.89300   19.79800   32.93800  
C    30.00900   20.71000   34.22400  
H    29.77300   20.03000   35.04700  
H    30.62100   21.47100   34.71500  
H    29.16600   21.30000   33.85400  
O    32.08500   19.44400   33.77100  
C    33.07200   24.13000   31.02200  
H    33.84800   23.48600   30.60100  
H    32.76800   23.83600   32.02900  
H    32.15300   24.11000   30.43000  
S    33.75700   25.80000   30.93400  
C    32.23100   26.76300   31.01500  
H    32.39700   27.78700   30.67100  
H    31.46400   26.26000   30.42100  
H    32.10500   26.93200   32.08800  
O    34.18600   25.92300   29.50500  
C    34.22900   23.08500   27.63800  
H    35.13600   22.79300   28.17400  
H    34.34500   24.13600   27.36200  
H    33.29300   22.88500   28.16600  
S    34.29400   22.02900   26.17400  
C    35.43500   20.80500   26.85500  
H    36.36100   21.24300   27.23600  
H    34.85800   20.12900   27.49200  
H    35.73700   20.16800   26.02000  
O    35.31000   22.67200   25.28300  
C    27.51000   15.23100   25.12200  
H    27.95300   16.20100   25.35800  
H    26.43100   15.39100   25.04900  
H    27.69200   14.54800   25.95700  
S    28.39900   14.77100   23.61800  
C    28.13300   12.99700   23.83500  
H    28.77000   12.74900   24.68800  
H    27.06900   12.79100   23.97200  
H    28.53300   12.55600   22.91800  
O    29.83500   15.08700   23.89900  
C    21.85800   20.92700   20.39300  
H    21.65200   21.27100   19.37600  
H    22.80200   20.37700   20.42200  
H    21.03600   20.32800   20.79600  
S    21.96400   22.44200   21.37100  
C    22.33000   21.66300   22.96000  
H    23.12400   20.92300   22.83700  
H    22.69100   22.43900   23.64000  
H    21.38600   21.21800   23.28700  
O    20.53800   22.81500   21.63000  
C    19.12000   15.79900   23.10500  
H    18.75700   16.25700   24.02900  
H    18.25900   15.42400   22.54600  
H    19.87800   15.02500   23.25000  
S    19.74600   17.19100   22.13800  
C    20.48700   16.10200   20.90100  
H    20.79500   15.19100   21.42200  
H    19.77300   15.83100   20.11900  
H    21.33200   16.63700   20.46200  
O    21.00300   17.76800   22.71100  
C    30.65100   13.31600   26.85200  
H    31.23800   14.11400   26.39100  
H    29.70800   13.24200   26.30500  
H    30.49300   13.51500   27.91500  
S    31.55300   11.76200   26.66200  
C    32.40100   12.10900   25.10400  
H    33.10800   12.93100   25.24100  
H    33.07500   11.27300   24.90000  
H    31.71500   12.26300   24.26800  
O    30.54200   10.70400   26.34400  
C    31.51400   16.04300   31.89400  
H    31.26200   15.51500   32.81700  
H    32.04900   15.37200   31.21800  
H    32.09200   16.94800   32.09900  
S    30.03800   16.44900   30.93300  
C    30.80800   17.02600   29.40400  
H    31.31700   16.25200   28.82300  
H    30.01000   17.57400   28.89600  
H    31.52300   17.82100   29.63000  
O    29.41400   17.62500   31.61800  
C    28.05300   22.66800   21.19500  
H    28.96500   22.30700   21.67700  
H    27.37100   21.85100   20.94700  
H    28.24200   23.23000   20.27600  
S    27.32400   23.79800   22.40200  
C    26.19700   22.61200   23.16800  
H    26.66700   21.64100   23.34400  
H    25.75300   23.09900   24.03900  
H    25.41000   22.45100   22.42600  
O    26.28400   24.54600   21.62800  
C    31.05400   25.58300   24.37500  
H    30.29100   26.27800   24.73500  
H    31.36400   25.89100   23.37300  
H    30.68800   24.55400   24.35300  
S    32.49500   25.84300   25.43400  
C    31.66000   25.59800   27.01800  
H    31.34300   24.56400   27.18000  
H    32.44200   25.85800   27.73700  
H    30.77800   26.23000   27.14500  
O    32.68500   27.32000   25.28500  
C    18.74800   19.54400   26.87000  
H    17.88800   20.21800   26.84900  
H    18.66800   18.68100   26.20500  
H    19.11300   19.26700   27.86200  
S    19.93800   20.55200   25.95600  
C    21.12000   19.18700   25.88000  
H    21.25700   18.90400   24.83300  
H    22.11900   19.56500   26.10900  
H    20.93100   18.32000   26.51700  
O    20.43400   21.44500   27.05100  
C    21.57500   17.43700   30.03300  
H    21.49000   18.50200   29.80000  
H    22.36200   16.95100   29.45000  
H    20.56700   17.08900   29.79300  
S    21.78300   17.07800   31.79100  
C    21.01700   15.44500   31.68200  
H    20.71800   15.17600   32.69800  
H    20.12000   15.49500   31.05900  
H    21.72200   14.72100   31.26600  
O    20.63900   17.91500   32.27400  
C    26.23600   18.13800   30.63700  
H    26.11000   17.60700   29.69000  
H    26.94000   17.60200   31.27800  
H    25.24900   18.31200   31.07100  
S    27.17600   19.64800   30.31400  
C    27.36800   20.22000   32.01700  
H    26.43300   20.37200   32.56200  
H    28.05000   19.54000   32.53500  
H    27.92100   21.15200   31.87600  
O    26.05800   20.42300   29.68800  
C    33.72000   15.87800   25.06100  
H    34.37100   15.00700   24.94600  
H    33.37900   16.06700   26.08200  
H    32.83200   15.56900   24.50500  
S    34.56000   17.37600   24.50000  
C    33.09900   18.38100   24.85000  
H    32.24100   17.85200   24.42800  
H    32.83500   18.37900   25.91100  
H    33.20500   19.39100   24.44600  
O    34.44800   17.27900   23.01100  
C    30.98200   20.12700   19.43100  
H    30.89300   19.04800   19.58200  
H    29.95400   20.44800   19.24700  
H    31.61200   20.41500   18.58500  
S    31.77000   20.72000   20.94500  
C    32.73900   19.22200   21.23300  
H    32.05700   18.37100   21.16700  
H    33.59200   19.24500   20.55100  
H    33.14000   19.23100   22.25000  
O    30.72800   20.52700   22.00300  
C    35.27600   18.26000   30.23700  
H    36.16500   18.05800   30.84000  
H    35.50100   19.17100   29.67500  
H    34.39500   18.35300   30.87700  
S    35.07200   16.93000   29.03100  
C    36.49400   17.07500   27.92700  
H    36.75700   16.11000   27.48700  
H    36.34100   17.88100   27.20400  
H    37.35200   17.27700   28.57300  
O    33.79400   17.28000   28.33300  
C    26.59700   25.25900   25.98000  
H    25.66200   25.72800   25.66500  
H    27.18100   24.88400   25.13600  
H    26.43700   24.39800   26.63400  
S    27.77600   26.37300   26.77700  
C    26.60400   27.24200   27.84300  
H    26.96800   28.12200   28.38000  
H    25.79600   27.54600   27.17200  
H    26.22900   26.37500   28.39300  
O    28.01800   27.51200   25.83600  
C    21.26000   23.16200   29.78300  
H    21.22300   24.25400   29.78800  
H    21.28400   22.85500   28.73500  
H    20.38600   22.72200   30.27100  
S    22.85800   22.79600   30.54300  
C    22.69600   20.99900   30.45000  
H    22.87000   20.62700   29.43700  
H    23.53200   20.62900   31.05100  
H    21.73100   20.62600   30.80200  
O    22.76300   23.18400   31.98600  
C    19.49500   25.19600   27.19300  
H    18.81900   25.12400   28.04900  
H    20.51300   24.96400   27.51700  
H    19.33800   26.14300   26.67200  
S    18.98100   23.95100   25.98800  
C    20.33100   24.15200   24.80400  
H    21.29700   23.90900   25.25300  
H    20.06000   23.49400   23.97400  
H    20.37000   25.19400   24.47700  
O    17.75200   24.46600   25.30500  
C    35.34700   25.36100   23.09200  
H    35.52100   26.41700   22.87100  
H    35.13300   25.28400   24.16100  
H    36.12900   24.78200   22.59300  
S    33.85300   24.92400   22.17500  
C    33.64300   23.15600   22.48400  
H    34.46300   22.54300   22.10200  
H    33.67200   22.98400   23.56300  
H    32.66600   22.95300   22.03800  
O    34.45100   24.95000   20.80300  
C    27.23400   23.57800   29.69200  
H    26.77300   24.56700   29.63400  
H    27.22800   23.02200   28.75100  
H    26.83500   23.04300   30.55800  
S    28.99600   23.87100   29.96300  
C    28.79000   25.38500   30.92800  
H    28.20400   25.07400   31.79600  
H    29.74200   25.70500   31.36000  
H    28.31200   26.10700   30.26100  
O    29.46500   24.29900   28.60800  
C    25.06500   11.53200   28.56600  
H    25.16600   11.80900   29.61900  
H    24.18200   12.05300   28.18900  
H    24.88600   10.45600   28.51200  
S    26.47800   11.99700   27.54000  
C    27.72200   11.24000   28.60900  
H    28.67000   11.65700   28.25800  
H    27.48500   11.47800   29.64900  
H    27.71900   10.15000   28.53200  
O    26.79600   13.43100   27.83000  
C    23.83200   17.26000   24.99200  
H    22.77300   16.98800   25.00300  
H    23.86300   18.26500   24.56300  
H    24.42300   16.68900   24.27300  
S    24.56500   17.13600   26.63900  
C    24.26400   15.39200   27.00600  
H    23.18000   15.25200   26.97500  
H    24.71700   14.79000   26.21400  
H    24.62700   15.10600   27.99600  
O    23.43400   17.73400   27.41600  
C    30.33000   26.52700   18.51400  
H    30.89400   26.52600   17.57700  
H    29.38900   26.00400   18.32400  
H    30.22000   27.56100   18.84800  
S    31.20300   25.61600   19.80800  
C    31.12900   23.99900   19.00500  
H    31.36900   23.30700   19.81700  
H    30.09900   23.88800   18.65900  
H    31.83200   23.99400   18.16800  
O    30.22000   25.44200   20.92300  
$end

$rem
JOBTYPE  SP
METHOD  B3LYP
BASIS  6-31+G(D)
SYMMETRY  FALSE
SYM_IGNORE  TRUE
MEM_TOTAL  12000
MEM_STATIC  4000
BASIS_LIN_DEP_THRESH  6
THRESH  14
SCF_CONVERGENCE  8
FD_MAT_VEC_PROD  FALSE
XC_GRID  000075000302
NL_GRID  1
MAX_SCF_CYCLES  200
ENV_METHOD  B3LYP
GEN_SCFMAN_EMBED  TRUE
SPADE_PARTITION  TRUE
EMBEDDING_EARLY_STOP  TRUE
$end

--------------------------------------------------------------
 ----------------------------------------------------------------
             Standard Nuclear Orientation (Angstroms)
    I     Atom           X                Y                Z
 ----------------------------------------------------------------
    1      C      28.5490000000    19.2280000000    26.4180000000
    2      C      27.4490000000    20.2360000000    26.0460000000
    3      C      28.0650000000    21.6430000000    26.1210000000
    4      C      29.4580000000    21.8630000000    25.5110000000
    5      C      30.4450000000    20.7520000000    25.9040000000
    6      C      29.8690000000    19.3510000000    25.6390000000
    7      H      27.3990000000    22.3280000000    25.5810000000
    8      H      27.2360000000    19.9170000000    25.0190000000
    9      H      28.7810000000    19.4010000000    27.4760000000
   10      H      28.1910000000    18.2120000000    26.2120000000
   11      H      29.4120000000    21.8150000000    24.4160000000
   12      H      29.7810000000    22.8380000000    25.8950000000
   13      H      31.4110000000    20.9980000000    25.4470000000
   14      H      30.6210000000    20.8800000000    26.9790000000
   15      H      29.7550000000    19.1830000000    24.5610000000
   16      H      30.5230000000    18.5520000000    26.0080000000
   17      H      28.1100000000    21.9210000000    27.1820000000
   18      N      26.2100000000    20.2460000000    26.8220000000
   19      H      26.2860000000    20.1340000000    27.8260000000
   20      C      24.9420000000    20.4230000000    26.3090000000
   21      H      24.2120000000    20.2040000000    27.1090000000
   22      O      24.5730000000    20.6700000000    25.1750000000
   23      C      27.3880000000    18.3060000000    21.2540000000
   24      H      27.5940000000    18.0270000000    20.2180000000
   25      H      28.1170000000    19.0640000000    21.5530000000
   26      H      27.6370000000    17.4130000000    21.8320000000
   27      S      25.7210000000    18.9440000000    21.5390000000
   28      C      24.9110000000    17.4210000000    21.0020000000
   29      H      25.2110000000    17.0450000000    20.0200000000
   30      H      25.0780000000    16.7740000000    21.8680000000
   31      H      23.8340000000    17.6050000000    20.9620000000
   32      O      25.6320000000    19.8660000000    20.3630000000
   33      C      31.3960000000    21.4010000000    32.2740000000
   34      H      31.9360000000    21.1550000000    31.3570000000
   35      H      30.5530000000    22.0480000000    32.0200000000
   36      H      31.9750000000    22.0840000000    32.9010000000
   37      S      30.8930000000    19.7980000000    32.9380000000
   38      C      30.0090000000    20.7100000000    34.2240000000
   39      H      29.7730000000    20.0300000000    35.0470000000
   40      H      30.6210000000    21.4710000000    34.7150000000
   41      H      29.1660000000    21.3000000000    33.8540000000
   42      O      32.0850000000    19.4440000000    33.7710000000
   43      C      33.0720000000    24.1300000000    31.0220000000
   44      H      33.8480000000    23.4860000000    30.6010000000
   45      H      32.7680000000    23.8360000000    32.0290000000
   46      H      32.1530000000    24.1100000000    30.4300000000
   47      S      33.7570000000    25.8000000000    30.9340000000
   48      C      32.2310000000    26.7630000000    31.0150000000
   49      H      32.3970000000    27.7870000000    30.6710000000
   50      H      31.4640000000    26.2600000000    30.4210000000
   51      H      32.1050000000    26.9320000000    32.0880000000
   52      O      34.1860000000    25.9230000000    29.5050000000
   53      C      34.2290000000    23.0850000000    27.6380000000
   54      H      35.1360000000    22.7930000000    28.1740000000
   55      H      34.3450000000    24.1360000000    27.3620000000
   56      H      33.2930000000    22.8850000000    28.1660000000
   57      S      34.2940000000    22.0290000000    26.1740000000
   58      C      35.4350000000    20.8050000000    26.8550000000
   59      H      36.3610000000    21.2430000000    27.2360000000
   60      H      34.8580000000    20.1290000000    27.4920000000
   61      H      35.7370000000    20.1680000000    26.0200000000
   62      O      35.3100000000    22.6720000000    25.2830000000
   63      C      27.5100000000    15.2310000000    25.1220000000
   64      H      27.9530000000    16.2010000000    25.3580000000
   65      H      26.4310000000    15.3910000000    25.0490000000
   66      H      27.6920000000    14.5480000000    25.9570000000
   67      S      28.3990000000    14.7710000000    23.6180000000
   68      C      28.1330000000    12.9970000000    23.8350000000
   69      H      28.7700000000    12.7490000000    24.6880000000
   70      H      27.0690000000    12.7910000000    23.9720000000
   71      H      28.5330000000    12.5560000000    22.9180000000
   72      O      29.8350000000    15.0870000000    23.8990000000
   73      C      21.8580000000    20.9270000000    20.3930000000
   74      H      21.6520000000    21.2710000000    19.3760000000
   75      H      22.8020000000    20.3770000000    20.4220000000
   76      H      21.0360000000    20.3280000000    20.7960000000
   77      S      21.9640000000    22.4420000000    21.3710000000
   78      C      22.3300000000    21.6630000000    22.9600000000
   79      H      23.1240000000    20.9230000000    22.8370000000
   80      H      22.6910000000    22.4390000000    23.6400000000
   81      H      21.3860000000    21.2180000000    23.2870000000
   82      O      20.5380000000    22.8150000000    21.6300000000
   83      C      19.1200000000    15.7990000000    23.1050000000
   84      H      18.7570000000    16.2570000000    24.0290000000
   85      H      18.2590000000    15.4240000000    22.5460000000
   86      H      19.8780000000    15.0250000000    23.2500000000
   87      S      19.7460000000    17.1910000000    22.1380000000
   88      C      20.4870000000    16.1020000000    20.9010000000
   89      H      20.7950000000    15.1910000000    21.4220000000
   90      H      19.7730000000    15.8310000000    20.1190000000
   91      H      21.3320000000    16.6370000000    20.4620000000
   92      O      21.0030000000    17.7680000000    22.7110000000
   93      C      30.6510000000    13.3160000000    26.8520000000
   94      H      31.2380000000    14.1140000000    26.3910000000
   95      H      29.7080000000    13.2420000000    26.3050000000
   96      H      30.4930000000    13.5150000000    27.9150000000
   97      S      31.5530000000    11.7620000000    26.6620000000
   98      C      32.4010000000    12.1090000000    25.1040000000
   99      H      33.1080000000    12.9310000000    25.2410000000
  100      H      33.0750000000    11.2730000000    24.9000000000
  101      H      31.7150000000    12.2630000000    24.2680000000
  102      O      30.5420000000    10.7040000000    26.3440000000
  103      C      31.5140000000    16.0430000000    31.8940000000
  104      H      31.2620000000    15.5150000000    32.8170000000
  105      H      32.0490000000    15.3720000000    31.2180000000
  106      H      32.0920000000    16.9480000000    32.0990000000
  107      S      30.0380000000    16.4490000000    30.9330000000
  108      C      30.8080000000    17.0260000000    29.4040000000
  109      H      31.3170000000    16.2520000000    28.8230000000
  110      H      30.0100000000    17.5740000000    28.8960000000
  111      H      31.5230000000    17.8210000000    29.6300000000
  112      O      29.4140000000    17.6250000000    31.6180000000
  113      C      28.0530000000    22.6680000000    21.1950000000
  114      H      28.9650000000    22.3070000000    21.6770000000
  115      H      27.3710000000    21.8510000000    20.9470000000
  116      H      28.2420000000    23.2300000000    20.2760000000
  117      S      27.3240000000    23.7980000000    22.4020000000
  118      C      26.1970000000    22.6120000000    23.1680000000
  119      H      26.6670000000    21.6410000000    23.3440000000
  120      H      25.7530000000    23.0990000000    24.0390000000
  121      H      25.4100000000    22.4510000000    22.4260000000
  122      O      26.2840000000    24.5460000000    21.6280000000
  123      C      31.0540000000    25.5830000000    24.3750000000
  124      H      30.2910000000    26.2780000000    24.7350000000
  125      H      31.3640000000    25.8910000000    23.3730000000
  126      H      30.6880000000    24.5540000000    24.3530000000
  127      S      32.4950000000    25.8430000000    25.4340000000
  128      C      31.6600000000    25.5980000000    27.0180000000
  129      H      31.3430000000    24.5640000000    27.1800000000
  130      H      32.4420000000    25.8580000000    27.7370000000
  131      H      30.7780000000    26.2300000000    27.1450000000
  132      O      32.6850000000    27.3200000000    25.2850000000
  133      C      18.7480000000    19.5440000000    26.8700000000
  134      H      17.8880000000    20.2180000000    26.8490000000
  135      H      18.6680000000    18.6810000000    26.2050000000
  136      H      19.1130000000    19.2670000000    27.8620000000
  137      S      19.9380000000    20.5520000000    25.9560000000
  138      C      21.1200000000    19.1870000000    25.8800000000
  139      H      21.2570000000    18.9040000000    24.8330000000
  140      H      22.1190000000    19.5650000000    26.1090000000
  141      H      20.9310000000    18.3200000000    26.5170000000
  142      O      20.4340000000    21.4450000000    27.0510000000
  143      C      21.5750000000    17.4370000000    30.0330000000
  144      H      21.4900000000    18.5020000000    29.8000000000
  145      H      22.3620000000    16.9510000000    29.4500000000
  146      H      20.5670000000    17.0890000000    29.7930000000
  147      S      21.7830000000    17.0780000000    31.7910000000
  148      C      21.0170000000    15.4450000000    31.6820000000
  149      H      20.7180000000    15.1760000000    32.6980000000
  150      H      20.1200000000    15.4950000000    31.0590000000
  151      H      21.7220000000    14.7210000000    31.2660000000
  152      O      20.6390000000    17.9150000000    32.2740000000
  153      C      26.2360000000    18.1380000000    30.6370000000
  154      H      26.1100000000    17.6070000000    29.6900000000
  155      H      26.9400000000    17.6020000000    31.2780000000
  156      H      25.2490000000    18.3120000000    31.0710000000
  157      S      27.1760000000    19.6480000000    30.3140000000
  158      C      27.3680000000    20.2200000000    32.0170000000
  159      H      26.4330000000    20.3720000000    32.5620000000
  160      H      28.0500000000    19.5400000000    32.5350000000
  161      H      27.9210000000    21.1520000000    31.8760000000
  162      O      26.0580000000    20.4230000000    29.6880000000
  163      C      33.7200000000    15.8780000000    25.0610000000
  164      H      34.3710000000    15.0070000000    24.9460000000
  165      H      33.3790000000    16.0670000000    26.0820000000
  166      H      32.8320000000    15.5690000000    24.5050000000
  167      S      34.5600000000    17.3760000000    24.5000000000
  168      C      33.0990000000    18.3810000000    24.8500000000
  169      H      32.2410000000    17.8520000000    24.4280000000
  170      H      32.8350000000    18.3790000000    25.9110000000
  171      H      33.2050000000    19.3910000000    24.4460000000
  172      O      34.4480000000    17.2790000000    23.0110000000
  173      C      30.9820000000    20.1270000000    19.4310000000
  174      H      30.8930000000    19.0480000000    19.5820000000
  175      H      29.9540000000    20.4480000000    19.2470000000
  176      H      31.6120000000    20.4150000000    18.5850000000
  177      S      31.7700000000    20.7200000000    20.9450000000
  178      C      32.7390000000    19.2220000000    21.2330000000
  179      H      32.0570000000    18.3710000000    21.1670000000
  180      H      33.5920000000    19.2450000000    20.5510000000
  181      H      33.1400000000    19.2310000000    22.2500000000
  182      O      30.7280000000    20.5270000000    22.0030000000
  183      C      35.2760000000    18.2600000000    30.2370000000
  184      H      36.1650000000    18.0580000000    30.8400000000
  185      H      35.5010000000    19.1710000000    29.6750000000
  186      H      34.3950000000    18.3530000000    30.8770000000
  187      S      35.0720000000    16.9300000000    29.0310000000
  188      C      36.4940000000    17.0750000000    27.9270000000
  189      H      36.7570000000    16.1100000000    27.4870000000
  190      H      36.3410000000    17.8810000000    27.2040000000
  191      H      37.3520000000    17.2770000000    28.5730000000
  192      O      33.7940000000    17.2800000000    28.3330000000
  193      C      26.5970000000    25.2590000000    25.9800000000
  194      H      25.6620000000    25.7280000000    25.6650000000
  195      H      27.1810000000    24.8840000000    25.1360000000
  196      H      26.4370000000    24.3980000000    26.6340000000
  197      S      27.7760000000    26.3730000000    26.7770000000
  198      C      26.6040000000    27.2420000000    27.8430000000
  199      H      26.9680000000    28.1220000000    28.3800000000
  200      H      25.7960000000    27.5460000000    27.1720000000
  201      H      26.2290000000    26.3750000000    28.3930000000
  202      O      28.0180000000    27.5120000000    25.8360000000
  203      C      21.2600000000    23.1620000000    29.7830000000
  204      H      21.2230000000    24.2540000000    29.7880000000
  205      H      21.2840000000    22.8550000000    28.7350000000
  206      H      20.3860000000    22.7220000000    30.2710000000
  207      S      22.8580000000    22.7960000000    30.5430000000
  208      C      22.6960000000    20.9990000000    30.4500000000
  209      H      22.8700000000    20.6270000000    29.4370000000
  210      H      23.5320000000    20.6290000000    31.0510000000
  211      H      21.7310000000    20.6260000000    30.8020000000
  212      O      22.7630000000    23.1840000000    31.9860000000
  213      C      19.4950000000    25.1960000000    27.1930000000
  214      H      18.8190000000    25.1240000000    28.0490000000
  215      H      20.5130000000    24.9640000000    27.5170000000
  216      H      19.3380000000    26.1430000000    26.6720000000
  217      S      18.9810000000    23.9510000000    25.9880000000
  218      C      20.3310000000    24.1520000000    24.8040000000
  219      H      21.2970000000    23.9090000000    25.2530000000
  220      H      20.0600000000    23.4940000000    23.9740000000
  221      H      20.3700000000    25.1940000000    24.4770000000
  222      O      17.7520000000    24.4660000000    25.3050000000
  223      C      35.3470000000    25.3610000000    23.0920000000
  224      H      35.5210000000    26.4170000000    22.8710000000
  225      H      35.1330000000    25.2840000000    24.1610000000
  226      H      36.1290000000    24.7820000000    22.5930000000
  227      S      33.8530000000    24.9240000000    22.1750000000
  228      C      33.6430000000    23.1560000000    22.4840000000
  229      H      34.4630000000    22.5430000000    22.1020000000
  230      H      33.6720000000    22.9840000000    23.5630000000
  231      H      32.6660000000    22.9530000000    22.0380000000
  232      O      34.4510000000    24.9500000000    20.8030000000
  233      C      27.2340000000    23.5780000000    29.6920000000
  234      H      26.7730000000    24.5670000000    29.6340000000
  235      H      27.2280000000    23.0220000000    28.7510000000
  236      H      26.8350000000    23.0430000000    30.5580000000
  237      S      28.9960000000    23.8710000000    29.9630000000
  238      C      28.7900000000    25.3850000000    30.9280000000
  239      H      28.2040000000    25.0740000000    31.7960000000
  240      H      29.7420000000    25.7050000000    31.3600000000
  241      H      28.3120000000    26.1070000000    30.2610000000
  242      O      29.4650000000    24.2990000000    28.6080000000
  243      C      25.0650000000    11.5320000000    28.5660000000
  244      H      25.1660000000    11.8090000000    29.6190000000
  245      H      24.1820000000    12.0530000000    28.1890000000
  246      H      24.8860000000    10.4560000000    28.5120000000
  247      S      26.4780000000    11.9970000000    27.5400000000
  248      C      27.7220000000    11.2400000000    28.6090000000
  249      H      28.6700000000    11.6570000000    28.2580000000
  250      H      27.4850000000    11.4780000000    29.6490000000
  251      H      27.7190000000    10.1500000000    28.5320000000
  252      O      26.7960000000    13.4310000000    27.8300000000
  253      C      23.8320000000    17.2600000000    24.9920000000
  254      H      22.7730000000    16.9880000000    25.0030000000
  255      H      23.8630000000    18.2650000000    24.5630000000
  256      H      24.4230000000    16.6890000000    24.2730000000
  257      S      24.5650000000    17.1360000000    26.6390000000
  258      C      24.2640000000    15.3920000000    27.0060000000
  259      H      23.1800000000    15.2520000000    26.9750000000
  260      H      24.7170000000    14.7900000000    26.2140000000
  261      H      24.6270000000    15.1060000000    27.9960000000
  262      O      23.4340000000    17.7340000000    27.4160000000
  263      C      30.3300000000    26.5270000000    18.5140000000
  264      H      30.8940000000    26.5260000000    17.5770000000
  265      H      29.3890000000    26.0040000000    18.3240000000
  266      H      30.2200000000    27.5610000000    18.8480000000
  267      S      31.2030000000    25.6160000000    19.8080000000
  268      C      31.1290000000    23.9990000000    19.0050000000
  269      H      31.3690000000    23.3070000000    19.8170000000
  270      H      30.0990000000    23.8880000000    18.6590000000
  271      H      31.8320000000    23.9940000000    18.1680000000
  272      O      30.2200000000    25.4420000000    20.9230000000
 ----------------------------------------------------------------
 Nuclear Repulsion Energy =       41440.48877393 hartrees
 There are      560 alpha and      560 beta electrons
 Requested basis set is 6-31+G(d)
 There are 896 shells and 2497 basis functions

 Total QAlloc Memory Limit  12000 MB
 Mega-Array Size      3911 MB
 MEM_STATIC part      4000 MB

 A cutoff of  1.0D-14 yielded 151455 shell pairs
 There are   1312759 function pairs
 Smallest overlap matrix eigenvalue = 6.53E-07
 Linear dependence detected in AO basis
 Tighter screening thresholds may be required for diffuse basis sets
 Use S2THRESH > 14 and THRESH = 14 in case of SCF convergence issues
 Number of orthogonalized atomic orbitals = 2495
 Maximum deviation from orthogonality = 9.606E-11

 Scale SEOQF with 1.000000e-03/1.000000e-03/1.000000e-03

 Standard Electronic Orientation quadrupole field applied
 Nucleus-field energy     =    -0.0000001794 hartrees
 Guess from superposition of atomic densities
 Warning:  Energy on first SCF cycle will be non-variational
 SAD guess density has 1120.000002 electrons

 -----------------------------------------------------------------------
  General SCF calculation program by
  Eric Jon Sundstrom, Paul Horn, Yuezhi Mao, Dmitri Zuev, Alec White,
  David Stuck, Shaama M.S., Shane Yost, Joonho Lee, David Small,
  Daniel Levine, Susi Lehtola, Hugh Burton, Evgeny Epifanovsky,
  Bang C. Huynh
 -----------------------------------------------------------------------
=================================================
        Doing projection-based embedding         
      F. Manby et al. JCTC, 8, 2564 (2012)       
=================================================

****************************************************
   Low-level SCF calculation for the whole system   
****************************************************
----------------------------------------------
 Summary of the low-level theory: 
 Exchange:     0.2000 Hartree-Fock + 0.0800 Slater + 0.7200 B88
 Correlation:  0.1900 VWN1RPA + 0.8100 LYP
 Using Euler-Maclaurin-Lebedev (75,302) quadrature formula
----------------------------------------------
 using 16 threads for integral computing
 -------------------------------------------------------
 OpenMP Integral computing Module                
 Release: version 1.0, May 2013, Q-Chem Inc. Pittsburgh 
 -------------------------------------------------------
 A restricted SCF calculation will be
 performed using DIIS
 SCF converges when DIIS error is below 1.0e-08
 ---------------------------------------
  Cycle       Energy         DIIS error
 ---------------------------------------
    1  -14252.1471779068      1.40e-02  
    2  -14229.7005707366      2.61e-03  
    3  -14206.6041136745      5.64e-03  
    4  -14226.0763931796      2.34e-03  
    5  -14233.8160075163      7.87e-04  
    6  -14234.2137849455      3.77e-04  
    7  -14234.2793310133      2.00e-04  
    8  -14234.3061717045      3.69e-05  
    9  -14234.3068500354      2.21e-05  
   10  -14234.3071368264      8.73e-06  
   11  -14234.3071862163      2.67e-06  
   12  -14234.3071905334      1.08e-06  
   13  -14234.3071912046      4.47e-07  
   14  -14234.3071913304      1.30e-07  
   15  -14234.3071913424      4.08e-08  
   16  -14234.3071913436      1.75e-08  
   17  -14234.3071913438      7.09e-09  Convergence criterion met
 ---------------------------------------
 SCF time:   CPU 251251.80s  wall 17906.00s 
 SCF   energy in the final basis set =   -14234.3071913438
 Total energy in the final basis set =   -14234.3071913438

****************************************************
             Start embedding calculation            
****************************************************
----------------------------------------------
 Summary of the high-level theory: 
 Exchange:     0.2000 Hartree-Fock + 0.0800 Slater + 0.7200 B88
 Correlation:  0.1900 VWN1RPA + 0.8100 LYP
 Using Euler-Maclaurin-Lebedev (75,302) quadrature formula
----------------------------------------------
Doing R-in-R Embedding Calculation
Number of fragments: 2
Embedded fragment(s): 1 
NOcc for each fragment
           35
          525
NBasis for each fragment
          197
         2300
Variational space of the embedded problem: 
NOcc (active)  = 35
NOcc (fixed)   = 525
NVir (total)   = 1935
Read converged orbitals from disk
=========================================================
       Doing SPADE partition for the orbital space       
     D. Claudino and N. Mayhall JCTC 15, 1053 (2019)     
=========================================================
SPADE singular values:
 1.0000 1.0000 1.0000 1.0000 1.0000 1.0000 1.0000 1.0000 1.0000 0.9999
 0.9998 0.9998 0.9997 0.9997 0.9996 0.9994 0.9993 0.9991 0.9989 0.9984
 0.9978 0.9975 0.9970 0.9964 0.9960 0.9958 0.9948 0.9942 0.9938 0.9930
 0.9920 0.9907 0.9900 0.9874 0.9803 0.2105 0.1864 0.1724 0.1598 0.1414
 0.1339 0.1285 0.1185 0.1091 0.1060 0.0961 0.0944 0.0822 0.0731 0.0624
 0.0581 0.0529 0.0511 0.0479 0.0450 0.0380 0.0335 0.0308 0.0301 0.0293
 0.0274 0.0244 0.0237 0.0226 0.0208 0.0195 0.0193 0.0186 0.0180 0.0158
 0.0147 0.0139 0.0135 0.0130 0.0118 0.0109 0.0103 0.0098 0.0096 0.0092
 0.0082 0.0078 0.0074 0.0074 0.0071 0.0067 0.0064 0.0063 0.0060 0.0057
 0.0055 0.0053 0.0051 0.0048 0.0045 0.0041 0.0038 0.0036 0.0035 0.0033
 0.0031 0.0030 0.0028 0.0027 0.0025 0.0024 0.0023 0.0021 0.0020 0.0019
 0.0018 0.0018 0.0018 0.0017 0.0016 0.0016 0.0015 0.0015 0.0014 0.0014
 0.0013 0.0013 0.0012 0.0012 0.0011 0.0011 0.0010 0.0010 0.0010 0.0009
 0.0009 0.0008 0.0008 0.0008 0.0008 0.0007 0.0007 0.0007 0.0007 0.0006
 0.0006 0.0006 0.0006 0.0005 0.0005 0.0005 0.0005 0.0004 0.0004 0.0004
 0.0004 0.0004 0.0004 0.0003 0.0003 0.0003 0.0003 0.0003 0.0003 0.0002
 0.0002 0.0002 0.0002 0.0002 0.0002 0.0002 0.0002 0.0002 0.0002 0.0002
 0.0002 0.0002 0.0002 0.0001 0.0001 0.0001 0.0001 0.0001 0.0001 0.0001
 0.0001 0.0001 0.0001 0.0001 0.0001 0.0001 0.0001 0.0001 0.0001 0.0001
 0.0001 0.0001 0.0001 0.0001 0.0001 0.0000 0.0000
Early stop requested; no embedded SCF will be performed

 525 environment occs will be part of frozen-core in future post-HF calculations

 --------------------------------------------------------------

                    Orbital Energies (a.u.)
 --------------------------------------------------------------

 Alpha MOs
 -- Occupied --
-89.0400 -89.0379 -89.0277 -89.0270 -89.0267 -89.0242 -89.0239 -89.0238
-89.0231 -89.0205 -89.0172 -89.0141 -89.0130 -89.0090 -89.0050 -88.9995
-88.9885 -88.9779 -88.9772 -88.9697 -88.9666 -88.9589 -88.9578 -88.9578
-88.9528 -19.1596 -19.1548 -19.1506 -19.1499 -19.1451 -19.1410 -19.1366
-19.1346 -19.1328 -19.1262 -19.1225 -19.1213 -19.1191 -19.1123 -19.1115
-19.1075 -19.0987 -19.0965 -19.0867 -19.0825 -19.0791 -19.0752 -19.0719
-19.0692 -19.0633 -10.2638 -10.2609 -10.2578 -10.2514 -10.2491 -10.2473
-10.2466 -10.2442 -10.2437 -10.2429 -10.2428 -10.2423 -10.2409 -10.2406
-10.2402 -10.2381 -10.2365 -10.2349 -10.2329 -10.2321 -10.2313 -10.2312
-10.2307 -10.2295 -10.2268 -10.2260 -10.2213 -10.2205 -10.2190 -10.2189
-10.2112 -10.2104 -10.2098 -10.2050 -10.2015 -10.1994 -10.1938 -10.1922
-10.1906 -10.1901 -10.1884 -10.1880 -10.1836 -10.1824 -10.1781 -10.1736
-10.1733 -10.1727 -10.1718 -10.1622  -8.0862  -8.0845  -8.0735  -8.0729
 -8.0729  -8.0696  -8.0695  -8.0695  -8.0693  -8.0666  -8.0624  -8.0593
 -8.0590  -8.0548  -8.0514  -8.0456  -8.0343  -8.0238  -8.0227  -8.0159
 -8.0130  -8.0054  -8.0035  -8.0034  -7.9993  -6.0505  -6.0492  -6.0491
 -6.0478  -6.0437  -6.0413  -6.0381  -6.0372  -6.0372  -6.0367  -6.0361
 -6.0359  -6.0340  -6.0338  -6.0337  -6.0336  -6.0328  -6.0326  -6.0325
 -6.0325  -6.0309  -6.0306  -6.0303  -6.0303  -6.0296  -6.0274  -6.0269
 -6.0268  -6.0267  -6.0266  -6.0255  -6.0242  -6.0235  -6.0232  -6.0225
 -6.0222  -6.0203  -6.0191  -6.0180  -6.0167  -6.0165  -6.0154  -6.0144
 -6.0125  -6.0101  -6.0091  -6.0085  -6.0031  -5.9986  -5.9973  -5.9920
 -5.9880  -5.9871  -5.9870  -5.9859  -5.9811  -5.9802  -5.9801  -5.9791
 -5.9771  -5.9762  -5.9730  -5.9704  -5.9697  -5.9686  -5.9677  -5.9676
 -5.9667  -5.9667  -5.9636  -5.9627  -5.9625  -5.9612  -5.9610  -5.9564
 -1.0657  -1.0654  -1.0571  -1.0548  -1.0527  -1.0506  -1.0470  -1.0461
 -1.0461  -1.0443  -1.0345  -1.0332  -1.0309  -1.0292  -1.0239  -1.0227
 -1.0108  -1.0003  -0.9966  -0.9959  -0.9915  -0.9834  -0.9799  -0.9799
 -0.9774  -0.8438  -0.8372  -0.8355  -0.8333  -0.8315  -0.8272  -0.8261
 -0.8228  -0.8193  -0.8173  -0.8137  -0.8113  -0.8095  -0.8070  -0.8004
 -0.7996  -0.7923  -0.7838  -0.7778  -0.7773  -0.7761  -0.7673  -0.7637
 -0.7627  -0.7580  -0.7564  -0.7562  -0.7559  -0.7553  -0.7546  -0.7537
 -0.7532  -0.7514  -0.7506  -0.7488  -0.7412  -0.7395  -0.7364  -0.7338
 -0.7283  -0.7243  -0.7163  -0.7122  -0.7077  -0.7037  -0.6998  -0.6962
 -0.6927  -0.6888  -0.6823  -0.6520  -0.6519  -0.6468  -0.6408  -0.6407
 -0.6373  -0.6370  -0.6348  -0.6323  -0.6306  -0.6302  -0.6277  -0.6256
 -0.6209  -0.6192  -0.6132  -0.6006  -0.5927  -0.5870  -0.5853  -0.5798
 -0.5713  -0.5710  -0.5680  -0.5673  -0.5211  -0.5165  -0.5150  -0.5147
 -0.5136  -0.5098  -0.5083  -0.5065  -0.5062  -0.5047  -0.5037  -0.5033
 -0.5007  -0.5003  -0.4993  -0.4991  -0.4982  -0.4975  -0.4962  -0.4956
 -0.4946  -0.4939  -0.4927  -0.4918  -0.4917  -0.4907  -0.4899  -0.4890
 -0.4873  -0.4865  -0.4855  -0.4842  -0.4825  -0.4815  -0.4798  -0.4797
 -0.4791  -0.4784  -0.4777  -0.4767  -0.4745  -0.4737  -0.4733  -0.4716
 -0.4703  -0.4671  -0.4668  -0.4658  -0.4632  -0.4627  -0.4620  -0.4601
 -0.4596  -0.4590  -0.4589  -0.4587  -0.4575  -0.4574  -0.4558  -0.4551
 -0.4548  -0.4536  -0.4532  -0.4525  -0.4518  -0.4515  -0.4508  -0.4503
 -0.4493  -0.4491  -0.4474  -0.4473  -0.4466  -0.4464  -0.4451  -0.4451
 -0.4432  -0.4426  -0.4406  -0.4401  -0.4389  -0.4385  -0.4381  -0.4379
 -0.4376  -0.4365  -0.4356  -0.4348  -0.4335  -0.4329  -0.4316  -0.4302
 -0.4295  -0.4291  -0.4289  -0.4283  -0.4280  -0.4277  -0.4275  -0.4271
 -0.4256  -0.4228  -0.4226  -0.4223  -0.4217  -0.4205  -0.4199  -0.4194
 -0.4189  -0.4174  -0.4163  -0.4153  -0.4143  -0.4134  -0.4105  -0.4095
 -0.4086  -0.4084  -0.4075  -0.4075  -0.4057  -0.4053  -0.4043  -0.4034
 -0.4030  -0.4022  -0.4008  -0.4002  -0.3988  -0.3975  -0.3957  -0.3951
 -0.3946  -0.3928  -0.3922  -0.3921  -0.3915  -0.3905  -0.3889  -0.3875
 -0.3868  -0.3866  -0.3857  -0.3842  -0.3839  -0.3828  -0.3800  -0.3799
 -0.3788  -0.3770  -0.3761  -0.3752  -0.3747  -0.3727  -0.3720  -0.3700
 -0.3678  -0.3669  -0.3652  -0.3650  -0.3640  -0.3596  -0.3579  -0.3566
 -0.3540  -0.3514  -0.3483  -0.3423  -0.3396  -0.3345  -0.3296  -0.3244
 -0.3200  -0.3192  -0.3189  -0.3179  -0.3155  -0.3151  -0.3116  -0.3036
 -0.3027  -0.3000  -0.2953  -0.2890  -0.2885  -0.2846  -0.2834  -0.2804
 -0.2779  -0.2756  -0.2740  -0.2709  -0.2707  -0.2701  -0.2701  -0.2664
 -0.2660  -0.2628  -0.2609  -0.2599  -0.2572  -0.2568  -0.2555  -0.2550
 -0.2513  -0.2487  -0.2478  -0.2453  -0.2427  -0.2414  -0.2411  -0.2406
 -0.2363  -0.2333  -0.2308  -0.2299  -0.2231  -0.2182  -0.2115  -0.2098
 -0.2077  -0.1991  -0.1954  -0.1946  -0.1902 -10.2111 -10.7567 -11.1940
-11.3790 -18.2036 -11.1932 -10.2887 -10.1219 -10.5480  -0.8614  -0.7256
 -0.7011  -0.8221  -0.8826  -0.6335  -0.6571  -0.4802  -0.8509  -0.4555
 -0.4377  -0.4853  -0.4498  -0.3916  -0.4535  -0.4299  -0.4313  -0.4288
 -0.4315  -0.4283  -0.4139  -0.4044  -0.5110  -0.5330  -0.5121  -0.5856
 -- Virtual --
 -0.0488  -0.0462  -0.0399  -0.0387  -0.0362  -0.0350  -0.0340  -0.0330
 -0.0309  -0.0280  -0.0276  -0.0270  -0.0242  -0.0231  -0.0223  -0.0214
 -0.0208  -0.0190  -0.0185  -0.0156  -0.0146  -0.0132  -0.0124  -0.0117
 -0.0113  -0.0096  -0.0079  -0.0072  -0.0065  -0.0062  -0.0059  -0.0053
 -0.0045  -0.0033  -0.0022  -0.0017  -0.0012   0.0006   0.0008   0.0014
  0.0020   0.0023   0.0028   0.0046   0.0053   0.0066   0.0081   0.0090
  0.0095   0.0098   0.0109   0.0116   0.0140   0.0146   0.0154   0.0164
  0.0171   0.0179   0.0191   0.0201   0.0209   0.0215   0.0229   0.0234
  0.0236   0.0250   0.0256   0.0260   0.0270   0.0276   0.0283   0.0287
  0.0298   0.0305   0.0306   0.0318   0.0327   0.0333   0.0339   0.0343
  0.0352   0.0357   0.0367   0.0371   0.0381   0.0386   0.0393   0.0400
  0.0404   0.0415   0.0421   0.0426   0.0429   0.0440   0.0442   0.0447
  0.0465   0.0467   0.0470   0.0474   0.0480   0.0485   0.0491   0.0497
  0.0503   0.0510   0.0520   0.0524   0.0530   0.0536   0.0543   0.0547
  0.0551   0.0557   0.0564   0.0573   0.0575   0.0584   0.0586   0.0603
  0.0604   0.0608   0.0618   0.0622   0.0627   0.0638   0.0644   0.0656
  0.0660   0.0667   0.0672   0.0679   0.0685   0.0692   0.0696   0.0697
  0.0705   0.0708   0.0713   0.0727   0.0731   0.0736   0.0742   0.0746
  0.0749   0.0758   0.0769   0.0779   0.0782   0.0791   0.0796   0.0801
  0.0804   0.0816   0.0819   0.0824   0.0836   0.0840   0.0848   0.0863
  0.0868   0.0874   0.0878   0.0881   0.0886   0.0901   0.0906   0.0910
  0.0916   0.0924   0.0929   0.0941   0.0952   0.0956   0.0965   0.0966
  0.0975   0.0988   0.0992   0.1000   0.1005   0.1015   0.1020   0.1031
  0.1036   0.1042   0.1050   0.1056   0.1060   0.1066   0.1068   0.1071
  0.1076   0.1087   0.1092   0.1095   0.1105   0.1113   0.1117   0.1118
  0.1129   0.1130   0.1137   0.1141   0.1151   0.1154   0.1162   0.1169
  0.1173   0.1174   0.1189   0.1196   0.1203   0.1211   0.1213   0.1225
  0.1232   0.1241   0.1246   0.1255   0.1256   0.1260   0.1274   0.1284
  0.1294   0.1297   0.1301   0.1303   0.1310   0.1322   0.1326   0.1328
  0.1343   0.1346   0.1353   0.1363   0.1364   0.1375   0.1381   0.1383
  0.1391   0.1395   0.1409   0.1416   0.1421   0.1427   0.1430   0.1436
  0.1445   0.1445   0.1460   0.1463   0.1467   0.1475   0.1488   0.1492
  0.1502   0.1505   0.1511   0.1516   0.1526   0.1534   0.1538   0.1541
  0.1551   0.1559   0.1561   0.1570   0.1572   0.1589   0.1591   0.1593
  0.1603   0.1608   0.1614   0.1626   0.1632   0.1637   0.1641   0.1651
  0.1658   0.1668   0.1673   0.1677   0.1686   0.1689   0.1692   0.1699
  0.1703   0.1707   0.1724   0.1731   0.1735   0.1745   0.1748   0.1752
  0.1760   0.1771   0.1775   0.1781   0.1790   0.1791   0.1799   0.1803
  0.1814   0.1821   0.1822   0.1830   0.1835   0.1838   0.1847   0.1854
  0.1856   0.1861   0.1870   0.1878   0.1884   0.1888   0.1890   0.1903
  0.1908   0.1913   0.1916   0.1922   0.1928   0.1935   0.1941   0.1949
  0.1950   0.1954   0.1968   0.1974   0.1975   0.1985   0.1994   0.2000
  0.2003   0.2014   0.2019   0.2026   0.2028   0.2038   0.2043   0.2049
  0.2058   0.2064   0.2072   0.2078   0.2080   0.2091   0.2095   0.2101
  0.2103   0.2112   0.2119   0.2121   0.2126   0.2139   0.2142   0.2152
  0.2163   0.2168   0.2171   0.2177   0.2187   0.2190   0.2199   0.2204
  0.2208   0.2219   0.2229   0.2240   0.2241   0.2245   0.2248   0.2258
  0.2262   0.2269   0.2282   0.2286   0.2300   0.2310   0.2313   0.2319
  0.2334   0.2336   0.2339   0.2351   0.2354   0.2358   0.2362   0.2372
  0.2377   0.2389   0.2394   0.2402   0.2406   0.2408   0.2414   0.2425
  0.2434   0.2453   0.2455   0.2460   0.2463   0.2472   0.2487   0.2491
  0.2493   0.2507   0.2511   0.2518   0.2521   0.2537   0.2545   0.2548
  0.2554   0.2569   0.2581   0.2585   0.2595   0.2608   0.2612   0.2625
  0.2627   0.2630   0.2638   0.2644   0.2653   0.2660   0.2669   0.2681
  0.2690   0.2697   0.2707   0.2717   0.2723   0.2725   0.2733   0.2739
  0.2752   0.2772   0.2776   0.2783   0.2787   0.2808   0.2814   0.2818
  0.2829   0.2839   0.2850   0.2854   0.2859   0.2871   0.2873   0.2883
  0.2891   0.2899   0.2911   0.2914   0.2921   0.2930   0.2935   0.2956
  0.2959   0.2977   0.2984   0.2994   0.2998   0.3009   0.3021   0.3029
  0.3038   0.3041   0.3057   0.3060   0.3064   0.3075   0.3082   0.3085
  0.3094   0.3111   0.3114   0.3120   0.3131   0.3141   0.3146   0.3159
  0.3161   0.3173   0.3178   0.3188   0.3204   0.3211   0.3219   0.3228
  0.3233   0.3242   0.3249   0.3256   0.3275   0.3278   0.3289   0.3295
  0.3318   0.3321   0.3325   0.3337   0.3341   0.3354   0.3365   0.3371
  0.3372   0.3382   0.3389   0.3395   0.3399   0.3415   0.3420   0.3430
  0.3437   0.3454   0.3458   0.3470   0.3474   0.3475   0.3498   0.3501
  0.3513   0.3524   0.3530   0.3551   0.3556   0.3562   0.3564   0.3573
  0.3587   0.3599   0.3601   0.3613   0.3616   0.3644   0.3648   0.3654
  0.3661   0.3665   0.3670   0.3691   0.3700   0.3705   0.3712   0.3720
  0.3725   0.3731   0.3739   0.3754   0.3773   0.3783   0.3785   0.3788
  0.3797   0.3814   0.3817   0.3830   0.3832   0.3849   0.3856   0.3863
  0.3873   0.3884   0.3890   0.3901   0.3906   0.3918   0.3923   0.3940
  0.3947   0.3956   0.3958   0.3967   0.3979   0.3986   0.3991   0.3998
  0.4012   0.4026   0.4034   0.4040   0.4058   0.4068   0.4076   0.4085
  0.4093   0.4108   0.4121   0.4125   0.4129   0.4139   0.4146   0.4151
  0.4178   0.4183   0.4207   0.4216   0.4225   0.4230   0.4239   0.4250
  0.4253   0.4262   0.4279   0.4293   0.4310   0.4317   0.4324   0.4333
  0.4346   0.4353   0.4359   0.4375   0.4386   0.4410   0.4422   0.4424
  0.4428   0.4442   0.4462   0.4473   0.4487   0.4493   0.4513   0.4525
  0.4549   0.4561   0.4564   0.4577   0.4586   0.4607   0.4623   0.4629
  0.4638   0.4652   0.4666   0.4675   0.4691   0.4704   0.4725   0.4733
  0.4748   0.4771   0.4785   0.4799   0.4815   0.4826   0.4851   0.4866
  0.4869   0.4890   0.4891   0.4903   0.4927   0.4936   0.4940   0.4968
  0.4999   0.5012   0.5021   0.5026   0.5033   0.5071   0.5100   0.5120
  0.5123   0.5149   0.5159   0.5171   0.5188   0.5190   0.5218   0.5238
  0.5246   0.5252   0.5277   0.5292   0.5316   0.5339   0.5356   0.5360
  0.5386   0.5400   0.5411   0.5432   0.5448   0.5479   0.5495   0.5506
  0.5510   0.5547   0.5566   0.5569   0.5573   0.5613   0.5614   0.5645
  0.5655   0.5675   0.5693   0.5705   0.5721   0.5739   0.5749   0.5761
  0.5773   0.5782   0.5826   0.5832   0.5852   0.5860   0.5882   0.5895
  0.5906   0.5913   0.5923   0.5935   0.5956   0.5964   0.5979   0.5993
  0.6002   0.6019   0.6040   0.6059   0.6069   0.6081   0.6085   0.6094
  0.6110   0.6121   0.6126   0.6148   0.6161   0.6170   0.6184   0.6194
  0.6204   0.6217   0.6225   0.6230   0.6253   0.6271   0.6282   0.6286
  0.6297   0.6321   0.6328   0.6346   0.6350   0.6362   0.6382   0.6392
  0.6402   0.6418   0.6437   0.6446   0.6448   0.6474   0.6483   0.6496
  0.6503   0.6519   0.6530   0.6543   0.6544   0.6564   0.6573   0.6584
  0.6602   0.6618   0.6628   0.6632   0.6635   0.6660   0.6671   0.6684
  0.6704   0.6713   0.6716   0.6725   0.6745   0.6750   0.6759   0.6788
  0.6793   0.6809   0.6821   0.6828   0.6838   0.6870   0.6876   0.6892
  0.6901   0.6910   0.6919   0.6932   0.6938   0.6957   0.6967   0.6974
  0.6986   0.7007   0.7015   0.7026   0.7036   0.7043   0.7064   0.7093
  0.7105   0.7119   0.7134   0.7148   0.7159   0.7169   0.7192   0.7200
  0.7216   0.7231   0.7241   0.7262   0.7274   0.7283   0.7293   0.7309
  0.7331   0.7349   0.7358   0.7374   0.7382   0.7402   0.7418   0.7426
  0.7440   0.7451   0.7460   0.7470   0.7495   0.7515   0.7524   0.7542
  0.7550   0.7566   0.7581   0.7592   0.7597   0.7631   0.7632   0.7664
  0.7668   0.7679   0.7700   0.7709   0.7724   0.7733   0.7756   0.7761
  0.7775   0.7797   0.7811   0.7815   0.7827   0.7847   0.7857   0.7870
  0.7885   0.7907   0.7917   0.7928   0.7958   0.7966   0.7983   0.7993
  0.8032   0.8037   0.8047   0.8054   0.8076   0.8091   0.8098   0.8124
  0.8128   0.8146   0.8182   0.8203   0.8220   0.8237   0.8256   0.8266
  0.8280   0.8296   0.8307   0.8324   0.8334   0.8351   0.8359   0.8371
  0.8389   0.8407   0.8418   0.8437   0.8454   0.8457   0.8465   0.8486
  0.8491   0.8500   0.8510   0.8534   0.8539   0.8569   0.8570   0.8575
  0.8589   0.8608   0.8635   0.8641   0.8654   0.8678   0.8699   0.8709
  0.8713   0.8737   0.8751   0.8762   0.8776   0.8792   0.8799   0.8811
  0.8820   0.8835   0.8857   0.8864   0.8872   0.8884   0.8889   0.8902
  0.8912   0.8929   0.8936   0.8952   0.8968   0.8979   0.8985   0.9003
  0.9017   0.9021   0.9029   0.9051   0.9075   0.9083   0.9086   0.9097
  0.9111   0.9140   0.9151   0.9157   0.9163   0.9183   0.9194   0.9207
  0.9212   0.9218   0.9223   0.9250   0.9257   0.9271   0.9286   0.9299
  0.9301   0.9317   0.9326   0.9332   0.9332   0.9358   0.9371   0.9379
  0.9382   0.9414   0.9418   0.9434   0.9444   0.9452   0.9461   0.9475
  0.9480   0.9492   0.9499   0.9527   0.9534   0.9555   0.9560   0.9576
  0.9579   0.9597   0.9606   0.9615   0.9638   0.9640   0.9665   0.9687
  0.9688   0.9695   0.9703   0.9724   0.9738   0.9745   0.9760   0.9766
  0.9781   0.9799   0.9802   0.9807   0.9825   0.9836   0.9840   0.9856
  0.9866   0.9880   0.9890   0.9895   0.9899   0.9918   0.9925   0.9935
  0.9941   0.9958   0.9963   0.9984   0.9993   1.0000   1.0015   1.0017
  1.0039   1.0047   1.0067   1.0073   1.0078   1.0094   1.0106   1.0126
  1.0147   1.0159   1.0168   1.0180   1.0198   1.0209   1.0216   1.0236
  1.0250   1.0261   1.0264   1.0290   1.0304   1.0308   1.0335   1.0340
  1.0358   1.0365   1.0377   1.0398   1.0400   1.0412   1.0417   1.0444
  1.0457   1.0466   1.0479   1.0498   1.0506   1.0527   1.0540   1.0560
  1.0566   1.0581   1.0593   1.0609   1.0620   1.0632   1.0652   1.0665
  1.0677   1.0693   1.0714   1.0729   1.0735   1.0736   1.0762   1.0779
  1.0785   1.0812   1.0827   1.0829   1.0847   1.0861   1.0872   1.0895
  1.0910   1.0922   1.0931   1.0935   1.0943   1.0961   1.0985   1.0991
  1.1008   1.1030   1.1046   1.1060   1.1081   1.1097   1.1103   1.1109
  1.1118   1.1141   1.1152   1.1164   1.1180   1.1194   1.1206   1.1222
  1.1236   1.1241   1.1250   1.1266   1.1277   1.1305   1.1324   1.1330
  1.1340   1.1355   1.1364   1.1383   1.1397   1.1406   1.1428   1.1446
  1.1455   1.1485   1.1492   1.1499   1.1506   1.1513   1.1532   1.1537
  1.1553   1.1558   1.1579   1.1599   1.1617   1.1629   1.1656   1.1669
  1.1688   1.1708   1.1714   1.1730   1.1754   1.1774   1.1784   1.1791
  1.1806   1.1830   1.1831   1.1855   1.1863   1.1894   1.1901   1.1917
  1.1923   1.1951   1.1958   1.1989   1.1989   1.2006   1.2025   1.2045
  1.2078   1.2079   1.2100   1.2113   1.2147   1.2151   1.2168   1.2205
  1.2218   1.2226   1.2235   1.2257   1.2275   1.2293   1.2329   1.2341
  1.2392   1.2421   1.2431   1.2445   1.2470   1.2491   1.2509   1.2524
  1.2568   1.2594   1.2619   1.2630   1.2646   1.2656   1.2669   1.2709
  1.2745   1.2764   1.2790   1.2805   1.2828   1.2849   1.2901   1.2931
  1.2938   1.2984   1.2999   1.3018   1.3025   1.3043   1.3047   1.3070
  1.3104   1.3132   1.3150   1.3161   1.3215   1.3238   1.3260   1.3292
  1.3314   1.3323   1.3341   1.3367   1.3391   1.3397   1.3422   1.3438
  1.3455   1.3474   1.3478   1.3484   1.3501   1.3531   1.3542   1.3566
  1.3589   1.3615   1.3637   1.3645   1.3661   1.3672   1.3699   1.3722
  1.3735   1.3759   1.3782   1.3804   1.3817   1.3837   1.3840   1.3856
  1.3879   1.3891   1.3898   1.3913   1.3917   1.3931   1.3939   1.3948
  1.3968   1.3982   1.3996   1.4004   1.4014   1.4037   1.4071   1.4076
  1.4097   1.4111   1.4121   1.4140   1.4159   1.4165   1.4190   1.4203
  1.4215   1.4223   1.4241   1.4253   1.4298   1.4301   1.4329   1.4353
  1.4365   1.4389   1.4403   1.4423   1.4448   1.4453   1.4470   1.4483
  1.4511   1.4523   1.4526   1.4546   1.4551   1.4562   1.4592   1.4596
  1.4606   1.4649   1.4668   1.4674   1.4703   1.4717   1.4754   1.4766
  1.4770   1.4791   1.4828   1.4851   1.4870   1.4879   1.4900   1.4920
  1.4953   1.4962   1.4992   1.5022   1.5039   1.5058   1.5076   1.5095
  1.5125   1.5139   1.5168   1.5184   1.5226   1.5236   1.5250   1.5257
  1.5318   1.5338   1.5342   1.5381   1.5404   1.5470   1.5529   1.5534
  1.5572   1.5588   1.5620   1.5665   1.5682   1.5754   1.5807   1.5823
  1.5845   1.5863   1.6013   1.6091   1.6115   1.6129   1.6173   1.6216
  1.6226   1.6248   1.6277   1.6357   1.6375   1.6425   1.6429   1.6450
  1.6453   1.6470   1.6503   1.6515   1.6531   1.6539   1.6559   1.6585
  1.6589   1.6625   1.6639   1.6643   1.6648   1.6673   1.6696   1.6708
  1.6722   1.6731   1.6761   1.6779   1.6822   1.6835   1.6876   1.6887
  1.6890   1.6906   1.6912   1.6931   1.6943   1.6962   1.6976   1.6988
  1.6997   1.7009   1.7023   1.7029   1.7052   1.7062   1.7067   1.7080
  1.7118   1.7124   1.7129   1.7151   1.7184   1.7188   1.7207   1.7219
  1.7232   1.7258   1.7268   1.7283   1.7290   1.7298   1.7309   1.7320
  1.7324   1.7337   1.7347   1.7354   1.7371   1.7374   1.7388   1.7395
  1.7416   1.7431   1.7462   1.7482   1.7498   1.7512   1.7526   1.7539
  1.7558   1.7594   1.7598   1.7662   1.7680   1.7697   1.7724   1.7728
  1.7747   1.7764   1.7783   1.7793   1.7818   1.7837   1.7863   1.7870
  1.7895   1.7946   1.7964   1.7978   1.8017   1.8030   1.8068   1.8082
  1.8113   1.8122   1.8141   1.8165   1.8180   1.8208   1.8234   1.8287
  1.8293   1.8318   1.8324   1.8371   1.8384   1.8410   1.8418   1.8425
  1.8458   1.8477   1.8492   1.8511   1.8539   1.8563   1.8587   1.8617
  1.8626   1.8645   1.8685   1.8696   1.8718   1.8746   1.8762   1.8788
  1.8818   1.8828   1.8851   1.8870   1.8881   1.8890   1.8894   1.8904
  1.8921   1.8938   1.8941   1.8951   1.8976   1.8986   1.9005   1.9033
  1.9045   1.9057   1.9066   1.9079   1.9094   1.9119   1.9125   1.9158
  1.9163   1.9170   1.9186   1.9189   1.9206   1.9213   1.9225   1.9240
  1.9271   1.9336   1.9357   1.9372   1.9383   1.9411   1.9448   1.9451
  1.9503   1.9533   1.9555   1.9584   1.9607   1.9638   1.9669   1.9713
  1.9793   1.9845   1.9878   1.9965   1.9993   2.0024   2.0137   2.0172
  2.0206   2.0265   2.0271   2.0294   2.0326   2.0354   2.0413   2.0424
  2.0471   2.0476   2.0499   2.0507   2.0541   2.0572   2.0592   2.0621
  2.0638   2.0682   2.0688   2.0701   2.0732   2.0742   2.0753   2.0766
  2.0773   2.0781   2.0801   2.0815   2.0833   2.0844   2.0846   2.0864
  2.0876   2.0899   2.0910   2.0923   2.0962   2.0980   2.0988   2.1006
  2.1034   2.1046   2.1050   2.1066   2.1102   2.1123   2.1133   2.1166
  2.1193   2.1219   2.1262   2.1292   2.1308   2.1316   2.1337   2.1397
  2.1401   2.1440   2.1468   2.1488   2.1542   2.1580   2.1605   2.1618
  2.1663   2.1681   2.1721   2.1815   2.1849   2.1875   2.1885   2.1894
  2.1924   2.1933   2.1965   2.1970   2.1988   2.1997   2.2024   2.2026
  2.2042   2.2081   2.2097   2.2116   2.2132   2.2137   2.2143   2.2156
  2.2168   2.2178   2.2191   2.2192   2.2202   2.2220   2.2226   2.2252
  2.2261   2.2289   2.2306   2.2318   2.2331   2.2349   2.2373   2.2375
  2.2389   2.2398   2.2414   2.2425   2.2432   2.2442   2.2457   2.2465
  2.2476   2.2483   2.2491   2.2500   2.2508   2.2513   2.2522   2.2536
  2.2541   2.2567   2.2581   2.2587   2.2600   2.2618   2.2628   2.2642
  2.2648   2.2652   2.2664   2.2666   2.2675   2.2690   2.2694   2.2704
  2.2719   2.2723   2.2728   2.2751   2.2756   2.2763   2.2775   2.2784
  2.2791   2.2799   2.2816   2.2823   2.2835   2.2848   2.2857   2.2868
  2.2868   2.2881   2.2888   2.2894   2.2926   2.2931   2.2952   2.2959
  2.2980   2.2983   2.2998   2.3007   2.3023   2.3033   2.3042   2.3077
  2.3106   2.3113   2.3124   2.3132   2.3145   2.3154   2.3165   2.3187
  2.3192   2.3226   2.3233   2.3250   2.3255   2.3274   2.3289   2.3298
  2.3320   2.3337   2.3362   2.3379   2.3389   2.3426   2.3429   2.3456
  2.3459   2.3483   2.3498   2.3508   2.3525   2.3544   2.3560   2.3583
  2.3629   2.3633   2.3671   2.3691   2.3718   2.3743   2.3777   2.3814
  2.3831   2.3903   2.3920   2.3961   2.4009   2.4121   2.4178   2.4366
  2.4482   2.4605   2.4730   2.5106   2.5120   2.5958   2.6881   2.7175
  2.7295   2.7498   2.7942   2.7997   2.8084   2.8120   2.8129   2.8159
  2.8182   2.8302   2.8309   2.8351   2.8362   2.8447   2.8463   2.8468
  2.8542   2.8549   2.8610   2.8637   2.8657   2.8675   2.8716   2.8722
  2.8781   2.8792   2.8853   2.8896   2.8956   2.9116   2.9204   2.9513
  3.0906   3.2791   3.9341   3.9352   3.9462   3.9479   3.9489   3.9500
  3.9524   3.9627   3.9648   3.9707   3.9718   3.9731   3.9794   3.9856
  3.9895   3.9912   3.9939   3.9988   4.0012   4.0051   4.0086   4.0138
  4.0208   4.0242   4.0382   4.1905   4.1912   4.2044   4.2109   4.2135
  4.2141   4.2194   4.2228   4.2237   4.2282   4.2292   4.2360   4.2405
  4.2485   4.2515   4.2536   4.2560   4.2569   4.2580   4.2622   4.2632
  4.2682   4.2697   4.2714   4.2756   4.2766   4.2793   4.2818   4.2862
  4.2871   4.2887   4.2921   4.2927   4.2993   4.2999   4.3018   4.3042
  4.3083   4.3086   4.3126   4.3153   4.3170   4.3192   4.3231   4.3238
  4.3252   4.3317   4.3357   4.3360   4.3393   4.3427   4.3467   4.3510
  4.3513   4.3598   4.3614   4.3641   4.3676   4.3688   4.3749   4.3784
  4.3809   4.3852   4.3900   4.4035   4.4112   4.4224   4.4255   4.4288
  4.4348   4.4588   4.4636   4.4701   4.4854   4.5027   4.5110   4.5505
  4.5818   4.6179   4.6644   4.6926   4.6974   4.7612   4.9088
 --------------------------------------------------------------

          Ground-State Mulliken Net Atomic Charges

     Atom                 Charge (a.u.)
  ----------------------------------------
      1 C                    -0.421036
      2 C                    -0.457147
      3 C                    -0.293426
      4 C                    -0.346383
      5 C                    -0.548443
      6 C                    -0.568260
      7 H                     0.232053
      8 H                     0.206233
      9 H                     0.197941
     10 H                     0.179511
     11 H                     0.240110
     12 H                     0.216316
     13 H                     0.214450
     14 H                     0.191849
     15 H                     0.245400
     16 H                     0.190446
     17 H                     0.192522
     18 N                     0.057948
     19 H                     0.488199
     20 C                    -0.376467
     21 H                     0.184974
     22 O                    -0.175528
     23 C                    -0.969520
     24 H                     0.263446
     25 H                     0.297724
     26 H                     0.235701
     27 S                     0.997493
     28 C                    -0.931849
     29 H                     0.254689
     30 H                     0.212179
     31 H                     0.264726
     32 O                    -0.665293
     33 C                    -0.864552
     34 H                     0.228894
     35 H                     0.237765
     36 H                     0.254601
     37 S                     1.016417
     38 C                    -0.968651
     39 H                     0.259261
     40 H                     0.264507
     41 H                     0.229060
     42 O                    -0.728059
     43 C                    -0.773620
     44 H                     0.259641
     45 H                     0.221053
     46 H                     0.258215
     47 S                     0.826152
     48 C                    -0.785010
     49 H                     0.285468
     50 H                     0.240191
     51 H                     0.233429
     52 O                    -0.682569
     53 C                    -0.997288
     54 H                     0.233626
     55 H                     0.327806
     56 H                     0.239956
     57 S                     1.144830
     58 C                    -0.986572
     59 H                     0.263197
     60 H                     0.232920
     61 H                     0.261189
     62 O                    -0.687041
     63 C                    -0.924287
     64 H                     0.257092
     65 H                     0.210367
     66 H                     0.310592
     67 S                     0.832035
     68 C                    -0.816102
     69 H                     0.251524
     70 H                     0.242246
     71 H                     0.251789
     72 O                    -0.633576
     73 C                    -0.914043
     74 H                     0.241574
     75 H                     0.251325
     76 H                     0.251578
     77 S                     1.162285
     78 C                    -1.037394
     79 H                     0.250110
     80 H                     0.273973
     81 H                     0.258798
     82 O                    -0.722736
     83 C                    -0.798899
     84 H                     0.248323
     85 H                     0.250640
     86 H                     0.236008
     87 S                     0.908046
     88 C                    -0.813903
     89 H                     0.220608
     90 H                     0.243526
     91 H                     0.258980
     92 O                    -0.719272
     93 C                    -0.864559
     94 H                     0.263206
     95 H                     0.238642
     96 H                     0.248612
     97 S                     0.910113
     98 C                    -0.836047
     99 H                     0.227530
    100 H                     0.258009
    101 H                     0.269921
    102 O                    -0.701606
    103 C                    -0.820372
    104 H                     0.263985
    105 H                     0.229787
    106 H                     0.274035
    107 S                     0.774673
    108 C                    -0.831474
    109 H                     0.263357
    110 H                     0.264178
    111 H                     0.277493
    112 O                    -0.698823
    113 C                    -1.138327
    114 H                     0.268791
    115 H                     0.279814
    116 H                     0.262357
    117 S                     1.470456
    118 C                    -1.189253
    119 H                     0.252953
    120 H                     0.252496
    121 H                     0.302077
    122 O                    -0.730248
    123 C                    -0.960779
    124 H                     0.292216
    125 H                     0.301199
    126 H                     0.233208
    127 S                     1.085768
    128 C                    -1.075145
    129 H                     0.259734
    130 H                     0.282538
    131 H                     0.270744
    132 O                    -0.683669
    133 C                    -0.961814
    134 H                     0.252822
    135 H                     0.211994
    136 H                     0.268327
    137 S                     1.205477
    138 C                    -1.095953
    139 H                     0.305847
    140 H                     0.316838
    141 H                     0.250550
    142 O                    -0.687624
    143 C                    -0.805743
    144 H                     0.277967
    145 H                     0.257096
    146 H                     0.221996
    147 S                     1.037467
    148 C                    -0.883916
    149 H                     0.255118
    150 H                     0.248282
    151 H                     0.215044
    152 O                    -0.748451
    153 C                    -0.903931
    154 H                     0.255321
    155 H                     0.270287
    156 H                     0.277456
    157 S                     0.689837
    158 C                    -0.814483
    159 H                     0.274874
    160 H                     0.286379
    161 H                     0.221469
    162 O                    -0.520172
    163 C                    -0.933920
    164 H                     0.230968
    165 H                     0.272542
    166 H                     0.303050
    167 S                     1.020037
    168 C                    -1.166661
    169 H                     0.294782
    170 H                     0.282404
    171 H                     0.265265
    172 O                    -0.707031
    173 C                    -0.806076
    174 H                     0.234059
    175 H                     0.283419
    176 H                     0.242789
    177 S                     0.542453
    178 C                    -0.542181
    179 H                     0.246046
    180 H                     0.241132
    181 H                     0.272784
    182 O                    -0.632618
    183 C                    -0.787385
    184 H                     0.247039
    185 H                     0.249837
    186 H                     0.271987
    187 S                     0.821906
    188 C                    -0.832911
    189 H                     0.269323
    190 H                     0.271142
    191 H                     0.246048
    192 O                    -0.697191
    193 C                    -0.861007
    194 H                     0.256079
    195 H                     0.260136
    196 H                     0.246938
    197 S                     1.020304
    198 C                    -0.908061
    199 H                     0.257078
    200 H                     0.266398
    201 H                     0.192667
    202 O                    -0.663001
    203 C                    -0.912198
    204 H                     0.230366
    205 H                     0.289084
    206 H                     0.255448
    207 S                     0.828408
    208 C                    -0.824786
    209 H                     0.271379
    210 H                     0.246929
    211 H                     0.262128
    212 O                    -0.700589
    213 C                    -0.782656
    214 H                     0.244514
    215 H                     0.217345
    216 H                     0.249660
    217 S                     0.758136
    218 C                    -0.786141
    219 H                     0.231872
    220 H                     0.303420
    221 H                     0.244711
    222 O                    -0.679529
    223 C                    -0.956429
    224 H                     0.262865
    225 H                     0.259837
    226 H                     0.252749
    227 S                     1.102766
    228 C                    -0.946170
    229 H                     0.256881
    230 H                     0.258885
    231 H                     0.233338
    232 O                    -0.740413
    233 C                    -0.737459
    234 H                     0.248564
    235 H                     0.282448
    236 H                     0.264768
    237 S                     0.286908
    238 C                    -0.645838
    239 H                     0.243169
    240 H                     0.236727
    241 H                     0.274874
    242 O                    -0.528575
    243 C                    -0.878271
    244 H                     0.257625
    245 H                     0.245814
    246 H                     0.247394
    247 S                     0.924329
    248 C                    -0.771053
    249 H                     0.266684
    250 H                     0.241937
    251 H                     0.249803
    252 O                    -0.729630
    253 C                    -0.892751
    254 H                     0.287960
    255 H                     0.340630
    256 H                     0.212480
    257 S                     0.763695
    258 C                    -0.931480
    259 H                     0.264379
    260 H                     0.222885
    261 H                     0.282716
    262 O                    -0.591271
    263 C                    -0.847386
    264 H                     0.230140
    265 H                     0.244805
    266 H                     0.256779
    267 S                     0.774503
    268 C                    -0.752182
    269 H                     0.240669
    270 H                     0.241468
    271 H                     0.237364
    272 O                    -0.680536
  ----------------------------------------
  Sum of atomic charges =     0.000000

 -----------------------------------------------------------------
                    Cartesian Multipole Moments
 -----------------------------------------------------------------
    Charge (ESU x 10^10)
                -0.0000
    Dipole Moment (Debye)
         X       8.6166      Y     -39.6300      Z      11.3971
       Tot      42.1270
    Quadrupole Moments (Debye-Ang)
        XX    -506.5638     XY    -852.4132     YY   -2501.0563
        XZ     640.9290     YZ    -717.9987     ZZ    -279.5502
    Octopole Moments (Debye-Ang^2)
       XXX  -61348.8270    XXY  -38758.1537    XYY  -63792.4637
       YYY -104620.0069    XXZ    1238.2563    XYZ  -11615.8172
       YYZ  -56618.7442    XZZ    3608.2712    YZZ  -28393.5483
       ZZZ  -46116.5761
    Hexadecapole Moments (Debye-Ang^3)
      XXXX ************   XXXY ************   XXYY ************
      XYYY ************   YYYY ************   XXXZ ************
      XXYZ -657506.2911   XYYZ ************   YYYZ ************
      XXZZ -285432.4792   XYZZ -515136.3385   YYZZ ************
      XZZZ -898780.5106   YZZZ ************   ZZZZ ************
 -----------------------------------------------------------------
 Total job time:  18117.91s(wall), 253937.50s(cpu) 
 Thu Jul 21 08:16:51 2022

        *************************************************************
        *                                                           *
        *  Thank you very much for using Q-Chem.  Have a nice day.  *
        *                                                           *
        *************************************************************


 
User input: 2 of 2 
 
                  Welcome to Q-Chem
     A Quantum Leap Into The Future Of Chemistry


 Q-Chem 6.0 (devel), Q-Chem, Inc., Pleasanton, CA (2022)

 E. Epifanovsky,  A. T. B. Gilbert,  Xintian Feng,  Joonho Lee,  Yuezhi Mao,  
 N. Mardirossian,  P. Pokhilko,  A. White,  M. Wormit,  M. P. Coons,  
 A. L. Dempwolff,  Zhengting Gan,  D. Hait,  P. R. Horn,  L. D. Jacobson,  
 I. Kaliman,  J. Kussmann,  A. W. Lange,  Ka Un Lao,  D. S. Levine,  Jie Liu,  
 S. C. McKenzie,  A. F. Morrison,  K. Nanda,  F. Plasser,  D. R. Rehn,  
 M. L. Vidal,  Zhi-Qiang You,  Ying Zhu,  B. Alam,  B. Albrecht,  
 A. Aldossary,  E. Alguire,  J. H. Andersen,  V. Athavale,  D. Barton,  
 K. Begam,  A. Behn,  N. Bellonzi,  Y. A. Bernard,  E. J. Berquist,  
 H. Burton,  A. Carreras,  K. Carter-Fenk,  Romit Chakraborty,  
 Chandrima Chakravarty,  Junhan Chen,  A. D. Chien,  K. D. Closser,  
 V. Cofer-Shabica,  L. Cunha,  S. Dasgupta,  Jia Deng,  M. de Wergifosse,  
 M. Diedenhofen,  Hainam Do,  S. Ehlert,  Po-Tung Fang,  S. Fatehi,  
 Qingguo Feng,  T. Friedhoff,  B. Ganoe,  J. Gayvert,  Qinghui Ge,  
 G. Gidofalvi,  M. Goldey,  J. Gomes,  C. Gonzalez-Espinoza,  S. Gulania,  
 A. Gunina,  J. A. Gyamfi,  M. W. D. Hanson-Heine,  P. H. P. Harbach,  
 A. W. Hauser,  M. F. Herbst,  M. Hernandez Vera,  M. Hodecker,  
 Z. C. Holden,  S. Houck,  Xunkun Huang,  Kerwin Hui,  B. C. Huynh,  
 K. Ikeda,  M. Ivanov,  Hyunjun Ji,  Zuxin Jin,  Hanjie Jiang,  B. Kaduk,  
 S. Kaehler,  R. Kang,  K. Khistyaev,  Jaehoon Kim,  Yongbin Kim,  
 P. Klunzinger,  Z. Koczor-Benda,  Joong Hoon Koh,  D. Kosenkov,  
 Saikiran Kotaru,  L. Koulias,  T. Kowalczyk,  C. M. Krauter,  K. Kue,  
 A. Kunitsa,  T. Kus,  A. Landau,  K. V. Lawler,  D. Lefrancois,  S. Lehtola,  
 Rain Li,  Shaozhi Li,  Yi-Pei Li,  Jiashu Liang,  M. Liebenthal,  
 Hung-Hsuan Lin,  You-Sheng Lin,  Fenglai Liu,  Kuan-Yu Liu,  
 M. Loipersberger,  A. Luenser,  C. Malbon,  A. Manjanath,  P. Manohar,  
 E. Mansoor,  S. F. Manzer,  Shan-Ping Mao,  A. V. Marenich,  T. Markovich,  
 S. Mason,  F. Matz,  S. A. Maurer,  P. F. McLaughlin,  M. F. S. J. Menger,  
 J.-M. Mewes,  S. A. Mewes,  P. Morgante,  Mohammad Mostafanejad,  
 J. W. Mullinax,  K. J. Oosterbaan,  G. Paran,  V. Parravicini,  
 Alexander C. Paul,  Suranjan K. Paul,  F. Pavosevic,  Zheng Pei,  S. Prager,  
 E. I. Proynov,  E. Ramos,  B. Rana,  A. E. Rask,  A. Rettig,  R. M. Richard,  
 F. Rob,  E. Rossomme,  T. Scheele,  M. Scheurer,  M. Schneider,  
 P. E. Schneider,  N. Sergueev,  S. M. Sharada,  Hengyuan Shen,  
 W. Skomorowski,  D. W. Small,  C. J. Stein,  Yingli Su,  Yu-Chuan Su,  
 E. J. Sundstrom,  Zhen Tao,  J. Thirman,  Hung-Yi Tsai,  T. Tsuchimochi,  
 N. M. Tubman,  C. Utku,  S. P. Veccham,  O. Vydrov,  J. Wenzel,  
 Jonathan Wong,  J. Witte,  A. Yamada,  Chou-Hsun Yang,  Kun Yao,  
 S. Yeganeh,  S. R. Yost,  A. Zech,  F. Zeller,  Igor Ying Zhang,  
 Xing Zhang,  Yu Zhang,  D. Zuev,  A. Aspuru-Guzik,  A. T. Bell,  
 N. A. Besley,  K. B. Bravaya,  B. R. Brooks,  D. Casanova,  Jeng-Da Chai,  
 Hsing-Ta Chen,  S. Coriani,  C. J. Cramer,  A. E. DePrince, III,  
 R. A. DiStasio Jr.,  A. Dreuw,  B. D. Dunietz,  T. R. Furlani,  
 W. A. Goddard III,  S. Grimme,  S. Hammes-Schiffer,  T. Head-Gordon,  
 W. J. Hehre,  Chao-Ping Hsu,  T.-C. Jagau,  Yousung Jung,  A. Klamt,  
 Jing Kong,  D. S. Lambrecht,  Xiangyuan Li,  WanZhen Liang,  N. J. Mayhall,  
 C. W. McCurdy,  J. B. Neaton,  T. Neudecker,  C. Ochsenfeld,  
[...]
    2  -2.4229055  -3.3157496  -1.5731020  -2.2357131  -0.7932173   0.1358843
    3  -0.2409397  -0.6917328   1.3926172  -1.6083406  -0.2378051  -0.2181771
          169         170         171         172         173         174
    1  -1.1306674   0.0120388   0.9320130   1.8461162   0.1082275   0.1381006
    2  -1.2001040  -0.1727383   1.3042846  -1.2366480  -0.8819816  -2.8399039
    3  -1.1537231   1.4790381  -1.0211406  -3.3604884  -3.4465714  -2.6560482
          175         176         177         178         179         180
    1  -1.4798172   1.5754164   1.4496661   1.9694148   0.1638428   3.2264468
    2  -0.0797038  -0.1538614   0.1852190  -1.6832902  -2.9328147  -1.0273160
    3  -3.1830620  -4.2390901  -2.0582306  -1.6904634  -1.8937598  -3.0121417
          181         182         183         184         185         186
    1   2.1482176  -0.9135066   2.1181878   3.4987345   2.5053560   0.5791525
    2  -0.7405836  -0.5472252   0.4046513  -0.4407528   1.7374478   0.0591631
    3  -0.0834459   0.3599825   2.2289681   2.7308836   0.7884321   2.8414791
          187         188         189         190         191         192
    1   2.2137620   3.3155775   3.0753098   2.7703207   4.2085736  -0.2621006
    2  -1.6442777  -0.8938471  -2.7333558   0.5869970  -0.3919466  -0.5180515
    3   1.3304372  -0.2478237  -0.6690359  -1.1091160   1.2875779  -0.1935759
          193         194         195         196         197         198
    1  -1.6834864  -2.9411250  -0.0722982  -1.4868611  -0.1380841  -1.6245290
    2   0.7491336   2.2018633   0.4891970  -0.5285954   1.5276019   2.9178986
    3  -0.5862827  -0.8999991  -1.6290126   0.8258702   0.5416200   1.4387316
          199         200         201         202         203         204
    1  -0.3554535  -2.8140544  -2.1137977   0.0146427  -2.4639545  -1.8273628
    2   4.0118485   3.1127720   1.0459548   4.0442057   1.4621781   3.4286378
    3   1.8942674  -0.3605975   2.0924650  -1.5285196   0.7715504   1.0036437
          205         206         207         208         209         210
    1  -1.5235702  -3.6066393  -0.5913841  -1.2836835  -0.8631102   0.1358901
    2   0.8540457   0.3230822   1.2632111  -0.7035817  -0.6031572  -0.7600968
    3  -0.6468002   2.0502309   0.8091683   1.3679479  -0.5756879   2.7166161
          211         212         213         214         215         216
    1  -3.0363764  -1.1036432  -1.1741212  -2.6861610   0.4479652  -1.4430255
    2  -0.6479120   1.7007874   2.5202222   1.7041816   1.8572235   3.8526027
    3   2.1354894   3.8710062   1.3528419   2.4938293   1.3538869  -0.1439417
          217         218         219         220         221         222
    1  -1.7588213  -0.4509878   0.8750141  -1.8087914  -0.7412395  -3.8645212
    2   0.7275535   1.7435998   1.3641125   0.4705716   3.6122797   1.7741280
    3   0.3768074  -1.2159937   0.1708160  -2.2338606  -1.4636792  -1.1916578
          223         224         225         226         227         228
    1   3.2584703   2.7748258   2.5382713   4.2418059   1.1205939   1.4816033
    2   1.6877692   3.5586664   1.5172028   0.1753229   1.5016927  -0.7430654
    3  -0.1011207  -0.7944856   1.3527594  -1.3332711  -0.7509969  -0.9453777
          229         230         231         232         233         234
    1   3.3471074   1.3396035  -0.2407560   2.6758424  -1.7436586  -2.1936574
    2  -1.3086862  -0.3580595  -0.2617667   1.1332325   0.8128022   2.7832338
    3  -1.8902751   0.6000040  -1.6118843  -3.5406870   1.0055385   1.1592317
          235         236         237         238         239         240
    1  -1.0620777  -1.6233004   0.2354063  -0.3240219  -1.3342798   1.2473865
    2  -0.2691717   0.3798714   0.4382079   2.6963245   1.5393123   2.5654939
    3  -1.0245626   2.8134868   1.8947544   2.5486994   3.8154067   2.8778485
          241         242         243         244         245         246
    1  -1.1309898   0.8785299  -1.9592134  -1.1293592  -3.0598108  -1.5980237
    2   3.6740518   1.2891177  -2.3995215  -1.5757917  -1.3440370  -3.9504981
    3   1.0181305  -0.9615189   1.2742695   3.0915040   0.1398264   0.6497148
          247         248         249         250         251         252
    1  -0.7950856   0.7242612   1.8233156  -0.0419959   0.1903461  -0.0272848
    2  -2.6780895  -2.7990295  -1.8053142  -1.8801172  -4.2786902   0.2039632
    3  -0.3650238   1.5899759   0.8229007   3.3419390   0.8365771   1.0298824
          253         254         255         256         257         258
    1  -1.1815681  -2.8918851  -0.6956569  -0.0599546   0.2498028  -1.2416140
    2  -0.9693414  -1.8441565   0.9895127  -2.1493875  -0.7966207  -2.7059799
    3  -1.5811287  -0.8922194  -1.5081995  -2.2550454  -0.0507176   0.4543981
          259         260         261         262         263         264
    1  -3.2560955  -0.6209101  -0.5770303  -2.3441280  -0.4427352   0.9914694
    2  -2.6490771  -3.0403462  -2.2748439   0.0882200   2.2571273   1.5896274
    3   0.2174871  -1.3731008   2.3272082   1.4740425  -2.8203306  -3.8512156
          265         266         267         268         269         270
    1  -2.0755231  -0.3502580   1.1665929   0.5428540   0.9985515  -1.5794651
    2   0.8789874   3.7816762   1.8323507  -0.4262065  -0.9105220  -0.1410657
    3  -2.8372781  -1.4450700  -2.0516145  -3.0178060  -1.3916821  -3.3847251
          271         272
    1   1.9008595  -1.2189505
    2   0.0693417   1.5539533
    3  -4.0402041   0.0249638
 EField
            1           2           3           4           5           6
    1  -0.0007043  -0.0003660   0.0020350   0.0017910  -0.0013861  -0.0000138
    2   0.0051887   0.0030293   0.0005068   0.0011155   0.0032550   0.0045064
    3   0.0001445   0.0050283   0.0013659  -0.0016756  -0.0052484  -0.0045742
            7           8           9          10          11          12
    1   0.0045102   0.0041797  -0.0041736   0.0008082   0.0070166  -0.0013209
    2  -0.0025422   0.0034069   0.0060839   0.0083227  -0.0025374   0.0016318
    3   0.0018513   0.0054131  -0.0012332   0.0023840  -0.0048526   0.0033795
           13          14          15          16          17          18
    1  -0.0038129  -0.0035177   0.0038865  -0.0036283   0.0035073  -0.0014025
    2   0.0030134   0.0036289   0.0067903   0.0039915  -0.0023305   0.0031530
    3  -0.0060472  -0.0038952  -0.0077806  -0.0035446  -0.0035802   0.0176305
           19          20          21          22          23          24
    1  -0.0116837   0.0026614   0.0022815   0.0035874   0.0136127  -0.0032013
    2   0.0114528   0.0036791  -0.0035633   0.0052486  -0.0028694   0.0009603
    3   0.0352290   0.0141096   0.0161592   0.0089618  -0.0008293  -0.0348026
           25          26          27          28          29          30
    1   0.0243659   0.0088474  -0.0075306  -0.0041614   0.0171898   0.0036322
    2   0.0240312  -0.0278728   0.0099556  -0.0050672  -0.0098846  -0.0366374
    3   0.0069130   0.0222407   0.0461986  -0.0033710  -0.0262061   0.0148060
           31          32          33          34          35          36
    1  -0.0316010  -0.0043678   0.0017539   0.0192122  -0.0306003   0.0260962
    2   0.0055354   0.0688318   0.0062804   0.0039345   0.0124392  -0.0016069
    3  -0.0013240  -0.0888129  -0.0048734  -0.0287654  -0.0193336   0.0291330
           37          38          39          40          41          42
    1  -0.0294905  -0.0045109  -0.0153471   0.0324519  -0.0334715   0.0870816
    2  -0.0274506   0.0041941  -0.0215665   0.0143672   0.0077141  -0.0260519
    3  -0.0327699   0.0081206   0.0194909   0.0088129  -0.0068873   0.0630025
           43          44          45          46          47          48
    1  -0.0051356   0.0181080   0.0000269  -0.0213583   0.0355530  -0.0047797
    2  -0.0054851  -0.0207652  -0.0083487  -0.0064857   0.0133150   0.0040181
    3  -0.0018101  -0.0107539   0.0321629  -0.0271538   0.0426439  -0.0012167
           49          50          51          52          53          54
    1   0.0103816  -0.0245904  -0.0227606   0.0344339   0.0019343   0.0203684
    2   0.0246827  -0.0060860  -0.0008677   0.0122678   0.0080787   0.0025394
    3  -0.0233201  -0.0157717   0.0336990  -0.1045524   0.0047588   0.0266319
           55          56          57          58          59          60
    1  -0.0011515  -0.0254511  -0.0461579   0.0017541   0.0213152  -0.0107078
    2   0.0293606   0.0007681  -0.0186259  -0.0053928   0.0190040  -0.0201221
    3  -0.0080644   0.0203172  -0.0160246   0.0007901   0.0131886   0.0297751
           61          62          63          64          65          66
    1   0.0087725   0.0752077   0.0008416   0.0129025  -0.0276221   0.0038712
    2  -0.0122324   0.0468334   0.0027001   0.0301276   0.0004754  -0.0170280
    3  -0.0300950  -0.0666301   0.0127161   0.0151993  -0.0097669   0.0281347
           67          68          69          70          71          72
    1  -0.0304847   0.0040823   0.0125982  -0.0287259   0.0092162   0.1053972
    2   0.0194151  -0.0065928  -0.0217097  -0.0122006  -0.0237286   0.0270284
    3  -0.0484868   0.0017741   0.0211187   0.0060621  -0.0220403   0.0163742
           73          74          75          76          77          78
    1  -0.0020156  -0.0086806   0.0292057  -0.0263803   0.0390222  -0.0039670
    2  -0.0056682   0.0034030  -0.0149576  -0.0155098   0.0358299  -0.0017273
    3  -0.0039499  -0.0322608  -0.0064820   0.0086591  -0.0184755   0.0007926
           79          80          81          82          83          84
    1   0.0173857   0.0018464  -0.0310725  -0.1060785  -0.0017165  -0.0113389
    2  -0.0219253   0.0240672  -0.0100543   0.0309074  -0.0037447   0.0017033
    3  -0.0041229   0.0190868   0.0069759   0.0175438   0.0049060   0.0326200
           85          86          87          88          89          90
    1  -0.0277314   0.0196674  -0.0446080   0.0034007   0.0181055  -0.0202961
    2  -0.0170416  -0.0220298   0.0305056  -0.0045149  -0.0254638  -0.0084454
    3  -0.0128213   0.0118331  -0.0219590  -0.0062812   0.0075230  -0.0265502
           91          92          93          94          95          96
    1   0.0234983   0.0893950  -0.0051612   0.0108540  -0.0248247  -0.0090338
    2   0.0136237   0.0445135   0.0076012   0.0289710  -0.0002207   0.0073561
    3  -0.0114284   0.0379110  -0.0028293  -0.0127073  -0.0092806   0.0287811
           97          98          99         100         101         102
    1   0.0400104   0.0036225   0.0154521   0.0119589  -0.0198606  -0.0722234
    2  -0.0057932   0.0013774   0.0313482  -0.0306858   0.0064031  -0.0807721
    3   0.0434618  -0.0082482   0.0004118  -0.0090603  -0.0232741  -0.0217823
          103         104         105         106         107         108
    1   0.0074096  -0.0091250   0.0277869   0.0165910  -0.0306734   0.0053561
    2   0.0008938  -0.0116400  -0.0223414   0.0256038  -0.0532318   0.0085399
    3   0.0039596   0.0264421  -0.0119466   0.0113266  -0.0115763  -0.0066242
          109         110         111         112         113         114
    1   0.0125555  -0.0237585   0.0273933  -0.0459605   0.0049690   0.0342119
    2  -0.0183300   0.0090767   0.0195916   0.0848942  -0.0057528  -0.0186445
    3  -0.0194430  -0.0238540   0.0041198   0.0510754  -0.0043359   0.0054307
          115         116         117         118         119         120
    1  -0.0203588   0.0093893   0.0377840   0.0017544   0.0209742  -0.0069938
    2  -0.0223307   0.0210556   0.0222643   0.0000516  -0.0246790   0.0118780
    3  -0.0089471  -0.0193429   0.0326643  -0.0036641   0.0149804   0.0274797
          121         122         123         124         125         126
    1  -0.0170128  -0.0747056  -0.0077451  -0.0243742   0.0003173  -0.0122875
    2   0.0053363   0.0574948   0.0033266   0.0222100   0.0071752  -0.0310157
    3  -0.0277903  -0.0574164  -0.0068335   0.0049903  -0.0300115  -0.0016707
          127         128         129         130         131         132
    1   0.0358220  -0.0040265  -0.0134419   0.0174555  -0.0225345   0.0148589
    2  -0.0384164  -0.0000131  -0.0302843   0.0085891   0.0202778   0.1088153
    3  -0.0080746   0.0078191   0.0057645   0.0280581  -0.0000756  -0.0121000
          133         134         135         136         137         138
    1  -0.0045868  -0.0362263  -0.0217129   0.0117692  -0.0197304   0.0093741
    2  -0.0004685   0.0059334  -0.0323606  -0.0003851   0.0124676  -0.0064121
    3   0.0023167   0.0117722  -0.0102551   0.0289059  -0.0444095   0.0007544
          139         140         141         142         143         144
    1  -0.0080969   0.0223727  -0.0040186   0.0328283   0.0010101   0.0130051
    2  -0.0196483   0.0109608  -0.0215203   0.0659850   0.0018539   0.0313493
    3  -0.0312231   0.0261348   0.0235809   0.0813873  -0.0107597   0.0020572
          145         146         147         148         149         150
    1   0.0206971  -0.0266029   0.0462765  -0.0045180  -0.0085868  -0.0265166
    2  -0.0044095  -0.0132904   0.0031703  -0.0042457  -0.0100139   0.0041280
    3  -0.0294165  -0.0099082   0.0154654  -0.0001514   0.0290106  -0.0139200
          151         152         153         154         155         156
    1   0.0196180  -0.0834750  -0.0010156  -0.0035393   0.0114837  -0.0242856
    2  -0.0265197   0.0640431  -0.0056787  -0.0101121  -0.0297409   0.0148985
    3  -0.0103927   0.0362681   0.0012307  -0.0274303   0.0205992   0.0113568
          157         158         159         160         161         162
    1   0.0442489   0.0006917  -0.0290757   0.0141044   0.0101547  -0.0808485
    2  -0.0114421   0.0005777   0.0050948  -0.0242949   0.0313192   0.0511855
    3  -0.0314499   0.0063611   0.0099497   0.0124573   0.0022548  -0.0644912
          163         164         165         166         167         168
    1  -0.0070993   0.0253662  -0.0032013  -0.0270807   0.0395500  -0.0110558
    2  -0.0063701  -0.0216179  -0.0018689   0.0081619   0.0117612   0.0035359
    3   0.0028686   0.0038780   0.0369439  -0.0290686   0.0263691   0.0028296
          169         170         171         172         173         174
    1  -0.0227542   0.0004330  -0.0013544  -0.0074321  -0.0037810  -0.0002600
    2  -0.0084641   0.0084572   0.0281935  -0.0073575  -0.0050354  -0.0324831
    3  -0.0261399   0.0355877  -0.0096378  -0.1102226  -0.0050767  -0.0065241
          175         176         177         178         179         180
    1  -0.0267095   0.0167498   0.0312190   0.0052625  -0.0129076   0.0273465
    2   0.0218335   0.0014869   0.0446749  -0.0066490  -0.0278765  -0.0141130
    3   0.0035611  -0.0289954  -0.0051228   0.0043575  -0.0015659  -0.0198581
          181         182         183         184         185         186
    1   0.0113350  -0.0753098   0.0033241   0.0236795  -0.0016629  -0.0253186
    2  -0.0008509  -0.0130608   0.0091008  -0.0059445   0.0327993   0.0022392
    3   0.0246331   0.0811026   0.0044562   0.0242560  -0.0107894   0.0151933
          187         188         189         190         191         192
    1   0.0037827   0.0070849  -0.0027512  -0.0013072   0.0305050  -0.0957926
    2  -0.0570332   0.0041013  -0.0271002   0.0193746   0.0138470   0.0237859
    3   0.0320214  -0.0067992  -0.0194707  -0.0246054   0.0153807  -0.0483816
          193         194         195         196         197         198
    1  -0.0019216  -0.0233920   0.0119985  -0.0085398   0.0433352  -0.0066916
    2  -0.0033999   0.0167034  -0.0085409  -0.0261418  -0.0252866   0.0000535
    3  -0.0031928  -0.0124252  -0.0303833   0.0196851   0.0274887  -0.0010406
          199         200         201         202         203         204
    1   0.0175043  -0.0199035  -0.0249833   0.0196420  -0.0060642  -0.0101158
    2   0.0183492   0.0151553  -0.0108002   0.0854184   0.0007982   0.0318413
    3   0.0156552  -0.0191553   0.0383764  -0.0678218  -0.0052934   0.0042211
          205         206         207         208         209         210
    1  -0.0034430  -0.0211854   0.0425911   0.0022468   0.0096544   0.0221639
    2  -0.0169743  -0.0123392   0.0161425  -0.0098624  -0.0083457  -0.0157564
    3  -0.0310914   0.0193106  -0.0365849  -0.0005617  -0.0334609   0.0158959
          211         212         213         214         215         216
    1  -0.0251318  -0.0047128  -0.0006502  -0.0199197   0.0304488   0.0001949
    2  -0.0073250   0.0299346   0.0051399   0.0004444   0.0017405   0.0334899
    3   0.0179907   0.1055982   0.0019854   0.0247114   0.0098409  -0.0092394
          217         218         219         220         221         222
    1   0.0007290   0.0020387   0.0258928  -0.0017600  -0.0036980  -0.0925003
    2  -0.0590344   0.0023994  -0.0120573  -0.0118428   0.0306604   0.0345015
    3   0.0253862  -0.0075477   0.0133633  -0.0316028  -0.0167688  -0.0497737
          223         224         225         226         227         228
    1   0.0055914   0.0041697   0.0094232   0.0259828  -0.0437350   0.0006525
    2   0.0006151   0.0308976  -0.0116958  -0.0192928   0.0294488  -0.0062315
    3   0.0050708  -0.0076468   0.0338483  -0.0033470   0.0168278   0.0046772
          229         230         231         232         233         234
    1   0.0238795  -0.0032354  -0.0241807   0.0445630  -0.0074127  -0.0218191
    2  -0.0107697  -0.0065084  -0.0145138   0.0035549  -0.0046637   0.0208572
    3  -0.0209671   0.0325633  -0.0073972  -0.1005773  -0.0022561  -0.0081891
          235         236         237         238         239         240
    1  -0.0129592  -0.0228932   0.0210104  -0.0010949  -0.0279679   0.0248110
    2  -0.0230053  -0.0235430  -0.0419411   0.0050147   0.0018063   0.0147183
    3  -0.0219251   0.0139474   0.0285904   0.0020020   0.0262088   0.0048733
          241         242         243         244         245         246
    1  -0.0109783   0.0345692  -0.0067153   0.0087551  -0.0274435  -0.0067407
    2   0.0262312   0.0295651  -0.0006534   0.0120192   0.0135438  -0.0333902
    3  -0.0122584  -0.1009005   0.0063907   0.0296815  -0.0111800  -0.0025560
          247         248         249         250         251         252
    1  -0.0004219   0.0080619   0.0281296   0.0000517   0.0079331   0.0251701
    2  -0.0236798  -0.0041931   0.0046994   0.0156324  -0.0335480   0.1050760
    3  -0.0489724   0.0049307  -0.0043035   0.0294747  -0.0066090   0.0213363
          253         254         255         256         257         258
    1  -0.0056635  -0.0290672   0.0025970   0.0121076   0.0523107  -0.0029754
    2  -0.0025534  -0.0147094   0.0240728  -0.0281190   0.0165705  -0.0078688
    3  -0.0069866   0.0037179   0.0042712  -0.0244350   0.0069505   0.0013212
          259         260         261         262         263         264
    1  -0.0321288   0.0156777   0.0193899  -0.0813310  -0.0049568   0.0198062
    2  -0.0002250  -0.0273052  -0.0060245   0.0478305   0.0022043   0.0019776
    3   0.0014278  -0.0133166   0.0252683   0.0600079  -0.0039670  -0.0278368
          265         266         267         268         269         270
    1  -0.0341188  -0.0106363   0.0577414  -0.0006167   0.0083391  -0.0294039
    2  -0.0049946   0.0285426   0.0193490  -0.0033655  -0.0228815  -0.0111480
    3  -0.0003189   0.0099511   0.0088149  -0.0013416   0.0157489  -0.0080270
          271         272
    1   0.0240258  -0.0700900
    2  -0.0084085  -0.0106074
    3  -0.0222970   0.0841508
  --- DONE ESP SUMMARY ---
 Total job time:  29.14s(wall), 70.91s(cpu) 
 Thu Jul 21 08:17:20 2022

        *************************************************************
        *                                                           *
        *  Thank you very much for using Q-Chem.  Have a nice day.  *
        *                                                           *
        *************************************************************


