                  Welcome to Q-Chem
     A Quantum Leap Into The Future Of Chemistry


 Q-Chem 5.2 (devel), Q-Chem, Inc., Pleasanton, CA (2019)

 Yihan Shao,  Zhengting Gan,  E. Epifanovsky,  A. T. B. Gilbert,  M. Wormit,  
 J. Kussmann,  A. W. Lange,  A. Behn,  Jia Deng,  Xintian Feng,  D. Ghosh,  
 M. Goldey,  P. R. Horn,  L. D. Jacobson,  I. Kaliman,  T. Kus,  A. Landau,  
 Jie Liu,  E. I. Proynov,  R. M. Richard,  R. P. Steele,  E. J. Sundstrom,  
 H. L. Woodcock III,  P. M. Zimmerman,  D. Zuev,  B. Alam,  B. Albrecht,  
 E. Alguire,  S. A. Baeppler,  D. Barton,  Z. Benda,  Y. A. Bernard,  
 E. J. Berquist,  K. B. Bravaya,  H. Burton,  K. Carter-Fenk,  D. Casanova,  
 Chun-Min Chang,  Yunqing Chen,  A. Chien,  K. D. Closser,  M. P. Coons,  
 S. Coriani,  S. Dasgupta,  A. L. Dempwolff,  M. Diedenhofen,  Hainam Do,  
 R. G. Edgar,  Po-Tung Fang,  S. Faraji,  S. Fatehi,  Qingguo Feng,  
 J. Fosso-Tande,  J. Gayvert,  Qinghui Ge,  A. Ghysels,  G. Gidofalvi,  
 J. Gomes,  J. Gonthier,  A. Gunina,  D. Hait,  M. W. D. Hanson-Heine,  
 P. H. P. Harbach,  A. W. Hauser,  M. F. Herbst,  J. E. Herr,  
 E. G. Hohenstein,  Z. C. Holden,  Kerwin Hui,  B. C. Huynh,  T.-C. Jagau,  
 Hyunjun Ji,  B. Kaduk,  K. Khistyaev,  Jaehoon Kim,  P. Klunzinger,  K. Koh,  
 D. Kosenkov,  L. Koulias,  T. Kowalczyk,  C. M. Krauter,  A. Kunitsa,  
 Ka Un Lao,  A. Laurent,  K. V. Lawler,  Joonho Lee,  D. Lefrancois,  
 S. Lehtola,  D. S. Levine,  Yi-Pei Li,  You-Sheng Lin,  Fenglai Liu,  
 Kuan-Yu Liu,  E. Livshits,  M. Loipersberger,  A. Luenser,  P. Manohar,  
 E. Mansoor,  S. F. Manzer,  Shan-Ping Mao,  Yuezhi Mao,  N. Mardirossian,  
 A. V. Marenich,  T. Markovich,  L. A. Martinez-Martinez,  S. A. Maurer,  
 N. J. Mayhall,  S. C. McKenzie,  J.-M. Mewes,  P. Morgante,  A. F. Morrison,  
 J. W. Mullinax,  K. Nanda,  T. S. Nguyen-Beck,  R. Olivares-Amaya,  
 J. A. Parkhill,  S. K. Paul,  F. Pavosevic,  Zheng Pei,  T. M. Perrine,  
 F. Plasser,  P. Pokhilko,  S. Prager,  A. Prociuk,  E. Ramos,  B. Rana,  
 D. R. Rehn,  F. Rob,  M. Scheurer,  M. Schneider,  N. Sergueev,  
 S. M. Sharada,  S. Sharma,  D. W. Small,  T. Stauch,  C. J. Stein,  
 T. Stein,  Yu-Chuan Su,  S. P. Veccham,  Zhen Tao,  A. J. W. Thom,  
 A. Tkatchenko,  T. Tsuchimochi,  N. M. Tubman,  L. Vogt,  M. L. Vidal,  
 O. Vydrov,  M. A. Watson,  J. Wenzel,  M. de Wergifosse,  T. A. Wesolowski,  
 A. White,  J. Witte,  A. Yamada,  Jun Yang,  K. Yao,  S. Yeganeh,  
 S. R. Yost,  Zhi-Qiang You,  A. Zech,  Igor Ying Zhang,  Xing Zhang,  
 Yan Zhao,  Ying Zhu,  B. R. Brooks,  G. K. L. Chan,  C. J. Cramer,  
 M. S. Gordon,  W. J. Hehre,  A. Klamt,  M. W. Schmidt,  C. D. Sherrill,  
 D. G. Truhlar,  A. Aspuru-Guzik,  R. Baer,  A. T. Bell,  N. A. Besley,  
 Jeng-Da Chai,  A. E. DePrince, III,  R. A. DiStasio Jr.,  A. Dreuw,  
 B. D. Dunietz,  T. R. Furlani,  Chao-Ping Hsu,  Yousung Jung,  Jing Kong,  
 D. S. Lambrecht,  WanZhen Liang,  C. Ochsenfeld,  V. A. Rassolov,  
 L. V. Slipchenko,  J. E. Subotnik,  T. Van Voorhis,  J. M. Herbert,  
 A. I. Krylov,  P. M. W. Gill,  M. Head-Gordon

 Contributors to earlier versions of Q-Chem not listed above: 
 R. D. Adamson,  B. Austin,  J. Baker,  G. J. O. Beran,  K. Brandhorst,  
 S. T. Brown,  E. F. C. Byrd,  A. K. Chakraborty,  C.-L. Cheng,  
 Siu Hung Chien,  D. M. Chipman,  D. L. Crittenden,  H. Dachsel,  
 R. J. Doerksen,  A. D. Dutoi,  L. Fusti-Molnar,  W. A. Goddard III,  
 A. Golubeva-Zadorozhnaya,  S. R. Gwaltney,  G. Hawkins,  A. Heyden,  
 S. Hirata,  G. Kedziora,  F. J. Keil,  C. Kelley,  Jihan Kim,  R. A. King,  
 R. Z. Khaliullin,  P. P. Korambath,  W. Kurlancheek,  A. M. Lee,  M. S. Lee,  
 S. V. Levchenko,  Ching Yeh Lin,  D. Liotard,  R. C. Lochan,  I. Lotan,  
 P. E. Maslen,  N. Nair,  D. P. O'Neill,  D. Neuhauser,  E. Neuscamman,  
 C. M. Oana,  R. Olson,  B. Peters,  R. Peverati,  P. A. Pieniazek,  
 Y. M. Rhee,  J. Ritchie,  M. A. Rohrdanz,  E. Rosta,  N. J. Russ,  
 H. F. Schaefer III,  N. E. Schultz,  N. Shenvi,  A. C. Simmonett,  A. Sodt,  
 D. Stuck,  K. S. Thanthiriwatte,  V. Vanovschi,  Tao Wang,  A. Warshel,  
 C. F. Williams,  Q. Wu,  X. Xu,  W. Zhang

 Please cite Q-Chem as follows:
 Y. Shao et al., Mol. Phys. 113, 184-215 (2015)
 DOI: 10.1080/00268976.2014.952696

 Q-Chem 5.2.2 for Intel X86 EM64T Linux

 Parts of Q-Chem use Armadillo 9.800.1 (Horizon Scraper).
 http://arma.sourceforge.net/

 Q-Chem begins on Fri Dec  3 14:41:29 2021  

Host: node025
0

     Scratch files written to /home/ymao90/scratch/r7.00_frame_0027_spade_B3LYP_dp20211203120847//

Checking the input file for inconsistencies... 	...done.

--------------------------------------------------------------
User input:
--------------------------------------------------------------
$molecule
0 1
--
0 1
C    24.70500   15.45900   28.62200  
C    25.60800   15.93500   27.47300  
C    25.56100   17.47200   27.50900  
C    25.89100   18.04000   28.89900  
C    25.21400   17.38100   30.11200  
C    25.16000   15.84600   30.03900  
H    26.16200   17.89100   26.69300  
H    26.61200   15.56800   27.71600  
H    23.67000   15.77400   28.44600  
H    24.73800   14.36300   28.57900  
H    26.94500   17.78600   29.06200  
H    25.80600   19.13200   28.84000  
H    25.76900   17.76200   30.97700  
H    24.18100   17.73900   30.20600  
H    26.12800   15.44700   30.36500  
H    24.44000   15.48100   30.78200  
H    24.53500   17.78900   27.28100  
N    25.33500   15.33100   26.16900  
H    24.86400   15.90300   25.47900  
C    25.86600   14.13900   25.72600  
H    25.61600   13.94900   24.66700  
O    26.66500   13.45300   26.34000  
--
0 1
C    19.91100   19.09100   29.95400  
H    19.19600   18.68700   30.67600  
H    20.79200   18.45000   29.86700  
H    20.18400   20.10000   30.27200  
S    18.97200   19.30200   28.42500  
C    20.32800   20.16200   27.59700  
H    20.47200   21.06100   28.20200  
H    21.21600   19.52500   27.62500  
H    20.16700   20.51200   26.57400  
O    18.00000   20.40100   28.72300  
C    21.72800   19.11300   24.60100  
H    22.50600   19.79300   24.95600  
H    21.23700   18.72300   25.49700  
H    22.23600   18.25900   24.14600  
S    20.59200   19.99300   23.50500  
C    21.92100   20.55100   22.41500  
H    22.72800   21.02600   22.98000  
H    22.18500   19.77600   21.69100  
H    21.41600   21.34100   21.85400  
O    20.18500   21.12600   24.39500  
C    29.16700   17.02900   31.45000  
H    28.66100   17.75800   32.08800  
H    29.25500   17.36600   30.41400  
H    28.63100   16.08300   31.55700  
S    30.86500   16.70100   31.97300  
C    30.52900   16.67700   33.74900  
H    30.00500   17.59200   34.03600  
H    30.00200   15.77600   34.07100  
H    31.43600   16.56800   34.35000  
O    31.52100   18.00900   31.65400  
C    23.03100   23.42300   36.35300  
H    23.57200   22.94100   37.17100  
H    23.37700   24.44800   36.19800  
H    21.95500   23.42200   36.54700  
S    23.27600   22.47800   34.83200  
C    25.07100   22.65200   34.94300  
H    25.37200   22.19000   33.99900  
H    25.45100   23.67000   34.82900  
H    25.55400   22.13000   35.77300  
O    22.85600   23.42900   33.75500  
C    27.56800   9.83000    27.74100  
H    27.48400   9.32200    28.70500  
H    26.91000   10.70000   27.67000  
H    27.42200   9.06800    26.97100  
S    29.19400   10.61500   27.67200  
C    29.20100   10.48000   25.87000  
H    30.17500   10.90800   25.62000  
H    29.12900   9.42500    25.59500  
H    28.42300   11.19200   25.58200  
O    30.18500   9.56500    28.06700  
C    24.15000   19.55000   36.85300  
H    23.75100   18.53400   36.90700  
H    23.59300   20.25500   37.47600  
H    24.16400   19.93300   35.82900  
S    25.86700   19.40900   37.39600  
C    25.50900   18.10200   38.59100  
H    25.41000   17.15100   38.06000  
H    26.27100   18.15700   39.37300  
H    24.62300   18.36900   39.17300  
O    26.18000   20.70400   38.07700  
C    23.18300   12.89900   35.53900  
H    24.17900   12.60500   35.19700  
H    23.10200   13.95600   35.80700  
H    23.05800   12.33500   36.46600  
S    21.81100   12.33300   34.50900  
C    22.38400   13.44400   33.20400  
H    23.03700   14.16900   33.69600  
H    22.95100   12.86300   32.47100  
H    21.48800   13.84800   32.72600  
O    20.64400   13.10600   35.03900  
C    31.41400   13.96700   22.57000  
H    30.79600   14.39200   21.77500  
H    31.87400   14.68900   23.25000  
H    32.32800   13.56300   22.12600  
S    30.44200   12.86000   23.61600  
C    29.42300   14.07300   24.48500  
H    28.61900   14.41000   23.82500  
H    29.04000   13.65600   25.41900  
H    30.08400   14.89700   24.76300  
O    31.47500   12.53300   24.64800  
C    26.96300   19.90600   32.74100  
H    27.64800   19.42700   32.03600  
H    26.32700   19.08600   33.08300  
H    26.53100   20.83800   32.36800  
S    28.04700   20.30300   34.13100  
C    29.46000   20.90500   33.18000  
H    30.04900   21.68400   33.67200  
H    30.15100   20.11600   32.87200  
H    28.98600   21.38900   32.32200  
O    28.42700   19.01000   34.78300  
C    28.71500   22.63200   24.18300  
H    28.40000   21.71300   24.68500  
H    29.80400   22.71300   24.13200  
H    28.33000   23.58100   24.56300  
S    28.13700   22.66700   22.47100  
C    27.48900   20.98100   22.43900  
H    26.61300   20.85500   23.07900  
H    27.10300   20.68400   21.46000  
H    28.23700   20.24700   22.75100  
O    29.41500   22.53800   21.70000  
C    20.40100   18.67500   33.27300  
H    20.27900   19.03100   34.29900  
H    20.30700   19.50500   32.56800  
H    19.61500   17.95900   33.02400  
S    22.14200   18.24600   33.04900  
C    22.21500   17.16300   34.49300  
H    23.19300   16.67700   34.54000  
H    22.27100   17.90200   35.29800  
H    21.33800   16.51800   34.58500  
O    22.89500   19.47600   33.45300  
C    30.72000   12.67200   30.23100  
H    31.19900   13.43200   30.85300  
H    30.94300   11.72300   30.72600  
H    31.16600   12.60200   29.23600  
S    28.94700   13.02000   30.18100  
C    29.13600   14.47500   29.12700  
H    28.21100   15.04000   29.27300  
H    29.98200   15.06300   29.49100  
H    29.24800   14.15900   28.08700  
O    28.74700   13.50500   31.58300  
C    24.83100   14.41700   20.99400  
H    25.79300   14.93400   21.04400  
H    24.35200   14.49000   21.97300  
H    24.93500   13.38600   20.64700  
S    23.79200   15.33200   19.83300  
C    22.75500   14.06800   19.06300  
H    22.39500   14.56600   18.15900  
H    23.42900   13.23800   18.83700  
H    22.10000   13.64000   19.82600  
O    24.72300   15.73300   18.73100  
C    23.45100   24.24200   30.13400  
H    22.75300   24.37900   29.30400  
H    23.10200   24.73700   31.04400  
H    24.51000   24.33100   29.87500  
S    22.99400   22.52900   30.48000  
C    24.43000   21.92300   31.39400  
H    25.19000   21.57100   30.69100  
H    24.80400   22.67600   32.09300  
H    24.08200   21.04800   31.94800  
O    23.01600   21.84100   29.15000  
C    27.54000   25.43600   30.83500  
H    27.41400   24.86600   29.91100  
H    26.55500   25.86500   31.03500  
H    28.27200   26.23800   30.70800  
S    27.82600   24.24100   32.16000  
C    29.61000   24.07000   31.92700  
H    29.87800   23.45000   31.06800  
H    30.13900   25.02300   31.85000  
H    29.97200   23.66600   32.87600  
O    27.07700   22.99500   31.80200  
C    32.10900   18.60700   22.09300  
H    32.55000   17.78600   22.66400  
H    32.14800   18.43800   21.01400  
H    32.54200   19.58900   22.30100  
S    30.32200   18.54100   22.35400  
C    30.47500   19.09800   24.06700  
H    31.49500   18.84900   24.37100  
H    30.29400   20.16900   24.18800  
H    29.73000   18.56800   24.66500  
O    30.05300   17.07300   22.47000  
C    16.23200   15.17600   32.36500  
H    16.17000   16.15400   32.85000  
H    15.46300   15.23600   31.59100  
H    15.89000   14.37800   33.03000  
S    17.93300   14.91400   31.81400  
C    18.56100   15.19200   33.48500  
H    18.82800   14.31400   34.08000  
H    19.47000   15.78000   33.33000  
H    17.85100   15.79600   34.05500  
O    18.28600   16.25400   31.24700  
C    24.78500   17.87000   22.21400  
H    24.65800   16.82300   21.92500  
H    23.86800   18.44100   22.04600  
H    25.55300   18.33300   21.59100  
S    25.48200   18.04400   23.87200  
C    26.80200   16.84000   23.60100  
H    26.41800   15.99700   23.02100  
H    27.49100   17.30300   22.89100  
H    27.27800   16.62200   24.56000  
O    24.45500   17.42600   24.76900  
C    25.00100   20.91600   26.45000  
H    24.90000   21.06500   27.52900  
H    24.26200   20.20100   26.08000  
H    25.99700   20.55200   26.18700  
S    24.76600   22.43000   25.49200  
C    23.08700   22.75800   26.07500  
H    22.81300   23.50400   25.32400  
H    22.35400   21.95300   25.97800  
H    23.06700   23.18400   27.08100  
O    24.61700   21.89500   24.10200  
C    20.96200   15.50200   29.53600  
H    20.00200   15.29000   30.01500  
H    21.68200   15.93500   30.23400  
H    20.65600   16.15400   28.71300  
S    21.48900   13.88900   28.91500  
C    19.90800   13.16200   28.42800  
H    19.98200   12.08600   28.60300  
H    19.14600   13.47100   29.14800  
H    19.64600   13.30300   27.37600  
O    21.89900   13.01900   30.06200  
C    22.60900   11.20800   21.66000  
H    23.61400   11.38900   22.04800  
H    22.26600   12.03400   21.03300  
H    21.84200   11.04300   22.42100  
S    22.57700   9.74500    20.60000  
C    23.03300   8.69600    21.99900  
H    22.31700   8.84600    22.81100  
H    23.08800   7.65500    21.67000  
H    24.04500   8.82100    22.39300  
O    23.89400   9.93400    19.91400  
C    26.11100   15.40500   33.49600  
H    27.04100   15.07700   33.02500  
H    25.37500   14.59800   33.52600  
H    25.71700   16.20600   32.86600  
S    26.41000   16.03200   35.16400  
C    27.48100   14.63700   35.57800  
H    28.37700   14.83900   34.98600  
H    27.76300   14.79300   36.62300  
H    26.87800   13.73500   35.45100  
O    25.16100   15.78400   35.95000  
C    28.12300   21.83900   28.15400  
H    27.03600   21.93500   28.09600  
H    28.56500   22.52800   28.87900  
H    28.65400   22.08000   27.22900  
S    28.44900   20.08200   28.41800  
C    30.24600   20.10700   28.61100  
H    30.57700   19.07700   28.45400  
H    30.66200   20.77300   27.85100  
H    30.49500   20.63600   29.53400  
O    28.17700   19.42600   27.10100  
C    24.60500   11.01600   31.07700  
H    24.32600   9.97900    31.28100  
H    23.73500   11.65500   31.24300  
H    24.87600   11.10000   30.02200  
S    26.00500   11.73200   31.96800  
C    26.98700   10.23000   31.75500  
H    28.02600   10.43000   32.02900  
H    26.56600   9.50300    32.45400  
H    26.97400   9.89500    30.71400  
O    25.62700   11.88200   33.40900  
C    24.06700   9.91900    27.10400  
H    23.19300   9.28000    26.95400  
H    24.96100   9.34700    27.36400  
H    23.93200   10.78200   27.76100  
S    23.98500   10.69000   25.47200  
C    22.24100   11.14700   25.59700  
H    21.86500   11.64200   24.69800  
H    21.56500   10.30500   25.76600  
H    22.14000   11.92700   26.35500  
O    23.88100   9.43400    24.66400  
C    34.76500   15.90300   26.42600  
H    35.33600   15.12400   26.93700  
H    34.70900   15.70300   25.35300  
H    35.19100   16.89600   26.58900  
S    33.16600   15.91400   27.26800  
C    32.52500   14.42100   26.47700  
H    31.44900   14.59300   26.39600  
H    32.83900   14.35100   25.43300  
H    32.87700   13.59800   27.10400  
O    32.31000   17.03700   26.77100  
C    27.05200   8.25500    22.29200  
H    27.46100   7.24200    22.31200  
H    26.18300   8.46000    22.92100  
H    26.86900   8.43100    21.22900  
S    28.30300   9.48600    22.72200  
C    27.04300   10.72200   23.11300  
H    26.51100   10.48700   24.03800  
H    27.54800   11.69100   23.14000  
H    26.36000   10.81400   22.26400  
O    28.74500   10.08900   21.42600  
C    21.58600   15.22000   25.38800  
H    22.40900   15.48500   26.05500  
H    20.93200   16.07500   25.20000  
H    21.03100   14.35300   25.75500  
S    22.34900   14.79300   23.80600  
C    20.85700   14.02100   23.14100  
H    21.07300   13.52400   22.19200  
H    20.43300   13.32800   23.87200  
H    20.08700   14.78200   22.99300  
O    23.30300   13.65400   23.98600  
$end

$rem
JOBTYPE  SP
METHOD  B3LYP
BASIS  6-31+G(D)
SYMMETRY  FALSE
SYM_IGNORE  TRUE
MEM_TOTAL  16000
MEM_STATIC  8000
MAX_SUB_FILE_NUM  16000
BASIS_LIN_DEP_THRESH  6
THRESH  14
SCF_CONVERGENCE  8
GEN_SCFMAN  TRUE
SCF_GUESS  SAD
FD_MAT_VEC_PROD  FALSE
XC_GRID  000075000302
NL_GRID  1
MAX_SCF_CYCLES  200
ENV_METHOD  B3LYP
GEN_SCFMAN_EMBED  TRUE
SPADE_PARTITION  TRUE
$end

$development
embedding_early_stop  1
$end

--------------------------------------------------------------
 ----------------------------------------------------------------
             Standard Nuclear Orientation (Angstroms)
    I     Atom           X                Y                Z
 ----------------------------------------------------------------
    1      C      24.7050000000    15.4590000000    28.6220000000
    2      C      25.6080000000    15.9350000000    27.4730000000
    3      C      25.5610000000    17.4720000000    27.5090000000
    4      C      25.8910000000    18.0400000000    28.8990000000
    5      C      25.2140000000    17.3810000000    30.1120000000
    6      C      25.1600000000    15.8460000000    30.0390000000
    7      H      26.1620000000    17.8910000000    26.6930000000
    8      H      26.6120000000    15.5680000000    27.7160000000
    9      H      23.6700000000    15.7740000000    28.4460000000
   10      H      24.7380000000    14.3630000000    28.5790000000
   11      H      26.9450000000    17.7860000000    29.0620000000
   12      H      25.8060000000    19.1320000000    28.8400000000
   13      H      25.7690000000    17.7620000000    30.9770000000
   14      H      24.1810000000    17.7390000000    30.2060000000
   15      H      26.1280000000    15.4470000000    30.3650000000
   16      H      24.4400000000    15.4810000000    30.7820000000
   17      H      24.5350000000    17.7890000000    27.2810000000
   18      N      25.3350000000    15.3310000000    26.1690000000
   19      H      24.8640000000    15.9030000000    25.4790000000
   20      C      25.8660000000    14.1390000000    25.7260000000
   21      H      25.6160000000    13.9490000000    24.6670000000
   22      O      26.6650000000    13.4530000000    26.3400000000
   23      C      19.9110000000    19.0910000000    29.9540000000
   24      H      19.1960000000    18.6870000000    30.6760000000
   25      H      20.7920000000    18.4500000000    29.8670000000
   26      H      20.1840000000    20.1000000000    30.2720000000
   27      S      18.9720000000    19.3020000000    28.4250000000
   28      C      20.3280000000    20.1620000000    27.5970000000
   29      H      20.4720000000    21.0610000000    28.2020000000
   30      H      21.2160000000    19.5250000000    27.6250000000
   31      H      20.1670000000    20.5120000000    26.5740000000
   32      O      18.0000000000    20.4010000000    28.7230000000
   33      C      21.7280000000    19.1130000000    24.6010000000
   34      H      22.5060000000    19.7930000000    24.9560000000
   35      H      21.2370000000    18.7230000000    25.4970000000
   36      H      22.2360000000    18.2590000000    24.1460000000
   37      S      20.5920000000    19.9930000000    23.5050000000
   38      C      21.9210000000    20.5510000000    22.4150000000
   39      H      22.7280000000    21.0260000000    22.9800000000
   40      H      22.1850000000    19.7760000000    21.6910000000
   41      H      21.4160000000    21.3410000000    21.8540000000
   42      O      20.1850000000    21.1260000000    24.3950000000
   43      C      29.1670000000    17.0290000000    31.4500000000
   44      H      28.6610000000    17.7580000000    32.0880000000
   45      H      29.2550000000    17.3660000000    30.4140000000
   46      H      28.6310000000    16.0830000000    31.5570000000
   47      S      30.8650000000    16.7010000000    31.9730000000
   48      C      30.5290000000    16.6770000000    33.7490000000
   49      H      30.0050000000    17.5920000000    34.0360000000
   50      H      30.0020000000    15.7760000000    34.0710000000
   51      H      31.4360000000    16.5680000000    34.3500000000
   52      O      31.5210000000    18.0090000000    31.6540000000
   53      C      23.0310000000    23.4230000000    36.3530000000
   54      H      23.5720000000    22.9410000000    37.1710000000
   55      H      23.3770000000    24.4480000000    36.1980000000
   56      H      21.9550000000    23.4220000000    36.5470000000
   57      S      23.2760000000    22.4780000000    34.8320000000
   58      C      25.0710000000    22.6520000000    34.9430000000
   59      H      25.3720000000    22.1900000000    33.9990000000
   60      H      25.4510000000    23.6700000000    34.8290000000
   61      H      25.5540000000    22.1300000000    35.7730000000
   62      O      22.8560000000    23.4290000000    33.7550000000
   63      C      27.5680000000     9.8300000000    27.7410000000
   64      H      27.4840000000     9.3220000000    28.7050000000
   65      H      26.9100000000    10.7000000000    27.6700000000
   66      H      27.4220000000     9.0680000000    26.9710000000
   67      S      29.1940000000    10.6150000000    27.6720000000
   68      C      29.2010000000    10.4800000000    25.8700000000
   69      H      30.1750000000    10.9080000000    25.6200000000
   70      H      29.1290000000     9.4250000000    25.5950000000
   71      H      28.4230000000    11.1920000000    25.5820000000
   72      O      30.1850000000     9.5650000000    28.0670000000
   73      C      24.1500000000    19.5500000000    36.8530000000
   74      H      23.7510000000    18.5340000000    36.9070000000
   75      H      23.5930000000    20.2550000000    37.4760000000
   76      H      24.1640000000    19.9330000000    35.8290000000
   77      S      25.8670000000    19.4090000000    37.3960000000
   78      C      25.5090000000    18.1020000000    38.5910000000
   79      H      25.4100000000    17.1510000000    38.0600000000
   80      H      26.2710000000    18.1570000000    39.3730000000
   81      H      24.6230000000    18.3690000000    39.1730000000
   82      O      26.1800000000    20.7040000000    38.0770000000
   83      C      23.1830000000    12.8990000000    35.5390000000
   84      H      24.1790000000    12.6050000000    35.1970000000
   85      H      23.1020000000    13.9560000000    35.8070000000
   86      H      23.0580000000    12.3350000000    36.4660000000
   87      S      21.8110000000    12.3330000000    34.5090000000
   88      C      22.3840000000    13.4440000000    33.2040000000
   89      H      23.0370000000    14.1690000000    33.6960000000
   90      H      22.9510000000    12.8630000000    32.4710000000
   91      H      21.4880000000    13.8480000000    32.7260000000
   92      O      20.6440000000    13.1060000000    35.0390000000
   93      C      31.4140000000    13.9670000000    22.5700000000
   94      H      30.7960000000    14.3920000000    21.7750000000
   95      H      31.8740000000    14.6890000000    23.2500000000
   96      H      32.3280000000    13.5630000000    22.1260000000
   97      S      30.4420000000    12.8600000000    23.6160000000
   98      C      29.4230000000    14.0730000000    24.4850000000
   99      H      28.6190000000    14.4100000000    23.8250000000
  100      H      29.0400000000    13.6560000000    25.4190000000
  101      H      30.0840000000    14.8970000000    24.7630000000
  102      O      31.4750000000    12.5330000000    24.6480000000
  103      C      26.9630000000    19.9060000000    32.7410000000
  104      H      27.6480000000    19.4270000000    32.0360000000
  105      H      26.3270000000    19.0860000000    33.0830000000
  106      H      26.5310000000    20.8380000000    32.3680000000
  107      S      28.0470000000    20.3030000000    34.1310000000
  108      C      29.4600000000    20.9050000000    33.1800000000
  109      H      30.0490000000    21.6840000000    33.6720000000
  110      H      30.1510000000    20.1160000000    32.8720000000
  111      H      28.9860000000    21.3890000000    32.3220000000
  112      O      28.4270000000    19.0100000000    34.7830000000
  113      C      28.7150000000    22.6320000000    24.1830000000
  114      H      28.4000000000    21.7130000000    24.6850000000
  115      H      29.8040000000    22.7130000000    24.1320000000
  116      H      28.3300000000    23.5810000000    24.5630000000
  117      S      28.1370000000    22.6670000000    22.4710000000
  118      C      27.4890000000    20.9810000000    22.4390000000
  119      H      26.6130000000    20.8550000000    23.0790000000
  120      H      27.1030000000    20.6840000000    21.4600000000
  121      H      28.2370000000    20.2470000000    22.7510000000
  122      O      29.4150000000    22.5380000000    21.7000000000
  123      C      20.4010000000    18.6750000000    33.2730000000
  124      H      20.2790000000    19.0310000000    34.2990000000
  125      H      20.3070000000    19.5050000000    32.5680000000
  126      H      19.6150000000    17.9590000000    33.0240000000
  127      S      22.1420000000    18.2460000000    33.0490000000
  128      C      22.2150000000    17.1630000000    34.4930000000
  129      H      23.1930000000    16.6770000000    34.5400000000
  130      H      22.2710000000    17.9020000000    35.2980000000
  131      H      21.3380000000    16.5180000000    34.5850000000
  132      O      22.8950000000    19.4760000000    33.4530000000
  133      C      30.7200000000    12.6720000000    30.2310000000
  134      H      31.1990000000    13.4320000000    30.8530000000
  135      H      30.9430000000    11.7230000000    30.7260000000
  136      H      31.1660000000    12.6020000000    29.2360000000
  137      S      28.9470000000    13.0200000000    30.1810000000
  138      C      29.1360000000    14.4750000000    29.1270000000
  139      H      28.2110000000    15.0400000000    29.2730000000
  140      H      29.9820000000    15.0630000000    29.4910000000
  141      H      29.2480000000    14.1590000000    28.0870000000
  142      O      28.7470000000    13.5050000000    31.5830000000
  143      C      24.8310000000    14.4170000000    20.9940000000
  144      H      25.7930000000    14.9340000000    21.0440000000
  145      H      24.3520000000    14.4900000000    21.9730000000
  146      H      24.9350000000    13.3860000000    20.6470000000
  147      S      23.7920000000    15.3320000000    19.8330000000
  148      C      22.7550000000    14.0680000000    19.0630000000
  149      H      22.3950000000    14.5660000000    18.1590000000
  150      H      23.4290000000    13.2380000000    18.8370000000
  151      H      22.1000000000    13.6400000000    19.8260000000
  152      O      24.7230000000    15.7330000000    18.7310000000
  153      C      23.4510000000    24.2420000000    30.1340000000
  154      H      22.7530000000    24.3790000000    29.3040000000
  155      H      23.1020000000    24.7370000000    31.0440000000
  156      H      24.5100000000    24.3310000000    29.8750000000
  157      S      22.9940000000    22.5290000000    30.4800000000
  158      C      24.4300000000    21.9230000000    31.3940000000
  159      H      25.1900000000    21.5710000000    30.6910000000
  160      H      24.8040000000    22.6760000000    32.0930000000
  161      H      24.0820000000    21.0480000000    31.9480000000
  162      O      23.0160000000    21.8410000000    29.1500000000
  163      C      27.5400000000    25.4360000000    30.8350000000
  164      H      27.4140000000    24.8660000000    29.9110000000
  165      H      26.5550000000    25.8650000000    31.0350000000
  166      H      28.2720000000    26.2380000000    30.7080000000
  167      S      27.8260000000    24.2410000000    32.1600000000
  168      C      29.6100000000    24.0700000000    31.9270000000
  169      H      29.8780000000    23.4500000000    31.0680000000
  170      H      30.1390000000    25.0230000000    31.8500000000
  171      H      29.9720000000    23.6660000000    32.8760000000
  172      O      27.0770000000    22.9950000000    31.8020000000
  173      C      32.1090000000    18.6070000000    22.0930000000
  174      H      32.5500000000    17.7860000000    22.6640000000
  175      H      32.1480000000    18.4380000000    21.0140000000
  176      H      32.5420000000    19.5890000000    22.3010000000
  177      S      30.3220000000    18.5410000000    22.3540000000
  178      C      30.4750000000    19.0980000000    24.0670000000
  179      H      31.4950000000    18.8490000000    24.3710000000
  180      H      30.2940000000    20.1690000000    24.1880000000
  181      H      29.7300000000    18.5680000000    24.6650000000
  182      O      30.0530000000    17.0730000000    22.4700000000
  183      C      16.2320000000    15.1760000000    32.3650000000
  184      H      16.1700000000    16.1540000000    32.8500000000
  185      H      15.4630000000    15.2360000000    31.5910000000
  186      H      15.8900000000    14.3780000000    33.0300000000
  187      S      17.9330000000    14.9140000000    31.8140000000
  188      C      18.5610000000    15.1920000000    33.4850000000
  189      H      18.8280000000    14.3140000000    34.0800000000
  190      H      19.4700000000    15.7800000000    33.3300000000
  191      H      17.8510000000    15.7960000000    34.0550000000
  192      O      18.2860000000    16.2540000000    31.2470000000
  193      C      24.7850000000    17.8700000000    22.2140000000
  194      H      24.6580000000    16.8230000000    21.9250000000
  195      H      23.8680000000    18.4410000000    22.0460000000
  196      H      25.5530000000    18.3330000000    21.5910000000
  197      S      25.4820000000    18.0440000000    23.8720000000
  198      C      26.8020000000    16.8400000000    23.6010000000
  199      H      26.4180000000    15.9970000000    23.0210000000
  200      H      27.4910000000    17.3030000000    22.8910000000
  201      H      27.2780000000    16.6220000000    24.5600000000
  202      O      24.4550000000    17.4260000000    24.7690000000
  203      C      25.0010000000    20.9160000000    26.4500000000
  204      H      24.9000000000    21.0650000000    27.5290000000
  205      H      24.2620000000    20.2010000000    26.0800000000
  206      H      25.9970000000    20.5520000000    26.1870000000
  207      S      24.7660000000    22.4300000000    25.4920000000
  208      C      23.0870000000    22.7580000000    26.0750000000
  209      H      22.8130000000    23.5040000000    25.3240000000
  210      H      22.3540000000    21.9530000000    25.9780000000
  211      H      23.0670000000    23.1840000000    27.0810000000
  212      O      24.6170000000    21.8950000000    24.1020000000
  213      C      20.9620000000    15.5020000000    29.5360000000
  214      H      20.0020000000    15.2900000000    30.0150000000
  215      H      21.6820000000    15.9350000000    30.2340000000
  216      H      20.6560000000    16.1540000000    28.7130000000
  217      S      21.4890000000    13.8890000000    28.9150000000
  218      C      19.9080000000    13.1620000000    28.4280000000
  219      H      19.9820000000    12.0860000000    28.6030000000
  220      H      19.1460000000    13.4710000000    29.1480000000
  221      H      19.6460000000    13.3030000000    27.3760000000
  222      O      21.8990000000    13.0190000000    30.0620000000
  223      C      22.6090000000    11.2080000000    21.6600000000
  224      H      23.6140000000    11.3890000000    22.0480000000
  225      H      22.2660000000    12.0340000000    21.0330000000
  226      H      21.8420000000    11.0430000000    22.4210000000
  227      S      22.5770000000     9.7450000000    20.6000000000
  228      C      23.0330000000     8.6960000000    21.9990000000
  229      H      22.3170000000     8.8460000000    22.8110000000
  230      H      23.0880000000     7.6550000000    21.6700000000
  231      H      24.0450000000     8.8210000000    22.3930000000
  232      O      23.8940000000     9.9340000000    19.9140000000
  233      C      26.1110000000    15.4050000000    33.4960000000
  234      H      27.0410000000    15.0770000000    33.0250000000
  235      H      25.3750000000    14.5980000000    33.5260000000
  236      H      25.7170000000    16.2060000000    32.8660000000
  237      S      26.4100000000    16.0320000000    35.1640000000
  238      C      27.4810000000    14.6370000000    35.5780000000
  239      H      28.3770000000    14.8390000000    34.9860000000
  240      H      27.7630000000    14.7930000000    36.6230000000
  241      H      26.8780000000    13.7350000000    35.4510000000
  242      O      25.1610000000    15.7840000000    35.9500000000
  243      C      28.1230000000    21.8390000000    28.1540000000
  244      H      27.0360000000    21.9350000000    28.0960000000
  245      H      28.5650000000    22.5280000000    28.8790000000
  246      H      28.6540000000    22.0800000000    27.2290000000
  247      S      28.4490000000    20.0820000000    28.4180000000
  248      C      30.2460000000    20.1070000000    28.6110000000
  249      H      30.5770000000    19.0770000000    28.4540000000
  250      H      30.6620000000    20.7730000000    27.8510000000
  251      H      30.4950000000    20.6360000000    29.5340000000
  252      O      28.1770000000    19.4260000000    27.1010000000
  253      C      24.6050000000    11.0160000000    31.0770000000
  254      H      24.3260000000     9.9790000000    31.2810000000
  255      H      23.7350000000    11.6550000000    31.2430000000
  256      H      24.8760000000    11.1000000000    30.0220000000
  257      S      26.0050000000    11.7320000000    31.9680000000
  258      C      26.9870000000    10.2300000000    31.7550000000
  259      H      28.0260000000    10.4300000000    32.0290000000
  260      H      26.5660000000     9.5030000000    32.4540000000
  261      H      26.9740000000     9.8950000000    30.7140000000
  262      O      25.6270000000    11.8820000000    33.4090000000
  263      C      24.0670000000     9.9190000000    27.1040000000
  264      H      23.1930000000     9.2800000000    26.9540000000
  265      H      24.9610000000     9.3470000000    27.3640000000
  266      H      23.9320000000    10.7820000000    27.7610000000
  267      S      23.9850000000    10.6900000000    25.4720000000
  268      C      22.2410000000    11.1470000000    25.5970000000
  269      H      21.8650000000    11.6420000000    24.6980000000
  270      H      21.5650000000    10.3050000000    25.7660000000
  271      H      22.1400000000    11.9270000000    26.3550000000
  272      O      23.8810000000     9.4340000000    24.6640000000
  273      C      34.7650000000    15.9030000000    26.4260000000
  274      H      35.3360000000    15.1240000000    26.9370000000
  275      H      34.7090000000    15.7030000000    25.3530000000
  276      H      35.1910000000    16.8960000000    26.5890000000
  277      S      33.1660000000    15.9140000000    27.2680000000
  278      C      32.5250000000    14.4210000000    26.4770000000
  279      H      31.4490000000    14.5930000000    26.3960000000
  280      H      32.8390000000    14.3510000000    25.4330000000
  281      H      32.8770000000    13.5980000000    27.1040000000
  282      O      32.3100000000    17.0370000000    26.7710000000
  283      C      27.0520000000     8.2550000000    22.2920000000
  284      H      27.4610000000     7.2420000000    22.3120000000
  285      H      26.1830000000     8.4600000000    22.9210000000
  286      H      26.8690000000     8.4310000000    21.2290000000
  287      S      28.3030000000     9.4860000000    22.7220000000
  288      C      27.0430000000    10.7220000000    23.1130000000
  289      H      26.5110000000    10.4870000000    24.0380000000
  290      H      27.5480000000    11.6910000000    23.1400000000
  291      H      26.3600000000    10.8140000000    22.2640000000
  292      O      28.7450000000    10.0890000000    21.4260000000
  293      C      21.5860000000    15.2200000000    25.3880000000
  294      H      22.4090000000    15.4850000000    26.0550000000
  295      H      20.9320000000    16.0750000000    25.2000000000
  296      H      21.0310000000    14.3530000000    25.7550000000
  297      S      22.3490000000    14.7930000000    23.8060000000
  298      C      20.8570000000    14.0210000000    23.1410000000
  299      H      21.0730000000    13.5240000000    22.1920000000
  300      H      20.4330000000    13.3280000000    23.8720000000
  301      H      20.0870000000    14.7820000000    22.9930000000
  302      O      23.3030000000    13.6540000000    23.9860000000
 ----------------------------------------------------------------
 Nuclear Repulsion Energy =       51016.51983977 hartrees
 There are      623 alpha and      623 beta electrons
 Requested basis set is 6-31+G(d)
 There are 995 shells and 2773 basis functions

 Total QAlloc Memory Limit  16000 MB
 Mega-Array Size      7821 MB
 MEM_STATIC part      8000 MB
 A cutoff of  1.0D-14 yielded 186983 shell pairs
 There are   1617420 function pairs
 Smallest overlap matrix eigenvalue = 4.47E-07
 Linear dependence detected in AO basis
 Tighter screening thresholds may be required for diffuse basis sets
 Use S2THRESH > 14 and THRESH = 14 in case of SCF convergence issues
 Number of orthogonalized atomic orbitals = 2770
 Maximum deviation from orthogonality = 2.159E-10

 Scale SEOQF with 1.000000e-03/1.000000e-03/1.000000e-03

 Standard Electronic Orientation quadrupole field applied
 Nucleus-field energy     =    -0.0000005429 hartrees
 Guess from superposition of atomic densities
 Warning:  Energy on first SCF cycle will be non-variational
 SAD guess density has 1246.000002 electrons

 -----------------------------------------------------------------------
  General SCF calculation program by
  Eric Jon Sundstrom, Paul Horn, Yuezhi Mao, Dmitri Zuev, Alec White,
  David Stuck, Shaama M.S., Shane Yost, Joonho Lee, David Small,
  Daniel Levine, Susi Lehtola, Hugh Burton, Evgeny Epifanovsky,
  Bang C. Huynh
 -----------------------------------------------------------------------
=================================================
        Doing projection-based embedding         
      F. Manby et al. JCTC, 8, 2564 (2012)       
=================================================

****************************************************
   Low-level SCF calculation for the whole system   
****************************************************
----------------------------------------------
 Summary of the low-level theory: 
 Exchange:     0.2000 Hartree-Fock + 0.0800 Slater + 0.7200 B88
 Correlation:  0.1900 VWN1RPA + 0.8100 LYP
 Using Euler-Maclaurin-Lebedev (75,302) quadrature formula
----------------------------------------------
 using 16 threads for integral computing
 -------------------------------------------------------
 OpenMP Integral computing Module                
 Release: version 2.0, May 2017, Q-Chem Inc. Pleasanton 
 -------------------------------------------------------
 A restricted SCF calculation will be
 performed using DIIS
 SCF converges when DIIS error is below 1.0e-08
 ---------------------------------------
  Cycle       Energy         DIIS error
 ---------------------------------------
    1  -15913.8997080083      1.33e-02  
    2  -15888.9656063504      2.45e-03  
    3  -15876.8067665679      4.63e-03  
    4  -15893.0753909905      9.67e-04  
    5  -15893.8892775583      1.97e-04  
    6  -15893.9110024461      1.20e-04  
    7  -15893.9211942795      3.85e-05  
    8  -15893.9223984883      6.41e-06  
    9  -15893.9224301614      2.83e-06  
   10  -15893.9224361455      1.07e-06  
   11  -15893.9224369661      3.67e-07  
   12  -15893.9224370660      1.10e-07  
   13  -15893.9224370748      4.17e-08  
   14  -15893.9224370762      1.80e-08  
   15  -15893.9224370765      5.22e-09  Convergence criterion met
 ---------------------------------------
 SCF time:   CPU 198647.29s  wall 12560.00s 
 SCF   energy in the final basis set =   -15893.9224370765
 Total energy in the final basis set =   -15893.9224370765

****************************************************
             Start embedding calculation            
****************************************************
----------------------------------------------
 Summary of the high-level theory: 
 Exchange:     0.2000 Hartree-Fock + 0.0800 Slater + 0.7200 B88
 Correlation:  0.1900 VWN1RPA + 0.8100 LYP
 Using Euler-Maclaurin-Lebedev (75,302) quadrature formula
----------------------------------------------
Doing R-in-R Embedding Calculation
Number of fragments: 2
Embedded fragment(s): 1 
NOcc for each fragment
           35
          588
NBasis for each fragment
          197
         2576
Variational space of the embedded problem: 
NOcc (active)  = 35
NOcc (fixed)   = 588
NVir (total)   = 2147
Read converged orbitals from disk
=========================================================
       Doing SPADE partition for the orbital space       
     D. CLaudino and N. Mayhall JCTC 15, 1053 (2019)     
=========================================================
SPADE singular values:
 1.0000 1.0000 1.0000 1.0000 1.0000 1.0000 1.0000 1.0000 1.0000 0.9999
 0.9998 0.9997 0.9996 0.9995 0.9995 0.9992 0.9991 0.9987 0.9986 0.9976
 0.9971 0.9969 0.9961 0.9956 0.9952 0.9947 0.9939 0.9934 0.9924 0.9915
 0.9905 0.9886 0.9849 0.9833 0.9745 0.2346 0.1890 0.1766 0.1654 0.1469
 0.1401 0.1343 0.1273 0.1204 0.1128 0.1015 0.0906 0.0795 0.0731 0.0704
 0.0645 0.0614 0.0573 0.0506 0.0469 0.0451 0.0413 0.0384 0.0367 0.0343
 0.0322 0.0276 0.0260 0.0255 0.0246 0.0236 0.0221 0.0203 0.0202 0.0190
 0.0178 0.0173 0.0166 0.0155 0.0136 0.0133 0.0126 0.0116 0.0113 0.0106
 0.0101 0.0099 0.0087 0.0079 0.0078 0.0073 0.0069 0.0065 0.0063 0.0059
 0.0056 0.0055 0.0053 0.0049 0.0046 0.0045 0.0043 0.0041 0.0038 0.0037
 0.0035 0.0034 0.0031 0.0030 0.0029 0.0026 0.0025 0.0024 0.0023 0.0022
 0.0021 0.0020 0.0020 0.0019 0.0018 0.0018 0.0018 0.0017 0.0016 0.0016
 0.0015 0.0014 0.0014 0.0013 0.0013 0.0012 0.0012 0.0012 0.0012 0.0011
 0.0011 0.0010 0.0010 0.0010 0.0009 0.0009 0.0008 0.0008 0.0008 0.0008
 0.0007 0.0007 0.0007 0.0006 0.0006 0.0006 0.0006 0.0006 0.0005 0.0005
 0.0005 0.0005 0.0004 0.0004 0.0004 0.0004 0.0003 0.0003 0.0003 0.0003
 0.0003 0.0003 0.0003 0.0003 0.0003 0.0002 0.0002 0.0002 0.0002 0.0002
 0.0002 0.0002 0.0002 0.0002 0.0002 0.0002 0.0002 0.0002 0.0002 0.0001
 0.0001 0.0001 0.0001 0.0001 0.0001 0.0001 0.0001 0.0001 0.0001 0.0001
 0.0001 0.0001 0.0001 0.0001 0.0001 0.0001 0.0001
Early stop requested!
588 environment occs will be part of frozen-core in future post-HF calculations
 
 --------------------------------------------------------------
 
                    Orbital Energies (a.u.)
 --------------------------------------------------------------
 
 Alpha MOs
 -- Occupied --
 -0.6167  -0.5690  -0.5734  -0.5235  -0.5052  -0.5126  -0.4911  -0.4934
 -0.5052  -0.4793  -0.4735  -0.4539  -0.4845  -0.4910  -0.4786  -0.4829
 -0.4798  -0.4727  -0.4971  -0.5630  -0.6332  -0.4813  -0.5206  -0.6024
 -0.6338  -0.5941  -0.5702  -0.5085  -0.6634  -0.5544  -0.6128  -0.6127
 -0.6684  -0.6121  -0.4978  -0.5859  -0.5572  -0.6106  -0.5962  -0.6736
 -0.5531  -0.9273  -0.5818  -0.6131  -0.5491  -0.6672  -0.6330  -0.6280
 -0.6144  -0.5951  -0.5959  -0.5725  -0.6409  -0.6160  -0.5792  -0.7013
 -0.6508  -0.6365  -0.7033  -0.7396  -0.7107  -0.6485  -0.7638  -0.7827
 -0.8922  -0.9279  -0.8682  -0.8584  -0.8192  -1.1385  -0.9123  -1.1471
 -1.4224  -1.1720  -1.2373  -1.1922  -1.0615  -1.7906  -1.2051  -1.5367
 -1.7116  -1.4791  -3.4296  -2.1902  -1.2621  -1.6075  -1.2743  -1.2328
 -1.5220  -1.0670  -1.2544  -0.9538  -1.3629  -1.1810  -1.8158  -1.9477
 -0.8555  -1.3435  -1.4253  -1.1238  -1.9003  -1.2145  -1.1802  -1.4385
 -1.2165  -1.3135  -1.4004  -2.3646  -1.2652  -1.4929  -1.1758  -1.8654
 -1.6234  -1.6956  -1.2586  -1.7098  -1.2465  -1.0964  -1.6167  -1.4608
 -1.4953  -1.1123  -1.5036  -1.4101  -1.8190  -1.4074  -1.4524  -1.1036
 -1.9449  -1.3771  -1.3948  -1.1516  -1.7534  -1.1521  -1.3682  -1.3033
 -1.9523  -1.5218  -1.4668  -1.7920  -1.6793  -1.4764  -2.3811  -1.7274
 -1.4526  -1.3423  -2.2343  -1.8689  -1.5232  -1.4921  -1.9577  -1.6363
 -2.5131  -2.3063  -1.8929  -1.9138  -1.8795  -2.4760  -1.9747  -2.5932
 -2.0016  -2.0876  -5.9637  -6.0174  -5.9568  -5.9742  -5.9908  -5.9974
 -5.8659  -5.9778  -5.9862  -5.9961  -5.9973  -6.0212  -6.0018  -5.9963
 -6.0178  -5.9851  -5.9019  -5.9735  -5.9915  -5.9908  -5.9509  -5.9906
 -6.0184  -5.9070  -5.9870  -5.9885  -5.9512  -5.9853  -6.0031  -5.9850
 -5.9703  -5.9863  -5.9907  -5.9644  -5.9897  -5.9789  -1.7203  -7.9949
-24.1201 -37.8238 -30.6665  -3.4301  -5.8735 -15.4772  -6.7654  -5.5616
 -6.5971  -6.1149  -2.0987  -2.1183  -6.4425  -1.9455  -1.2297  -2.1279
 -4.6215  -2.7603  -4.7615  -1.8211  -3.2098  -1.5662  -4.0274  -2.9700
 -1.4326  -1.8214  -2.3449 -74.9775  -9.3316  -2.2290 -82.1214 -15.4601
-22.5534  -6.6754 -11.3968  -1.2421  -5.7372 -10.1624  -2.0825  -3.7678
 -6.2603  -6.0582  -2.5726  -2.5454  -1.6944 -10.0961  -1.4352  -3.1270
 -8.0770  -5.2804  -1.3515  -2.8357  -1.1625  -2.8329  -4.6235  -2.0557
 -4.6714  -1.0571 -12.0559 -62.6649 -42.3120 -72.6499 -11.2145  -4.3046
-14.0788  -9.8672  -1.1352  -9.7697  -8.6895  -5.2356  -5.9269  -1.7402
 -4.5420  -1.9313  -7.5436  -3.5929  -2.5644  -6.5945  -1.3968  -9.5894
 -4.2747  -9.6212  -2.5125  -3.7465  -0.9853  -3.4962  -3.8510  -1.3183
-20.8080 -55.0354 -26.4518  -3.7263 -12.2863  -5.1980 -48.1108 -36.0029
 -8.9281  -5.7581  -3.9390  -1.7561  -4.0452  -5.2295  -2.6864  -1.8294
 -1.7393  -2.3557  -7.9637  -3.7063  -6.6979  -2.2930  -6.7050  -3.2048
 -2.9171  -3.9514  -4.2091  -1.1682  -4.1025 -57.6421 -65.8015 -62.4729
-10.9010  -1.2449 -16.1104  -1.2501 -14.6058  -9.8154 -15.3270 -16.9808
 -1.7601 -19.8444 -13.0431  -4.6034 -24.3407  -5.3405 -16.6153 -12.6719
-34.4064  -4.1854  -7.4643  -9.0136 -18.4587 -11.0358  -7.1996  -8.2990
 -9.9659  -4.1807  -9.1333  -6.6739  -7.1211  -8.2440  -2.7021  -6.1154
 -9.9527  -7.1199  -5.7044  -6.6925  -4.6528  -6.1725  -4.7362  -4.4095
 -3.1215  -5.2899 -11.1972  -5.6048  -4.4778  -3.5540  -3.0500  -3.1628
-17.4516  -7.8194  -4.4124  -3.8467  -9.4250 -10.2193  -9.2151  -4.8021
 -6.2059  -7.9914  -4.6539 -20.9389  -4.0007  -4.0683  -6.1287 -13.8588
 -9.7851  -4.3235  -6.3180  -4.7357  -4.5745  -9.1554  -6.0845  -5.4460
 -3.5030  -2.5133  -3.6390  -6.9368  -5.7908  -7.3237 -14.4085  -8.9690
 -2.7040 -11.4000  -5.6447  -6.9764  -6.3722  -7.7534  -6.1006  -5.4314
 -5.0339 -31.1881  -6.6980  -9.6886  -6.6198  -5.7770 -10.4909  -3.3646
 -4.3251  -5.9239  -6.3388 -13.5624  -6.6867 -10.1054 -21.9329 -15.2943
-17.7918 -12.0345  -7.1729  -6.8992  -5.3065 -12.7208  -4.8974  -7.8632
 -8.3260  -5.2128  -8.6293  -9.2125 -16.3691  -6.4890  -5.5930  -4.8224
-10.6295  -4.6114  -3.4008  -3.3458  -4.8283 -10.6135  -5.7363  -4.7130
-12.2831  -3.9439  -8.9808  -5.6074 -10.7675 -11.4034  -4.1576  -4.2632
 -5.9407  -8.7646 -28.2561 -15.0014  -5.5084 -13.2411  -1.7115  -4.0330
 -6.5044  -4.1414  -4.5065  -4.4029  -4.6964  -5.4950 -10.0394  -8.0373
 -4.2936 -15.7356 -10.7497  -4.7331 -21.4267  -7.6640  -8.1765 -11.8615
-29.9133  -4.9498  -3.8205  -6.2220 -22.5776 -15.0020 -14.5323  -9.7232
 -5.8230  -7.2295  -8.1465  -4.4933  -5.3975 -39.5882  -7.9151  -6.9079
 -9.9778  -8.7810 -12.1075 -14.1933  -2.0432  -7.8836  -2.1568 -36.8991
 -9.8145  -6.3012  -2.3970  -5.7693  -7.8162  -2.9208  -3.0882  -5.8709
 -8.2119  -4.4627  -5.8235  -2.3092  -5.9044 -34.2586 -15.1352 -21.0363
 -6.6549 -55.8304  -9.8734 -20.3155  -1.6933  -3.1231  -3.9626 -65.5550
 -3.0190 -54.8716 -41.4216 -78.6288 -45.2051 -26.1937 -16.2233  -4.1106
 -7.9712 -10.3214 -17.4375  -7.7631  -9.2725 -16.9395  -5.1845  -6.4416
 -3.8379  -5.9412  -3.5184 -10.7399 -25.5454 -26.2205 -11.0118  -5.6154
 -6.0009 -16.5735 -12.6251  -8.0376  -3.3091 -10.0685  -5.5617  -7.3038
-69.0027  -6.9962 -11.2496 -13.2531  -6.8165  -6.5647 -45.8854 -13.3791
-25.0081 -12.9784  -4.0956 -21.6546  -2.3781  -7.8013  -9.6952  -9.8193
 -4.7329  -5.0694  -7.7993  -5.9759  -6.7443  -2.9255  -8.2841  -7.6700
 -7.6207  -4.6252 -10.7563  -2.7497 -10.6049 -16.6115 -12.1240 -11.0435
-10.1362 -11.1146 -10.3553 -11.8073 -10.1930  -0.8896  -0.6582  -0.9749
 -0.7557  -0.6569  -0.7112  -0.6290  -0.8248  -0.4087  -0.4884  -0.4201
 -0.4876  -0.4698  -0.4204  -0.4209  -0.4610  -0.4277  -0.4181  -0.4475
 -0.4720  -0.4663  -0.4617  -0.5141  -0.5336  -0.4571  -0.5995
 -- Virtual --
 -0.0455  -0.0389  -0.0334  -0.0282  -0.0261  -0.0234  -0.0215  -0.0203
 -0.0199  -0.0179  -0.0171  -0.0159  -0.0151  -0.0146  -0.0137  -0.0131
 -0.0119  -0.0088  -0.0079  -0.0074  -0.0071  -0.0066  -0.0059  -0.0047
 -0.0042  -0.0039  -0.0025  -0.0022  -0.0020  -0.0014  -0.0011  -0.0005
  0.0006   0.0013   0.0019   0.0026   0.0029   0.0037   0.0040   0.0049
  0.0063   0.0068   0.0071   0.0080   0.0087   0.0092   0.0098   0.0103
  0.0109   0.0116   0.0120   0.0132   0.0134   0.0138   0.0142   0.0147
  0.0152   0.0157   0.0164   0.0169   0.0175   0.0181   0.0183   0.0198
  0.0204   0.0205   0.0220   0.0222   0.0232   0.0250   0.0253   0.0255
  0.0260   0.0265   0.0272   0.0280   0.0283   0.0291   0.0298   0.0310
  0.0313   0.0321   0.0323   0.0331   0.0339   0.0346   0.0348   0.0355
  0.0364   0.0367   0.0373   0.0382   0.0388   0.0394   0.0401   0.0403
  0.0411   0.0414   0.0425   0.0433   0.0437   0.0442   0.0450   0.0452
  0.0459   0.0462   0.0469   0.0473   0.0475   0.0480   0.0492   0.0494
  0.0503   0.0507   0.0521   0.0526   0.0531   0.0535   0.0538   0.0541
  0.0554   0.0558   0.0562   0.0575   0.0577   0.0586   0.0592   0.0596
  0.0603   0.0611   0.0616   0.0627   0.0632   0.0637   0.0646   0.0648
  0.0650   0.0656   0.0662   0.0666   0.0674   0.0680   0.0688   0.0689
  0.0697   0.0703   0.0706   0.0712   0.0717   0.0725   0.0738   0.0746
  0.0755   0.0758   0.0761   0.0766   0.0774   0.0777   0.0788   0.0790
  0.0794   0.0808   0.0815   0.0817   0.0826   0.0829   0.0834   0.0838
  0.0852   0.0858   0.0863   0.0869   0.0871   0.0882   0.0893   0.0895
  0.0900   0.0905   0.0908   0.0910   0.0928   0.0933   0.0936   0.0939
  0.0943   0.0946   0.0953   0.0956   0.0971   0.0973   0.0980   0.0986
  0.0993   0.0997   0.1001   0.1012   0.1017   0.1028   0.1035   0.1041
  0.1049   0.1052   0.1058   0.1061   0.1070   0.1078   0.1085   0.1092
  0.1096   0.1098   0.1110   0.1113   0.1122   0.1128   0.1129   0.1138
  0.1149   0.1156   0.1162   0.1168   0.1172   0.1179   0.1184   0.1192
  0.1196   0.1204   0.1207   0.1214   0.1218   0.1229   0.1230   0.1237
  0.1241   0.1248   0.1252   0.1257   0.1264   0.1269   0.1276   0.1279
  0.1293   0.1295   0.1306   0.1309   0.1313   0.1320   0.1326   0.1333
  0.1337   0.1338   0.1347   0.1355   0.1358   0.1371   0.1374   0.1378
  0.1382   0.1385   0.1392   0.1394   0.1399   0.1405   0.1414   0.1419
  0.1425   0.1433   0.1438   0.1445   0.1450   0.1457   0.1464   0.1472
  0.1479   0.1482   0.1488   0.1494   0.1499   0.1499   0.1504   0.1509
  0.1515   0.1523   0.1532   0.1533   0.1537   0.1549   0.1553   0.1557
  0.1558   0.1564   0.1569   0.1579   0.1584   0.1590   0.1600   0.1601
  0.1605   0.1613   0.1620   0.1623   0.1629   0.1645   0.1651   0.1656
  0.1667   0.1669   0.1672   0.1675   0.1684   0.1685   0.1694   0.1701
  0.1702   0.1712   0.1715   0.1720   0.1727   0.1732   0.1744   0.1746
  0.1748   0.1751   0.1759   0.1769   0.1774   0.1783   0.1786   0.1795
  0.1799   0.1804   0.1811   0.1812   0.1818   0.1826   0.1832   0.1836
  0.1842   0.1848   0.1859   0.1864   0.1869   0.1871   0.1876   0.1879
  0.1885   0.1891   0.1898   0.1905   0.1912   0.1920   0.1929   0.1933
  0.1935   0.1944   0.1949   0.1957   0.1961   0.1962   0.1965   0.1979
  0.1985   0.1992   0.2000   0.2003   0.2015   0.2017   0.2023   0.2032
  0.2035   0.2046   0.2050   0.2055   0.2065   0.2066   0.2069   0.2074
  0.2085   0.2097   0.2100   0.2104   0.2106   0.2116   0.2120   0.2126
  0.2131   0.2138   0.2140   0.2143   0.2152   0.2153   0.2160   0.2174
  0.2179   0.2185   0.2189   0.2196   0.2204   0.2216   0.2220   0.2223
  0.2232   0.2235   0.2242   0.2249   0.2257   0.2260   0.2269   0.2274
  0.2283   0.2285   0.2292   0.2299   0.2309   0.2317   0.2325   0.2326
  0.2331   0.2339   0.2343   0.2351   0.2357   0.2362   0.2370   0.2376
  0.2380   0.2389   0.2394   0.2404   0.2408   0.2411   0.2421   0.2432
  0.2435   0.2438   0.2450   0.2453   0.2460   0.2464   0.2469   0.2479
  0.2484   0.2489   0.2493   0.2496   0.2499   0.2507   0.2519   0.2532
  0.2536   0.2545   0.2549   0.2560   0.2564   0.2568   0.2583   0.2588
  0.2591   0.2599   0.2608   0.2612   0.2623   0.2627   0.2635   0.2644
  0.2646   0.2654   0.2662   0.2668   0.2671   0.2676   0.2685   0.2694
  0.2701   0.2707   0.2718   0.2726   0.2728   0.2739   0.2745   0.2751
  0.2758   0.2765   0.2770   0.2776   0.2790   0.2793   0.2798   0.2802
  0.2805   0.2824   0.2829   0.2835   0.2837   0.2846   0.2858   0.2862
  0.2878   0.2879   0.2884   0.2887   0.2905   0.2905   0.2914   0.2917
  0.2928   0.2936   0.2944   0.2955   0.2969   0.2970   0.2973   0.2981
  0.2986   0.2995   0.2998   0.3015   0.3026   0.3040   0.3044   0.3057
  0.3058   0.3065   0.3076   0.3089   0.3094   0.3100   0.3104   0.3113
  0.3121   0.3128   0.3134   0.3143   0.3154   0.3160   0.3168   0.3177
  0.3180   0.3189   0.3201   0.3212   0.3218   0.3221   0.3227   0.3236
  0.3245   0.3256   0.3260   0.3269   0.3284   0.3290   0.3298   0.3308
  0.3313   0.3325   0.3327   0.3335   0.3346   0.3349   0.3359   0.3367
  0.3370   0.3373   0.3397   0.3405   0.3413   0.3415   0.3421   0.3434
  0.3441   0.3442   0.3453   0.3461   0.3471   0.3480   0.3489   0.3500
  0.3507   0.3518   0.3528   0.3532   0.3538   0.3543   0.3547   0.3554
  0.3577   0.3582   0.3587   0.3597   0.3603   0.3616   0.3624   0.3634
  0.3639   0.3642   0.3649   0.3661   0.3670   0.3677   0.3686   0.3696
  0.3706   0.3707   0.3711   0.3727   0.3737   0.3742   0.3746   0.3753
  0.3757   0.3770   0.3778   0.3781   0.3811   0.3819   0.3821   0.3833
  0.3845   0.3848   0.3850   0.3857   0.3867   0.3873   0.3892   0.3899
  0.3909   0.3911   0.3917   0.3933   0.3941   0.3950   0.3954   0.3960
  0.3965   0.3987   0.3991   0.3996   0.4013   0.4021   0.4023   0.4039
  0.4044   0.4051   0.4063   0.4065   0.4071   0.4081   0.4093   0.4105
  0.4114   0.4122   0.4128   0.4138   0.4144   0.4148   0.4158   0.4168
  0.4177   0.4185   0.4194   0.4207   0.4218   0.4224   0.4234   0.4237
  0.4253   0.4265   0.4274   0.4279   0.4288   0.4300   0.4310   0.4316
  0.4327   0.4328   0.4346   0.4350   0.4355   0.4365   0.4381   0.4399
  0.4406   0.4412   0.4423   0.4432   0.4454   0.4459   0.4468   0.4481
  0.4490   0.4496   0.4502   0.4516   0.4526   0.4532   0.4546   0.4561
  0.4574   0.4586   0.4591   0.4614   0.4619   0.4629   0.4644   0.4651
  0.4666   0.4683   0.4704   0.4710   0.4716   0.4737   0.4746   0.4755
  0.4768   0.4777   0.4811   0.4819   0.4826   0.4841   0.4855   0.4865
  0.4870   0.4901   0.4904   0.4912   0.4924   0.4954   0.4958   0.4976
  0.4990   0.4997   0.5008   0.5020   0.5031   0.5050   0.5060   0.5083
  0.5096   0.5125   0.5133   0.5150   0.5168   0.5178   0.5179   0.5190
  0.5226   0.5233   0.5245   0.5254   0.5279   0.5292   0.5299   0.5322
  0.5335   0.5346   0.5366   0.5399   0.5423   0.5442   0.5450   0.5468
  0.5473   0.5497   0.5512   0.5519   0.5531   0.5542   0.5549   0.5566
  0.5589   0.5598   0.5610   0.5636   0.5640   0.5652   0.5668   0.5684
  0.5705   0.5712   0.5744   0.5752   0.5761   0.5775   0.5790   0.5794
  0.5807   0.5824   0.5842   0.5853   0.5863   0.5880   0.5898   0.5914
  0.5927   0.5934   0.5948   0.5969   0.6000   0.6005   0.6033   0.6039
  0.6051   0.6058   0.6067   0.6079   0.6087   0.6102   0.6112   0.6123
  0.6128   0.6145   0.6153   0.6178   0.6186   0.6195   0.6204   0.6210
  0.6221   0.6232   0.6243   0.6258   0.6263   0.6279   0.6304   0.6314
  0.6319   0.6319   0.6342   0.6349   0.6362   0.6378   0.6386   0.6401
  0.6407   0.6416   0.6431   0.6437   0.6444   0.6467   0.6472   0.6477
  0.6506   0.6512   0.6524   0.6534   0.6540   0.6550   0.6566   0.6579
  0.6592   0.6593   0.6604   0.6618   0.6625   0.6634   0.6639   0.6641
  0.6660   0.6672   0.6676   0.6684   0.6706   0.6711   0.6720   0.6730
  0.6741   0.6758   0.6773   0.6774   0.6781   0.6792   0.6806   0.6816
  0.6819   0.6840   0.6849   0.6856   0.6866   0.6872   0.6888   0.6902
  0.6917   0.6927   0.6936   0.6959   0.6962   0.6969   0.6982   0.6995
  0.7010   0.7017   0.7034   0.7047   0.7053   0.7060   0.7073   0.7110
  0.7120   0.7133   0.7147   0.7167   0.7172   0.7185   0.7190   0.7193
  0.7207   0.7229   0.7238   0.7257   0.7262   0.7272   0.7286   0.7294
  0.7314   0.7327   0.7335   0.7350   0.7366   0.7389   0.7401   0.7405
  0.7408   0.7422   0.7448   0.7453   0.7465   0.7477   0.7495   0.7510
  0.7529   0.7531   0.7546   0.7566   0.7592   0.7601   0.7605   0.7618
  0.7634   0.7647   0.7665   0.7670   0.7684   0.7695   0.7700   0.7713
  0.7724   0.7747   0.7753   0.7761   0.7784   0.7795   0.7813   0.7818
  0.7847   0.7851   0.7870   0.7880   0.7910   0.7925   0.7936   0.7952
  0.7958   0.7968   0.7982   0.8009   0.8024   0.8036   0.8040   0.8052
  0.8064   0.8083   0.8092   0.8097   0.8117   0.8123   0.8137   0.8148
  0.8168   0.8177   0.8195   0.8203   0.8209   0.8237   0.8244   0.8257
  0.8269   0.8292   0.8303   0.8309   0.8341   0.8344   0.8347   0.8363
  0.8377   0.8392   0.8410   0.8412   0.8436   0.8446   0.8484   0.8485
  0.8500   0.8504   0.8526   0.8539   0.8548   0.8559   0.8570   0.8578
  0.8591   0.8614   0.8620   0.8637   0.8646   0.8661   0.8682   0.8691
  0.8701   0.8714   0.8732   0.8744   0.8752   0.8766   0.8779   0.8789
  0.8799   0.8800   0.8811   0.8825   0.8845   0.8852   0.8865   0.8883
  0.8895   0.8902   0.8916   0.8926   0.8940   0.8946   0.8958   0.8969
  0.8986   0.8994   0.9019   0.9026   0.9034   0.9048   0.9057   0.9068
  0.9087   0.9096   0.9104   0.9107   0.9118   0.9121   0.9133   0.9136
  0.9155   0.9173   0.9180   0.9188   0.9203   0.9209   0.9222   0.9237
  0.9242   0.9257   0.9272   0.9275   0.9290   0.9292   0.9301   0.9320
  0.9326   0.9332   0.9339   0.9351   0.9359   0.9372   0.9378   0.9396
  0.9403   0.9422   0.9435   0.9443   0.9459   0.9479   0.9491   0.9500
  0.9506   0.9518   0.9522   0.9529   0.9545   0.9553   0.9563   0.9583
  0.9592   0.9596   0.9609   0.9620   0.9630   0.9643   0.9660   0.9666
  0.9674   0.9696   0.9699   0.9710   0.9716   0.9718   0.9724   0.9735
  0.9742   0.9758   0.9780   0.9785   0.9791   0.9799   0.9815   0.9819
  0.9831   0.9838   0.9850   0.9851   0.9865   0.9866   0.9873   0.9898
  0.9909   0.9918   0.9923   0.9943   0.9949   0.9966   0.9981   0.9987
  0.9995   1.0008   1.0015   1.0026   1.0037   1.0040   1.0061   1.0078
  1.0083   1.0092   1.0105   1.0122   1.0128   1.0135   1.0144   1.0161
  1.0168   1.0194   1.0200   1.0206   1.0218   1.0224   1.0236   1.0239
  1.0245   1.0256   1.0260   1.0289   1.0299   1.0320   1.0324   1.0343
  1.0345   1.0371   1.0374   1.0388   1.0399   1.0408   1.0420   1.0440
  1.0445   1.0460   1.0468   1.0484   1.0506   1.0515   1.0528   1.0541
  1.0558   1.0562   1.0573   1.0589   1.0599   1.0618   1.0629   1.0643
  1.0657   1.0667   1.0681   1.0704   1.0708   1.0712   1.0736   1.0760
  1.0764   1.0782   1.0809   1.0825   1.0829   1.0843   1.0848   1.0872
  1.0880   1.0895   1.0904   1.0928   1.0932   1.0940   1.0963   1.0976
  1.0984   1.1007   1.1018   1.1031   1.1038   1.1065   1.1073   1.1081
  1.1089   1.1098   1.1105   1.1146   1.1155   1.1160   1.1180   1.1194
  1.1205   1.1213   1.1222   1.1237   1.1239   1.1257   1.1267   1.1271
  1.1294   1.1294   1.1314   1.1325   1.1332   1.1352   1.1362   1.1383
  1.1391   1.1398   1.1403   1.1412   1.1415   1.1435   1.1455   1.1461
  1.1467   1.1476   1.1493   1.1500   1.1513   1.1524   1.1531   1.1553
  1.1558   1.1570   1.1582   1.1599   1.1604   1.1626   1.1639   1.1652
  1.1664   1.1679   1.1689   1.1705   1.1714   1.1725   1.1741   1.1754
  1.1771   1.1779   1.1795   1.1815   1.1823   1.1848   1.1861   1.1866
  1.1874   1.1881   1.1899   1.1914   1.1929   1.1942   1.1962   1.1972
  1.1988   1.2014   1.2015   1.2043   1.2051   1.2091   1.2105   1.2117
  1.2125   1.2146   1.2167   1.2184   1.2198   1.2216   1.2232   1.2248
  1.2261   1.2288   1.2307   1.2323   1.2345   1.2370   1.2390   1.2404
  1.2422   1.2429   1.2442   1.2457   1.2475   1.2480   1.2508   1.2540
  1.2554   1.2576   1.2587   1.2588   1.2613   1.2670   1.2690   1.2696
  1.2705   1.2734   1.2768   1.2771   1.2795   1.2807   1.2838   1.2886
  1.2893   1.2904   1.2928   1.2947   1.2956   1.3005   1.3011   1.3036
  1.3058   1.3081   1.3091   1.3121   1.3139   1.3154   1.3164   1.3181
  1.3209   1.3222   1.3226   1.3252   1.3277   1.3291   1.3323   1.3336
  1.3378   1.3389   1.3395   1.3414   1.3422   1.3444   1.3460   1.3485
  1.3492   1.3518   1.3524   1.3542   1.3574   1.3585   1.3606   1.3610
  1.3623   1.3631   1.3649   1.3655   1.3664   1.3691   1.3706   1.3716
  1.3720   1.3749   1.3763   1.3779   1.3817   1.3835   1.3843   1.3853
  1.3866   1.3876   1.3889   1.3901   1.3920   1.3930   1.3935   1.3939
  1.3973   1.3991   1.4005   1.4019   1.4027   1.4036   1.4044   1.4054
  1.4087   1.4097   1.4105   1.4112   1.4134   1.4145   1.4159   1.4168
  1.4192   1.4199   1.4213   1.4221   1.4234   1.4240   1.4258   1.4273
  1.4286   1.4297   1.4324   1.4327   1.4348   1.4356   1.4360   1.4375
  1.4396   1.4406   1.4434   1.4440   1.4458   1.4478   1.4498   1.4506
  1.4526   1.4537   1.4558   1.4576   1.4586   1.4605   1.4612   1.4627
  1.4644   1.4659   1.4675   1.4678   1.4716   1.4731   1.4739   1.4746
  1.4756   1.4773   1.4803   1.4835   1.4841   1.4855   1.4872   1.4908
  1.4911   1.4923   1.4968   1.4972   1.4981   1.4994   1.5010   1.5041
  1.5069   1.5075   1.5085   1.5094   1.5108   1.5124   1.5128   1.5171
  1.5186   1.5208   1.5237   1.5264   1.5278   1.5313   1.5345   1.5355
  1.5385   1.5397   1.5425   1.5471   1.5490   1.5506   1.5517   1.5536
  1.5585   1.5633   1.5662   1.5693   1.5723   1.5756   1.5789   1.5823
  1.5859   1.5924   1.5937   1.5960   1.6003   1.6052   1.6065   1.6122
  1.6151   1.6171   1.6205   1.6280   1.6303   1.6346   1.6365   1.6431
  1.6456   1.6476   1.6525   1.6552   1.6571   1.6590   1.6595   1.6611
  1.6650   1.6678   1.6688   1.6719   1.6739   1.6743   1.6765   1.6767
  1.6783   1.6790   1.6804   1.6807   1.6816   1.6831   1.6847   1.6863
  1.6866   1.6873   1.6891   1.6894   1.6930   1.6934   1.6946   1.6959
  1.6968   1.6984   1.6999   1.7010   1.7018   1.7027   1.7032   1.7042
  1.7060   1.7075   1.7087   1.7102   1.7123   1.7134   1.7150   1.7157
  1.7174   1.7177   1.7183   1.7194   1.7211   1.7226   1.7232   1.7235
  1.7254   1.7263   1.7277   1.7307   1.7319   1.7324   1.7343   1.7350
  1.7363   1.7369   1.7377   1.7389   1.7407   1.7420   1.7438   1.7447
  1.7460   1.7478   1.7485   1.7493   1.7505   1.7529   1.7537   1.7561
  1.7570   1.7584   1.7596   1.7606   1.7618   1.7635   1.7643   1.7649
  1.7666   1.7679   1.7685   1.7704   1.7714   1.7731   1.7743   1.7750
  1.7758   1.7777   1.7789   1.7804   1.7826   1.7835   1.7845   1.7867
  1.7885   1.7925   1.7953   1.7961   1.7985   1.8020   1.8041   1.8060
  1.8079   1.8107   1.8129   1.8140   1.8182   1.8195   1.8217   1.8238
  1.8284   1.8323   1.8336   1.8377   1.8401   1.8438   1.8467   1.8470
  1.8498   1.8513   1.8550   1.8554   1.8604   1.8607   1.8615   1.8637
  1.8664   1.8676   1.8694   1.8704   1.8722   1.8734   1.8742   1.8763
  1.8776   1.8781   1.8806   1.8820   1.8837   1.8850   1.8873   1.8879
  1.8894   1.8902   1.8909   1.8914   1.8929   1.8936   1.8946   1.8950
  1.8961   1.8968   1.8984   1.8997   1.9007   1.9016   1.9042   1.9043
  1.9051   1.9062   1.9073   1.9084   1.9102   1.9115   1.9122   1.9149
  1.9160   1.9175   1.9190   1.9197   1.9203   1.9228   1.9262   1.9273
  1.9289   1.9300   1.9330   1.9365   1.9378   1.9388   1.9420   1.9435
  1.9441   1.9467   1.9478   1.9509   1.9532   1.9558   1.9581   1.9631
  1.9649   1.9665   1.9706   1.9740   1.9786   1.9819   1.9876   1.9948
  1.9973   1.9999   2.0061   2.0195   2.0243   2.0280   2.0394   2.0423
  2.0484   2.0501   2.0512   2.0536   2.0547   2.0552   2.0575   2.0590
  2.0593   2.0627   2.0641   2.0655   2.0664   2.0665   2.0674   2.0677
  2.0684   2.0710   2.0713   2.0717   2.0728   2.0742   2.0755   2.0763
  2.0780   2.0785   2.0804   2.0813   2.0834   2.0849   2.0854   2.0866
  2.0887   2.0897   2.0917   2.0934   2.0939   2.0960   2.0964   2.0995
  2.1015   2.1028   2.1042   2.1054   2.1066   2.1084   2.1101   2.1126
  2.1139   2.1167   2.1170   2.1190   2.1198   2.1212   2.1227   2.1233
  2.1265   2.1280   2.1321   2.1386   2.1412   2.1519   2.1622   2.1696
  2.1720   2.1759   2.1801   2.1812   2.1823   2.1839   2.1845   2.1863
  2.1877   2.1918   2.1928   2.1938   2.1974   2.1993   2.1997   2.2010
  2.2036   2.2041   2.2070   2.2079   2.2092   2.2111   2.2127   2.2144
  2.2157   2.2168   2.2170   2.2201   2.2228   2.2239   2.2250   2.2254
  2.2263   2.2273   2.2282   2.2294   2.2307   2.2332   2.2346   2.2357
  2.2366   2.2391   2.2408   2.2425   2.2434   2.2452   2.2456   2.2479
  2.2483   2.2491   2.2500   2.2509   2.2518   2.2521   2.2537   2.2542
  2.2556   2.2560   2.2563   2.2589   2.2592   2.2595   2.2603   2.2612
  2.2628   2.2647   2.2648   2.2661   2.2678   2.2689   2.2699   2.2702
  2.2707   2.2712   2.2725   2.2744   2.2748   2.2760   2.2767   2.2774
  2.2776   2.2791   2.2796   2.2813   2.2819   2.2827   2.2832   2.2847
  2.2851   2.2867   2.2882   2.2892   2.2895   2.2906   2.2933   2.2934
  2.2943   2.2961   2.2979   2.2986   2.2994   2.3012   2.3020   2.3024
  2.3045   2.3052   2.3059   2.3067   2.3071   2.3083   2.3085   2.3098
  2.3107   2.3114   2.3124   2.3131   2.3136   2.3154   2.3156   2.3172
  2.3182   2.3187   2.3214   2.3216   2.3227   2.3232   2.3244   2.3257
  2.3283   2.3298   2.3316   2.3327   2.3332   2.3353   2.3380   2.3392
  2.3403   2.3416   2.3423   2.3438   2.3450   2.3473   2.3493   2.3502
  2.3518   2.3529   2.3545   2.3548   2.3565   2.3575   2.3593   2.3610
  2.3622   2.3637   2.3665   2.3698   2.3705   2.3710   2.3740   2.3754
  2.3770   2.3788   2.3826   2.3859   2.3869   2.3906   2.3926   2.3967
  2.3984   2.4009   2.4064   2.4100   2.4268   2.4625   2.4841   2.4983
  2.5093   2.5357   2.5765   2.6634   2.7239   2.7659   2.7755   2.8064
  2.8110   2.8273   2.8337   2.8354   2.8408   2.8416   2.8418   2.8454
  2.8461   2.8474   2.8481   2.8498   2.8512   2.8521   2.8524   2.8538
  2.8551   2.8568   2.8579   2.8609   2.8621   2.8633   2.8651   2.8662
  2.8671   2.8677   2.8706   2.8743   2.8783   2.8879   2.9152   2.9387
  3.0888   3.2517   3.9549   3.9563   3.9582   3.9611   3.9626   3.9684
  3.9693   3.9724   3.9726   3.9793   3.9807   3.9836   3.9841   3.9850
  3.9863   3.9879   3.9898   3.9904   3.9932   3.9964   3.9988   3.9995
  4.0069   4.0076   4.0123   4.0164   4.0204   4.0339   4.2096   4.2187
  4.2218   4.2272   4.2318   4.2376   4.2405   4.2426   4.2454   4.2487
  4.2508   4.2547   4.2559   4.2570   4.2624   4.2638   4.2657   4.2664
  4.2718   4.2736   4.2744   4.2772   4.2779   4.2825   4.2870   4.2892
  4.2896   4.2909   4.2937   4.2972   4.2991   4.2999   4.3011   4.3033
  4.3048   4.3090   4.3131   4.3159   4.3172   4.3201   4.3226   4.3269
  4.3282   4.3320   4.3340   4.3388   4.3419   4.3427   4.3467   4.3497
  4.3502   4.3528   4.3542   4.3577   4.3608   4.3631   4.3659   4.3688
  4.3702   4.3736   4.3786   4.3813   4.3846   4.3864   4.3896   4.3955
  4.4000   4.4018   4.4066   4.4117   4.4169   4.4265   4.4342   4.4540
  4.4609   4.4649   4.4723   4.4839   4.4948   4.5032   4.5120   4.5222
  4.5294   4.5710   4.5850   4.6051   4.6068   4.6320   4.7063   4.7384
  4.7663   4.7775   4.8650
 --------------------------------------------------------------
 
          Ground-State Mulliken Net Atomic Charges

     Atom                 Charge (a.u.)
  ----------------------------------------
      1 C                    -0.212877
      2 C                    -0.544395
      3 C                     0.272521
      4 C                    -1.538669
      5 C                    -0.324627
      6 C                    -0.329989
      7 H                     0.244364
      8 H                     0.206766
      9 H                     0.194754
     10 H                     0.221151
     11 H                     0.214724
     12 H                     0.214221
     13 H                     0.189967
     14 H                     0.215937
     15 H                     0.227066
     16 H                     0.228728
     17 H                     0.238787
     18 N                     0.052796
     19 H                     0.520794
     20 C                    -0.085234
     21 H                     0.183820
     22 O                    -0.267622
     23 C                    -0.802087
     24 H                     0.283171
     25 H                     0.228112
     26 H                     0.262758
     27 S                     0.729284
     28 C                    -0.823518
     29 H                     0.285718
     30 H                     0.208069
     31 H                     0.312348
     32 O                    -0.707152
     33 C                    -1.171668
     34 H                     0.287354
     35 H                     0.244305
     36 H                     0.265681
     37 S                     0.979446
     38 C                    -0.832424
     39 H                     0.331871
     40 H                     0.222831
     41 H                     0.251917
     42 O                    -0.655495
     43 C                    -1.002330
     44 H                     0.256651
     45 H                     0.263894
     46 H                     0.283143
     47 S                     0.991505
     48 C                    -0.922027
     49 H                     0.327204
     50 H                     0.226578
     51 H                     0.251013
     52 O                    -0.666627
     53 C                    -0.941911
     54 H                     0.250730
     55 H                     0.254738
     56 H                     0.239890
     57 S                     1.084452
     58 C                    -0.978085
     59 H                     0.253091
     60 H                     0.258993
     61 H                     0.289139
     62 O                    -0.670090
     63 C                    -1.092682
     64 H                     0.247309
     65 H                     0.265029
     66 H                     0.251359
     67 S                     1.304947
     68 C                    -1.220031
     69 H                     0.317512
     70 H                     0.265130
     71 H                     0.259719
     72 O                    -0.696764
     73 C                    -0.945814
     74 H                     0.246089
     75 H                     0.253607
     76 H                     0.278069
     77 S                     1.178738
     78 C                    -1.113303
     79 H                     0.294528
     80 H                     0.252456
     81 H                     0.245345
     82 O                    -0.678604
     83 C                    -0.954113
     84 H                     0.301334
     85 H                     0.292444
     86 H                     0.230649
     87 S                     1.097446
     88 C                    -0.907069
     89 H                     0.247347
     90 H                     0.244625
     91 H                     0.254808
     92 O                    -0.767363
     93 C                    -0.978349
     94 H                     0.260281
     95 H                     0.245447
     96 H                     0.262858
     97 S                     1.159606
     98 C                    -1.049782
     99 H                     0.242653
    100 H                     0.293107
    101 H                     0.276455
    102 O                    -0.662224
    103 C                    -0.853007
    104 H                     0.248239
    105 H                     0.285290
    106 H                     0.296224
    107 S                     0.935679
    108 C                    -0.983273
    109 H                     0.237130
    110 H                     0.312228
    111 H                     0.248114
    112 O                    -0.609832
    113 C                    -1.035460
    114 H                     0.270037
    115 H                     0.284409
    116 H                     0.243088
    117 S                     1.133422
    118 C                    -0.972330
    119 H                     0.297878
    120 H                     0.248729
    121 H                     0.233621
    122 O                    -0.744187
    123 C                    -0.828917
    124 H                     0.253387
    125 H                     0.254763
    126 H                     0.271249
    127 S                     0.769065
    128 C                    -0.887151
    129 H                     0.292027
    130 H                     0.257265
    131 H                     0.252407
    132 O                    -0.591363
    133 C                    -0.838961
    134 H                     0.279332
    135 H                     0.272916
    136 H                     0.256685
    137 S                     0.740091
    138 C                    -0.898711
    139 H                     0.259724
    140 H                     0.272959
    141 H                     0.272714
    142 O                    -0.671751
    143 C                    -0.913072
    144 H                     0.283734
    145 H                     0.252108
    146 H                     0.277442
    147 S                     0.935751
    148 C                    -0.877115
    149 H                     0.266360
    150 H                     0.282603
    151 H                     0.202540
    152 O                    -0.691550
    153 C                    -0.902778
    154 H                     0.244219
    155 H                     0.275580
    156 H                     0.231140
    157 S                     0.810307
    158 C                    -1.019411
    159 H                     0.266226
    160 H                     0.290133
    161 H                     0.332017
    162 O                    -0.732547
    163 C                    -0.892243
    164 H                     0.265521
    165 H                     0.268106
    166 H                     0.244205
    167 S                     0.972321
    168 C                    -0.883142
    169 H                     0.255471
    170 H                     0.251026
    171 H                     0.254825
    172 O                    -0.688284
    173 C                    -0.833108
    174 H                     0.264352
    175 H                     0.244433
    176 H                     0.251926
    177 S                     0.884195
    178 C                    -0.860945
    179 H                     0.267230
    180 H                     0.240269
    181 H                     0.293117
    182 O                    -0.662301
    183 C                    -0.889378
    184 H                     0.258366
    185 H                     0.253673
    186 H                     0.243328
    187 S                     1.062627
    188 C                    -0.932189
    189 H                     0.321078
    190 H                     0.230036
    191 H                     0.244279
    192 O                    -0.737214
    193 C                    -0.749558
    194 H                     0.250068
    195 H                     0.253680
    196 H                     0.264222
    197 S                     0.804252
    198 C                    -1.100129
    199 H                     0.265823
    200 H                     0.298977
    201 H                     0.294453
    202 O                    -0.536706
    203 C                    -1.027838
    204 H                     0.289521
    205 H                     0.274292
    206 H                     0.306933
    207 S                     0.693035
    208 C                    -0.844086
    209 H                     0.240216
    210 H                     0.292655
    211 H                     0.266678
    212 O                    -0.692508
    213 C                    -0.705702
    214 H                     0.261730
    215 H                     0.285723
    216 H                     0.259735
    217 S                     0.507238
    218 C                    -1.044893
    219 H                     0.286308
    220 H                     0.252617
    221 H                     0.229366
    222 O                    -0.550289
    223 C                    -0.988091
    224 H                     0.315269
    225 H                     0.198232
    226 H                     0.222860
    227 S                     0.970182
    228 C                    -0.904414
    229 H                     0.234839
    230 H                     0.241259
    231 H                     0.296309
    232 O                    -0.696270
    233 C                    -0.943901
    234 H                     0.275409
    235 H                     0.294353
    236 H                     0.252509
    237 S                     0.925623
    238 C                    -0.835979
    239 H                     0.219677
    240 H                     0.250660
    241 H                     0.285986
    242 O                    -0.669352
    243 C                    -0.642890
    244 H                     0.263892
    245 H                     0.235296
    246 H                     0.256376
    247 S                     0.418425
    248 C                    -0.831254
    249 H                     0.299611
    250 H                     0.243987
    251 H                     0.249770
    252 O                    -0.516587
    253 C                    -0.796739
    254 H                     0.249034
    255 H                     0.281379
    256 H                     0.229748
    257 S                     0.919037
    258 C                    -0.907402
    259 H                     0.265674
    260 H                     0.266118
    261 H                     0.226748
    262 O                    -0.675756
    263 C                    -0.720110
    264 H                     0.238659
    265 H                     0.263485
    266 H                     0.231641
    267 S                     0.917173
    268 C                    -0.836434
    269 H                     0.268938
    270 H                     0.252590
    271 H                     0.243749
    272 O                    -0.691937
    273 C                    -0.852763
    274 H                     0.241388
    275 H                     0.243004
    276 H                     0.249449
    277 S                     0.865444
    278 C                    -0.797134
    279 H                     0.250763
    280 H                     0.271993
    281 H                     0.240660
    282 O                    -0.693541
    283 C                    -1.024558
    284 H                     0.239024
    285 H                     0.251682
    286 H                     0.300601
    287 S                     1.240869
    288 C                    -1.051665
    289 H                     0.234797
    290 H                     0.266663
    291 H                     0.288264
    292 O                    -0.693593
    293 C                    -0.466068
    294 H                     0.310602
    295 H                     0.262205
    296 H                     0.224377
    297 S                     0.081889
    298 C                    -0.761173
    299 H                     0.247035
    300 H                     0.251868
[...]
    2  -0.0046051   0.0318630   0.0024375   0.0218976   0.0265000   0.0063232
    3   0.0119287  -0.0808711   0.0004119  -0.0266848   0.0233479  -0.0086465
          157         158         159         160         161         162
    1  -0.0494672   0.0077318   0.0221060   0.0117309  -0.0124926  -0.0026265
    2  -0.0001007  -0.0041720  -0.0029652   0.0193921  -0.0256684  -0.0516986
    3   0.0387726   0.0053063  -0.0229008   0.0126144   0.0190087  -0.0957240
          163         164         165         166         167         168
    1  -0.0048076  -0.0009403  -0.0276977   0.0222096  -0.0081528   0.0095228
    2   0.0035938  -0.0160097   0.0171746   0.0215472   0.0319043  -0.0029126
    3  -0.0087787  -0.0298987   0.0047110  -0.0005871   0.0576829  -0.0001915
          169         170         171         172         173         174
    1   0.0082882   0.0099680   0.0153224  -0.0585386   0.0055361   0.0128727
    2  -0.0216342   0.0321937  -0.0185896  -0.0889062  -0.0008899  -0.0231539
    3  -0.0219727  -0.0057897   0.0206192  -0.0228837  -0.0034279   0.0140133
          175         176         177         178         179         180
    1   0.0179628   0.0127512  -0.0287526  -0.0000972   0.0216492  -0.0030243
    2  -0.0087631   0.0286299   0.0388552   0.0000275  -0.0092987   0.0313818
    3  -0.0316472   0.0073349  -0.0320560   0.0104046   0.0232938   0.0014592
          181         182         183         184         185         186
    1  -0.0180643  -0.0211543  -0.0107695   0.0024592  -0.0142825  -0.0079371
    2  -0.0154196  -0.1060674   0.0040833   0.0277743  -0.0007560  -0.0219132
    3   0.0222339   0.0064311   0.0035025   0.0147175  -0.0333834   0.0250190
          187         188         189         190         191         192
    1   0.0104618   0.0067689   0.0126738   0.0244843  -0.0175900   0.0257130
    2  -0.0453887  -0.0008815  -0.0293727   0.0135194   0.0190044   0.0983256
    3  -0.0187698   0.0126731   0.0158124  -0.0035512   0.0156338  -0.0421144
          193         194         195         196         197         198
    1  -0.0031216  -0.0078002  -0.0239179   0.0173289   0.0218143   0.0006613
    2  -0.0032697  -0.0250485   0.0128021   0.0095456   0.0494823  -0.0054383
    3  -0.0058686  -0.0002502   0.0044560  -0.0299950   0.0112223  -0.0003567
          199         200         201         202         203         204
    1  -0.0165693   0.0303202   0.0086536  -0.0685372   0.0013358  -0.0108709
    2  -0.0326084   0.0105412  -0.0080833  -0.0615315  -0.0117822   0.0008429
    3   0.0010652  -0.0123792   0.0215017   0.0791641   0.0038994   0.0314998
          205         206         207         208         209         210
    1  -0.0177747   0.0274739   0.0326234  -0.0112191  -0.0237693  -0.0160690
    2  -0.0254463  -0.0217693   0.0375895   0.0016230   0.0255116  -0.0265516
    3  -0.0066949  -0.0013614   0.0205092   0.0025547  -0.0155223  -0.0027511
          211         212         213         214         215         216
    1  -0.0013127  -0.0089813  -0.0098344  -0.0243355   0.0211250  -0.0002954
    2   0.0048812  -0.0373674   0.0067283   0.0115026   0.0132299   0.0243086
    3   0.0305892  -0.1013494   0.0061822   0.0264021   0.0164525  -0.0250734
          217         218         219         220         221         222
    1   0.0382896  -0.0084335   0.0100689  -0.0288347  -0.0129166   0.0308396
    2   0.0086580  -0.0037535  -0.0307363   0.0127771   0.0108539  -0.0643713
    3  -0.0514763   0.0018515   0.0053812   0.0140555  -0.0280147   0.0826947
          223         224         225         226         227         228
    1   0.0007831   0.0256501  -0.0037729  -0.0163567  -0.0412604   0.0050154
    2   0.0048242   0.0031581   0.0257946   0.0035868  -0.0093238  -0.0053901
    3   0.0036951   0.0112918  -0.0156440   0.0298176  -0.0178351   0.0095658
          229         230         231         232         233         234
    1  -0.0142534  -0.0095971   0.0230225   0.0974156  -0.0025407   0.0245277
    2  -0.0048988  -0.0331707   0.0236858   0.0135865  -0.0048288  -0.0171687
    3   0.0291145  -0.0096505   0.0093176  -0.0522225  -0.0083944  -0.0145961
          235         236         237         238         239         240
    1  -0.0154238  -0.0140166   0.0331483   0.0020953   0.0281236   0.0072533
    2  -0.0275909   0.0237471   0.0511962  -0.0043095  -0.0146075  -0.0020736
    3   0.0034200  -0.0175692  -0.0014896   0.0032673  -0.0186111   0.0318853
          241         242         243         244         245         246
    1  -0.0069254  -0.0897828  -0.0008133  -0.0286857   0.0054864   0.0028564
    2  -0.0317986  -0.0168453   0.0065219   0.0086429   0.0143011   0.0075268
    3  -0.0087044   0.0590351  -0.0050604  -0.0050000   0.0300669  -0.0352076
          247         248         249         250         251         252
    1  -0.0267999   0.0085781   0.0198406   0.0162618   0.0128955  -0.0250115
    2  -0.0208015   0.0000815  -0.0258472   0.0102236  -0.0021711  -0.0522495
    3   0.0539028  -0.0021135   0.0016651  -0.0321446   0.0365331  -0.0950466
          253         254         255         256         257         258
    1  -0.0104539  -0.0056751  -0.0272513  -0.0001015   0.0216994   0.0051786
    2  -0.0001827  -0.0305736   0.0164776   0.0025398   0.0474294  -0.0074692
    3  -0.0015901   0.0146494  -0.0023174  -0.0311501  -0.0357094   0.0043911
          259         260         261         262         263         264
    1   0.0294683  -0.0098584  -0.0024042  -0.0263048  -0.0068896  -0.0232863
    2   0.0054315  -0.0257288  -0.0132214   0.0141624  -0.0037820  -0.0278728
    3   0.0120771   0.0193649  -0.0246423   0.1050044   0.0058083   0.0162558
          265         266         267         268         269         270
    1   0.0230673  -0.0134155   0.0332638  -0.0094934   0.0054308  -0.0125792
    2  -0.0164646   0.0131956   0.0419090   0.0050288   0.0137902  -0.0299913
    3  -0.0022643   0.0373248  -0.0121343  -0.0006595  -0.0316510   0.0091151
          271         272         273         274         275         276
    1  -0.0069310  -0.0094287   0.0052327   0.0259498  -0.0033347   0.0187241
    2   0.0220164  -0.0918849   0.0021374  -0.0200999  -0.0047641   0.0269256
    3   0.0265932  -0.0603663  -0.0044071   0.0114797  -0.0315478   0.0045579
          277         278         279         280         281         282
    1   0.0083743  -0.0018505  -0.0278217   0.0119206   0.0007076  -0.0638259
    2  -0.0120510  -0.0032984  -0.0054238  -0.0121748  -0.0344073   0.0840221
    3   0.0571112  -0.0077242   0.0066499  -0.0268392   0.0081830  -0.0326065
          283         284         285         286         287         288
    1  -0.0053043   0.0081253  -0.0299197  -0.0131402   0.0309085  -0.0064953
    2  -0.0036856  -0.0319102  -0.0080086   0.0123498  -0.0128259   0.0054834
    3  -0.0076324   0.0093005   0.0137344  -0.0311814   0.0388976  -0.0033782
          289         290         291         292         293         294
    1  -0.0208301   0.0147144  -0.0196045   0.0337630   0.0027437   0.0244935
    2  -0.0027073   0.0255117  -0.0040777   0.0450682   0.0038847   0.0136738
    3   0.0214425   0.0015639  -0.0283777  -0.0964481   0.0071490   0.0183127
          295         296         297         298         299         300
    1  -0.0170273  -0.0127937   0.0174147  -0.0053916   0.0054951  -0.0084300
    2   0.0274171  -0.0200780   0.0547064  -0.0021645  -0.0132007  -0.0249303
    3   0.0003586   0.0146962  -0.0296271  -0.0021659  -0.0230615   0.0168081
          301         302
    1  -0.0223045   0.0767622
    2   0.0244989  -0.0758071
    3  -0.0099064   0.0120628
  --- DONE ESP SUMMARY ---
Archival summary:
1\1\node025\SP\ProcedureUnspecified\6-31+G*\282856h22\ymao90\FriDec318:23:012021FriDec318:23:012021\0\\#,ProcedureUnspecified,6-31+G*,\\0,1\S\O,1,1.49708\Gh,2,1.72942,1,116.569\Gh,3,1.01248,2,152.537,1,79.6001,0\Gh,4,1.37807,3,116.669,2,-141.524,0\Gh,5,1.10457,4,111.702,3,-4.72131,0\Gh,5,1.21901,4,125.268,3,165.681,0\Gh,4,1.46279,3,117.456,2,27.6138,0\Gh,8,1.09625,4,103.314,3,-139.853,0\Gh,8,1.53694,4,115.398,3,105.438,0\Gh,10,1.0961,8,110.227,4,-65.6871,0\Gh,10,1.09734,8,105.21,4,50.5186,0\Gh,10,1.53775,8,115.919,4,167.461,0\Gh,13,1.09659,10,116.331,8,-62.069,0\Gh,13,1.09712,10,110.252,8,178.711,0\Gh,13,1.53768,10,107.78,8,60.0344,0\Gh,16,1.09609,13,113.718,10,-164.892,0\Gh,16,1.09731,13,107.259,10,76.7711,0\Gh,16,1.53752,13,113.946,10,-45.2426,0\Gh,19,1.09636,16,101.93,13,-72.1325,0\Gh,19,1.09689,16,115.786,13,170.64,0\Gh,19,1.53741,16,117.414,13,41.6578,0\Gh,22,1.09664,19,114.453,16,-172.697,0\Gh,22,1.09779,19,106.362,16,72.6777,0\C,1,1.80694,2,104.206,3,108.377,0\H,25,1.09193,1,102.204,2,179.713,0\H,25,1.09323,1,114.473,2,65.2498,0\H,25,1.09355,1,112.302,2,-62.8208,0\C,1,1.80706,2,108.416,3,8.51556,0\H,29,1.09233,1,106.011,2,176.208,0\H,29,1.0926,1,108.635,2,-62.843,0\H,29,1.09293,1,109.685,2,67.0821,0\H,27,2.17732,25,173.547,1,77.0546,0\C,33,1.09293,27,120.896,25,-66.1171,0\H,34,1.09263,33,106.512,27,153.825,0\H,34,1.09366,33,118.162,27,33.5285,0\S,34,1.80713,33,110.993,27,-96.9424,0\O,37,1.49714,34,108.954,33,-175.066,0\C,37,1.80724,34,93.088,33,82.9339,0\H,39,1.09257,37,109.974,34,55.0009,0\H,39,1.09289,37,114.847,34,-65.6008,0\H,39,1.09362,37,112.849,34,173.112,0\H,40,2.12447,39,151.644,37,-178.895,0\C,43,1.09282,40,149.738,39,-175.646,0\H,44,1.09256,43,108.481,40,-127.109,0\H,44,1.09391,43,111.14,40,109.928,0\S,44,1.80698,43,106.305,40,-13.8769,0\O,47,1.49684,44,101.876,43,-44.1998,0\C,47,1.80735,44,95.846,43,63.3102,0\H,49,1.09266,47,112.628,44,77.5304,0\H,49,1.09303,47,117.432,44,-53.1326,0\H,49,1.09343,47,97.7619,44,-165.573,0\H,38,2.26393,37,111.659,34,-128.755,0\C,53,1.09314,38,170.539,37,53.869,0\H,54,1.09314,53,105.904,38,104.02,0\H,54,1.0932,53,109.279,38,-15.5872,0\S,54,1.80663,53,118.084,38,-140.448,0\O,57,1.49713,54,103.244,53,-72.9202,0\C,57,1.80668,54,93.0591,53,-178.86,0\H,59,1.09258,57,105.565,54,58.118,0\H,59,1.09298,57,114.839,54,-64.8783,0\H,59,1.09349,57,105.195,54,172.429,0\H,9,2.29343,8,150.009,4,-154.984,0\C,63,1.09369,9,128.168,8,166.867,0\H,64,1.09268,63,109.412,9,126.08,0\H,64,1.0927,63,111.293,9,0.282939,0\S,64,1.80656,63,104.46,9,-117.732,0\O,67,1.49694,64,107.425,63,-58.6856,0\C,67,1.80752,64,93.9325,63,-160.081,0\H,69,1.09263,67,112.801,64,-53.3501,0\H,69,1.09267,67,108.17,64,71.847,0\H,69,1.09332,67,112.316,64,-172.899,0\H,32,2.33005,29,153.689,1,80.8063,0\C,73,1.09327,32,119.378,29,-131.998,0\H,74,1.09234,73,108.256,32,-2.09316,0\H,74,1.09279,73,112.144,32,-127.326,0\S,74,1.80684,73,107.212,32,112.852,0\O,77,1.49732,74,104.536,73,39.4122,0\C,77,1.8072,74,104.451,73,147.637,0\H,79,1.09282,77,105.392,74,-43.9087,0\H,79,1.09288,77,108.684,74,65.3747,0\H,79,1.09308,77,102.868,74,-161.63,0\H,81,2.01585,79,132.897,77,-93.0395,0\C,83,1.09227,81,166.419,79,27.2558,0\H,84,1.0924,83,111.561,81,23.1599,0\H,84,1.09299,83,107.066,81,149.846,0\S,84,1.80693,83,105.663,81,-97.6021,0\O,87,1.49693,84,98.6865,83,82.5729,0\C,87,1.80708,84,90.652,83,-175.293,0\H,89,1.09293,87,109.281,84,55.1668,0\H,89,1.09314,87,109.421,84,179.109,0\H,89,1.09316,87,116.504,84,-68.6701,0\H,92,2.23162,89,162.496,87,-110.266,0\C,93,1.09217,92,131.025,89,58.5373,0\H,94,1.09263,93,117.472,92,-108.296,0\H,94,1.0929,93,113.372,92,12.158,0\S,94,1.807,93,106.614,92,125.683,0\O,97,1.49619,94,105.84,93,-129.006,0\C,97,1.80781,94,91.9891,93,-31.4052,0\H,99,1.09265,97,112.049,94,71.4183,0\H,99,1.09303,97,106.825,94,-164.014,0\H,99,1.09351,97,108.961,94,-52.8242,0\H,83,2.23308,81,74.6442,79,148.369,0\C,103,1.09282,83,149.289,81,-138.533,0\H,104,1.09267,103,109.78,83,177.051,0\H,104,1.09288,103,111.663,83,-66.9217,0\S,104,1.80673,103,110.532,83,56.1248,0\O,107,1.49661,104,104.21,103,-60.011,0\C,107,1.80755,104,94.2721,103,-171.995,0\H,109,1.09199,107,105.89,104,165.968,0\H,109,1.09274,107,106.672,104,-75.1641,0\H,109,1.09289,107,108.715,104,45.7852,0\H,62,2.3416,59,95.405,57,-154.191,0\C,113,1.09305,62,107.258,59,-130.88,0\H,114,1.09199,113,106.793,62,-23.1687,0\H,114,1.09284,113,110.4,62,-143.122,0\S,114,1.80701,113,100.555,62,103.533,0\O,117,1.49771,114,104.832,113,61.5115,0\C,117,1.80648,114,94.7136,113,168.249,0\H,119,1.09253,117,112.88,114,42.6237,0\H,119,1.09311,117,109.698,114,174.868,0\H,119,1.0942,117,100.676,114,-77.1716,0\H,115,2.20515,114,131.574,113,153.773,0\C,123,1.09364,115,127.272,114,150.202,0\H,124,1.09262,123,108.471,115,-34.3706,0\H,124,1.09371,123,107.807,115,-151.764,0\S,124,1.80663,123,103.92,115,82.6267,0\O,127,1.49723,124,97.504,123,-37.6186,0\C,127,1.80711,124,91.3106,123,-139.887,0\H,129,1.09272,127,117.027,124,171.57,0\H,129,1.09341,127,108.56,124,55.598,0\H,129,1.09361,127,111.961,124,-67.8229,0\H,122,2.27568,119,137.818,117,-115.847,0\C,133,1.09287,122,117.432,119,116.812,0\H,134,1.09334,133,112.663,122,95.1227,0\H,134,1.09337,133,112.123,122,-27.3857,0\S,134,1.80633,133,105.047,122,-143.55,0\O,137,1.49625,134,105.551,133,-147.99,0\C,137,1.80678,134,93.8386,133,-34.4136,0\H,139,1.09316,137,109.636,134,-46.0735,0\H,139,1.09325,137,107.373,134,-153.697,0\H,139,1.09369,137,109.016,134,78.6323,0\H,128,2.32202,127,90.2065,124,107.448,0\C,143,1.09361,128,143.191,127,-155.097,0\H,144,1.09229,143,112.061,128,55.1635,0\H,144,1.09365,143,101.511,128,-68.541,0\S,144,1.80697,143,103.503,128,176.52,0\O,147,1.49687,144,109.595,143,-71.7969,0\C,147,1.807,144,101.337,143,35.735,0\H,149,1.09265,147,107.084,144,-146.999,0\H,149,1.09294,147,108.585,144,-36.7382,0\H,149,1.09327,147,114.653,144,94.0977,0\H,86,2.35458,84,128.907,83,-104.121,0\C,153,1.09298,86,133.123,84,-87.0054,0\H,154,1.09232,153,102.449,86,171.27,0\H,154,1.09293,153,105.267,86,-70.7202,0\S,154,1.80721,153,112.931,86,54.7335,0\O,157,1.49707,154,100.512,153,-79.8901,0\C,157,1.80682,154,95.1192,153,-178.637,0\H,159,1.09271,157,118.387,154,170.033,0\H,159,1.093,157,101.561,154,-67.1888,0\H,159,1.09302,157,95.1188,154,51.1505,0\H,46,2.37505,44,101.674,43,159.522,0\C,163,1.09277,46,151.055,44,-61.1741,0\H,164,1.09347,163,114.758,46,83.3415,0\H,164,1.09349,163,112.452,46,-159.303,0\S,164,1.80638,163,105.826,46,-31.3228,0\O,167,1.49627,164,105.367,163,73.6406,0\C,167,1.80751,164,100.461,163,-176.064,0\H,169,1.0926,167,108.873,164,66.9,0\H,169,1.0928,167,108.218,164,-43.0592,0\H,169,1.09321,167,105.822,164,-162.149,0\O,126,2.3826,124,144.297,123,-6.36739,0\S,173,1.49677,126,135.527,124,-65.8646,0\C,174,1.80655,173,103.205,126,135.501,0\H,175,1.09227,174,103.603,173,79.2312,0\H,175,1.09335,174,115.42,173,-168.559,0\H,175,1.09345,174,112.727,173,-35.392,0\C,174,1.80712,173,100.686,126,44.2632,0\H,179,1.09275,174,105.797,173,84.7431,0\H,179,1.09294,174,106.448,173,-39.4512,0\H,179,1.09377,174,108.769,173,-156.954,0\H,182,1.89259,179,171.346,174,39.0802,0\C,183,1.09214,182,143.327,179,-111.321,0\H,184,1.09248,183,107.421,182,-140.567,0\H,184,1.09308,183,108.867,182,102.19,0\S,184,1.80736,183,108.079,182,-28.1164,0\O,187,1.49729,184,108.577,183,55.9244,0\C,187,1.80712,184,91.9228,183,167.253,0\H,189,1.09287,187,105.556,184,-74.6042,0\H,189,1.09298,187,109.568,184,168.019,0\H,189,1.09365,187,111.12,184,48.9794,0\H,192,2.15047,189,165.475,187,118.502,0\C,193,1.09289,192,135.923,189,-90.2801,0\H,194,1.0931,193,106.681,192,-155.414,0\H,194,1.09312,193,112.394,192,-28.007,0\S,194,1.80689,193,107.745,192,82.5735,0\O,197,1.49687,194,106.317,193,49.506,0\C,197,1.80706,194,90.522,193,152.191,0\H,199,1.09263,197,108.836,194,-60.076,0\H,199,1.09287,197,101.672,194,-178.741,0\H,199,1.09324,197,102.198,194,69.0591,0\O,201,2.29683,199,151.441,197,-114.433,0\S,203,1.49634,201,93.1955,199,-28.1489,0\C,204,1.80675,203,99.3104,201,-171.305,0\H,205,1.09297,204,110.804,203,-175.405,0\H,205,1.09329,204,105.717,203,-49.3405,0\H,205,1.0935,204,117.282,203,58.9869,0\C,204,1.8069,203,101.791,201,86.5299,0\H,209,1.09222,204,110.654,203,-56.6771,0\H,209,1.09233,204,106.711,203,58.6928,0\H,209,1.09343,204,109.347,203,179.39,0\H,211,2.14996,209,118.089,204,-74.6928,0\C,213,1.09267,211,134.731,209,105.231,0\H,214,1.09244,213,102.843,211,-4.23213,0\H,214,1.09287,213,118.571,211,-131.102,0\S,214,1.8071,213,104.578,211,112.554,0\O,217,1.49695,214,105.762,213,-33.7796,0\C,217,1.80718,214,96.0203,213,-147.455,0\H,219,1.0927,217,104.407,214,-76.489,0\H,219,1.09275,217,105.659,214,165.254,0\H,219,1.09292,217,114.406,214,44.8139,0\H,180,2.3831,179,132.344,174,114.055,0\C,223,1.09263,180,142.728,179,140.257,0\H,224,1.09258,223,108.324,180,-41.4549,0\H,224,1.09285,223,111.308,180,-157.812,0\S,224,1.80686,223,110.024,180,78.4913,0\O,227,1.49643,224,106.813,223,-27.454,0\C,227,1.80678,224,92.3896,223,78.2271,0\H,229,1.0924,227,106.48,224,-58.7505,0\H,229,1.09274,227,102.661,224,71.4934,0\H,229,1.09357,227,105.17,224,-177.522,0\H,231,2.08706,229,163.522,227,44.9847,0\C,233,1.09234,231,151.067,229,-16.6246,0\H,234,1.09278,233,112.45,231,2.1683,0\H,234,1.09349,233,98.9709,231,117.904,0\S,234,1.80766,233,112.97,231,-122.585,0\O,237,1.49765,234,107.595,233,177.116,0\C,237,1.80674,234,96.4377,233,73.3531,0\H,239,1.09255,237,105.993,234,-76.0799,0\H,239,1.09294,237,112.782,234,40.7429,0\H,239,1.09298,237,104.755,234,163.586,0\H,241,1.95306,239,142.616,237,127.739,0\C,243,1.09348,241,133.008,239,159.765,0\H,244,1.09264,243,103.75,241,-44.1243,0\H,244,1.09288,243,113.65,241,-177.591,0\S,244,1.80687,243,102.498,241,65.9017,0\O,247,1.49711,244,107.31,243,-69.8594,0\C,247,1.80648,244,97.903,243,42.4814,0\H,249,1.0931,247,113.719,244,-86.7498,0\H,249,1.0932,247,102.801,244,34.3871,0\H,249,1.09354,247,114.951,244,148.751,0\H,252,2.13726,249,118.271,247,-110.307,0\C,253,1.0931,252,132.689,249,-14.4682,0\H,254,1.09269,253,102.897,252,-158.419,0\H,254,1.09275,253,113.051,252,-41.3544,0\S,254,1.80726,253,104.474,252,82.3961,0\O,257,1.49722,254,112.597,253,-88.0537,0\C,257,1.80705,254,97.1386,253,159.918,0\H,259,1.09282,257,105.549,254,-163.625,0\H,259,1.09296,257,107.053,254,85.1028,0\H,259,1.09323,257,117.667,254,-40.9014,0\H,246,2.2689,244,139.588,243,62.9342,0\C,263,1.09349,246,92.2694,244,117.557,0\H,264,1.09254,263,106.832,246,-61.4741,0\H,264,1.09338,263,113.263,246,59.36,0\S,264,1.80686,263,109.58,246,-175.628,0\O,267,1.49757,264,106.469,263,24.209,0\C,267,1.80636,264,102.35,263,-85.9259,0\H,269,1.0931,267,95.8973,264,159.752,0\H,269,1.09313,267,100.906,264,-86.6554,0\H,269,1.09384,267,111.559,264,39.5073,0\H,266,2.04735,264,121.775,263,-98.9347,0\C,273,1.09324,266,128.842,264,-129.215,0\H,274,1.09257,273,101.999,266,-62.4646,0\H,274,1.09301,273,109.403,266,179.08,0\S,274,1.80683,273,100.357,266,56.5169,0\O,277,1.49691,274,105.175,273,-70.1363,0\C,277,1.80734,274,91.8692,273,-174.777,0\H,279,1.09276,277,109.404,274,-57.5238,0\H,279,1.09287,277,109.155,274,64.4748,0\H,279,1.09335,277,106.395,274,-177.184,0\H,48,2.47228,47,117.016,44,-67.6467,0\C,283,1.09218,48,147.298,47,-94.8679,0\H,284,1.09344,283,107.7,48,153.538,0\H,284,1.09346,283,102.133,48,-92.4816,0\S,284,1.80652,283,112.643,48,29.4245,0\O,287,1.49812,284,102.505,283,172.112,0\C,287,1.80728,284,96.5128,283,67.9341,0\H,289,1.09235,287,101.536,284,-133.319,0\H,289,1.0932,287,105.841,284,114.389,0\H,289,1.09352,287,111.04,284,-7.07281,0\H,292,2.49363,289,102.127,287,89.4151,0\C,293,1.09291,292,138.992,289,-152.015,0\H,294,1.09249,293,107.57,292,-27.5807,0\H,294,1.09308,293,110.303,292,-149.923,0\S,294,1.80777,293,113.131,292,91.7962,0\O,297,1.49694,294,104.119,293,-157.992,0\C,297,1.80717,294,92.402,293,97.9767,0\H,299,1.09285,297,99.9178,294,-171.342,0\H,299,1.09296,297,107.224,294,71.034,0\H,299,1.0932,297,113.39,294,-56.418,0\\\@

 Total job time:  61.65s(wall), 202.41s(cpu) 
 Fri Dec  3 18:23:01 2021

        *************************************************************
        *                                                           *
        *  Thank you very much for using Q-Chem.  Have a nice day.  *
        *                                                           *
        *************************************************************


