                  Welcome to Q-Chem
     A Quantum Leap Into The Future Of Chemistry


 Q-Chem 6.0 (devel), Q-Chem, Inc., Pleasanton, CA (2022)

 E. Epifanovsky,  A. T. B. Gilbert,  Xintian Feng,  Joonho Lee,  Yuezhi Mao,  
 N. Mardirossian,  P. Pokhilko,  A. White,  M. Wormit,  M. P. Coons,  
 A. L. Dempwolff,  Zhengting Gan,  D. Hait,  P. R. Horn,  L. D. Jacobson,  
 I. Kaliman,  J. Kussmann,  A. W. Lange,  Ka Un Lao,  D. S. Levine,  Jie Liu,  
 S. C. McKenzie,  A. F. Morrison,  K. Nanda,  F. Plasser,  D. R. Rehn,  
 M. L. Vidal,  Zhi-Qiang You,  Ying Zhu,  B. Alam,  B. Albrecht,  
 A. Aldossary,  E. Alguire,  J. H. Andersen,  V. Athavale,  D. Barton,  
 K. Begam,  A. Behn,  N. Bellonzi,  Y. A. Bernard,  E. J. Berquist,  
 H. Burton,  A. Carreras,  K. Carter-Fenk,  Romit Chakraborty,  
 Chandrima Chakravarty,  Junhan Chen,  A. D. Chien,  K. D. Closser,  
 V. Cofer-Shabica,  L. Cunha,  S. Dasgupta,  Jia Deng,  M. de Wergifosse,  
 M. Diedenhofen,  Hainam Do,  S. Ehlert,  Po-Tung Fang,  S. Fatehi,  
 Qingguo Feng,  T. Friedhoff,  B. Ganoe,  J. Gayvert,  Qinghui Ge,  
 G. Gidofalvi,  M. Goldey,  J. Gomes,  C. Gonzalez-Espinoza,  S. Gulania,  
 A. Gunina,  J. A. Gyamfi,  M. W. D. Hanson-Heine,  P. H. P. Harbach,  
 A. W. Hauser,  M. F. Herbst,  M. Hernandez Vera,  M. Hodecker,  
 Z. C. Holden,  S. Houck,  Xunkun Huang,  Kerwin Hui,  B. C. Huynh,  
 K. Ikeda,  M. Ivanov,  Hyunjun Ji,  Zuxin Jin,  Hanjie Jiang,  B. Kaduk,  
 S. Kaehler,  R. Kang,  K. Khistyaev,  Jaehoon Kim,  Yongbin Kim,  
 P. Klunzinger,  Z. Koczor-Benda,  Joong Hoon Koh,  D. Kosenkov,  
 Saikiran Kotaru,  L. Koulias,  T. Kowalczyk,  C. M. Krauter,  K. Kue,  
 A. Kunitsa,  T. Kus,  A. Landau,  K. V. Lawler,  D. Lefrancois,  S. Lehtola,  
 Rain Li,  Shaozhi Li,  Yi-Pei Li,  Jiashu Liang,  M. Liebenthal,  
 Hung-Hsuan Lin,  You-Sheng Lin,  Fenglai Liu,  Kuan-Yu Liu,  
 M. Loipersberger,  A. Luenser,  C. Malbon,  A. Manjanath,  P. Manohar,  
 E. Mansoor,  S. F. Manzer,  Shan-Ping Mao,  A. V. Marenich,  T. Markovich,  
 S. Mason,  F. Matz,  S. A. Maurer,  P. F. McLaughlin,  M. F. S. J. Menger,  
 J.-M. Mewes,  S. A. Mewes,  P. Morgante,  Mohammad Mostafanejad,  
 J. W. Mullinax,  K. J. Oosterbaan,  G. Paran,  V. Parravicini,  
 Alexander C. Paul,  Suranjan K. Paul,  F. Pavosevic,  Zheng Pei,  S. Prager,  
 E. I. Proynov,  E. Ramos,  B. Rana,  A. E. Rask,  A. Rettig,  R. M. Richard,  
 F. Rob,  E. Rossomme,  T. Scheele,  M. Scheurer,  M. Schneider,  
 P. E. Schneider,  N. Sergueev,  S. M. Sharada,  Hengyuan Shen,  
 W. Skomorowski,  D. W. Small,  C. J. Stein,  Yingli Su,  Yu-Chuan Su,  
 E. J. Sundstrom,  Zhen Tao,  J. Thirman,  Hung-Yi Tsai,  T. Tsuchimochi,  
 N. M. Tubman,  C. Utku,  S. P. Veccham,  O. Vydrov,  J. Wenzel,  
 Jonathan Wong,  J. Witte,  A. Yamada,  Chou-Hsun Yang,  Kun Yao,  
 S. Yeganeh,  S. R. Yost,  A. Zech,  F. Zeller,  Igor Ying Zhang,  
 Xing Zhang,  Yu Zhang,  D. Zuev,  A. Aspuru-Guzik,  A. T. Bell,  
 N. A. Besley,  K. B. Bravaya,  B. R. Brooks,  D. Casanova,  Jeng-Da Chai,  
 Hsing-Ta Chen,  S. Coriani,  C. J. Cramer,  A. E. DePrince, III,  
 R. A. DiStasio Jr.,  A. Dreuw,  B. D. Dunietz,  T. R. Furlani,  
 W. A. Goddard III,  S. Grimme,  S. Hammes-Schiffer,  T. Head-Gordon,  
 W. J. Hehre,  Chao-Ping Hsu,  T.-C. Jagau,  Yousung Jung,  A. Klamt,  
 Jing Kong,  D. S. Lambrecht,  Xiangyuan Li,  WanZhen Liang,  N. J. Mayhall,  
 C. W. McCurdy,  J. B. Neaton,  T. Neudecker,  C. Ochsenfeld,  
 J. A. Parkhill,  R. Peverati,  V. A. Rassolov,  Haisheng Ren,  Yihan Shao,  
 L. V. Slipchenko,  R. P. Steele,  J. E. Subotnik,  A. J. W. Thom,  
 A. Tkatchenko,  D. G. Truhlar,  T. Van Voorhis,  Fan Wang,  
 T. A. Wesolowski,  K. B. Whaley,  H. L. Woodcock III,  P. M. Zimmerman,  
 S. Faraji,  P. M. W. Gill,  M. Head-Gordon,  J. M. Herbert,  A. I. Krylov

 Contributors to earlier versions of Q-Chem not listed above: 
 R. D. Adamson,  B. Austin,  R. Baer,  J. Baker,  G. J. O. Beran,  
 K. Brandhorst,  S. T. Brown,  E. F. C. Byrd,  Arup K. Chakraborty,  
 G. K. L. Chan,  Chun-Min Chang,  Yunqing Chen,  C.-L. Cheng,  
 Siu Hung Chien,  D. M. Chipman,  D. L. Crittenden,  H. Dachsel,  
 R. J. Doerksen,  A. D. Dutoi,  R. G. Edgar,  J. Fosso-Tande,  
 L. Fusti-Molnar,  D. Ghosh,  A. Ghysels,  A. Golubeva-Zadorozhnaya,  
 J. Gonthier,  M. S. Gordon,  S. R. Gwaltney,  G. Hawkins,  J. E. Herr,  
 A. Heyden,  S. Hirata,  E. G. Hohenstein,  G. Kedziora,  F. J. Keil,  
 C. Kelley,  Jihan Kim,  R. A. King,  R. Z. Khaliullin,  P. P. Korambath,  
 W. Kurlancheek,  A. Laurent,  A. M. Lee,  M. S. Lee,  S. V. Levchenko,  
 Ching Yeh Lin,  D. Liotard,  E. Livshits,  R. C. Lochan,  I. Lotan,  
 L. A. Martinez-Martinez,  P. E. Maslen,  N. Nair,  D. P. O'Neill,  
 D. Neuhauser,  E. Neuscamman,  C. M. Oana,  R. Olivares-Amaya,  R. Olson,  
 T. M. Perrine,  B. Peters,  P. A. Pieniazek,  A. Prociuk,  Y. M. Rhee,  
 J. Ritchie,  M. A. Rohrdanz,  E. Rosta,  N. J. Russ,  H. F. Schaefer III,  
 M. W. Schmidt,  N. E. Schultz,  S. Sharma,  N. Shenvi,  C. D. Sherrill,  
 A. C. Simmonett,  A. Sodt,  T. Stein,  D. Stuck,  K. S. Thanthiriwatte,  
 V. Vanovschi,  L. Vogt,  Tao Wang,  A. Warshel,  M. A. Watson,  
 C. F. Williams,  Q. Wu,  X. Xu,  Jun Yang,  W. Zhang,  Yan Zhao

   Please cite Q-Chem as follows:
  "Software for the frontiers of quantum chemistry:
   An overview of developments in the Q-Chem 5 package"
   J. Chem. Phys. 155, 084801 (2021)
   https://doi.org/10.1063/5.0055522 (open access)

 Q-Chem 6.0.0 for Intel X86 EM64T Linux

 Parts of Q-Chem use Armadillo 9.900.5 (Nocturnal Misbehaviour).
 http://arma.sourceforge.net/

 Q-Chem begins on Thu Jul 21 03:35:49 2022  

 Host: nid00529
0

     Scratch files written to /global/cscratch1/sd/ymao90/r7.00_frame_0064_spade_B3LYP_dp20220721031337//
 Processing $rem in /global/homes/y/ymao90/my_qchem/qchem_embedding_5p4/config/preferences:
 Processing $rem in /global/homes/y/ymao90/.qchemrc:
 No nuclear gradient supported for projection-based embedding or EMFT. Set max ideriv = 0.

 Checking the input file for inconsistencies... 	...done.

--------------------------------------------------------------
User input:
--------------------------------------------------------------
$molecule
0 1
--
0 1
C    26.70300   22.57900   26.03900  
C    27.58200   23.78400   26.41300  
C    28.91700   23.71900   25.65400  
C    28.85800   23.49600   24.13400  
C    27.88100   22.37500   23.74300  
C    26.55500   22.49600   24.51100  
H    29.53300   24.60400   25.85400  
H    27.05100   24.70500   26.14400  
H    27.15600   21.69200   26.50000  
H    25.70500   22.69100   26.48000  
H    28.45200   24.42200   23.70900  
H    29.86100   23.36200   23.71100  
H    27.79600   22.27700   22.65300  
H    28.32000   21.41200   24.03200  
H    25.96100   23.33400   24.12500  
H    25.94400   21.60300   24.33200  
H    29.52300   22.87600   26.01000  
N    27.81700   23.73600   27.85500  
H    28.77800   23.68900   28.17100  
C    26.87700   23.80800   28.86100  
H    27.38400   23.72100   29.83900  
O    25.69500   24.04400   28.67900  
--
0 1
C    25.97500   31.40300   23.37900  
H    26.11800   32.48600   23.34300  
H    24.91800   31.13400   23.45100  
H    26.53700   30.91000   24.17700  
S    26.56600   30.87100   21.75700  
C    26.11900   29.14100   22.02900  
H    25.08000   28.87200   21.81800  
H    26.75000   28.52900   21.38000  
H    26.41700   28.80000   23.02400  
O    28.05600   30.75400   21.83100  
C    24.41600   26.60200   30.61600  
H    24.07700   26.49700   29.58200  
H    23.84200   27.27500   31.25800  
H    25.45300   26.94600   30.63200  
S    24.39100   24.99400   31.44100  
C    22.85900   24.39500   30.69300  
H    22.98800   24.14500   29.63700  
H    22.56300   23.54900   31.31800  
H    22.07600   25.15600   30.73300  
O    23.88000   25.31300   32.81200  
C    29.57300   26.36200   29.68100  
H    29.28700   25.81000   30.58000  
H    29.00300   25.97800   28.83100  
H    30.62700   26.14700   29.48700  
S    29.31200   28.13900   29.87900  
C    29.78000   28.38700   31.60700  
H    29.33400   27.61800   32.24400  
H    30.84400   28.45400   31.84500  
H    29.37400   29.36400   31.88200  
O    27.81900   28.22000   29.82200  
C    31.12900   25.20800   34.45200  
H    30.38500   26.00300   34.54500  
H    30.62200   24.26100   34.65100  
H    32.04100   25.42700   35.01500  
S    31.77300   25.14300   32.76500  
C    33.29500   24.19000   32.97100  
H    33.90000   24.20200   32.06000  
H    33.87200   24.74300   33.71600  
H    33.05500   23.17200   33.28600  
O    32.26800   26.54700   32.61000  
C    31.17400   20.57500   23.84500  
H    30.38800   20.37800   24.57900  
H    32.15700   20.36600   24.27300  
H    31.13800   21.60700   23.48700  
S    30.82700   19.42300   22.49600  
C    31.58800   17.95700   23.22900  
H    31.61000   17.25600   22.39100  
H    32.58500   18.24100   23.57400  
H    30.93100   17.56300   24.00900  
O    31.82200   19.77400   21.43400  
C    32.84600   19.69700   26.83100  
H    32.26700   20.59600   27.05500  
H    32.37500   19.12400   26.02800  
H    32.85300   19.19500   27.80200  
S    34.56000   20.03200   26.36700  
C    35.12500   18.45300   25.69300  
H    36.14000   18.71500   25.38300  
H    35.08500   17.69300   26.47700  
H    34.41300   18.22500   24.89600  
O    35.25600   20.30100   27.66600  
C    30.15200   21.25100   28.43600  
H    30.41900   20.20000   28.30000  
H    29.08100   21.38000   28.61400  
H    30.45500   21.69400   27.48400  
S    30.91200   21.99800   29.89500  
C    30.04700   21.19400   31.26200  
H    30.19000   20.11300   31.19100  
H    30.42200   21.40400   32.26700  
H    29.00400   21.51100   31.17900  
O    30.39400   23.40200   29.93500  
C    27.36000   21.76600   19.87900  
H    27.77700   21.09800   20.63600  
H    26.85100   22.59500   20.37900  
H    26.58900   21.33200   19.23700  
S    28.66800   22.29800   18.75200  
C    29.07900   20.71400   17.98400  
H    29.30500   19.98600   18.76800  
H    28.19600   20.45100   17.39700  
H    29.96200   20.90600   17.36900  
O    29.85300   22.63500   19.60200  
C    25.96500   22.76300   34.76500  
H    25.42900   23.36900   34.02900  
H    25.37000   21.86000   34.92400  
H    26.10300   23.17400   35.76800  
S    27.53500   22.27800   34.01400  
C    27.97000   23.75200   33.06200  
H    28.22500   24.55000   33.76400  
H    28.83200   23.48600   32.44600  
H    27.18400   24.13500   32.40600  
O    27.05400   21.34400   32.94800  
C    23.08500   20.14800   25.74800  
H    23.82000   19.34400   25.83500  
H    22.80700   20.22500   24.69400  
H    23.50000   21.04800   26.21000  
S    21.56600   19.74900   26.64200  
C    21.29300   18.12200   25.90300  
H    21.92200   17.35400   26.36100  
H    20.27600   17.92400   26.24900  
H    21.34900   18.23000   24.81700  
O    20.53900   20.67500   26.06800  
C    20.78900   27.96900   25.41200  
H    21.22500   27.32100   26.17600  
H    21.55200   28.69500   25.12000  
H    19.95800   28.43800   25.94500  
S    20.26700   27.10600   23.91200  
C    19.31000   25.84800   24.78800  
H    18.87500   25.17000   24.04800  
H    20.00200   25.36100   25.48000  
H    18.51400   26.31200   25.37600  
O    21.56100   26.46200   23.52500  
C    27.16000   28.93300   25.95200  
H    27.01600   29.26500   26.98300  
H    27.69000   29.70200   25.38400  
H    26.18100   28.71000   25.52000  
S    27.98400   27.33300   25.78500  
C    29.66300   27.82400   26.23900  
H    30.01800   28.66400   25.63600  
H    29.45300   28.33400   27.18300  
H    30.40700   27.03000   26.34300  
O    28.00200   27.13600   24.30100  
C    29.90400   25.90900   18.43100  
H    30.95900   26.09500   18.64600  
H    29.77800   24.84400   18.64400  
H    29.61000   26.12900   17.40100  
S    28.62500   26.62700   19.48600  
C    29.00500   25.85500   21.07500  
H    28.29100   26.12100   21.85900  
H    28.98900   24.76800   20.95800  
H    30.03900   26.14700   21.27700  
O    27.39100   25.88800   19.07000  
C    25.14100   28.78700   33.64800  
H    24.79200   29.58400   34.31000  
H    24.29300   28.20200   33.28400  
H    25.74900   28.12300   34.26700  
S    26.06500   29.42100   32.23100  
C    27.22400   30.43400   33.17800  
H    27.82800   29.72500   33.75000  
H    27.79200   30.91400   32.37600  
H    26.64900   31.15000   33.77000  
O    25.12500   30.44800   31.68200  
C    24.29000   29.16000   28.48900  
H    24.27100   29.42400   29.54900  
H    23.60200   28.32800   28.32000  
H    25.27600   28.78800   28.20000  
S    23.90000   30.68500   27.60100  
C    22.12400   30.58600   27.91700  
H    21.68800   31.58800   27.87900  
H    21.73400   29.81300   27.25000  
H    22.09600   30.17500   28.93000  
O    23.96800   30.24100   26.17300  
C    37.59500   21.05100   21.97800  
H    38.45600   21.09200   22.65000  
H    37.68600   20.09300   21.45800  
H    37.61600   21.95900   21.37100  
S    36.20900   20.94400   23.13200  
C    34.88900   21.06800   21.90400  
H    33.99500   21.41900   22.42500  
H    35.13300   21.74900   21.08400  
H    34.76000   20.17600   21.28600  
O    36.08800   22.27400   23.80900  
C    20.48400   20.39300   22.82900  
H    21.42100   20.85900   23.14500  
H    20.00500   19.93800   23.70000  
H    20.75500   19.68400   22.04400  
S    19.44000   21.74300   22.23400  
C    18.99600   22.32700   23.88500  
H    18.74800   21.48800   24.53900  
H    19.86000   22.86900   24.27900  
H    18.09300   22.92800   23.74900  
O    18.23100   21.08000   21.65100  
C    24.36800   26.37600   25.66100  
H    24.88500   27.05700   26.34200  
H    25.08000   25.90000   24.98200  
H    23.56100   26.88800   25.13000  
S    23.59500   24.98300   26.51300  
C    22.95500   23.98300   25.15000  
H    22.24600   24.63900   24.63800  
H    23.73000   23.59200   24.48700  
H    22.33200   23.20300   25.59500  
O    22.42400   25.60600   27.20700  
C    23.53000   14.38000   24.10500  
H    22.66900   14.39400   23.43300  
H    24.44800   14.24200   23.52800  
H    23.29500   13.52500   24.74500  
S    23.66500   15.90600   25.06400  
C    23.73000   16.90100   23.55700  
H    22.92600   16.73300   22.83700  
H    23.75700   17.96900   23.78800  
H    24.70800   16.74800   23.09300  
O    25.05100   15.82700   25.62300  
C    27.47000   16.11400   23.09100  
H    27.64600   16.60700   22.13200  
H    26.46700   15.68200   23.13800  
H    27.65400   16.73400   23.97300  
S    28.68300   14.77800   22.99600  
C    28.38000   14.14900   24.66200  
H    28.73900   14.88100   25.39100  
H    27.33100   13.96400   24.90600  
H    28.99100   13.25900   24.83600  
O    29.94900   15.57200   23.08700  
C    30.75200   29.03800   22.83600  
H    31.02700   27.99400   23.00700  
H    29.81600   29.18300   23.38200  
H    30.55600   29.16500   21.76800  
S    32.06300   30.14300   23.40500  
C    31.08500   31.59000   22.93900  
H    30.90800   31.53400   21.86200  
H    30.14300   31.52400   23.49000  
H    31.64200   32.49000   23.21000  
O    32.94800   30.05600   22.20100  
C    24.25500   21.85700   21.09300  
H    25.03100   22.05100   21.83800  
H    24.42100   22.39100   20.15400  
H    23.25100   22.05900   21.47500  
S    24.36800   20.10500   20.66600  
C    22.96800   20.04300   19.52400  
H    22.24200   20.60600   20.11700  
H    23.27300   20.59600   18.63200  
H    22.61900   19.04000   19.26700  
O    23.75600   19.42100   21.84800  
C    24.79300   20.08700   30.95600  
H    25.80000   19.74700   31.20900  
H    24.34200   20.57300   31.82500  
H    24.14000   19.21400   30.87800  
S    24.62400   21.18200   29.52800  
C    22.82000   21.10500   29.46300  
H    22.30500   21.44500   30.36600  
H    22.43500   21.78700   28.70100  
H    22.52000   20.06200   29.33100  
O    25.02000   20.24300   28.43100  
C    23.00800   25.27900   21.11600  
H    24.04500   24.95000   21.01200  
H    23.13700   26.36000   21.20900  
H    22.45400   24.90500   21.98100  
S    22.06000   24.88000   19.63000  
C    20.38000   25.17100   20.22600  
H    19.66200   25.18700   19.40200  
H    20.05200   24.45600   20.98500  
H    20.26500   26.18600   20.61700  
O    22.27500   23.42200   19.36900  
C    34.12700   25.44500   19.35200  
H    34.48100   24.65900   18.68000  
H    33.08200   25.65700   19.11100  
H    34.76100   26.33200   19.26800  
S    34.11500   24.67700   20.98800  
C    32.59100   23.76900   20.64300  
H    31.70600   24.36000   20.39700  
H    32.60000   22.91900   19.95600  
H    32.29700   23.24700   21.55700  
O    33.62200   25.83000   21.80500  
C    26.97300   18.52500   26.17300  
H    26.84800   18.65600   25.09600  
H    26.19300   17.86000   26.55300  
H    26.80200   19.40300   26.80100  
S    28.59400   17.81100   26.53000  
C    28.60000   17.78400   28.33700  
H    29.58600   18.02900   28.73800  
H    27.96100   18.45100   28.92200  
H    28.33300   16.75400   28.58500  
O    29.49400   18.97100   26.23700  
C    33.55600   24.68500   24.79400  
H    34.31800   23.93300   24.57100  
H    32.52300   24.46900   24.51100  
H    33.89300   25.63100   24.36200  
S    33.50400   24.88800   26.58800  
C    32.67400   23.32400   26.95000  
H    31.96300   23.56300   27.74500  
H    32.21900   22.91300   26.04500  
H    33.54300   22.70900   27.19900  
O    32.44800   25.93700   26.75100  
$end

$rem
JOBTYPE  SP
METHOD  B3LYP
BASIS  6-31+G(D)
SYMMETRY  FALSE
SYM_IGNORE  TRUE
MEM_TOTAL  12000
MEM_STATIC  4000
BASIS_LIN_DEP_THRESH  6
THRESH  14
SCF_CONVERGENCE  8
FD_MAT_VEC_PROD  FALSE
XC_GRID  000075000302
NL_GRID  1
MAX_SCF_CYCLES  200
ENV_METHOD  B3LYP
GEN_SCFMAN_EMBED  TRUE
SPADE_PARTITION  TRUE
EMBEDDING_EARLY_STOP  TRUE
$end

--------------------------------------------------------------
 ----------------------------------------------------------------
             Standard Nuclear Orientation (Angstroms)
    I     Atom           X                Y                Z
 ----------------------------------------------------------------
    1      C      26.7030000000    22.5790000000    26.0390000000
    2      C      27.5820000000    23.7840000000    26.4130000000
    3      C      28.9170000000    23.7190000000    25.6540000000
    4      C      28.8580000000    23.4960000000    24.1340000000
    5      C      27.8810000000    22.3750000000    23.7430000000
    6      C      26.5550000000    22.4960000000    24.5110000000
    7      H      29.5330000000    24.6040000000    25.8540000000
    8      H      27.0510000000    24.7050000000    26.1440000000
    9      H      27.1560000000    21.6920000000    26.5000000000
   10      H      25.7050000000    22.6910000000    26.4800000000
   11      H      28.4520000000    24.4220000000    23.7090000000
   12      H      29.8610000000    23.3620000000    23.7110000000
   13      H      27.7960000000    22.2770000000    22.6530000000
   14      H      28.3200000000    21.4120000000    24.0320000000
   15      H      25.9610000000    23.3340000000    24.1250000000
   16      H      25.9440000000    21.6030000000    24.3320000000
   17      H      29.5230000000    22.8760000000    26.0100000000
   18      N      27.8170000000    23.7360000000    27.8550000000
   19      H      28.7780000000    23.6890000000    28.1710000000
   20      C      26.8770000000    23.8080000000    28.8610000000
   21      H      27.3840000000    23.7210000000    29.8390000000
   22      O      25.6950000000    24.0440000000    28.6790000000
   23      C      25.9750000000    31.4030000000    23.3790000000
   24      H      26.1180000000    32.4860000000    23.3430000000
   25      H      24.9180000000    31.1340000000    23.4510000000
   26      H      26.5370000000    30.9100000000    24.1770000000
   27      S      26.5660000000    30.8710000000    21.7570000000
   28      C      26.1190000000    29.1410000000    22.0290000000
   29      H      25.0800000000    28.8720000000    21.8180000000
   30      H      26.7500000000    28.5290000000    21.3800000000
   31      H      26.4170000000    28.8000000000    23.0240000000
   32      O      28.0560000000    30.7540000000    21.8310000000
   33      C      24.4160000000    26.6020000000    30.6160000000
   34      H      24.0770000000    26.4970000000    29.5820000000
   35      H      23.8420000000    27.2750000000    31.2580000000
   36      H      25.4530000000    26.9460000000    30.6320000000
   37      S      24.3910000000    24.9940000000    31.4410000000
   38      C      22.8590000000    24.3950000000    30.6930000000
   39      H      22.9880000000    24.1450000000    29.6370000000
   40      H      22.5630000000    23.5490000000    31.3180000000
   41      H      22.0760000000    25.1560000000    30.7330000000
   42      O      23.8800000000    25.3130000000    32.8120000000
   43      C      29.5730000000    26.3620000000    29.6810000000
   44      H      29.2870000000    25.8100000000    30.5800000000
   45      H      29.0030000000    25.9780000000    28.8310000000
   46      H      30.6270000000    26.1470000000    29.4870000000
   47      S      29.3120000000    28.1390000000    29.8790000000
   48      C      29.7800000000    28.3870000000    31.6070000000
   49      H      29.3340000000    27.6180000000    32.2440000000
   50      H      30.8440000000    28.4540000000    31.8450000000
   51      H      29.3740000000    29.3640000000    31.8820000000
   52      O      27.8190000000    28.2200000000    29.8220000000
   53      C      31.1290000000    25.2080000000    34.4520000000
   54      H      30.3850000000    26.0030000000    34.5450000000
   55      H      30.6220000000    24.2610000000    34.6510000000
   56      H      32.0410000000    25.4270000000    35.0150000000
   57      S      31.7730000000    25.1430000000    32.7650000000
   58      C      33.2950000000    24.1900000000    32.9710000000
   59      H      33.9000000000    24.2020000000    32.0600000000
   60      H      33.8720000000    24.7430000000    33.7160000000
   61      H      33.0550000000    23.1720000000    33.2860000000
   62      O      32.2680000000    26.5470000000    32.6100000000
   63      C      31.1740000000    20.5750000000    23.8450000000
   64      H      30.3880000000    20.3780000000    24.5790000000
   65      H      32.1570000000    20.3660000000    24.2730000000
   66      H      31.1380000000    21.6070000000    23.4870000000
   67      S      30.8270000000    19.4230000000    22.4960000000
   68      C      31.5880000000    17.9570000000    23.2290000000
   69      H      31.6100000000    17.2560000000    22.3910000000
   70      H      32.5850000000    18.2410000000    23.5740000000
   71      H      30.9310000000    17.5630000000    24.0090000000
   72      O      31.8220000000    19.7740000000    21.4340000000
   73      C      32.8460000000    19.6970000000    26.8310000000
   74      H      32.2670000000    20.5960000000    27.0550000000
   75      H      32.3750000000    19.1240000000    26.0280000000
   76      H      32.8530000000    19.1950000000    27.8020000000
   77      S      34.5600000000    20.0320000000    26.3670000000
   78      C      35.1250000000    18.4530000000    25.6930000000
   79      H      36.1400000000    18.7150000000    25.3830000000
   80      H      35.0850000000    17.6930000000    26.4770000000
   81      H      34.4130000000    18.2250000000    24.8960000000
   82      O      35.2560000000    20.3010000000    27.6660000000
   83      C      30.1520000000    21.2510000000    28.4360000000
   84      H      30.4190000000    20.2000000000    28.3000000000
   85      H      29.0810000000    21.3800000000    28.6140000000
   86      H      30.4550000000    21.6940000000    27.4840000000
   87      S      30.9120000000    21.9980000000    29.8950000000
   88      C      30.0470000000    21.1940000000    31.2620000000
   89      H      30.1900000000    20.1130000000    31.1910000000
   90      H      30.4220000000    21.4040000000    32.2670000000
   91      H      29.0040000000    21.5110000000    31.1790000000
   92      O      30.3940000000    23.4020000000    29.9350000000
   93      C      27.3600000000    21.7660000000    19.8790000000
   94      H      27.7770000000    21.0980000000    20.6360000000
   95      H      26.8510000000    22.5950000000    20.3790000000
   96      H      26.5890000000    21.3320000000    19.2370000000
   97      S      28.6680000000    22.2980000000    18.7520000000
   98      C      29.0790000000    20.7140000000    17.9840000000
   99      H      29.3050000000    19.9860000000    18.7680000000
  100      H      28.1960000000    20.4510000000    17.3970000000
  101      H      29.9620000000    20.9060000000    17.3690000000
  102      O      29.8530000000    22.6350000000    19.6020000000
  103      C      25.9650000000    22.7630000000    34.7650000000
  104      H      25.4290000000    23.3690000000    34.0290000000
  105      H      25.3700000000    21.8600000000    34.9240000000
  106      H      26.1030000000    23.1740000000    35.7680000000
  107      S      27.5350000000    22.2780000000    34.0140000000
  108      C      27.9700000000    23.7520000000    33.0620000000
  109      H      28.2250000000    24.5500000000    33.7640000000
  110      H      28.8320000000    23.4860000000    32.4460000000
  111      H      27.1840000000    24.1350000000    32.4060000000
  112      O      27.0540000000    21.3440000000    32.9480000000
  113      C      23.0850000000    20.1480000000    25.7480000000
  114      H      23.8200000000    19.3440000000    25.8350000000
  115      H      22.8070000000    20.2250000000    24.6940000000
  116      H      23.5000000000    21.0480000000    26.2100000000
  117      S      21.5660000000    19.7490000000    26.6420000000
  118      C      21.2930000000    18.1220000000    25.9030000000
  119      H      21.9220000000    17.3540000000    26.3610000000
  120      H      20.2760000000    17.9240000000    26.2490000000
  121      H      21.3490000000    18.2300000000    24.8170000000
  122      O      20.5390000000    20.6750000000    26.0680000000
  123      C      20.7890000000    27.9690000000    25.4120000000
  124      H      21.2250000000    27.3210000000    26.1760000000
  125      H      21.5520000000    28.6950000000    25.1200000000
  126      H      19.9580000000    28.4380000000    25.9450000000
  127      S      20.2670000000    27.1060000000    23.9120000000
  128      C      19.3100000000    25.8480000000    24.7880000000
  129      H      18.8750000000    25.1700000000    24.0480000000
  130      H      20.0020000000    25.3610000000    25.4800000000
  131      H      18.5140000000    26.3120000000    25.3760000000
  132      O      21.5610000000    26.4620000000    23.5250000000
  133      C      27.1600000000    28.9330000000    25.9520000000
  134      H      27.0160000000    29.2650000000    26.9830000000
  135      H      27.6900000000    29.7020000000    25.3840000000
  136      H      26.1810000000    28.7100000000    25.5200000000
  137      S      27.9840000000    27.3330000000    25.7850000000
  138      C      29.6630000000    27.8240000000    26.2390000000
  139      H      30.0180000000    28.6640000000    25.6360000000
  140      H      29.4530000000    28.3340000000    27.1830000000
  141      H      30.4070000000    27.0300000000    26.3430000000
  142      O      28.0020000000    27.1360000000    24.3010000000
  143      C      29.9040000000    25.9090000000    18.4310000000
  144      H      30.9590000000    26.0950000000    18.6460000000
  145      H      29.7780000000    24.8440000000    18.6440000000
  146      H      29.6100000000    26.1290000000    17.4010000000
  147      S      28.6250000000    26.6270000000    19.4860000000
  148      C      29.0050000000    25.8550000000    21.0750000000
  149      H      28.2910000000    26.1210000000    21.8590000000
  150      H      28.9890000000    24.7680000000    20.9580000000
  151      H      30.0390000000    26.1470000000    21.2770000000
  152      O      27.3910000000    25.8880000000    19.0700000000
  153      C      25.1410000000    28.7870000000    33.6480000000
  154      H      24.7920000000    29.5840000000    34.3100000000
  155      H      24.2930000000    28.2020000000    33.2840000000
  156      H      25.7490000000    28.1230000000    34.2670000000
  157      S      26.0650000000    29.4210000000    32.2310000000
  158      C      27.2240000000    30.4340000000    33.1780000000
  159      H      27.8280000000    29.7250000000    33.7500000000
  160      H      27.7920000000    30.9140000000    32.3760000000
  161      H      26.6490000000    31.1500000000    33.7700000000
  162      O      25.1250000000    30.4480000000    31.6820000000
  163      C      24.2900000000    29.1600000000    28.4890000000
  164      H      24.2710000000    29.4240000000    29.5490000000
  165      H      23.6020000000    28.3280000000    28.3200000000
  166      H      25.2760000000    28.7880000000    28.2000000000
  167      S      23.9000000000    30.6850000000    27.6010000000
  168      C      22.1240000000    30.5860000000    27.9170000000
  169      H      21.6880000000    31.5880000000    27.8790000000
  170      H      21.7340000000    29.8130000000    27.2500000000
  171      H      22.0960000000    30.1750000000    28.9300000000
  172      O      23.9680000000    30.2410000000    26.1730000000
  173      C      37.5950000000    21.0510000000    21.9780000000
  174      H      38.4560000000    21.0920000000    22.6500000000
  175      H      37.6860000000    20.0930000000    21.4580000000
  176      H      37.6160000000    21.9590000000    21.3710000000
  177      S      36.2090000000    20.9440000000    23.1320000000
  178      C      34.8890000000    21.0680000000    21.9040000000
  179      H      33.9950000000    21.4190000000    22.4250000000
  180      H      35.1330000000    21.7490000000    21.0840000000
  181      H      34.7600000000    20.1760000000    21.2860000000
  182      O      36.0880000000    22.2740000000    23.8090000000
  183      C      20.4840000000    20.3930000000    22.8290000000
  184      H      21.4210000000    20.8590000000    23.1450000000
  185      H      20.0050000000    19.9380000000    23.7000000000
  186      H      20.7550000000    19.6840000000    22.0440000000
  187      S      19.4400000000    21.7430000000    22.2340000000
  188      C      18.9960000000    22.3270000000    23.8850000000
  189      H      18.7480000000    21.4880000000    24.5390000000
  190      H      19.8600000000    22.8690000000    24.2790000000
  191      H      18.0930000000    22.9280000000    23.7490000000
  192      O      18.2310000000    21.0800000000    21.6510000000
  193      C      24.3680000000    26.3760000000    25.6610000000
  194      H      24.8850000000    27.0570000000    26.3420000000
  195      H      25.0800000000    25.9000000000    24.9820000000
  196      H      23.5610000000    26.8880000000    25.1300000000
  197      S      23.5950000000    24.9830000000    26.5130000000
  198      C      22.9550000000    23.9830000000    25.1500000000
  199      H      22.2460000000    24.6390000000    24.6380000000
  200      H      23.7300000000    23.5920000000    24.4870000000
  201      H      22.3320000000    23.2030000000    25.5950000000
  202      O      22.4240000000    25.6060000000    27.2070000000
  203      C      23.5300000000    14.3800000000    24.1050000000
  204      H      22.6690000000    14.3940000000    23.4330000000
  205      H      24.4480000000    14.2420000000    23.5280000000
  206      H      23.2950000000    13.5250000000    24.7450000000
  207      S      23.6650000000    15.9060000000    25.0640000000
  208      C      23.7300000000    16.9010000000    23.5570000000
  209      H      22.9260000000    16.7330000000    22.8370000000
  210      H      23.7570000000    17.9690000000    23.7880000000
  211      H      24.7080000000    16.7480000000    23.0930000000
  212      O      25.0510000000    15.8270000000    25.6230000000
  213      C      27.4700000000    16.1140000000    23.0910000000
  214      H      27.6460000000    16.6070000000    22.1320000000
  215      H      26.4670000000    15.6820000000    23.1380000000
  216      H      27.6540000000    16.7340000000    23.9730000000
  217      S      28.6830000000    14.7780000000    22.9960000000
  218      C      28.3800000000    14.1490000000    24.6620000000
  219      H      28.7390000000    14.8810000000    25.3910000000
  220      H      27.3310000000    13.9640000000    24.9060000000
  221      H      28.9910000000    13.2590000000    24.8360000000
  222      O      29.9490000000    15.5720000000    23.0870000000
  223      C      30.7520000000    29.0380000000    22.8360000000
  224      H      31.0270000000    27.9940000000    23.0070000000
  225      H      29.8160000000    29.1830000000    23.3820000000
  226      H      30.5560000000    29.1650000000    21.7680000000
  227      S      32.0630000000    30.1430000000    23.4050000000
  228      C      31.0850000000    31.5900000000    22.9390000000
  229      H      30.9080000000    31.5340000000    21.8620000000
  230      H      30.1430000000    31.5240000000    23.4900000000
  231      H      31.6420000000    32.4900000000    23.2100000000
  232      O      32.9480000000    30.0560000000    22.2010000000
  233      C      24.2550000000    21.8570000000    21.0930000000
  234      H      25.0310000000    22.0510000000    21.8380000000
  235      H      24.4210000000    22.3910000000    20.1540000000
  236      H      23.2510000000    22.0590000000    21.4750000000
  237      S      24.3680000000    20.1050000000    20.6660000000
  238      C      22.9680000000    20.0430000000    19.5240000000
  239      H      22.2420000000    20.6060000000    20.1170000000
  240      H      23.2730000000    20.5960000000    18.6320000000
  241      H      22.6190000000    19.0400000000    19.2670000000
  242      O      23.7560000000    19.4210000000    21.8480000000
  243      C      24.7930000000    20.0870000000    30.9560000000
  244      H      25.8000000000    19.7470000000    31.2090000000
  245      H      24.3420000000    20.5730000000    31.8250000000
  246      H      24.1400000000    19.2140000000    30.8780000000
  247      S      24.6240000000    21.1820000000    29.5280000000
  248      C      22.8200000000    21.1050000000    29.4630000000
  249      H      22.3050000000    21.4450000000    30.3660000000
  250      H      22.4350000000    21.7870000000    28.7010000000
  251      H      22.5200000000    20.0620000000    29.3310000000
  252      O      25.0200000000    20.2430000000    28.4310000000
  253      C      23.0080000000    25.2790000000    21.1160000000
  254      H      24.0450000000    24.9500000000    21.0120000000
  255      H      23.1370000000    26.3600000000    21.2090000000
  256      H      22.4540000000    24.9050000000    21.9810000000
  257      S      22.0600000000    24.8800000000    19.6300000000
  258      C      20.3800000000    25.1710000000    20.2260000000
  259      H      19.6620000000    25.1870000000    19.4020000000
  260      H      20.0520000000    24.4560000000    20.9850000000
  261      H      20.2650000000    26.1860000000    20.6170000000
  262      O      22.2750000000    23.4220000000    19.3690000000
  263      C      34.1270000000    25.4450000000    19.3520000000
  264      H      34.4810000000    24.6590000000    18.6800000000
  265      H      33.0820000000    25.6570000000    19.1110000000
  266      H      34.7610000000    26.3320000000    19.2680000000
  267      S      34.1150000000    24.6770000000    20.9880000000
  268      C      32.5910000000    23.7690000000    20.6430000000
  269      H      31.7060000000    24.3600000000    20.3970000000
  270      H      32.6000000000    22.9190000000    19.9560000000
  271      H      32.2970000000    23.2470000000    21.5570000000
  272      O      33.6220000000    25.8300000000    21.8050000000
  273      C      26.9730000000    18.5250000000    26.1730000000
  274      H      26.8480000000    18.6560000000    25.0960000000
  275      H      26.1930000000    17.8600000000    26.5530000000
  276      H      26.8020000000    19.4030000000    26.8010000000
  277      S      28.5940000000    17.8110000000    26.5300000000
  278      C      28.6000000000    17.7840000000    28.3370000000
  279      H      29.5860000000    18.0290000000    28.7380000000
  280      H      27.9610000000    18.4510000000    28.9220000000
  281      H      28.3330000000    16.7540000000    28.5850000000
  282      O      29.4940000000    18.9710000000    26.2370000000
  283      C      33.5560000000    24.6850000000    24.7940000000
  284      H      34.3180000000    23.9330000000    24.5710000000
  285      H      32.5230000000    24.4690000000    24.5110000000
  286      H      33.8930000000    25.6310000000    24.3620000000
  287      S      33.5040000000    24.8880000000    26.5880000000
  288      C      32.6740000000    23.3240000000    26.9500000000
  289      H      31.9630000000    23.5630000000    27.7450000000
  290      H      32.2190000000    22.9130000000    26.0450000000
  291      H      33.5430000000    22.7090000000    27.1990000000
  292      O      32.4480000000    25.9370000000    26.7510000000
 ----------------------------------------------------------------
 Nuclear Repulsion Energy =       47788.55372563 hartrees
 There are      602 alpha and      602 beta electrons
 Requested basis set is 6-31+G(d)
 There are 962 shells and 2681 basis functions

 Total QAlloc Memory Limit  12000 MB
 Mega-Array Size      3911 MB
 MEM_STATIC part      4000 MB

 A cutoff of  1.0D-14 yielded 175550 shell pairs
 There are   1520915 function pairs
 Smallest overlap matrix eigenvalue = 4.89E-07
 Linear dependence detected in AO basis
 Tighter screening thresholds may be required for diffuse basis sets
 Use S2THRESH > 14 and THRESH = 14 in case of SCF convergence issues
 Number of orthogonalized atomic orbitals = 2679
 Maximum deviation from orthogonality = 1.039E-10

 Scale SEOQF with 1.000000e-03/1.000000e-03/1.000000e-03

 Standard Electronic Orientation quadrupole field applied
 Nucleus-field energy     =    -0.0000000457 hartrees
 Guess from superposition of atomic densities
 Warning:  Energy on first SCF cycle will be non-variational
 SAD guess density has 1204.000002 electrons

 -----------------------------------------------------------------------
  General SCF calculation program by
  Eric Jon Sundstrom, Paul Horn, Yuezhi Mao, Dmitri Zuev, Alec White,
  David Stuck, Shaama M.S., Shane Yost, Joonho Lee, David Small,
  Daniel Levine, Susi Lehtola, Hugh Burton, Evgeny Epifanovsky,
  Bang C. Huynh
 -----------------------------------------------------------------------
=================================================
        Doing projection-based embedding         
      F. Manby et al. JCTC, 8, 2564 (2012)       
=================================================

****************************************************
   Low-level SCF calculation for the whole system   
****************************************************
----------------------------------------------
 Summary of the low-level theory: 
 Exchange:     0.2000 Hartree-Fock + 0.0800 Slater + 0.7200 B88
 Correlation:  0.1900 VWN1RPA + 0.8100 LYP
 Using Euler-Maclaurin-Lebedev (75,302) quadrature formula
----------------------------------------------
 using 16 threads for integral computing
 -------------------------------------------------------
 OpenMP Integral computing Module                
 Release: version 1.0, May 2013, Q-Chem Inc. Pittsburgh 
 -------------------------------------------------------
 A restricted SCF calculation will be
 performed using DIIS
 SCF converges when DIIS error is below 1.0e-08
 ---------------------------------------
  Cycle       Energy         DIIS error
 ---------------------------------------
    1  -15359.7968423042      1.35e-02  
    2  -15335.9143974697      2.51e-03  
    3  -15318.0503783119      4.94e-03  
    4  -15333.3807363276      1.94e-03  
    5  -15340.4091170106      6.41e-04  
    6  -15340.7128289935      2.87e-04  
    7  -15340.7549464341      1.58e-04  
    8  -15340.7739408783      2.63e-05  
    9  -15340.7744542289      1.10e-05  
   10  -15340.7745499297      5.15e-06  
   11  -15340.7745671105      2.19e-06  
   12  -15340.7745704365      6.50e-07  
   13  -15340.7745707529      2.18e-07  
   14  -15340.7745707846      9.54e-08  
   15  -15340.7745707909      3.50e-08  
   16  -15340.7745707918      1.21e-08  
   17  -15340.7745707920      4.21e-09  Convergence criterion met
 ---------------------------------------
 SCF time:   CPU 308345.16s  wall 22110.00s 
 SCF   energy in the final basis set =   -15340.7745707920
 Total energy in the final basis set =   -15340.7745707920

****************************************************
             Start embedding calculation            
****************************************************
----------------------------------------------
 Summary of the high-level theory: 
 Exchange:     0.2000 Hartree-Fock + 0.0800 Slater + 0.7200 B88
 Correlation:  0.1900 VWN1RPA + 0.8100 LYP
 Using Euler-Maclaurin-Lebedev (75,302) quadrature formula
----------------------------------------------
Doing R-in-R Embedding Calculation
Number of fragments: 2
Embedded fragment(s): 1 
NOcc for each fragment
           35
          567
NBasis for each fragment
          197
         2484
Variational space of the embedded problem: 
NOcc (active)  = 35
NOcc (fixed)   = 567
NVir (total)   = 2077
Read converged orbitals from disk
=========================================================
       Doing SPADE partition for the orbital space       
     D. Claudino and N. Mayhall JCTC 15, 1053 (2019)     
=========================================================
SPADE singular values:
 1.0000 1.0000 1.0000 1.0000 1.0000 1.0000 1.0000 1.0000 1.0000 0.9999
 0.9998 0.9997 0.9996 0.9995 0.9995 0.9993 0.9992 0.9990 0.9978 0.9974
 0.9969 0.9969 0.9963 0.9960 0.9950 0.9945 0.9940 0.9938 0.9934 0.9921
 0.9914 0.9906 0.9891 0.9851 0.9778 0.2225 0.2053 0.1858 0.1712 0.1601
 0.1417 0.1366 0.1261 0.1247 0.1157 0.1100 0.0951 0.0830 0.0749 0.0684
 0.0653 0.0537 0.0516 0.0485 0.0463 0.0405 0.0381 0.0351 0.0331 0.0318
 0.0304 0.0277 0.0259 0.0251 0.0226 0.0213 0.0210 0.0195 0.0188 0.0175
 0.0173 0.0167 0.0156 0.0151 0.0133 0.0129 0.0122 0.0117 0.0114 0.0104
 0.0098 0.0091 0.0089 0.0087 0.0084 0.0080 0.0075 0.0073 0.0070 0.0065
 0.0062 0.0060 0.0057 0.0056 0.0050 0.0050 0.0048 0.0045 0.0042 0.0041
 0.0039 0.0035 0.0033 0.0033 0.0030 0.0029 0.0028 0.0027 0.0025 0.0024
 0.0023 0.0022 0.0022 0.0020 0.0020 0.0019 0.0018 0.0018 0.0016 0.0015
 0.0015 0.0014 0.0014 0.0013 0.0013 0.0012 0.0011 0.0011 0.0011 0.0010
 0.0010 0.0010 0.0009 0.0009 0.0008 0.0008 0.0008 0.0007 0.0007 0.0007
 0.0006 0.0006 0.0006 0.0006 0.0005 0.0005 0.0005 0.0005 0.0004 0.0004
 0.0004 0.0004 0.0004 0.0004 0.0003 0.0003 0.0003 0.0003 0.0003 0.0003
 0.0003 0.0003 0.0002 0.0002 0.0002 0.0002 0.0002 0.0002 0.0002 0.0002
 0.0002 0.0002 0.0002 0.0002 0.0002 0.0001 0.0001 0.0001 0.0001 0.0001
 0.0001 0.0001 0.0001 0.0001 0.0001 0.0001 0.0001 0.0001 0.0001 0.0001
 0.0001 0.0001 0.0001 0.0001 0.0001 0.0001 0.0000
Early stop requested; no embedded SCF will be performed

 567 environment occs will be part of frozen-core in future post-HF calculations

 --------------------------------------------------------------

                    Orbital Energies (a.u.)
 --------------------------------------------------------------

 Alpha MOs
 -- Occupied --
-89.0249 -89.0198 -89.0183 -89.0170 -89.0119 -89.0098 -89.0081 -89.0067
-89.0064 -89.0051 -88.9970 -88.9959 -88.9931 -88.9926 -88.9926 -88.9919
-88.9913 -88.9887 -88.9882 -88.9880 -88.9876 -88.9875 -88.9822 -88.9768
-88.9725 -88.9717 -88.9550 -19.1450 -19.1355 -19.1300 -19.1274 -19.1269
-19.1263 -19.1259 -19.1203 -19.1200 -19.1178 -19.1146 -19.1134 -19.1118
-19.1108 -19.1093 -19.1083 -19.1077 -19.1058 -19.1035 -19.1021 -19.1018
-19.0987 -19.0914 -19.0889 -19.0872 -19.0871 -19.0584 -10.2405 -10.2393
-10.2372 -10.2348 -10.2345 -10.2326 -10.2309 -10.2304 -10.2294 -10.2284
-10.2279 -10.2254 -10.2251 -10.2243 -10.2227 -10.2221 -10.2213 -10.2202
-10.2197 -10.2194 -10.2189 -10.2183 -10.2177 -10.2176 -10.2139 -10.2133
-10.2115 -10.2108 -10.2107 -10.2102 -10.2078 -10.2075 -10.2063 -10.2060
-10.2047 -10.2045 -10.2041 -10.2029 -10.2028 -10.2025 -10.2022 -10.2003
-10.1995 -10.1977 -10.1971 -10.1953 -10.1929 -10.1920 -10.1855 -10.1842
-10.1841 -10.1801 -10.1680 -10.1592  -8.0709  -8.0649  -8.0645  -8.0628
 -8.0583  -8.0558  -8.0531  -8.0528  -8.0527  -8.0515  -8.0427  -8.0418
 -8.0389  -8.0387  -8.0385  -8.0382  -8.0371  -8.0346  -8.0336  -8.0335
 -8.0333  -8.0331  -8.0275  -8.0230  -8.0187  -8.0177  -8.0013  -6.0352
 -6.0338  -6.0294  -6.0289  -6.0284  -6.0281  -6.0277  -6.0274  -6.0260
 -6.0224  -6.0222  -6.0219  -6.0214  -6.0202  -6.0197  -6.0188  -6.0174
 -6.0173  -6.0170  -6.0163  -6.0160  -6.0160  -6.0159  -6.0158  -6.0144
 -6.0133  -6.0102  -6.0101  -6.0100  -6.0090  -6.0069  -6.0064  -6.0059
 -6.0051  -6.0033  -6.0030  -6.0030  -6.0024  -6.0023  -6.0018  -6.0016
 -6.0014  -6.0014  -6.0003  -6.0001  -5.9991  -5.9989  -5.9980  -5.9980
 -5.9979  -5.9978  -5.9976  -5.9967  -5.9966  -5.9966  -5.9963  -5.9962
 -5.9958  -5.9958  -5.9954  -5.9946  -5.9916  -5.9915  -5.9912  -5.9909
 -5.9906  -5.9905  -5.9900  -5.9872  -5.9861  -5.9852  -5.9832  -5.9821
 -5.9816  -5.9809  -5.9806  -5.9761  -5.9749  -5.9654  -5.9643  -5.9593
 -1.0518  -1.0449  -1.0405  -1.0405  -1.0373  -1.0367  -1.0362  -1.0330
 -1.0316  -1.0304  -1.0217  -1.0207  -1.0190  -1.0178  -1.0174  -1.0171
 -1.0165  -1.0154  -1.0153  -1.0117  -1.0096  -1.0094  -1.0008  -0.9996
 -0.9988  -0.9965  -0.9738  -0.8255  -0.8178  -0.8132  -0.8119  -0.8111
 -0.8100  -0.8086  -0.8071  -0.8066  -0.8026  -0.8024  -0.8020  -0.7962
 -0.7945  -0.7936  -0.7933  -0.7930  -0.7910  -0.7874  -0.7871  -0.7864
 -0.7859  -0.7807  -0.7767  -0.7762  -0.7700  -0.7533  -0.7490  -0.7483
 -0.7465  -0.7443  -0.7434  -0.7403  -0.7389  -0.7369  -0.7358  -0.7303
 -0.7300  -0.7293  -0.7270  -0.7259  -0.7231  -0.7207  -0.7205  -0.7190
 -0.7169  -0.7165  -0.7152  -0.7126  -0.7039  -0.7032  -0.7018  -0.7002
 -0.6721  -0.6398  -0.6344  -0.6296  -0.6285  -0.6244  -0.6240  -0.6232
 -0.6214  -0.6197  -0.6146  -0.6099  -0.6092  -0.6077  -0.6073  -0.6064
 -0.6054  -0.6029  -0.6006  -0.6000  -0.5982  -0.5980  -0.5978  -0.5958
 -0.5878  -0.5842  -0.5836  -0.5664  -0.5065  -0.5064  -0.5028  -0.4986
 -0.4972  -0.4958  -0.4926  -0.4901  -0.4891  -0.4871  -0.4866  -0.4860
 -0.4858  -0.4853  -0.4839  -0.4829  -0.4816  -0.4808  -0.4800  -0.4799
 -0.4793  -0.4786  -0.4778  -0.4771  -0.4762  -0.4753  -0.4752  -0.4741
 -0.4735  -0.4733  -0.4728  -0.4725  -0.4725  -0.4717  -0.4709  -0.4703
 -0.4698  -0.4696  -0.4685  -0.4684  -0.4670  -0.4662  -0.4659  -0.4654
 -0.4647  -0.4640  -0.4628  -0.4626  -0.4620  -0.4613  -0.4606  -0.4600
 -0.4592  -0.4586  -0.4583  -0.4582  -0.4568  -0.4563  -0.4554  -0.4549
 -0.4546  -0.4543  -0.4541  -0.4518  -0.4517  -0.4515  -0.4513  -0.4502
 -0.4487  -0.4475  -0.4472  -0.4467  -0.4461  -0.4455  -0.4446  -0.4436
 -0.4428  -0.4419  -0.4414  -0.4406  -0.4399  -0.4380  -0.4355  -0.4348
 -0.4336  -0.4332  -0.4317  -0.4313  -0.4309  -0.4309  -0.4295  -0.4286
 -0.4284  -0.4264  -0.4263  -0.4260  -0.4256  -0.4245  -0.4241  -0.4215
 -0.4208  -0.4190  -0.4187  -0.4186  -0.4184  -0.4178  -0.4168  -0.4166
 -0.4156  -0.4151  -0.4147  -0.4145  -0.4141  -0.4133  -0.4128  -0.4118
 -0.4108  -0.4106  -0.4095  -0.4090  -0.4077  -0.4070  -0.4067  -0.4061
 -0.4059  -0.4055  -0.4051  -0.4045  -0.4042  -0.4035  -0.4024  -0.4022
 -0.4011  -0.4009  -0.3993  -0.3987  -0.3983  -0.3957  -0.3955  -0.3944
 -0.3940  -0.3937  -0.3926  -0.3924  -0.3911  -0.3893  -0.3881  -0.3879
 -0.3874  -0.3864  -0.3861  -0.3857  -0.3837  -0.3828  -0.3825  -0.3822
 -0.3802  -0.3792  -0.3779  -0.3763  -0.3730  -0.3721  -0.3696  -0.3693
 -0.3681  -0.3679  -0.3653  -0.3651  -0.3628  -0.3619  -0.3611  -0.3600
 -0.3592  -0.3577  -0.3566  -0.3549  -0.3548  -0.3531  -0.3525  -0.3518
 -0.3516  -0.3513  -0.3483  -0.3425  -0.3412  -0.3405  -0.3395  -0.3281
 -0.3175  -0.3048  -0.3022  -0.2933  -0.2899  -0.2887  -0.2877  -0.2867
 -0.2824  -0.2820  -0.2810  -0.2784  -0.2766  -0.2738  -0.2737  -0.2730
 -0.2695  -0.2694  -0.2687  -0.2656  -0.2650  -0.2639  -0.2602  -0.2599
 -0.2589  -0.2558  -0.2557  -0.2536  -0.2524  -0.2515  -0.2511  -0.2499
 -0.2493  -0.2478  -0.2461  -0.2451  -0.2413  -0.2372  -0.2365  -0.2353
 -0.2338  -0.2323  -0.2290  -0.2287  -0.2286  -0.2275  -0.2255  -0.2249
 -0.2222  -0.2196  -0.2189  -0.2154  -0.2143  -0.2093  -0.1944 -11.0298
-11.7028 -11.2514 -10.4511 -12.1232 -10.5776 -15.4629 -11.2064 -10.3603
 -0.6406  -0.7254  -0.6751  -0.7614  -0.6982  -0.7693  -0.6774  -0.4844
 -0.8739  -0.4680  -0.4540  -0.5033  -0.5168  -0.4244  -0.4082  -0.4173
 -0.4024  -0.4516  -0.4392  -0.4202  -0.4684  -0.4698  -0.4184  -0.4543
 -0.5336  -0.5989
 -- Virtual --
 -0.0334  -0.0296  -0.0278  -0.0240  -0.0220  -0.0186  -0.0166  -0.0153
 -0.0138  -0.0130  -0.0123  -0.0109  -0.0107  -0.0071  -0.0071  -0.0066
 -0.0058  -0.0041  -0.0033  -0.0029  -0.0022  -0.0013   0.0001   0.0004
  0.0007   0.0018   0.0021   0.0036   0.0040   0.0048   0.0057   0.0069
  0.0076   0.0094   0.0102   0.0110   0.0113   0.0119   0.0125   0.0127
  0.0134   0.0141   0.0150   0.0161   0.0165   0.0177   0.0186   0.0196
  0.0203   0.0208   0.0214   0.0216   0.0225   0.0227   0.0232   0.0238
  0.0244   0.0255   0.0258   0.0272   0.0274   0.0284   0.0286   0.0294
  0.0301   0.0305   0.0311   0.0314   0.0321   0.0326   0.0332   0.0336
  0.0342   0.0349   0.0350   0.0359   0.0366   0.0371   0.0382   0.0383
  0.0388   0.0393   0.0399   0.0402   0.0403   0.0418   0.0422   0.0423
  0.0429   0.0432   0.0435   0.0442   0.0446   0.0455   0.0460   0.0469
  0.0473   0.0477   0.0480   0.0491   0.0491   0.0497   0.0505   0.0515
  0.0521   0.0531   0.0537   0.0547   0.0555   0.0566   0.0570   0.0577
  0.0579   0.0587   0.0591   0.0604   0.0610   0.0614   0.0623   0.0626
  0.0630   0.0640   0.0641   0.0652   0.0660   0.0661   0.0666   0.0670
  0.0683   0.0687   0.0694   0.0697   0.0705   0.0713   0.0714   0.0722
  0.0726   0.0733   0.0735   0.0745   0.0749   0.0755   0.0766   0.0771
  0.0774   0.0786   0.0787   0.0796   0.0799   0.0802   0.0810   0.0818
  0.0821   0.0824   0.0833   0.0846   0.0851   0.0858   0.0860   0.0867
  0.0870   0.0879   0.0889   0.0894   0.0904   0.0908   0.0915   0.0918
  0.0931   0.0933   0.0936   0.0952   0.0952   0.0961   0.0966   0.0973
  0.0982   0.0990   0.0995   0.0997   0.1004   0.1016   0.1022   0.1027
  0.1031   0.1036   0.1041   0.1042   0.1056   0.1060   0.1066   0.1071
  0.1083   0.1085   0.1086   0.1095   0.1100   0.1101   0.1113   0.1118
  0.1124   0.1127   0.1133   0.1139   0.1149   0.1153   0.1164   0.1169
  0.1178   0.1179   0.1185   0.1192   0.1204   0.1211   0.1219   0.1221
  0.1226   0.1243   0.1245   0.1253   0.1258   0.1268   0.1269   0.1275
  0.1281   0.1286   0.1296   0.1303   0.1306   0.1311   0.1321   0.1336
  0.1340   0.1343   0.1348   0.1349   0.1359   0.1366   0.1368   0.1373
  0.1378   0.1385   0.1391   0.1397   0.1404   0.1412   0.1415   0.1421
  0.1421   0.1430   0.1437   0.1450   0.1452   0.1453   0.1459   0.1463
  0.1473   0.1477   0.1486   0.1495   0.1502   0.1505   0.1508   0.1516
  0.1523   0.1525   0.1529   0.1535   0.1541   0.1545   0.1552   0.1556
  0.1563   0.1571   0.1577   0.1583   0.1588   0.1599   0.1605   0.1608
  0.1608   0.1616   0.1623   0.1625   0.1638   0.1642   0.1651   0.1657
  0.1658   0.1666   0.1669   0.1674   0.1681   0.1684   0.1694   0.1694
  0.1698   0.1705   0.1719   0.1726   0.1738   0.1742   0.1749   0.1754
  0.1758   0.1762   0.1764   0.1773   0.1778   0.1785   0.1788   0.1794
  0.1797   0.1810   0.1815   0.1820   0.1825   0.1832   0.1839   0.1841
  0.1850   0.1854   0.1863   0.1877   0.1880   0.1886   0.1891   0.1893
  0.1899   0.1902   0.1910   0.1917   0.1926   0.1931   0.1937   0.1943
  0.1953   0.1959   0.1965   0.1973   0.1976   0.1977   0.1984   0.1987
  0.1995   0.1997   0.2004   0.2009   0.2015   0.2022   0.2026   0.2038
  0.2042   0.2047   0.2052   0.2057   0.2066   0.2077   0.2079   0.2090
  0.2097   0.2099   0.2111   0.2112   0.2121   0.2122   0.2127   0.2134
  0.2138   0.2142   0.2150   0.2154   0.2163   0.2173   0.2176   0.2182
  0.2184   0.2190   0.2195   0.2209   0.2209   0.2217   0.2219   0.2226
  0.2242   0.2250   0.2254   0.2256   0.2265   0.2273   0.2286   0.2288
  0.2297   0.2304   0.2310   0.2315   0.2317   0.2324   0.2333   0.2344
  0.2346   0.2353   0.2358   0.2370   0.2371   0.2382   0.2393   0.2397
  0.2398   0.2405   0.2411   0.2420   0.2430   0.2436   0.2446   0.2446
  0.2449   0.2457   0.2469   0.2471   0.2478   0.2486   0.2491   0.2495
  0.2503   0.2509   0.2510   0.2520   0.2527   0.2534   0.2539   0.2546
  0.2563   0.2573   0.2574   0.2580   0.2587   0.2591   0.2597   0.2607
  0.2612   0.2620   0.2623   0.2628   0.2640   0.2646   0.2651   0.2659
  0.2665   0.2676   0.2681   0.2686   0.2700   0.2707   0.2712   0.2719
  0.2722   0.2727   0.2733   0.2740   0.2753   0.2766   0.2768   0.2773
  0.2776   0.2787   0.2797   0.2798   0.2804   0.2808   0.2817   0.2824
  0.2839   0.2843   0.2847   0.2859   0.2864   0.2872   0.2881   0.2887
  0.2891   0.2902   0.2913   0.2922   0.2924   0.2939   0.2944   0.2949
  0.2963   0.2966   0.2972   0.2982   0.3000   0.3006   0.3015   0.3021
  0.3025   0.3042   0.3055   0.3058   0.3062   0.3068   0.3078   0.3082
  0.3096   0.3106   0.3121   0.3124   0.3128   0.3136   0.3147   0.3151
  0.3156   0.3168   0.3175   0.3188   0.3192   0.3196   0.3205   0.3208
  0.3215   0.3224   0.3238   0.3239   0.3250   0.3261   0.3275   0.3283
  0.3286   0.3295   0.3302   0.3311   0.3317   0.3327   0.3341   0.3347
  0.3351   0.3359   0.3372   0.3387   0.3390   0.3398   0.3399   0.3411
  0.3413   0.3428   0.3432   0.3446   0.3460   0.3470   0.3483   0.3493
  0.3498   0.3509   0.3519   0.3523   0.3530   0.3544   0.3557   0.3565
  0.3572   0.3578   0.3589   0.3595   0.3608   0.3622   0.3624   0.3635
  0.3643   0.3651   0.3660   0.3669   0.3680   0.3682   0.3693   0.3697
  0.3709   0.3712   0.3723   0.3735   0.3737   0.3742   0.3754   0.3762
  0.3777   0.3780   0.3797   0.3799   0.3812   0.3820   0.3829   0.3834
  0.3845   0.3855   0.3860   0.3864   0.3878   0.3884   0.3889   0.3901
  0.3915   0.3918   0.3927   0.3939   0.3947   0.3949   0.3959   0.3964
  0.3971   0.3981   0.3988   0.4006   0.4009   0.4016   0.4024   0.4031
  0.4045   0.4058   0.4069   0.4075   0.4078   0.4085   0.4088   0.4095
  0.4106   0.4110   0.4127   0.4132   0.4140   0.4147   0.4156   0.4173
  0.4177   0.4185   0.4197   0.4201   0.4216   0.4226   0.4244   0.4249
  0.4250   0.4261   0.4282   0.4288   0.4299   0.4311   0.4315   0.4332
  0.4334   0.4345   0.4349   0.4355   0.4372   0.4377   0.4391   0.4403
  0.4426   0.4441   0.4447   0.4456   0.4468   0.4473   0.4482   0.4500
  0.4503   0.4518   0.4526   0.4544   0.4554   0.4566   0.4580   0.4598
  0.4601   0.4622   0.4624   0.4647   0.4649   0.4661   0.4672   0.4684
  0.4692   0.4712   0.4721   0.4735   0.4741   0.4747   0.4774   0.4784
  0.4799   0.4817   0.4823   0.4835   0.4856   0.4858   0.4870   0.4881
  0.4899   0.4918   0.4944   0.4949   0.4962   0.4970   0.4980   0.4993
  0.5008   0.5028   0.5035   0.5065   0.5080   0.5111   0.5117   0.5122
  0.5126   0.5163   0.5183   0.5190   0.5214   0.5240   0.5245   0.5271
  0.5284   0.5292   0.5312   0.5330   0.5349   0.5360   0.5380   0.5402
  0.5415   0.5424   0.5439   0.5454   0.5464   0.5483   0.5488   0.5497
  0.5524   0.5531   0.5554   0.5574   0.5577   0.5602   0.5622   0.5626
  0.5634   0.5651   0.5663   0.5676   0.5690   0.5698   0.5731   0.5741
  0.5747   0.5767   0.5774   0.5781   0.5805   0.5829   0.5833   0.5839
  0.5868   0.5878   0.5896   0.5897   0.5908   0.5928   0.5939   0.5960
  0.5969   0.5973   0.5990   0.5997   0.6012   0.6025   0.6047   0.6051
  0.6058   0.6081   0.6085   0.6099   0.6106   0.6135   0.6141   0.6144
  0.6165   0.6171   0.6182   0.6203   0.6206   0.6234   0.6241   0.6255
  0.6275   0.6285   0.6297   0.6305   0.6314   0.6323   0.6334   0.6346
  0.6356   0.6385   0.6388   0.6400   0.6415   0.6419   0.6437   0.6442
  0.6452   0.6461   0.6479   0.6489   0.6501   0.6514   0.6521   0.6531
  0.6547   0.6553   0.6570   0.6578   0.6586   0.6597   0.6608   0.6618
  0.6624   0.6636   0.6662   0.6666   0.6677   0.6697   0.6705   0.6716
  0.6731   0.6736   0.6748   0.6754   0.6770   0.6783   0.6792   0.6803
  0.6810   0.6816   0.6842   0.6846   0.6853   0.6857   0.6868   0.6883
  0.6897   0.6913   0.6916   0.6929   0.6947   0.6954   0.6961   0.6967
  0.6989   0.6997   0.7013   0.7024   0.7034   0.7043   0.7050   0.7064
  0.7084   0.7091   0.7094   0.7105   0.7129   0.7142   0.7147   0.7152
  0.7168   0.7183   0.7201   0.7206   0.7226   0.7237   0.7247   0.7254
  0.7262   0.7283   0.7298   0.7303   0.7306   0.7329   0.7341   0.7354
  0.7361   0.7379   0.7387   0.7408   0.7422   0.7434   0.7439   0.7455
  0.7470   0.7481   0.7499   0.7501   0.7516   0.7538   0.7549   0.7567
  0.7570   0.7605   0.7628   0.7652   0.7660   0.7670   0.7687   0.7696
  0.7703   0.7722   0.7738   0.7750   0.7756   0.7773   0.7803   0.7827
  0.7830   0.7835   0.7861   0.7866   0.7894   0.7913   0.7926   0.7932
  0.7952   0.7968   0.7987   0.7998   0.8009   0.8020   0.8036   0.8041
  0.8065   0.8093   0.8101   0.8105   0.8114   0.8138   0.8159   0.8164
  0.8176   0.8193   0.8208   0.8231   0.8243   0.8247   0.8263   0.8284
  0.8304   0.8317   0.8321   0.8334   0.8356   0.8358   0.8366   0.8377
  0.8394   0.8408   0.8444   0.8448   0.8459   0.8471   0.8488   0.8498
  0.8508   0.8525   0.8538   0.8556   0.8563   0.8580   0.8582   0.8594
  0.8601   0.8633   0.8640   0.8657   0.8663   0.8681   0.8689   0.8693
  0.8707   0.8743   0.8757   0.8762   0.8774   0.8783   0.8784   0.8798
  0.8817   0.8834   0.8845   0.8849   0.8854   0.8867   0.8896   0.8907
  0.8917   0.8924   0.8947   0.8950   0.8973   0.8978   0.8987   0.9019
  0.9024   0.9039   0.9049   0.9073   0.9079   0.9098   0.9112   0.9129
  0.9143   0.9163   0.9167   0.9170   0.9185   0.9197   0.9200   0.9206
  0.9228   0.9236   0.9247   0.9257   0.9270   0.9283   0.9290   0.9299
  0.9313   0.9322   0.9330   0.9342   0.9354   0.9363   0.9381   0.9392
  0.9412   0.9429   0.9437   0.9448   0.9464   0.9473   0.9482   0.9516
  0.9525   0.9535   0.9544   0.9553   0.9559   0.9575   0.9593   0.9603
  0.9626   0.9631   0.9643   0.9651   0.9652   0.9663   0.9673   0.9692
  0.9693   0.9702   0.9716   0.9723   0.9748   0.9756   0.9764   0.9773
  0.9781   0.9787   0.9790   0.9801   0.9809   0.9826   0.9831   0.9841
  0.9851   0.9869   0.9870   0.9877   0.9887   0.9897   0.9908   0.9920
  0.9926   0.9945   0.9951   0.9964   0.9969   0.9979   0.9990   1.0000
  1.0018   1.0026   1.0038   1.0044   1.0057   1.0060   1.0083   1.0091
  1.0102   1.0110   1.0115   1.0127   1.0142   1.0147   1.0154   1.0171
  1.0176   1.0189   1.0203   1.0207   1.0219   1.0234   1.0244   1.0257
  1.0261   1.0277   1.0281   1.0301   1.0319   1.0332   1.0344   1.0356
  1.0359   1.0375   1.0384   1.0391   1.0423   1.0429   1.0443   1.0445
  1.0447   1.0460   1.0477   1.0481   1.0495   1.0510   1.0516   1.0526
  1.0536   1.0546   1.0559   1.0579   1.0585   1.0598   1.0618   1.0631
  1.0648   1.0667   1.0680   1.0687   1.0705   1.0716   1.0734   1.0741
  1.0754   1.0773   1.0777   1.0793   1.0804   1.0811   1.0834   1.0838
  1.0850   1.0866   1.0882   1.0899   1.0908   1.0929   1.0953   1.0963
  1.0966   1.0971   1.1018   1.1029   1.1037   1.1045   1.1068   1.1077
  1.1097   1.1107   1.1122   1.1139   1.1150   1.1163   1.1171   1.1187
  1.1197   1.1217   1.1225   1.1238   1.1243   1.1260   1.1282   1.1284
  1.1299   1.1307   1.1328   1.1335   1.1349   1.1355   1.1360   1.1375
  1.1386   1.1387   1.1409   1.1423   1.1435   1.1444   1.1454   1.1468
  1.1477   1.1495   1.1499   1.1525   1.1527   1.1539   1.1555   1.1564
  1.1574   1.1589   1.1606   1.1610   1.1621   1.1640   1.1659   1.1664
  1.1683   1.1708   1.1722   1.1737   1.1744   1.1758   1.1767   1.1795
  1.1808   1.1824   1.1845   1.1851   1.1863   1.1868   1.1903   1.1909
  1.1918   1.1938   1.1941   1.1963   1.1992   1.2006   1.2015   1.2031
  1.2047   1.2072   1.2093   1.2099   1.2128   1.2138   1.2153   1.2181
  1.2212   1.2227   1.2232   1.2280   1.2283   1.2293   1.2295   1.2328
  1.2351   1.2360   1.2378   1.2393   1.2410   1.2426   1.2428   1.2443
  1.2482   1.2487   1.2509   1.2528   1.2560   1.2578   1.2589   1.2623
  1.2637   1.2649   1.2679   1.2687   1.2727   1.2745   1.2763   1.2787
  1.2797   1.2819   1.2837   1.2887   1.2912   1.2946   1.2962   1.2969
  1.3004   1.3022   1.3037   1.3056   1.3094   1.3106   1.3149   1.3152
  1.3167   1.3180   1.3198   1.3224   1.3269   1.3274   1.3301   1.3323
  1.3325   1.3350   1.3362   1.3383   1.3402   1.3412   1.3442   1.3460
  1.3480   1.3486   1.3513   1.3535   1.3549   1.3575   1.3592   1.3610
  1.3627   1.3642   1.3660   1.3665   1.3687   1.3700   1.3706   1.3719
  1.3737   1.3761   1.3777   1.3789   1.3800   1.3811   1.3830   1.3837
  1.3850   1.3866   1.3870   1.3883   1.3895   1.3913   1.3925   1.3927
  1.3946   1.3955   1.3972   1.3983   1.3988   1.4031   1.4036   1.4049
  1.4082   1.4098   1.4102   1.4116   1.4130   1.4158   1.4164   1.4177
  1.4195   1.4202   1.4213   1.4225   1.4236   1.4259   1.4270   1.4277
  1.4290   1.4311   1.4331   1.4341   1.4348   1.4365   1.4370   1.4378
  1.4403   1.4418   1.4435   1.4438   1.4445   1.4471   1.4490   1.4497
  1.4503   1.4530   1.4538   1.4560   1.4583   1.4626   1.4628   1.4633
  1.4653   1.4659   1.4682   1.4692   1.4710   1.4732   1.4762   1.4769
  1.4782   1.4800   1.4803   1.4824   1.4858   1.4880   1.4898   1.4903
  1.4937   1.4944   1.4982   1.4994   1.5031   1.5037   1.5043   1.5064
  1.5087   1.5108   1.5125   1.5150   1.5175   1.5202   1.5247   1.5257
  1.5287   1.5309   1.5347   1.5361   1.5385   1.5401   1.5433   1.5451
  1.5488   1.5497   1.5516   1.5546   1.5562   1.5584   1.5607   1.5612
  1.5624   1.5673   1.5683   1.5711   1.5748   1.5786   1.5809   1.5858
  1.5875   1.5925   1.5935   1.5964   1.5990   1.6064   1.6127   1.6157
  1.6213   1.6270   1.6280   1.6344   1.6452   1.6458   1.6479   1.6493
  1.6528   1.6567   1.6621   1.6625   1.6644   1.6664   1.6692   1.6705
  1.6719   1.6731   1.6755   1.6765   1.6768   1.6774   1.6795   1.6806
  1.6813   1.6820   1.6846   1.6848   1.6871   1.6873   1.6890   1.6905
  1.6914   1.6921   1.6938   1.6942   1.6959   1.6963   1.6975   1.6990
  1.6993   1.7010   1.7020   1.7034   1.7042   1.7051   1.7078   1.7081
  1.7096   1.7121   1.7134   1.7146   1.7154   1.7159   1.7179   1.7186
  1.7190   1.7219   1.7230   1.7248   1.7253   1.7267   1.7280   1.7285
  1.7302   1.7320   1.7334   1.7348   1.7355   1.7369   1.7400   1.7415
  1.7426   1.7430   1.7439   1.7444   1.7455   1.7470   1.7473   1.7506
  1.7517   1.7527   1.7539   1.7567   1.7577   1.7596   1.7602   1.7627
  1.7653   1.7676   1.7681   1.7708   1.7721   1.7733   1.7744   1.7751
  1.7761   1.7778   1.7784   1.7825   1.7835   1.7853   1.7857   1.7883
  1.7912   1.7921   1.7944   1.7956   1.7978   1.7995   1.8014   1.8027
  1.8054   1.8068   1.8087   1.8132   1.8165   1.8190   1.8193   1.8205
  1.8261   1.8288   1.8330   1.8348   1.8376   1.8424   1.8432   1.8456
  1.8459   1.8494   1.8497   1.8547   1.8595   1.8628   1.8653   1.8670
  1.8676   1.8697   1.8728   1.8748   1.8759   1.8782   1.8796   1.8806
  1.8830   1.8841   1.8854   1.8860   1.8874   1.8886   1.8893   1.8906
  1.8914   1.8926   1.8939   1.8947   1.8963   1.8966   1.8968   1.8991
  1.9003   1.9020   1.9035   1.9042   1.9054   1.9067   1.9088   1.9115
  1.9133   1.9154   1.9168   1.9176   1.9183   1.9191   1.9199   1.9211
  1.9219   1.9233   1.9258   1.9261   1.9271   1.9289   1.9293   1.9310
  1.9321   1.9344   1.9368   1.9369   1.9383   1.9420   1.9438   1.9449
  1.9458   1.9489   1.9505   1.9525   1.9564   1.9578   1.9591   1.9606
  1.9642   1.9682   1.9685   1.9693   1.9837   1.9887   1.9905   1.9948
  2.0042   2.0140   2.0233   2.0296   2.0344   2.0394   2.0464   2.0467
  2.0487   2.0515   2.0541   2.0594   2.0610   2.0630   2.0659   2.0665
  2.0687   2.0700   2.0704   2.0725   2.0727   2.0740   2.0747   2.0755
  2.0768   2.0782   2.0815   2.0825   2.0835   2.0849   2.0867   2.0875
  2.0889   2.0893   2.0904   2.0907   2.0917   2.0929   2.0944   2.0968
  2.0983   2.0992   2.1006   2.1016   2.1041   2.1058   2.1068   2.1080
  2.1101   2.1119   2.1140   2.1156   2.1165   2.1169   2.1188   2.1197
  2.1206   2.1241   2.1252   2.1287   2.1297   2.1340   2.1364   2.1472
  2.1486   2.1521   2.1588   2.1607   2.1638   2.1720   2.1746   2.1792
  2.1800   2.1831   2.1845   2.1863   2.1893   2.1905   2.1908   2.1925
  2.1964   2.2016   2.2053   2.2058   2.2065   2.2096   2.2123   2.2139
  2.2155   2.2171   2.2177   2.2218   2.2245   2.2264   2.2286   2.2293
  2.2312   2.2314   2.2322   2.2337   2.2340   2.2348   2.2350   2.2366
  2.2376   2.2384   2.2401   2.2428   2.2439   2.2452   2.2465   2.2476
  2.2484   2.2488   2.2501   2.2521   2.2533   2.2536   2.2541   2.2549
  2.2563   2.2577   2.2583   2.2595   2.2603   2.2610   2.2625   2.2636
  2.2652   2.2658   2.2668   2.2681   2.2682   2.2694   2.2706   2.2719
  2.2729   2.2736   2.2743   2.2749   2.2768   2.2778   2.2784   2.2805
  2.2808   2.2814   2.2817   2.2830   2.2832   2.2839   2.2859   2.2873
  2.2876   2.2883   2.2896   2.2901   2.2911   2.2925   2.2933   2.2950
  2.2956   2.2968   2.2976   2.2987   2.2990   2.3008   2.3015   2.3030
  2.3038   2.3045   2.3060   2.3066   2.3082   2.3085   2.3099   2.3108
  2.3121   2.3129   2.3138   2.3146   2.3172   2.3179   2.3181   2.3188
  2.3205   2.3214   2.3223   2.3248   2.3251   2.3256   2.3268   2.3276
  2.3292   2.3305   2.3337   2.3360   2.3362   2.3384   2.3416   2.3416
  2.3430   2.3440   2.3449   2.3470   2.3490   2.3497   2.3508   2.3515
  2.3543   2.3559   2.3575   2.3597   2.3603   2.3617   2.3632   2.3647
  2.3658   2.3661   2.3694   2.3732   2.3736   2.3751   2.3761   2.3781
  2.3824   2.3839   2.3861   2.3898   2.3975   2.3994   2.4007   2.4058
  2.4093   2.4118   2.4127   2.4221   2.4497   2.4696   2.4810   2.5222
  2.5286   2.5831   2.6746   2.7247   2.7571   2.7663   2.8115   2.8185
  2.8227   2.8237   2.8306   2.8318   2.8335   2.8372   2.8398   2.8475
  2.8482   2.8493   2.8505   2.8511   2.8538   2.8571   2.8577   2.8588
  2.8615   2.8645   2.8690   2.8718   2.8745   2.8750   2.8772   2.8791
  2.8832   2.8845   2.8954   2.8967   2.8984   2.9526   3.1042   3.2660
  3.9508   3.9513   3.9568   3.9629   3.9672   3.9692   3.9721   3.9725
  3.9761   3.9785   3.9845   3.9848   3.9867   3.9871   3.9912   3.9951
  3.9967   3.9988   4.0030   4.0046   4.0079   4.0116   4.0144   4.0170
  4.0258   4.0352   4.0515   4.2119   4.2253   4.2306   4.2345   4.2371
  4.2419   4.2440   4.2490   4.2521   4.2558   4.2581   4.2586   4.2636
  4.2669   4.2679   4.2696   4.2707   4.2727   4.2739   4.2784   4.2796
  4.2822   4.2842   4.2880   4.2907   4.2926   4.2939   4.2980   4.2997
  4.3034   4.3050   4.3057   4.3084   4.3103   4.3115   4.3126   4.3150
  4.3171   4.3196   4.3231   4.3253   4.3276   4.3294   4.3315   4.3329
  4.3358   4.3380   4.3421   4.3452   4.3481   4.3505   4.3536   4.3595
  4.3628   4.3643   4.3686   4.3721   4.3748   4.3789   4.3812   4.3836
  4.3855   4.3870   4.3911   4.3936   4.3942   4.3966   4.4028   4.4106
  4.4162   4.4203   4.4264   4.4349   4.4448   4.4502   4.4569   4.4626
  4.4847   4.4878   4.5205   4.5292   4.5494   4.5740   4.5982   4.6106
  4.6798   4.7159   4.7307   4.7863   4.9211
 --------------------------------------------------------------

          Ground-State Mulliken Net Atomic Charges

     Atom                 Charge (a.u.)
  ----------------------------------------
      1 C                    -0.529883
      2 C                    -0.013776
      3 C                    -0.401309
      4 C                    -0.404967
      5 C                    -0.425996
      6 C                    -0.688523
      7 H                     0.250955
      8 H                     0.235453
      9 H                     0.225009
     10 H                     0.250005
     11 H                     0.251898
     12 H                     0.189710
     13 H                     0.192394
     14 H                     0.216469
     15 H                     0.198731
     16 H                     0.211801
     17 H                     0.196180
     18 N                    -0.096018
     19 H                     0.485647
     20 C                    -0.024115
     21 H                     0.168592
     22 O                    -0.186682
     23 C                    -0.715200
     24 H                     0.231927
     25 H                     0.264590
     26 H                     0.245020
     27 S                     0.758701
     28 C                    -0.829641
     29 H                     0.224624
     30 H                     0.272084
     31 H                     0.287970
     32 O                    -0.681769
     33 C                    -1.024557
     34 H                     0.275241
     35 H                     0.262094
     36 H                     0.308003
     37 S                     0.939374
     38 C                    -0.893171
     39 H                     0.284037
     40 H                     0.226036
     41 H                     0.265941
     42 O                    -0.739806
     43 C                    -0.806280
     44 H                     0.267691
     45 H                     0.282939
     46 H                     0.310507
     47 S                     0.665470
     48 C                    -0.941910
     49 H                     0.228885
     50 H                     0.313221
     51 H                     0.234934
     52 O                    -0.626229
     53 C                    -0.817553
     54 H                     0.261317
     55 H                     0.229491
     56 H                     0.244164
     57 S                     0.890609
     58 C                    -0.858791
     59 H                     0.282653
     60 H                     0.249535
     61 H                     0.226812
     62 O                    -0.696091
     63 C                    -0.956289
     64 H                     0.303609
     65 H                     0.236594
     66 H                     0.260030
     67 S                     0.790109
     68 C                    -0.872718
     69 H                     0.286237
     70 H                     0.212758
     71 H                     0.285559
     72 O                    -0.634733
     73 C                    -0.855768
     74 H                     0.255076
     75 H                     0.258659
     76 H                     0.252887
     77 S                     0.886183
     78 C                    -0.839255
     79 H                     0.260218
     80 H                     0.254579
     81 H                     0.227144
     82 O                    -0.665790
     83 C                    -0.872999
     84 H                     0.273516
     85 H                     0.277449
     86 H                     0.279650
     87 S                     0.682678
     88 C                    -0.814104
     89 H                     0.234748
     90 H                     0.256766
     91 H                     0.294563
     92 O                    -0.616217
     93 C                    -0.680676
     94 H                     0.267922
     95 H                     0.272929
     96 H                     0.220940
     97 S                     0.648982
     98 C                    -0.794360
     99 H                     0.270804
    100 H                     0.227407
    101 H                     0.255598
    102 O                    -0.632207
    103 C                    -0.815892
    104 H                     0.300092
    105 H                     0.266183
    106 H                     0.231634
    107 S                     0.772410
    108 C                    -0.835297
    109 H                     0.229845
    110 H                     0.286450
    111 H                     0.281209
    112 O                    -0.692900
    113 C                    -0.915179
    114 H                     0.268708
    115 H                     0.277824
    116 H                     0.283262
    117 S                     0.760707
    118 C                    -0.845478
    119 H                     0.245725
    120 H                     0.255998
    121 H                     0.261092
    122 O                    -0.596952
    123 C                    -0.928959
    124 H                     0.334853
    125 H                     0.288625
    126 H                     0.229845
    127 S                     0.841197
    128 C                    -0.788364
    129 H                     0.239720
    130 H                     0.292339
    131 H                     0.242332
    132 O                    -0.731965
    133 C                    -0.729387
    134 H                     0.265191
    135 H                     0.257474
    136 H                     0.281066
    137 S                    -0.072984
    138 C                    -0.617736
    139 H                     0.267370
    140 H                     0.235924
    141 H                     0.336374
    142 O                    -0.445648
    143 C                    -0.883365
    144 H                     0.232486
    145 H                     0.269737
    146 H                     0.252106
    147 S                     0.894608
    148 C                    -0.964716
    149 H                     0.298848
    150 H                     0.284439
    151 H                     0.251429
    152 O                    -0.695035
    153 C                    -0.839176
    154 H                     0.245017
    155 H                     0.269594
    156 H                     0.228783
    157 S                     0.949087
    158 C                    -0.826259
    159 H                     0.227964
    160 H                     0.249982
    161 H                     0.255429
    162 O                    -0.719055
    163 C                    -1.015901
    164 H                     0.291190
    165 H                     0.278191
    166 H                     0.268153
    167 S                     1.152985
    168 C                    -0.898700
    169 H                     0.240258
    170 H                     0.263450
    171 H                     0.247678
    172 O                    -0.737453
    173 C                    -0.914959
    174 H                     0.251891
    175 H                     0.234362
    176 H                     0.259106
    177 S                     0.819139
    178 C                    -0.723893
    179 H                     0.270809
    180 H                     0.246716
    181 H                     0.258049
    182 O                    -0.663994
    183 C                    -0.881119
    184 H                     0.238568
    185 H                     0.255333
    186 H                     0.268496
    187 S                     0.959481
    188 C                    -0.872563
    189 H                     0.284208
    190 H                     0.246375
    191 H                     0.239016
    192 O                    -0.706861
    193 C                    -0.413679
    194 H                     0.261506
    195 H                     0.256207
    196 H                     0.312606
    197 S                    -0.295655
    198 C                    -0.538383
    199 H                     0.317651
    200 H                     0.245552
    201 H                     0.276505
    202 O                    -0.508169
    203 C                    -0.870799
    204 H                     0.240263
    205 H                     0.243898
    206 H                     0.249822
    207 S                     0.883814
    208 C                    -0.916437
    209 H                     0.259096
    210 H                     0.321927
    211 H                     0.254556
    212 O                    -0.676365
    213 C                    -0.761631
    214 H                     0.249933
    215 H                     0.217243
    216 H                     0.251596
    217 S                     0.877516
    218 C                    -0.824750
    219 H                     0.267196
    220 H                     0.260077
    221 H                     0.245000
    222 O                    -0.723579
    223 C                    -0.956584
    224 H                     0.263972
    225 H                     0.259292
    226 H                     0.270952
    227 S                     1.105925
    228 C                    -0.874831
    229 H                     0.278356
    230 H                     0.231831
    231 H                     0.223181
    232 O                    -0.753198
    233 C                    -0.983521
    234 H                     0.262018
    235 H                     0.296353
    236 H                     0.276514
    237 S                     0.782972
    238 C                    -0.709737
    239 H                     0.264869
    240 H                     0.253716
    241 H                     0.248780
    242 O                    -0.706576
    243 C                    -0.912177
    244 H                     0.281383
    245 H                     0.251099
    246 H                     0.240305
    247 S                     0.943991
    248 C                    -0.967421
    249 H                     0.254131
    250 H                     0.270808
    251 H                     0.266229
    252 O                    -0.618908
    253 C                    -0.785711
    254 H                     0.260145
    255 H                     0.268630
    256 H                     0.276582
    257 S                     0.721994
    258 C                    -0.801722
    259 H                     0.253897
    260 H                     0.253221
    261 H                     0.249081
    262 O                    -0.646937
    263 C                    -0.807546
    264 H                     0.218091
    265 H                     0.232294
    266 H                     0.263776
    267 S                     0.940205
    268 C                    -0.968202
    269 H                     0.279337
    270 H                     0.280679
    271 H                     0.252631
    272 O                    -0.641085
    273 C                    -0.671000
    274 H                     0.251516
    275 H                     0.298242
    276 H                     0.315296
    277 S                     0.538494
    278 C                    -0.917362
    279 H                     0.254059
    280 H                     0.279139
    281 H                     0.246013
    282 O                    -0.696461
    283 C                    -0.749819
    284 H                     0.291237
    285 H                     0.226988
    286 H                     0.304721
    287 S                     0.702030
    288 C                    -0.968689
    289 H                     0.271924
    290 H                     0.248986
    291 H                     0.278099
    292 O                    -0.768575
  ----------------------------------------
  Sum of atomic charges =     0.000000

 -----------------------------------------------------------------
                    Cartesian Multipole Moments
 -----------------------------------------------------------------
    Charge (ESU x 10^10)
                 0.0000
    Dipole Moment (Debye)
         X      -7.0743      Y     -19.2785      Z      12.2877
       Tot      23.9311
    Quadrupole Moments (Debye-Ang)
        XX   -1411.6598     XY    -766.9454     YY   -1814.0820
        XZ     141.4042     YZ    -160.2247     ZZ    -248.2943
    Octopole Moments (Debye-Ang^2)
       XXX -100120.1635    XXY  -51899.8151    XYY  -57712.8553
[...]
          205         206         207         208         209         210
    1   0.5420700  -1.4389512  -1.8718595  -1.1028271  -2.6141944  -0.8327152
    2  -3.2616566  -4.1451585  -2.1292742  -1.3432514  -2.1058213   0.0218480
    3  -1.8728071   0.7962569   0.4435870  -1.7173309  -2.5371365  -0.5659900
          211         212         213         214         215         216
    1   0.7361768   1.0668470  -0.8339030  -0.1740326  -1.8670278  -0.0472368
    2  -1.8533317  -2.4417326  -1.1809523  -0.6272083  -2.5509197  -0.6215675
    3  -2.2632307   1.4215920  -1.2081134  -3.1662025  -1.2402846   0.4193560
          217         218         219         220         221         222
    1   0.0786311   0.1798982   1.0688062  -1.5366183   1.4030014   2.6201771
    2  -3.0772637  -3.2372791  -1.8652062  -3.3140820  -4.2121056  -1.4578826
    3  -1.4392858   1.0886455   2.0639849   0.9178986   0.8361346  -0.8560273
          223         224         225         226         227         228
    1   0.4138265   1.4545815  -0.5963669   0.4402354   1.6675588   0.4692355
    2   0.8372512  -0.5759451   1.7205496   1.4694315   1.8871134   3.4498183
    3  -1.0771217  -0.5750338   0.0636687  -3.1692215   0.6441233  -0.6965462
          229         230         231         232         233         234
    1   0.4387810  -0.7776552   1.6990572   3.0894621  -0.4190739   0.9430127
    2   2.7767919   2.9633764   4.2007307   1.6097041   0.6583283   0.4374963
    3  -2.9517717   0.6109084   0.0341273  -2.4241804  -1.0543077   0.3607157
          235         236         237         238         239         240
    1  -0.0744871  -2.2168603   0.1972940  -1.9032563  -3.0099753  -0.7663530
    2   0.9484198   0.3397702  -1.2741734  -1.3850515  -0.3315940  -0.2253527
    3  -3.1708745  -0.3971130  -2.2080790  -3.0806077  -1.6219011  -4.2681161
          241         242         243         244         245         246
    1  -1.9656253  -1.4082465  -0.6952518   1.0410091  -1.8640253  -1.9928316
    2  -3.0691732  -2.3109185  -2.2623758  -2.6257691  -0.9585289  -3.5441450
    3  -2.8355463   0.2242126   2.7833795   2.4592661   3.7735032   2.1984466
          247         248         249         250         251         252
    1  -0.5796318  -2.8506455  -3.2497058  -2.8652343  -2.7318085   0.1153438
    2  -0.1668257  -0.8771576  -0.4012617   0.5666673  -2.9564189  -2.3265619
    3   1.6059255   1.6091788   3.1431228   0.2975863   1.6632737  -0.3946419
          253         254         255         256         257         258
    1  -0.1827983   1.2780249  -0.3795666  -1.4948605  -1.1542397  -2.9747101
    2   1.1290878   0.3652923   3.0228381  -0.0024090   1.3800707   0.9955508
    3  -0.7768402  -1.3888778  -1.3191977   0.2652786  -2.5513204  -1.5474469
          259         260         261         262         263         264
    1  -3.4689873  -3.0445302  -2.5438304  -0.9568798   1.9191491   2.3757513
    2   0.7969725  -0.3770971   2.8029095  -1.7110670   1.2132562  -0.7104771
    3  -3.0512559  -0.3910159  -1.1150298  -2.8272922  -3.0348117  -3.6391854
          265         266         267         268         269         270
    1  -0.0184087   2.8658669   2.5781890   0.5219129  -0.3401785   1.2708951
    2   1.4362980   2.5084973  -0.0195194  -0.5386777   0.9419776  -1.7491239
    3  -3.0845892  -2.2664934  -1.3806853  -1.8128465  -1.9630885  -3.1263833
          271         272         273         274         275         276
    1   0.3583072   1.2858771  -1.1321033  -0.7171062  -1.7559013  -0.7455272
    2  -1.0029338   2.5734855  -0.9188387  -0.6494415  -2.4760489   0.4190740
    3   0.1460582   0.1517114   0.0603974  -1.9258631   1.2779078   1.1746932
          277         278         279         280         281         282
    1   0.2727409   0.3748509   2.2417898  -0.7878818  -0.1032130   1.6842857
    2  -2.6671337  -2.2416163  -1.8950287  -1.0372137  -4.0186490   0.0383722
    3   0.5503496   2.5841510   2.6392742   2.8376949   2.4148254  -0.0013462
          283         284         285         286         287         288
    1   1.9856991   3.2443299  -0.3542901   2.7069643   2.9156140   1.1533103
    2   0.6177384  -0.4772502   0.1088889   2.5342449   0.6813490  -0.7683069
    3  -1.1297511  -0.6771699  -1.2419407  -1.0218604   0.8092771   0.8007660
          289         290         291         292
    1   0.3204676   0.2064623   3.1497645   0.5142573
    2   0.2447639  -0.9358549  -1.1102675   2.5416137
    3   1.7521472  -1.1247067   1.4209741   0.7502352
 EField
            1           2           3           4           5           6
    1   0.0045718   0.0041275   0.0011107   0.0006395   0.0040395   0.0064206
    2  -0.0011378   0.0023158   0.0045178   0.0068594   0.0029534   0.0006645
    3   0.0019902  -0.0005300  -0.0009933  -0.0003865   0.0016062   0.0022175
            7           8           9          10          11          12
    1   0.0034738   0.0085078   0.0007904   0.0074038   0.0018022  -0.0043620
    2   0.0027321   0.0021477  -0.0000675  -0.0035916   0.0119210   0.0079445
    3  -0.0013112  -0.0007508   0.0006052   0.0025842   0.0025595  -0.0007139
           13          14          15          16          17          18
    1   0.0067835   0.0011363   0.0107739   0.0044443  -0.0042881   0.0068122
    2   0.0039795   0.0016182   0.0011750  -0.0013547   0.0067550   0.0013552
    3   0.0028430   0.0025239   0.0003902   0.0029495  -0.0024378   0.0011496
           19          20          21          22          23          24
    1   0.0117648   0.0076742   0.0099453   0.0105381  -0.0009074   0.0009984
    2   0.0030351   0.0002287   0.0003210  -0.0021698   0.0011082   0.0324610
    3   0.0110211  -0.0010914  -0.0029701  -0.0049461   0.0063842   0.0132792
           25          26          27          28          29          30
    1  -0.0316653   0.0145560  -0.0282393   0.0018640  -0.0314267   0.0188801
    2  -0.0036317  -0.0087378   0.0223811  -0.0120608  -0.0050742  -0.0132189
    3   0.0114547   0.0205685  -0.0393457   0.0020695  -0.0047232  -0.0234807
           31          32          33          34          35          36
    1   0.0105162   0.1104049   0.0016596  -0.0145205  -0.0243592   0.0339102
    2  -0.0081068  -0.0093739   0.0130557   0.0084814   0.0190179   0.0184643
    3   0.0286567   0.0019775  -0.0000019  -0.0254836   0.0144654  -0.0038261
           37          38          39          40          41          42
    1   0.0428917  -0.0118261  -0.0052691  -0.0152405  -0.0234679  -0.0380996
    2  -0.0286676  -0.0008553  -0.0090768  -0.0243958   0.0260193   0.0233381
    3  -0.0050933  -0.0014507  -0.0272174   0.0189553   0.0091553   0.1032000
           43          44          45          46          47          48
    1   0.0058821  -0.0082708  -0.0142260   0.0308519   0.0375253   0.0055392
    2  -0.0159835  -0.0214745  -0.0100036  -0.0126598   0.0278747  -0.0000916
    3  -0.0020976   0.0208972  -0.0221055  -0.0075068  -0.0391289   0.0096583
           49          50          51          52          53          54
    1  -0.0131368   0.0362289  -0.0131893  -0.1067318   0.0015267  -0.0141120
    2  -0.0222446  -0.0109926   0.0259164   0.0064475  -0.0004214   0.0272158
    3   0.0169013  -0.0020669   0.0071857  -0.0061885   0.0048872  -0.0017442
           55          56          57          58          59          60
    1  -0.0090979   0.0164309  -0.0400703   0.0078851   0.0097679   0.0213243
    2  -0.0301904   0.0068522  -0.0244119  -0.0012945   0.0004169   0.0127103
    3   0.0180362   0.0306937  -0.0418096   0.0023454  -0.0306041   0.0232379
           61          62          63          64          65          66
    1   0.0004822   0.0362066  -0.0011141  -0.0202427   0.0273254  -0.0038140
    2  -0.0330099   0.1033720   0.0042173  -0.0013401  -0.0005690   0.0287258
    3   0.0094117  -0.0138811   0.0083093   0.0307664   0.0096217  -0.0126538
           67          68          69          70          71          72
    1  -0.0526853  -0.0002642   0.0038841   0.0293848  -0.0141105   0.0709087
    2  -0.0059858  -0.0083231  -0.0266672   0.0036824  -0.0178306   0.0263868
    3  -0.0071868   0.0025596  -0.0160108   0.0050076   0.0219839  -0.0793457
           73          74          75          76          77          78
    1  -0.0076952  -0.0081383  -0.0258860   0.0041890   0.0006439   0.0014751
    2  -0.0033250   0.0303036  -0.0180151  -0.0238726   0.0437333  -0.0056133
    3   0.0034383  -0.0058055  -0.0122942   0.0252586  -0.0460688   0.0013101
           79          80          81          82          83          84
    1   0.0286032   0.0047812  -0.0094455   0.0518528  -0.0088942   0.0004962
    2  -0.0048393  -0.0243560  -0.0147693   0.0233336  -0.0010865  -0.0306656
    3  -0.0149878   0.0221483  -0.0305764   0.0949779  -0.0071744  -0.0023637
           85          86          87          88          89          90
    1  -0.0308317   0.0041301   0.0611293  -0.0101773  -0.0057704   0.0158733
    2   0.0044204   0.0276644  -0.0088515  -0.0023085  -0.0343770   0.0188867
    3  -0.0080923  -0.0199215  -0.0007003   0.0020704  -0.0057729   0.0225553
           91          92          93          94          95          96
    1  -0.0335193  -0.0394464  -0.0033481   0.0115387  -0.0014470  -0.0220705
    2   0.0018753   0.1058914  -0.0020103  -0.0229099   0.0318721  -0.0227168
    3   0.0026120  -0.0022149   0.0061909   0.0209630   0.0108765  -0.0128456
           97          98          99         100         101         102
    1  -0.0216783   0.0024322   0.0108742  -0.0202541   0.0245405   0.0878108
    2   0.0389266  -0.0065287  -0.0227238  -0.0172460   0.0010877   0.0253095
    3  -0.0417935   0.0006364   0.0204612  -0.0235134  -0.0183079   0.0619629
          103         104         105         106         107         108
    1  -0.0097126  -0.0202209  -0.0124875   0.0015005   0.0396825   0.0018313
    2   0.0034312   0.0252054  -0.0307224   0.0238504  -0.0124126   0.0073025
    3   0.0013185  -0.0103315  -0.0009037   0.0267517   0.0359658  -0.0079723
          109         110         111         112         113         114
    1   0.0117528   0.0261716  -0.0245581  -0.0345157   0.0078798   0.0253831
    2   0.0271183  -0.0023362   0.0019730  -0.0699041   0.0009395  -0.0204050
    3   0.0166620  -0.0223454  -0.0201419  -0.0775564  -0.0062774   0.0085440
          115         116         117         118         119         120
    1  -0.0026338   0.0172673   0.0129115  -0.0025560   0.0204250  -0.0340393
    2   0.0105761   0.0214974  -0.0074510  -0.0057376  -0.0199308  -0.0134791
    3  -0.0314244   0.0043478   0.0592034  -0.0022381   0.0079906  -0.0008426
          121         122         123         124         125         126
    1  -0.0009505  -0.0764776   0.0061441   0.0188235   0.0207906  -0.0268366
    2  -0.0052799   0.0681552   0.0037688  -0.0306175   0.0244333   0.0231733
    3  -0.0312175  -0.0391059   0.0106848   0.0127843  -0.0073470   0.0096863
          127         128         129         130         131         132
    1  -0.0325492  -0.0017567  -0.0117225   0.0170017  -0.0263061   0.0950225
    2   0.0332591  -0.0071601  -0.0219077  -0.0189013   0.0125244  -0.0433561
    3  -0.0314881   0.0047738  -0.0161759   0.0184116   0.0165088  -0.0316968
          133         134         135         136         137         138
    1  -0.0036928   0.0008978   0.0159207  -0.0294170  -0.0164855   0.0112021
    2   0.0071187   0.0078142   0.0181465   0.0093618  -0.0409345   0.0012933
    3  -0.0005292   0.0306627  -0.0189214  -0.0139202   0.0365696   0.0026712
          139         140         141         142         143         144
    1   0.0130544   0.0110342   0.0226623   0.0041678   0.0041731   0.0280717
    2   0.0132744   0.0093761  -0.0270214  -0.0179132  -0.0108355   0.0187562
    3  -0.0277115   0.0362513   0.0011540  -0.1078504  -0.0026065   0.0066616
          145         146         147         148         149         150
    1  -0.0015721  -0.0051461   0.0018122   0.0031818  -0.0146056   0.0005625
    2  -0.0352756   0.0053430   0.0595817  -0.0072217   0.0160425  -0.0323316
    3  -0.0034839  -0.0285838   0.0069510   0.0082682   0.0252975  -0.0062607
          151         152         153         154         155         156
    1   0.0293437  -0.0913037  -0.0050667  -0.0139707  -0.0242876   0.0177821
    2   0.0078299  -0.0518479  -0.0019476   0.0279420  -0.0165522  -0.0246618
    3   0.0242493  -0.0302542   0.0067024   0.0127178  -0.0057974   0.0180839
          157         158         159         160         161         162
    1   0.0269500   0.0018861   0.0252670   0.0210009  -0.0133831  -0.0679883
    2  -0.0420054   0.0038103  -0.0103631   0.0225581   0.0227011   0.0767272
    3  -0.0293203   0.0016985   0.0231777  -0.0138299   0.0161604  -0.0407619
          163         164         165         166         167         168
    1   0.0031514   0.0104458  -0.0266192   0.0318901   0.0243364  -0.0051050
    2  -0.0052880   0.0060950  -0.0157401  -0.0019648   0.0420812  -0.0022792
    3   0.0080416   0.0362456  -0.0127781  -0.0017094   0.0209830   0.0020502
          169         170         171         172         173         174
    1  -0.0192570  -0.0121461  -0.0164624   0.0056610   0.0062569   0.0304639
    2   0.0242631  -0.0124964  -0.0052975  -0.0305265   0.0023965   0.0052123
    3  -0.0053179  -0.0246384   0.0328840  -0.1051487  -0.0019171   0.0161813
          175         176         177         178         179         180
    1   0.0026663  -0.0053087  -0.0019549  -0.0084155  -0.0281079   0.0101547
    2  -0.0238565   0.0251131  -0.0473630   0.0012301   0.0023043   0.0358031
    3  -0.0243015  -0.0189980   0.0253602  -0.0074044   0.0085653  -0.0112568
          181         182         183         184         185         186
    1  -0.0192032  -0.0097079   0.0039264   0.0290549  -0.0124108   0.0021302
    2  -0.0372603   0.0972085  -0.0063174   0.0079644  -0.0151572  -0.0199663
    3  -0.0033675   0.0521940   0.0046270   0.0118405   0.0219965  -0.0241037
          187         188         189         190         191         192
    1   0.0305807  -0.0029780  -0.0039179   0.0187663  -0.0247873  -0.0887041
    2   0.0387144  -0.0024110  -0.0226272   0.0160701   0.0199085  -0.0479865
    3  -0.0282884   0.0080141   0.0216761   0.0186288  -0.0004938  -0.0465101
          193         194         195         196         197         198
    1   0.0011836   0.0118380   0.0293087  -0.0176169   0.0458428  -0.0094976
    2   0.0086672   0.0165721  -0.0006171   0.0179628  -0.0318182   0.0013059
    3  -0.0116208   0.0190778  -0.0302940  -0.0224948   0.0266651  -0.0111090
          199         200         201         202         203         204
    1  -0.0155421   0.0218162  -0.0143195  -0.0868029  -0.0008105  -0.0241823
    2   0.0210071  -0.0115955  -0.0276426   0.0466627  -0.0076758   0.0047824
    3  -0.0284658  -0.0210894   0.0113789   0.0508931  -0.0042421  -0.0252669
          205         206         207         208         209         210
    1   0.0265082   0.0050030  -0.0484429   0.0048402  -0.0224248  -0.0022774
    2  -0.0078852  -0.0252069   0.0104418   0.0099684  -0.0036525   0.0308555
    3  -0.0133009   0.0227514   0.0290079  -0.0089714  -0.0209646   0.0007609
          211         212         213         214         215         216
    1   0.0245805   0.1001573  -0.0045132  -0.0017558  -0.0290067   0.0077379
    2  -0.0051781  -0.0064839   0.0046321   0.0274540  -0.0071875   0.0169915
    3  -0.0176888   0.0443649   0.0009536  -0.0226021   0.0032097   0.0195878
          217         218         219         220         221         222
    1  -0.0134250   0.0005325   0.0122469  -0.0321986   0.0150091   0.0939308
    2  -0.0348088  -0.0007183   0.0259416  -0.0063316  -0.0281859   0.0581476
    3  -0.0388259   0.0111131   0.0166629   0.0045554   0.0031733   0.0046226
          223         224         225         226         227         228
    1  -0.0091517   0.0132132  -0.0318469  -0.0006601   0.0102579  -0.0054014
    2  -0.0072262  -0.0302771   0.0025429   0.0106708  -0.0039122   0.0034651
    3  -0.0028871   0.0040110   0.0080937  -0.0283950   0.0442631  -0.0036486
          229         230         231         232         233         234
    1  -0.0049828  -0.0336627   0.0146157   0.0657532  -0.0033646   0.0202076
    2  -0.0024191   0.0071166   0.0281415  -0.0079058   0.0088945   0.0092738
    3  -0.0288674   0.0075809   0.0042683  -0.0891469  -0.0011408   0.0201756
          235         236         237         238         239         240
    1  -0.0024573  -0.0266164   0.0485947  -0.0079782  -0.0331684  -0.0048160
    2   0.0291959   0.0093740  -0.0123951   0.0056235   0.0146207   0.0201931
    3  -0.0217114   0.0067374  -0.0237282  -0.0043673   0.0001035  -0.0304966
          241         242         243         244         245         246
    1  -0.0056886  -0.0443815   0.0004386   0.0327490   0.0009673  -0.0137160
    2  -0.0298879  -0.0510265  -0.0076556   0.0008274   0.0186653  -0.0321515
    3  -0.0020672   0.0846869   0.0106910   0.0051110   0.0338149  -0.0157692
          247         248         249         250         251         252
    1   0.0245152  -0.0114367  -0.0112636  -0.0127645  -0.0071813   0.0316402
    2   0.0474249  -0.0064783   0.0082367   0.0099949  -0.0290638  -0.0712859
    3   0.0117103   0.0005254   0.0321429  -0.0281091  -0.0141896  -0.0798250
          253         254         255         256         257         258
    1   0.0028302   0.0270293  -0.0066413  -0.0062247   0.0151963  -0.0096364
    2   0.0033491  -0.0196061   0.0336140  -0.0053053   0.0446343  -0.0002387
    3   0.0103621  -0.0048670   0.0068590   0.0297554  -0.0457836   0.0048134
          259         260         261         262         263         264
    1  -0.0164867  -0.0067354   0.0057877   0.0170571  -0.0018538   0.0108714
    2  -0.0114195  -0.0249233   0.0304488  -0.1055571   0.0025284  -0.0185681
    3  -0.0291950   0.0187075   0.0178869  -0.0238126  -0.0061372  -0.0302567
          265         266         267         268         269         270
    1  -0.0246838   0.0158181   0.0408810  -0.0121755  -0.0193171   0.0042394
    2   0.0140902   0.0253027  -0.0287747  -0.0060554   0.0230130  -0.0219540
    3  -0.0069026   0.0054188   0.0108576  -0.0009670  -0.0067668  -0.0267998
          271         272         273         274         275         276
    1  -0.0099118  -0.0346977  -0.0115601  -0.0017768  -0.0247918   0.0012803
    2  -0.0119686   0.0865252   0.0055196   0.0099150  -0.0278309   0.0353484
    3   0.0310261   0.0604876   0.0045877  -0.0284859   0.0016628   0.0100617
          277         278         279         280         281         282
    1   0.0056859  -0.0014676   0.0353582  -0.0296638  -0.0053242   0.0655318
    2  -0.0492451  -0.0005730  -0.0005883   0.0232338  -0.0300661   0.0848126
    3  -0.0220543   0.0103183  -0.0003517   0.0027653   0.0179449  -0.0212444
          283         284         285         286         287         288
    1   0.0020182   0.0186390  -0.0276974   0.0030633   0.0495581  -0.0029632
    2   0.0012642  -0.0270183  -0.0032281   0.0252729   0.0012654  -0.0026993
    3  -0.0089752  -0.0167725  -0.0182968  -0.0193369   0.0209294   0.0011944
          289         290         291         292
    1  -0.0206661  -0.0198300   0.0147406  -0.0749999
    2   0.0043376  -0.0079349  -0.0279236   0.0773512
    3   0.0250308  -0.0233442   0.0200148   0.0131513
  --- DONE ESP SUMMARY ---
 Total job time:  34.77s(wall), 82.70s(cpu) 
 Thu Jul 21 09:49:09 2022

        *************************************************************
        *                                                           *
        *  Thank you very much for using Q-Chem.  Have a nice day.  *
        *                                                           *
        *************************************************************


