                  Welcome to Q-Chem
     A Quantum Leap Into The Future Of Chemistry


 Q-Chem 5.2 (devel), Q-Chem, Inc., Pleasanton, CA (2019)

 Yihan Shao,  Zhengting Gan,  E. Epifanovsky,  A. T. B. Gilbert,  M. Wormit,  
 J. Kussmann,  A. W. Lange,  A. Behn,  Jia Deng,  Xintian Feng,  D. Ghosh,  
 M. Goldey,  P. R. Horn,  L. D. Jacobson,  I. Kaliman,  T. Kus,  A. Landau,  
 Jie Liu,  E. I. Proynov,  R. M. Richard,  R. P. Steele,  E. J. Sundstrom,  
 H. L. Woodcock III,  P. M. Zimmerman,  D. Zuev,  B. Alam,  B. Albrecht,  
 E. Alguire,  S. A. Baeppler,  D. Barton,  Z. Benda,  Y. A. Bernard,  
 E. J. Berquist,  K. B. Bravaya,  H. Burton,  K. Carter-Fenk,  D. Casanova,  
 Chun-Min Chang,  Yunqing Chen,  A. Chien,  K. D. Closser,  M. P. Coons,  
 S. Coriani,  S. Dasgupta,  A. L. Dempwolff,  M. Diedenhofen,  Hainam Do,  
 R. G. Edgar,  Po-Tung Fang,  S. Faraji,  S. Fatehi,  Qingguo Feng,  
 J. Fosso-Tande,  J. Gayvert,  Qinghui Ge,  A. Ghysels,  G. Gidofalvi,  
 J. Gomes,  J. Gonthier,  A. Gunina,  D. Hait,  M. W. D. Hanson-Heine,  
 P. H. P. Harbach,  A. W. Hauser,  M. F. Herbst,  J. E. Herr,  
 E. G. Hohenstein,  Z. C. Holden,  Kerwin Hui,  B. C. Huynh,  T.-C. Jagau,  
 Hyunjun Ji,  B. Kaduk,  K. Khistyaev,  Jaehoon Kim,  P. Klunzinger,  K. Koh,  
 D. Kosenkov,  L. Koulias,  T. Kowalczyk,  C. M. Krauter,  A. Kunitsa,  
 Ka Un Lao,  A. Laurent,  K. V. Lawler,  Joonho Lee,  D. Lefrancois,  
 S. Lehtola,  D. S. Levine,  Yi-Pei Li,  You-Sheng Lin,  Fenglai Liu,  
 Kuan-Yu Liu,  E. Livshits,  M. Loipersberger,  A. Luenser,  P. Manohar,  
 E. Mansoor,  S. F. Manzer,  Shan-Ping Mao,  Yuezhi Mao,  N. Mardirossian,  
 A. V. Marenich,  T. Markovich,  L. A. Martinez-Martinez,  S. A. Maurer,  
 N. J. Mayhall,  S. C. McKenzie,  J.-M. Mewes,  P. Morgante,  A. F. Morrison,  
 J. W. Mullinax,  K. Nanda,  T. S. Nguyen-Beck,  R. Olivares-Amaya,  
 J. A. Parkhill,  S. K. Paul,  F. Pavosevic,  Zheng Pei,  T. M. Perrine,  
 F. Plasser,  P. Pokhilko,  S. Prager,  A. Prociuk,  E. Ramos,  B. Rana,  
 D. R. Rehn,  F. Rob,  M. Scheurer,  M. Schneider,  N. Sergueev,  
 S. M. Sharada,  S. Sharma,  D. W. Small,  T. Stauch,  C. J. Stein,  
 T. Stein,  Yu-Chuan Su,  S. P. Veccham,  Zhen Tao,  A. J. W. Thom,  
 A. Tkatchenko,  T. Tsuchimochi,  N. M. Tubman,  L. Vogt,  M. L. Vidal,  
 O. Vydrov,  M. A. Watson,  J. Wenzel,  M. de Wergifosse,  T. A. Wesolowski,  
 A. White,  J. Witte,  A. Yamada,  Jun Yang,  K. Yao,  S. Yeganeh,  
 S. R. Yost,  Zhi-Qiang You,  A. Zech,  Igor Ying Zhang,  Xing Zhang,  
 Yan Zhao,  Ying Zhu,  B. R. Brooks,  G. K. L. Chan,  C. J. Cramer,  
 M. S. Gordon,  W. J. Hehre,  A. Klamt,  M. W. Schmidt,  C. D. Sherrill,  
 D. G. Truhlar,  A. Aspuru-Guzik,  R. Baer,  A. T. Bell,  N. A. Besley,  
 Jeng-Da Chai,  A. E. DePrince, III,  R. A. DiStasio Jr.,  A. Dreuw,  
 B. D. Dunietz,  T. R. Furlani,  Chao-Ping Hsu,  Yousung Jung,  Jing Kong,  
 D. S. Lambrecht,  WanZhen Liang,  C. Ochsenfeld,  V. A. Rassolov,  
 L. V. Slipchenko,  J. E. Subotnik,  T. Van Voorhis,  J. M. Herbert,  
 A. I. Krylov,  P. M. W. Gill,  M. Head-Gordon

 Contributors to earlier versions of Q-Chem not listed above: 
 R. D. Adamson,  B. Austin,  J. Baker,  G. J. O. Beran,  K. Brandhorst,  
 S. T. Brown,  E. F. C. Byrd,  A. K. Chakraborty,  C.-L. Cheng,  
 Siu Hung Chien,  D. M. Chipman,  D. L. Crittenden,  H. Dachsel,  
 R. J. Doerksen,  A. D. Dutoi,  L. Fusti-Molnar,  W. A. Goddard III,  
 A. Golubeva-Zadorozhnaya,  S. R. Gwaltney,  G. Hawkins,  A. Heyden,  
 S. Hirata,  G. Kedziora,  F. J. Keil,  C. Kelley,  Jihan Kim,  R. A. King,  
 R. Z. Khaliullin,  P. P. Korambath,  W. Kurlancheek,  A. M. Lee,  M. S. Lee,  
 S. V. Levchenko,  Ching Yeh Lin,  D. Liotard,  R. C. Lochan,  I. Lotan,  
 P. E. Maslen,  N. Nair,  D. P. O'Neill,  D. Neuhauser,  E. Neuscamman,  
 C. M. Oana,  R. Olson,  B. Peters,  R. Peverati,  P. A. Pieniazek,  
 Y. M. Rhee,  J. Ritchie,  M. A. Rohrdanz,  E. Rosta,  N. J. Russ,  
 H. F. Schaefer III,  N. E. Schultz,  N. Shenvi,  A. C. Simmonett,  A. Sodt,  
 D. Stuck,  K. S. Thanthiriwatte,  V. Vanovschi,  Tao Wang,  A. Warshel,  
 C. F. Williams,  Q. Wu,  X. Xu,  W. Zhang

 Please cite Q-Chem as follows:
 Y. Shao et al., Mol. Phys. 113, 184-215 (2015)
 DOI: 10.1080/00268976.2014.952696

 Q-Chem 5.2.2 for Intel X86 EM64T Linux

 Parts of Q-Chem use Armadillo 9.800.1 (Horizon Scraper).
 http://arma.sourceforge.net/

 Q-Chem begins on Fri Dec  3 08:54:47 2021  

Host: node010
0

     Scratch files written to /home/ymao90/scratch/r7.00_frame_0026_spade_B3LYP_dp20211203023735//

Checking the input file for inconsistencies... 	...done.

--------------------------------------------------------------
User input:
--------------------------------------------------------------
$molecule
0 1
--
0 1
C    25.23900   15.85400   28.03200  
C    26.46700   16.44500   27.32000  
C    26.39300   17.97700   27.42500  
C    26.30500   18.49800   28.86800  
C    25.10700   17.86000   29.59000  
C    25.14600   16.32600   29.49200  
H    27.30000   18.44800   27.02800  
H    27.33500   16.02200   27.84100  
H    24.33400   15.99300   27.42800  
H    25.30500   14.76000   28.01000  
H    27.26500   18.28700   29.35600  
H    26.07900   19.57000   28.80200  
H    25.15600   18.25300   30.61300  
H    24.19100   18.17500   29.07500  
H    26.10400   16.03300   29.93800  
H    24.28700   15.84300   29.97500  
H    25.56500   18.44600   26.87800  
N    26.54600   15.98200   25.93600  
H    26.53200   16.57500   25.11400  
C    26.77300   14.69700   25.49000  
H    26.74700   14.64000   24.38700  
O    26.86500   13.71300   26.20300  
--
0 1
C    22.31700   20.30400   27.48100  
H    22.49700   20.95000   28.34400  
H    23.26700   20.19400   26.95200  
H    21.68900   20.84900   26.77300  
S    21.36900   18.84600   27.97200  
C    20.41300   18.69900   26.44600  
H    19.94000   19.66500   26.25000  
H    21.07400   18.42400   25.62000  
H    19.60800   17.97600   26.60200  
O    20.32800   19.43700   28.87100  
C    20.49000   19.57000   22.22700  
H    21.35800   19.08200   21.77500  
H    19.93500   18.86700   22.85300  
H    19.77500   19.97900   21.50900  
S    20.96400   20.81700   23.44600  
C    21.92800   21.77900   22.25800  
H    22.01600   22.79900   22.64000  
H    22.92200   21.36700   22.06400  
H    21.31700   21.68600   21.35700  
O    22.01600   20.04200   24.17700  
C    30.22100   20.88700   29.85600  
H    30.20000   21.66500   30.62300  
H    30.72200   21.27800   28.96600  
H    29.25700   20.44000   29.60300  
S    31.45800   19.64800   30.30400  
C    30.57000   19.14900   31.79600  
H    30.34600   19.94400   32.51200  
H    29.74900   18.49500   31.49200  
H    31.32700   18.49600   32.23700  
O    32.58200   20.51300   30.78200  
C    29.18000   9.70800    27.06600  
H    29.80700   9.75500    27.95900  
H    28.20300   9.27400    27.29500  
H    29.62000   8.98800    26.37100  
S    29.09000   11.37900   26.38200  
C    28.58100   11.12000   24.66800  
H    27.61000   10.61800   24.69900  
H    28.64500   12.10400   24.19700  
H    29.26800   10.44400   24.15300  
O    30.52800   11.76800   26.23700  
C    27.85800   22.92200   27.71100  
H    28.18800   22.56700   26.73100  
H    28.05800   22.14100   28.44900  
H    26.77600   23.06600   27.66300  
S    28.62600   24.49500   28.15900  
C    30.17500   24.26300   27.25700  
H    30.80600   25.14100   27.41300  
H    30.67700   23.41800   27.73600  
H    30.00000   24.03700   26.20200  
O    29.06700   24.21600   29.56200  
C    24.78200   19.50300   35.69500  
H    25.28600   20.46900   35.77500  
H    25.29900   18.96000   34.90000  
H    23.73400   19.75900   35.51600  
S    24.90000   18.67700   37.29800  
C    23.57000   17.47900   37.05000  
H    23.76000   16.89000   36.14900  
H    23.68400   16.76400   37.86900  
H    22.56400   17.89700   36.97100  
O    24.14100   19.64300   38.15400  
C    23.52200   14.26500   34.42000  
H    24.47700   14.72000   34.14200  
H    22.70000   14.98500   34.41400  
H    23.51800   13.84100   35.42700  
S    23.12300   13.04200   33.15000  
C    22.82600   14.28400   31.87100  
H    23.74000   14.83500   31.63500  
H    22.46200   13.72300   31.00700  
H    22.03600   14.89700   32.31300  
O    21.78400   12.44100   33.44200  
C    26.66200   5.70600    24.52800  
H    27.19600   5.41300    23.62100  
H    27.06800   5.26700    25.44400  
H    25.59600   5.46500    24.55500  
S    27.09300   7.44100    24.79400  
C    26.73500   8.06400    23.13600  
H    25.65400   7.91500    23.07000  
H    26.99200   9.12400    23.07000  
H    27.19100   7.53300    22.29700  
O    28.58100   7.58800    24.87900  
C    31.75600   13.37700   22.88500  
H    31.18400   12.49100   22.59500  
H    32.01000   13.99500   22.02000  
H    32.61400   12.94400   23.40600  
S    30.74000   14.22600   24.11400  
C    29.54500   14.96300   22.97600  
H    28.72900   15.39800   23.55900  
H    29.97300   15.75600   22.35800  
H    29.17900   14.20000   22.28500  
O    31.61300   15.35300   24.57200  
C    27.69300   22.39700   31.73500  
H    27.39100   22.51800   30.69200  
H    27.48900   23.22800   32.41500  
H    28.76900   22.29300   31.89500  
S    26.83000   20.93400   32.35300  
C    25.15500   21.61100   32.31000  
H    24.59000   20.70000   32.52100  
H    24.98000   22.38900   33.05700  
H    24.92000   21.83700   31.26600  
O    27.09900   20.59400   33.78600  
C    21.65600   20.15100   32.19300  
H    22.01100   20.91700   32.88700  
H    22.21300   20.20800   31.25400  
H    20.60300   20.32900   31.96100  
S    21.72300   18.45300   32.80800  
C    21.03000   18.97100   34.39400  
H    21.64800   19.67800   34.95400  
H    20.06600   19.45000   34.20600  
H    20.87400   18.07700   35.00300  
O    23.16700   18.31900   33.18200  
C    31.92700   15.87500   29.27400  
H    32.15900   16.10200   30.31700  
H    32.03300   14.80400   29.08300  
H    32.45900   16.46800   28.52500  
S    30.13600   16.00500   29.07400  
C    30.12400   15.39900   27.37200  
H    31.04200   15.66700   26.84400  
H    29.98400   14.31500   27.41200  
H    29.33300   15.89300   26.80100  
O    29.78000   17.44500   28.86500  
C    22.49800   14.04900   19.32800  
H    22.43600   12.98800   19.07100  
H    22.51700   14.07000   20.42000  
H    21.68200   14.62600   18.88500  
S    24.03200   14.71000   18.63700  
C    24.05800   14.04600   16.95600  
H    24.42600   14.68200   16.14800  
H    24.52500   13.06000   17.02800  
H    23.02600   13.86400   16.64300  
O    25.23400   14.09200   19.28100  
C    28.37900   12.53800   34.45900  
H    28.66600   11.48500   34.40700  
H    27.60900   12.82600   33.74000  
H    29.24800   13.17900   34.28800  
S    27.77500   12.97200   36.10600  
C    26.03700   12.57000   35.81400  
H    25.46400   12.92600   36.67300  
H    25.74100   13.02500   34.86500  
H    25.98500   11.47900   35.77100  
O    27.64500   14.46000   36.00900  
C    25.04300   26.55300   28.85800  
H    24.66800   27.49000   28.43900  
H    25.68700   26.78500   29.71000  
H    25.60700   25.98200   28.11600  
S    23.68600   25.48900   29.39800  
C    24.68900   23.98600   29.40800  
H    24.92800   23.82900   28.35400  
H    25.51400   24.11600   30.11300  
H    24.02900   23.17400   29.72600  
O    22.93600   25.22600   28.12900  
C    18.39400   13.69000   32.92200  
H    17.54400   14.01800   32.31800  
H    18.75300   12.80800   32.38400  
H    18.22500   13.49200   33.98300  
S    19.50300   15.11300   32.82400  
C    18.39700   16.35700   33.52800  
H    18.12000   16.13600   34.56200  
H    18.80200   17.36100   33.37600  
H    17.44800   16.22800   33.00100  
O    19.43600   15.41100   31.35800  
C    26.33000   17.20600   21.37200  
H    27.22400   16.82300   20.87300  
H    25.81000   16.41100   21.91100  
H    25.63300   17.70800   20.69600  
S    26.99900   18.48800   22.45600  
C    28.52000   18.87100   21.55900  
H    28.31800   19.27700   20.56400  
H    29.13900   19.56000   22.13900  
H    29.01900   17.90400   21.45700  
O    27.59700   17.56900   23.47400  
C    23.84100   23.07600   25.08200  
H    23.81400   23.70000   24.18400  
H    23.06900   22.32200   25.25300  
H    23.81600   23.69600   25.98200  
S    25.47200   22.32400   25.28000  
C    25.48400   21.46200   23.69200  
H    26.42600   20.91200   23.63100  
H    24.62000   20.79500   23.63600  
H    25.53800   22.15800   22.85100  
O    25.53900   21.35700   26.42000  
C    21.49500   15.46100   28.48200  
H    22.52300   15.82900   28.54000  
H    20.87000   16.11200   27.86600  
H    21.02300   15.15000   29.41800  
S    21.64400   13.84400   27.68900  
C    19.90200   13.43600   27.94600  
H    19.34900   13.95800   27.16100  
H    19.80000   12.35200   27.85100  
H    19.54700   13.61500   28.96400  
O    22.31200   12.91300   28.65200  
C    26.30600   17.01000   33.11400  
H    25.80600   16.92600   32.14600  
H    25.61400   17.07100   33.95800  
H    26.87800   17.94100   33.13500  
S    27.33100   15.53700   33.33100  
C    28.43800   15.91400   31.95300  
H    29.14600   16.71400   32.18700  
H    29.13100   15.08400   31.79500  
H    27.93000   16.12900   31.00900  
O    26.34300   14.61400   32.68900  
C    29.89700   19.97800   26.90900  
H    29.10700   19.30900   27.26000  
H    30.87600   19.63700   27.25400  
H    29.77100   21.01800   27.21900  
S    29.73900   19.99500   25.10900  
C    30.90500   18.63600   24.86800  
H    31.06400   18.51700   23.79300  
H    31.85000   18.82600   25.38300  
H    30.39200   17.77900   25.31200  
O    30.37600   21.25400   24.60900  
C    27.37500   12.24200   29.48700  
H    26.93700   12.97000   30.17400  
H    28.25300   12.76500   29.09900  
H    26.59100   12.01400   28.76000  
S    27.96500   10.81900   30.43200  
C    26.43800   10.83200   31.39800  
H    26.48100   9.97900    32.08100  
H    26.43900   11.76900   31.96000  
H    25.55800   10.87300   30.75000  
O    29.04200   11.38000   31.30700  
C    24.19300   10.31600   27.53700  
H    23.18000   9.95800    27.33500  
H    24.65600   9.42400    27.96700  
H    24.09500   11.20900   28.16000  
S    24.92800   10.86100   25.97900  
C    23.96300   12.38000   25.81300  
H    24.10200   12.76500   24.80000  
H    22.90600   12.15100   25.97200  
H    24.48700   13.05900   26.49000  
O    24.31100   10.00300   24.91800  
C    26.08800   11.12700   19.53300  
H    26.45100   12.04900   19.07000  
H    26.24200   10.19900   18.97700  
H    25.00400   11.21200   19.64900  
S    27.00700   10.98800   21.08300  
C    26.19500   12.44300   21.78400  
H    25.10700   12.33700   21.78000  
H    26.56500   12.59100   22.80100  
H    26.18900   13.31500   21.12500  
O    28.34800   11.65300   21.06300  
C    23.80100   17.03500   24.48000  
H    22.99600   17.64800   24.89400  
H    24.16300   16.38900   25.28300  
H    24.57100   17.73800   24.15100  
S    23.40500   15.87500   23.15200  
C    21.96500   15.29100   24.07500  
H    21.12600   15.97200   23.91200  
H    21.62000   14.32800   23.69200  
H    22.16700   15.13100   25.13700  
O    24.42000   14.84100   23.52700  
$end

$rem
JOBTYPE  SP
METHOD  B3LYP
BASIS  6-31+G(D)
SYMMETRY  FALSE
SYM_IGNORE  TRUE
MEM_TOTAL  16000
MEM_STATIC  8000
MAX_SUB_FILE_NUM  16000
BASIS_LIN_DEP_THRESH  6
THRESH  14
SCF_CONVERGENCE  8
GEN_SCFMAN  TRUE
SCF_GUESS  SAD
FD_MAT_VEC_PROD  FALSE
XC_GRID  000075000302
NL_GRID  1
MAX_SCF_CYCLES  200
ENV_METHOD  B3LYP
GEN_SCFMAN_EMBED  TRUE
SPADE_PARTITION  TRUE
$end

$development
embedding_early_stop  1
$end

--------------------------------------------------------------
 ----------------------------------------------------------------
             Standard Nuclear Orientation (Angstroms)
    I     Atom           X                Y                Z
 ----------------------------------------------------------------
    1      C      25.2390000000    15.8540000000    28.0320000000
    2      C      26.4670000000    16.4450000000    27.3200000000
    3      C      26.3930000000    17.9770000000    27.4250000000
    4      C      26.3050000000    18.4980000000    28.8680000000
    5      C      25.1070000000    17.8600000000    29.5900000000
    6      C      25.1460000000    16.3260000000    29.4920000000
    7      H      27.3000000000    18.4480000000    27.0280000000
    8      H      27.3350000000    16.0220000000    27.8410000000
    9      H      24.3340000000    15.9930000000    27.4280000000
   10      H      25.3050000000    14.7600000000    28.0100000000
   11      H      27.2650000000    18.2870000000    29.3560000000
   12      H      26.0790000000    19.5700000000    28.8020000000
   13      H      25.1560000000    18.2530000000    30.6130000000
   14      H      24.1910000000    18.1750000000    29.0750000000
   15      H      26.1040000000    16.0330000000    29.9380000000
   16      H      24.2870000000    15.8430000000    29.9750000000
   17      H      25.5650000000    18.4460000000    26.8780000000
   18      N      26.5460000000    15.9820000000    25.9360000000
   19      H      26.5320000000    16.5750000000    25.1140000000
   20      C      26.7730000000    14.6970000000    25.4900000000
   21      H      26.7470000000    14.6400000000    24.3870000000
   22      O      26.8650000000    13.7130000000    26.2030000000
   23      C      22.3170000000    20.3040000000    27.4810000000
   24      H      22.4970000000    20.9500000000    28.3440000000
   25      H      23.2670000000    20.1940000000    26.9520000000
   26      H      21.6890000000    20.8490000000    26.7730000000
   27      S      21.3690000000    18.8460000000    27.9720000000
   28      C      20.4130000000    18.6990000000    26.4460000000
   29      H      19.9400000000    19.6650000000    26.2500000000
   30      H      21.0740000000    18.4240000000    25.6200000000
   31      H      19.6080000000    17.9760000000    26.6020000000
   32      O      20.3280000000    19.4370000000    28.8710000000
   33      C      20.4900000000    19.5700000000    22.2270000000
   34      H      21.3580000000    19.0820000000    21.7750000000
   35      H      19.9350000000    18.8670000000    22.8530000000
   36      H      19.7750000000    19.9790000000    21.5090000000
   37      S      20.9640000000    20.8170000000    23.4460000000
   38      C      21.9280000000    21.7790000000    22.2580000000
   39      H      22.0160000000    22.7990000000    22.6400000000
   40      H      22.9220000000    21.3670000000    22.0640000000
   41      H      21.3170000000    21.6860000000    21.3570000000
   42      O      22.0160000000    20.0420000000    24.1770000000
   43      C      30.2210000000    20.8870000000    29.8560000000
   44      H      30.2000000000    21.6650000000    30.6230000000
   45      H      30.7220000000    21.2780000000    28.9660000000
   46      H      29.2570000000    20.4400000000    29.6030000000
   47      S      31.4580000000    19.6480000000    30.3040000000
   48      C      30.5700000000    19.1490000000    31.7960000000
   49      H      30.3460000000    19.9440000000    32.5120000000
   50      H      29.7490000000    18.4950000000    31.4920000000
   51      H      31.3270000000    18.4960000000    32.2370000000
   52      O      32.5820000000    20.5130000000    30.7820000000
   53      C      29.1800000000     9.7080000000    27.0660000000
   54      H      29.8070000000     9.7550000000    27.9590000000
   55      H      28.2030000000     9.2740000000    27.2950000000
   56      H      29.6200000000     8.9880000000    26.3710000000
   57      S      29.0900000000    11.3790000000    26.3820000000
   58      C      28.5810000000    11.1200000000    24.6680000000
   59      H      27.6100000000    10.6180000000    24.6990000000
   60      H      28.6450000000    12.1040000000    24.1970000000
   61      H      29.2680000000    10.4440000000    24.1530000000
   62      O      30.5280000000    11.7680000000    26.2370000000
   63      C      27.8580000000    22.9220000000    27.7110000000
   64      H      28.1880000000    22.5670000000    26.7310000000
   65      H      28.0580000000    22.1410000000    28.4490000000
   66      H      26.7760000000    23.0660000000    27.6630000000
   67      S      28.6260000000    24.4950000000    28.1590000000
   68      C      30.1750000000    24.2630000000    27.2570000000
   69      H      30.8060000000    25.1410000000    27.4130000000
   70      H      30.6770000000    23.4180000000    27.7360000000
   71      H      30.0000000000    24.0370000000    26.2020000000
   72      O      29.0670000000    24.2160000000    29.5620000000
   73      C      24.7820000000    19.5030000000    35.6950000000
   74      H      25.2860000000    20.4690000000    35.7750000000
   75      H      25.2990000000    18.9600000000    34.9000000000
   76      H      23.7340000000    19.7590000000    35.5160000000
   77      S      24.9000000000    18.6770000000    37.2980000000
   78      C      23.5700000000    17.4790000000    37.0500000000
   79      H      23.7600000000    16.8900000000    36.1490000000
   80      H      23.6840000000    16.7640000000    37.8690000000
   81      H      22.5640000000    17.8970000000    36.9710000000
   82      O      24.1410000000    19.6430000000    38.1540000000
   83      C      23.5220000000    14.2650000000    34.4200000000
   84      H      24.4770000000    14.7200000000    34.1420000000
   85      H      22.7000000000    14.9850000000    34.4140000000
   86      H      23.5180000000    13.8410000000    35.4270000000
   87      S      23.1230000000    13.0420000000    33.1500000000
   88      C      22.8260000000    14.2840000000    31.8710000000
   89      H      23.7400000000    14.8350000000    31.6350000000
   90      H      22.4620000000    13.7230000000    31.0070000000
   91      H      22.0360000000    14.8970000000    32.3130000000
   92      O      21.7840000000    12.4410000000    33.4420000000
   93      C      26.6620000000     5.7060000000    24.5280000000
   94      H      27.1960000000     5.4130000000    23.6210000000
   95      H      27.0680000000     5.2670000000    25.4440000000
   96      H      25.5960000000     5.4650000000    24.5550000000
   97      S      27.0930000000     7.4410000000    24.7940000000
   98      C      26.7350000000     8.0640000000    23.1360000000
   99      H      25.6540000000     7.9150000000    23.0700000000
  100      H      26.9920000000     9.1240000000    23.0700000000
  101      H      27.1910000000     7.5330000000    22.2970000000
  102      O      28.5810000000     7.5880000000    24.8790000000
  103      C      31.7560000000    13.3770000000    22.8850000000
  104      H      31.1840000000    12.4910000000    22.5950000000
  105      H      32.0100000000    13.9950000000    22.0200000000
  106      H      32.6140000000    12.9440000000    23.4060000000
  107      S      30.7400000000    14.2260000000    24.1140000000
  108      C      29.5450000000    14.9630000000    22.9760000000
  109      H      28.7290000000    15.3980000000    23.5590000000
  110      H      29.9730000000    15.7560000000    22.3580000000
  111      H      29.1790000000    14.2000000000    22.2850000000
  112      O      31.6130000000    15.3530000000    24.5720000000
  113      C      27.6930000000    22.3970000000    31.7350000000
  114      H      27.3910000000    22.5180000000    30.6920000000
  115      H      27.4890000000    23.2280000000    32.4150000000
  116      H      28.7690000000    22.2930000000    31.8950000000
  117      S      26.8300000000    20.9340000000    32.3530000000
  118      C      25.1550000000    21.6110000000    32.3100000000
  119      H      24.5900000000    20.7000000000    32.5210000000
  120      H      24.9800000000    22.3890000000    33.0570000000
  121      H      24.9200000000    21.8370000000    31.2660000000
  122      O      27.0990000000    20.5940000000    33.7860000000
  123      C      21.6560000000    20.1510000000    32.1930000000
  124      H      22.0110000000    20.9170000000    32.8870000000
  125      H      22.2130000000    20.2080000000    31.2540000000
  126      H      20.6030000000    20.3290000000    31.9610000000
  127      S      21.7230000000    18.4530000000    32.8080000000
  128      C      21.0300000000    18.9710000000    34.3940000000
  129      H      21.6480000000    19.6780000000    34.9540000000
  130      H      20.0660000000    19.4500000000    34.2060000000
  131      H      20.8740000000    18.0770000000    35.0030000000
  132      O      23.1670000000    18.3190000000    33.1820000000
  133      C      31.9270000000    15.8750000000    29.2740000000
  134      H      32.1590000000    16.1020000000    30.3170000000
  135      H      32.0330000000    14.8040000000    29.0830000000
  136      H      32.4590000000    16.4680000000    28.5250000000
  137      S      30.1360000000    16.0050000000    29.0740000000
  138      C      30.1240000000    15.3990000000    27.3720000000
  139      H      31.0420000000    15.6670000000    26.8440000000
  140      H      29.9840000000    14.3150000000    27.4120000000
  141      H      29.3330000000    15.8930000000    26.8010000000
  142      O      29.7800000000    17.4450000000    28.8650000000
  143      C      22.4980000000    14.0490000000    19.3280000000
  144      H      22.4360000000    12.9880000000    19.0710000000
  145      H      22.5170000000    14.0700000000    20.4200000000
  146      H      21.6820000000    14.6260000000    18.8850000000
  147      S      24.0320000000    14.7100000000    18.6370000000
  148      C      24.0580000000    14.0460000000    16.9560000000
  149      H      24.4260000000    14.6820000000    16.1480000000
  150      H      24.5250000000    13.0600000000    17.0280000000
  151      H      23.0260000000    13.8640000000    16.6430000000
  152      O      25.2340000000    14.0920000000    19.2810000000
  153      C      28.3790000000    12.5380000000    34.4590000000
  154      H      28.6660000000    11.4850000000    34.4070000000
  155      H      27.6090000000    12.8260000000    33.7400000000
  156      H      29.2480000000    13.1790000000    34.2880000000
  157      S      27.7750000000    12.9720000000    36.1060000000
  158      C      26.0370000000    12.5700000000    35.8140000000
  159      H      25.4640000000    12.9260000000    36.6730000000
  160      H      25.7410000000    13.0250000000    34.8650000000
  161      H      25.9850000000    11.4790000000    35.7710000000
  162      O      27.6450000000    14.4600000000    36.0090000000
  163      C      25.0430000000    26.5530000000    28.8580000000
  164      H      24.6680000000    27.4900000000    28.4390000000
  165      H      25.6870000000    26.7850000000    29.7100000000
  166      H      25.6070000000    25.9820000000    28.1160000000
  167      S      23.6860000000    25.4890000000    29.3980000000
  168      C      24.6890000000    23.9860000000    29.4080000000
  169      H      24.9280000000    23.8290000000    28.3540000000
  170      H      25.5140000000    24.1160000000    30.1130000000
  171      H      24.0290000000    23.1740000000    29.7260000000
  172      O      22.9360000000    25.2260000000    28.1290000000
  173      C      18.3940000000    13.6900000000    32.9220000000
  174      H      17.5440000000    14.0180000000    32.3180000000
  175      H      18.7530000000    12.8080000000    32.3840000000
  176      H      18.2250000000    13.4920000000    33.9830000000
  177      S      19.5030000000    15.1130000000    32.8240000000
  178      C      18.3970000000    16.3570000000    33.5280000000
  179      H      18.1200000000    16.1360000000    34.5620000000
  180      H      18.8020000000    17.3610000000    33.3760000000
  181      H      17.4480000000    16.2280000000    33.0010000000
  182      O      19.4360000000    15.4110000000    31.3580000000
  183      C      26.3300000000    17.2060000000    21.3720000000
  184      H      27.2240000000    16.8230000000    20.8730000000
  185      H      25.8100000000    16.4110000000    21.9110000000
  186      H      25.6330000000    17.7080000000    20.6960000000
  187      S      26.9990000000    18.4880000000    22.4560000000
  188      C      28.5200000000    18.8710000000    21.5590000000
  189      H      28.3180000000    19.2770000000    20.5640000000
  190      H      29.1390000000    19.5600000000    22.1390000000
  191      H      29.0190000000    17.9040000000    21.4570000000
  192      O      27.5970000000    17.5690000000    23.4740000000
  193      C      23.8410000000    23.0760000000    25.0820000000
  194      H      23.8140000000    23.7000000000    24.1840000000
  195      H      23.0690000000    22.3220000000    25.2530000000
  196      H      23.8160000000    23.6960000000    25.9820000000
  197      S      25.4720000000    22.3240000000    25.2800000000
  198      C      25.4840000000    21.4620000000    23.6920000000
  199      H      26.4260000000    20.9120000000    23.6310000000
  200      H      24.6200000000    20.7950000000    23.6360000000
  201      H      25.5380000000    22.1580000000    22.8510000000
  202      O      25.5390000000    21.3570000000    26.4200000000
  203      C      21.4950000000    15.4610000000    28.4820000000
  204      H      22.5230000000    15.8290000000    28.5400000000
  205      H      20.8700000000    16.1120000000    27.8660000000
  206      H      21.0230000000    15.1500000000    29.4180000000
  207      S      21.6440000000    13.8440000000    27.6890000000
  208      C      19.9020000000    13.4360000000    27.9460000000
  209      H      19.3490000000    13.9580000000    27.1610000000
  210      H      19.8000000000    12.3520000000    27.8510000000
  211      H      19.5470000000    13.6150000000    28.9640000000
  212      O      22.3120000000    12.9130000000    28.6520000000
  213      C      26.3060000000    17.0100000000    33.1140000000
  214      H      25.8060000000    16.9260000000    32.1460000000
  215      H      25.6140000000    17.0710000000    33.9580000000
  216      H      26.8780000000    17.9410000000    33.1350000000
  217      S      27.3310000000    15.5370000000    33.3310000000
  218      C      28.4380000000    15.9140000000    31.9530000000
  219      H      29.1460000000    16.7140000000    32.1870000000
  220      H      29.1310000000    15.0840000000    31.7950000000
  221      H      27.9300000000    16.1290000000    31.0090000000
  222      O      26.3430000000    14.6140000000    32.6890000000
  223      C      29.8970000000    19.9780000000    26.9090000000
  224      H      29.1070000000    19.3090000000    27.2600000000
  225      H      30.8760000000    19.6370000000    27.2540000000
  226      H      29.7710000000    21.0180000000    27.2190000000
  227      S      29.7390000000    19.9950000000    25.1090000000
  228      C      30.9050000000    18.6360000000    24.8680000000
  229      H      31.0640000000    18.5170000000    23.7930000000
  230      H      31.8500000000    18.8260000000    25.3830000000
  231      H      30.3920000000    17.7790000000    25.3120000000
  232      O      30.3760000000    21.2540000000    24.6090000000
  233      C      27.3750000000    12.2420000000    29.4870000000
  234      H      26.9370000000    12.9700000000    30.1740000000
  235      H      28.2530000000    12.7650000000    29.0990000000
  236      H      26.5910000000    12.0140000000    28.7600000000
  237      S      27.9650000000    10.8190000000    30.4320000000
  238      C      26.4380000000    10.8320000000    31.3980000000
  239      H      26.4810000000     9.9790000000    32.0810000000
  240      H      26.4390000000    11.7690000000    31.9600000000
  241      H      25.5580000000    10.8730000000    30.7500000000
  242      O      29.0420000000    11.3800000000    31.3070000000
  243      C      24.1930000000    10.3160000000    27.5370000000
  244      H      23.1800000000     9.9580000000    27.3350000000
  245      H      24.6560000000     9.4240000000    27.9670000000
  246      H      24.0950000000    11.2090000000    28.1600000000
  247      S      24.9280000000    10.8610000000    25.9790000000
  248      C      23.9630000000    12.3800000000    25.8130000000
  249      H      24.1020000000    12.7650000000    24.8000000000
  250      H      22.9060000000    12.1510000000    25.9720000000
  251      H      24.4870000000    13.0590000000    26.4900000000
  252      O      24.3110000000    10.0030000000    24.9180000000
  253      C      26.0880000000    11.1270000000    19.5330000000
  254      H      26.4510000000    12.0490000000    19.0700000000
  255      H      26.2420000000    10.1990000000    18.9770000000
  256      H      25.0040000000    11.2120000000    19.6490000000
  257      S      27.0070000000    10.9880000000    21.0830000000
  258      C      26.1950000000    12.4430000000    21.7840000000
  259      H      25.1070000000    12.3370000000    21.7800000000
  260      H      26.5650000000    12.5910000000    22.8010000000
  261      H      26.1890000000    13.3150000000    21.1250000000
  262      O      28.3480000000    11.6530000000    21.0630000000
  263      C      23.8010000000    17.0350000000    24.4800000000
  264      H      22.9960000000    17.6480000000    24.8940000000
  265      H      24.1630000000    16.3890000000    25.2830000000
  266      H      24.5710000000    17.7380000000    24.1510000000
  267      S      23.4050000000    15.8750000000    23.1520000000
  268      C      21.9650000000    15.2910000000    24.0750000000
  269      H      21.1260000000    15.9720000000    23.9120000000
  270      H      21.6200000000    14.3280000000    23.6920000000
  271      H      22.1670000000    15.1310000000    25.1370000000
  272      O      24.4200000000    14.8410000000    23.5270000000
 ----------------------------------------------------------------
 Nuclear Repulsion Energy =       42841.60408609 hartrees
 There are      560 alpha and      560 beta electrons
 Requested basis set is 6-31+G(d)
 There are 896 shells and 2497 basis functions

 Total QAlloc Memory Limit  16000 MB
 Mega-Array Size      7821 MB
 MEM_STATIC part      8000 MB
 A cutoff of  1.0D-14 yielded 160021 shell pairs
 There are   1382628 function pairs
 Smallest overlap matrix eigenvalue = 5.65E-07
 Linear dependence detected in AO basis
 Tighter screening thresholds may be required for diffuse basis sets
 Use S2THRESH > 14 and THRESH = 14 in case of SCF convergence issues
 Number of orthogonalized atomic orbitals = 2494
 Maximum deviation from orthogonality = 1.490E-10

 Scale SEOQF with 1.000000e-03/1.000000e-03/1.000000e-03

 Standard Electronic Orientation quadrupole field applied
 Nucleus-field energy     =    -0.0000004590 hartrees
 Guess from superposition of atomic densities
 Warning:  Energy on first SCF cycle will be non-variational
 SAD guess density has 1120.000002 electrons

 -----------------------------------------------------------------------
  General SCF calculation program by
  Eric Jon Sundstrom, Paul Horn, Yuezhi Mao, Dmitri Zuev, Alec White,
  David Stuck, Shaama M.S., Shane Yost, Joonho Lee, David Small,
  Daniel Levine, Susi Lehtola, Hugh Burton, Evgeny Epifanovsky,
  Bang C. Huynh
 -----------------------------------------------------------------------
=================================================
        Doing projection-based embedding         
      F. Manby et al. JCTC, 8, 2564 (2012)       
=================================================

****************************************************
   Low-level SCF calculation for the whole system   
****************************************************
----------------------------------------------
 Summary of the low-level theory: 
 Exchange:     0.2000 Hartree-Fock + 0.0800 Slater + 0.7200 B88
 Correlation:  0.1900 VWN1RPA + 0.8100 LYP
 Using Euler-Maclaurin-Lebedev (75,302) quadrature formula
----------------------------------------------
 using 16 threads for integral computing
 -------------------------------------------------------
 OpenMP Integral computing Module                
 Release: version 2.0, May 2017, Q-Chem Inc. Pleasanton 
 -------------------------------------------------------
 A restricted SCF calculation will be
 performed using DIIS
 SCF converges when DIIS error is below 1.0e-08
 ---------------------------------------
  Cycle       Energy         DIIS error
 ---------------------------------------
    1  -14252.3104554337      1.40e-02  
    2  -14229.7681618399      2.60e-03  
    3  -14210.9790761583      5.36e-03  
    4  -14226.1606506797      2.25e-03  
    5  -14233.7708892996      8.65e-04  
    6  -14234.2741098643      2.31e-04  
    7  -14234.2915456529      1.59e-04  
    8  -14234.3078140512      3.96e-05  
    9  -14234.3086208449      2.02e-05  
   10  -14234.3088692116      4.82e-06  
   11  -14234.3088835405      1.66e-06  
   12  -14234.3088849910      8.26e-07  
   13  -14234.3088854038      2.41e-07  
   14  -14234.3088854402      8.01e-08  
   15  -14234.3088854435      4.43e-08  
   16  -14234.3088854448      1.52e-08  
   17  -14234.3088854450      5.20e-09  Convergence criterion met
 ---------------------------------------
 SCF time:   CPU 177384.17s  wall 11178.00s 
 SCF   energy in the final basis set =   -14234.3088854450
 Total energy in the final basis set =   -14234.3088854450

****************************************************
             Start embedding calculation            
****************************************************
----------------------------------------------
 Summary of the high-level theory: 
 Exchange:     0.2000 Hartree-Fock + 0.0800 Slater + 0.7200 B88
 Correlation:  0.1900 VWN1RPA + 0.8100 LYP
 Using Euler-Maclaurin-Lebedev (75,302) quadrature formula
----------------------------------------------
Doing R-in-R Embedding Calculation
Number of fragments: 2
Embedded fragment(s): 1 
NOcc for each fragment
           35
          525
NBasis for each fragment
          197
         2300
Variational space of the embedded problem: 
NOcc (active)  = 35
NOcc (fixed)   = 525
NVir (total)   = 1934
Read converged orbitals from disk
=========================================================
       Doing SPADE partition for the orbital space       
     D. CLaudino and N. Mayhall JCTC 15, 1053 (2019)     
=========================================================
SPADE singular values:
 1.0000 1.0000 1.0000 1.0000 1.0000 1.0000 1.0000 1.0000 1.0000 0.9999
 0.9997 0.9997 0.9997 0.9995 0.9994 0.9992 0.9990 0.9989 0.9981 0.9971
 0.9966 0.9961 0.9956 0.9948 0.9945 0.9942 0.9937 0.9935 0.9927 0.9919
 0.9909 0.9896 0.9891 0.9836 0.9774 0.2301 0.1901 0.1884 0.1682 0.1531
 0.1494 0.1352 0.1317 0.1219 0.1176 0.1032 0.0994 0.0885 0.0841 0.0716
 0.0676 0.0638 0.0550 0.0500 0.0474 0.0465 0.0434 0.0407 0.0377 0.0353
 0.0334 0.0329 0.0310 0.0293 0.0277 0.0268 0.0257 0.0241 0.0222 0.0196
 0.0190 0.0178 0.0172 0.0171 0.0155 0.0147 0.0143 0.0128 0.0119 0.0111
 0.0107 0.0101 0.0099 0.0091 0.0085 0.0084 0.0080 0.0075 0.0073 0.0068
 0.0065 0.0061 0.0058 0.0057 0.0056 0.0051 0.0049 0.0045 0.0044 0.0040
 0.0036 0.0035 0.0034 0.0032 0.0031 0.0031 0.0030 0.0029 0.0026 0.0025
 0.0024 0.0024 0.0023 0.0023 0.0021 0.0020 0.0019 0.0018 0.0018 0.0017
 0.0017 0.0016 0.0015 0.0014 0.0014 0.0014 0.0013 0.0013 0.0012 0.0012
 0.0011 0.0011 0.0010 0.0010 0.0009 0.0009 0.0008 0.0008 0.0008 0.0007
 0.0007 0.0007 0.0007 0.0006 0.0006 0.0006 0.0006 0.0005 0.0005 0.0005
 0.0005 0.0004 0.0004 0.0004 0.0004 0.0004 0.0004 0.0003 0.0003 0.0003
 0.0003 0.0003 0.0003 0.0003 0.0003 0.0003 0.0002 0.0002 0.0002 0.0002
 0.0002 0.0002 0.0002 0.0002 0.0002 0.0002 0.0002 0.0002 0.0001 0.0001
 0.0001 0.0001 0.0001 0.0001 0.0001 0.0001 0.0001 0.0001 0.0001 0.0001
 0.0001 0.0001 0.0001 0.0001 0.0001 0.0001 0.0001
Early stop requested!
525 environment occs will be part of frozen-core in future post-HF calculations
 
 --------------------------------------------------------------
 
                    Orbital Energies (a.u.)
 --------------------------------------------------------------
 
 Alpha MOs
 -- Occupied --
 -0.5317  -0.4919  -0.5013  -0.4798  -0.4302  -0.4637  -0.5089  -0.4419
 -0.4139  -0.4970  -0.4419  -0.4386  -0.4582  -0.4944  -0.4359  -0.4890
 -0.4416  -0.4909  -0.3963  -0.4851  -0.4686  -0.4721  -0.5612  -0.4955
 -0.5452  -0.6035  -0.5393  -0.5655  -0.5467  -0.5520  -0.6498  -0.6382
 -0.5175  -0.5232  -0.6537  -0.5011  -0.6257  -0.5446  -0.5745  -0.6027
 -0.5532  -0.5949  -0.5258  -0.4928  -0.5648  -0.5794  -0.5525  -0.6447
 -0.5424  -0.5294  -0.5670  -0.5631  -0.6432  -0.6113  -0.6240  -0.5884
 -0.7125  -0.6117  -0.6223  -0.6610  -0.6782  -0.6641  -0.7221  -1.0204
 -0.7477  -0.8586  -0.7935  -0.6767  -0.7979  -0.9169  -0.6090  -0.7451
 -0.8259  -0.7225  -0.8779  -0.8429  -0.8483  -0.9406  -0.8627  -0.9111
 -0.7787  -1.2342  -1.0637  -0.9253  -1.0990  -1.1432  -1.0354  -1.0553
 -1.0661  -0.9377  -1.4018  -0.8388  -1.3301  -0.9695  -0.9871  -1.1999
 -1.1405  -1.0534  -1.4995  -1.1808  -0.9572  -1.1201  -1.2959  -0.9423
 -1.1836  -1.4216  -0.9889  -1.9508  -1.7370  -1.4464  -1.4120  -1.1036
 -1.7854  -1.4488  -1.7002  -1.1377  -2.4512  -1.2465  -1.2773  -1.4439
 -1.7382  -1.4055  -1.2269  -1.2367  -1.6020  -1.0539  -1.0939  -1.7602
 -1.3761  -1.0448  -1.7571  -1.3677  -1.4882  -1.3445  -1.1713  -2.2754
 -1.8116  -1.7634  -1.4552  -1.2374  -2.0262  -2.1996  -1.4553  -1.9005
 -1.3832  -1.3131  -1.4416  -2.5277  -1.6049  -2.1434  -2.0655  -2.2938
 -1.7432  -1.5862  -2.0304  -1.7476  -2.3143  -2.1054  -1.5942  -1.9591
 -1.8881  -2.3224  -5.9473  -5.7962  -5.9539  -5.9637  -5.9710  -5.9749
 -5.9373  -5.9525  -5.8622  -5.8835  -5.8407  -5.7878  -2.5173  -1.7297
-10.2792 -11.2926 -13.1990  -1.5661 -41.3448 -18.8696  -6.7571  -6.2816
 -1.8860  -2.2480  -9.4515  -1.7335 -12.1561  -1.7757 -10.5363  -4.5385
 -4.9256  -3.3500  -6.7416  -2.6341  -3.8056  -3.5370  -1.3346  -4.3705
-64.3606  -1.8099  -1.1991  -7.1718 -71.3091 -16.1504  -7.0976  -1.5534
-13.8754  -3.9570  -8.8410  -1.5428  -7.1137  -3.2090  -0.9918  -2.2277
-10.4059  -8.8481  -7.8181  -8.8250 -13.6179  -1.0267  -6.6662  -4.6383
 -3.3517  -1.7539  -8.9482  -1.5575  -5.4194  -5.0650  -4.9574 -14.3231
-73.5262  -2.0222 -61.5938  -7.9221  -1.7511 -18.8611  -4.7952  -4.4130
 -3.6718  -1.0788  -7.1187  -9.5309  -4.9164  -4.7740  -9.3801 -10.3086
 -4.5227  -4.7578  -3.4476  -8.9034 -11.4722  -5.2698  -1.9195  -1.8311
-18.0739 -10.2795 -49.8446  -7.4968  -2.0475  -7.6177  -3.6435  -2.8274
-41.8693 -16.9972 -24.4015  -2.1146  -6.5321 -11.4809  -0.9197  -7.8050
 -8.7969  -7.0102  -7.3227  -5.8746  -4.3693  -1.3868  -3.9186  -6.7386
 -8.5776 -49.7876 -59.9586  -1.2542 -55.2118  -2.0700  -1.4877  -5.8980
 -6.3504  -4.1721  -5.9708  -5.5033  -3.6645  -1.0526  -7.4834 -10.1212
 -3.5521 -10.5342  -3.4320 -22.7102 -18.4292 -10.8816  -3.6333 -27.4567
 -7.8317  -9.8152 -11.0130  -8.0172 -10.3097  -2.3568  -3.8193  -4.4109
 -1.2093 -20.3168  -4.3804  -3.3681  -3.4187  -9.0590  -8.5233 -27.6583
-12.8606  -9.6184  -6.2875  -9.1868  -6.3525  -7.0560  -8.8320  -2.1970
 -5.8358  -4.9019  -4.7951 -19.4562  -9.5797 -15.1326  -5.0411  -7.9503
 -7.7927 -10.8858  -8.7029  -7.2425  -8.5318  -6.4999 -10.1839 -12.1169
-10.8478  -6.6961 -11.0602 -11.1494 -10.5355  -3.6126 -23.0800 -11.8708
 -2.0291  -9.3403  -3.7031  -4.7232  -8.9573  -7.4461  -5.9896 -16.3519
 -2.5361  -7.5759 -12.0087  -5.0029  -3.8073  -1.7328 -15.6804 -13.9599
 -3.2222  -8.0946 -15.2124  -6.2325  -8.0099  -1.2444  -5.2204  -6.1104
 -2.8897  -8.7582  -6.0334  -5.9128  -5.3816  -8.9804  -5.0098  -9.6715
 -3.2143  -3.3668  -5.9201 -16.3310  -6.4022  -7.5348 -10.8784  -7.4335
-11.0625 -15.0315  -8.6744  -7.1497  -5.0499  -9.1897  -5.5253  -9.0204
 -6.7962  -5.8037  -6.6896 -12.4289  -7.0869  -2.9877 -12.8061 -12.5633
-16.3671  -9.9540 -11.1022  -6.7921  -7.3304  -8.9610  -7.6236 -20.4742
-11.8294 -20.2455 -12.9425 -10.4233 -31.0216 -10.3598 -11.7670  -9.4534
 -6.4645  -3.3017  -7.5106  -5.5079  -7.3254  -7.2020  -4.9239  -5.2463
 -4.6225  -2.0138 -10.0527 -21.0358  -4.3732 -20.5162  -5.1475 -11.3640
-33.6594  -6.0292 -11.8135  -8.7125  -6.5765 -60.9105  -9.0654  -4.4552
 -9.7233  -7.6980  -6.3506  -7.3543  -8.5504  -2.0522 -14.8456 -26.3009
-49.0906 -29.0424  -7.6505  -2.6207 -43.9196  -3.9234  -8.1432  -5.6831
 -7.3855  -7.3379  -5.5958  -3.4525  -7.8555 -66.9622  -3.2636  -7.0471
 -1.7019 -15.2660 -69.5903 -28.9919 -58.2563  -4.8774 -13.2088  -2.9842
-24.0666  -9.3821 -17.7867  -8.9678  -2.4444  -9.6571  -4.7969  -2.5327
 -1.8374 -11.4543 -14.6639 -12.7244  -3.4785 -13.5974 -11.9198 -17.1319
 -4.2548 -15.7867 -17.4376 -40.1665 -11.1799 -28.9979 -22.1464 -51.1723
-13.8220  -8.8587  -4.2353  -8.0876  -4.7121  -6.6389  -2.8122  -5.2104
-17.4993 -17.5700 -12.6416  -4.9068 -10.6297 -11.6015 -13.1399 -10.0914
-13.1599  -7.5139  -6.8668  -9.0688 -10.4492 -10.4007 -10.3382 -13.1994
-14.8299 -10.9330 -12.0328 -10.4389 -11.7882 -10.2114  -0.6282  -0.6580
 -0.7763  -0.6314  -0.7850  -0.6664  -0.7176  -0.4232  -0.8036  -0.5130
 -0.4661  -0.4177  -0.4507  -0.4659  -0.4134  -0.4266  -0.4402  -0.4674
 -0.4240  -0.4120  -0.4293  -0.4612  -0.3983  -0.4843  -0.5179  -0.5343
 -- Virtual --
 -0.0587  -0.0509  -0.0464  -0.0438  -0.0382  -0.0341  -0.0286  -0.0278
 -0.0228  -0.0224  -0.0200  -0.0181  -0.0172  -0.0158  -0.0154  -0.0135
 -0.0124  -0.0114  -0.0100  -0.0082  -0.0081  -0.0078  -0.0056  -0.0037
 -0.0020   0.0004   0.0010   0.0026   0.0036   0.0041   0.0046   0.0051
  0.0063   0.0074   0.0083   0.0092   0.0106   0.0108   0.0125   0.0127
  0.0137   0.0139   0.0152   0.0161   0.0174   0.0180   0.0188   0.0190
  0.0199   0.0200   0.0215   0.0223   0.0236   0.0240   0.0248   0.0254
  0.0267   0.0274   0.0276   0.0282   0.0290   0.0296   0.0305   0.0311
  0.0319   0.0324   0.0334   0.0341   0.0344   0.0352   0.0356   0.0358
  0.0374   0.0376   0.0389   0.0391   0.0402   0.0413   0.0421   0.0431
  0.0432   0.0436   0.0438   0.0445   0.0453   0.0454   0.0465   0.0467
  0.0477   0.0484   0.0495   0.0500   0.0506   0.0509   0.0515   0.0520
  0.0531   0.0538   0.0549   0.0557   0.0560   0.0566   0.0576   0.0580
  0.0586   0.0590   0.0600   0.0603   0.0611   0.0626   0.0630   0.0633
  0.0643   0.0654   0.0667   0.0672   0.0677   0.0679   0.0682   0.0695
  0.0697   0.0706   0.0713   0.0719   0.0725   0.0728   0.0744   0.0750
  0.0756   0.0766   0.0769   0.0774   0.0778   0.0788   0.0796   0.0801
  0.0805   0.0807   0.0814   0.0819   0.0827   0.0838   0.0841   0.0850
  0.0859   0.0863   0.0878   0.0885   0.0892   0.0895   0.0897   0.0906
  0.0915   0.0925   0.0930   0.0933   0.0942   0.0945   0.0947   0.0949
  0.0958   0.0965   0.0972   0.0978   0.0981   0.0995   0.1005   0.1011
  0.1018   0.1030   0.1032   0.1037   0.1045   0.1047   0.1056   0.1064
  0.1071   0.1080   0.1090   0.1092   0.1102   0.1107   0.1116   0.1117
  0.1131   0.1137   0.1143   0.1152   0.1153   0.1165   0.1172   0.1175
  0.1183   0.1191   0.1197   0.1206   0.1213   0.1220   0.1224   0.1227
  0.1232   0.1235   0.1246   0.1251   0.1264   0.1268   0.1274   0.1278
  0.1284   0.1286   0.1298   0.1304   0.1312   0.1319   0.1322   0.1325
  0.1335   0.1336   0.1348   0.1350   0.1357   0.1371   0.1374   0.1380
  0.1384   0.1386   0.1392   0.1399   0.1404   0.1408   0.1411   0.1427
  0.1431   0.1436   0.1441   0.1458   0.1463   0.1472   0.1479   0.1483
  0.1491   0.1495   0.1501   0.1516   0.1521   0.1526   0.1536   0.1544
  0.1549   0.1551   0.1560   0.1565   0.1574   0.1580   0.1585   0.1598
  0.1602   0.1605   0.1616   0.1619   0.1626   0.1637   0.1640   0.1648
  0.1653   0.1660   0.1663   0.1670   0.1684   0.1687   0.1693   0.1697
  0.1703   0.1712   0.1722   0.1730   0.1736   0.1739   0.1748   0.1752
  0.1754   0.1764   0.1769   0.1777   0.1783   0.1794   0.1798   0.1802
  0.1808   0.1823   0.1832   0.1835   0.1837   0.1850   0.1859   0.1867
  0.1875   0.1878   0.1883   0.1893   0.1899   0.1905   0.1906   0.1920
  0.1923   0.1933   0.1934   0.1943   0.1946   0.1956   0.1965   0.1972
  0.1980   0.1987   0.1992   0.1994   0.2002   0.2007   0.2012   0.2020
  0.2030   0.2033   0.2039   0.2047   0.2051   0.2055   0.2064   0.2077
  0.2080   0.2093   0.2098   0.2101   0.2110   0.2119   0.2120   0.2124
  0.2131   0.2140   0.2151   0.2157   0.2163   0.2172   0.2179   0.2185
  0.2189   0.2192   0.2198   0.2208   0.2214   0.2217   0.2227   0.2235
  0.2239   0.2244   0.2254   0.2263   0.2267   0.2273   0.2275   0.2286
  0.2290   0.2303   0.2304   0.2312   0.2324   0.2325   0.2330   0.2333
  0.2343   0.2352   0.2364   0.2366   0.2374   0.2388   0.2395   0.2401
  0.2405   0.2409   0.2420   0.2426   0.2433   0.2435   0.2446   0.2449
  0.2461   0.2476   0.2482   0.2486   0.2495   0.2505   0.2513   0.2521
  0.2527   0.2537   0.2539   0.2546   0.2550   0.2557   0.2561   0.2571
  0.2574   0.2586   0.2589   0.2598   0.2602   0.2619   0.2628   0.2639
  0.2643   0.2648   0.2655   0.2664   0.2671   0.2681   0.2690   0.2699
  0.2700   0.2711   0.2717   0.2730   0.2733   0.2738   0.2745   0.2755
  0.2758   0.2768   0.2777   0.2781   0.2791   0.2802   0.2811   0.2816
  0.2826   0.2832   0.2844   0.2854   0.2861   0.2868   0.2876   0.2880
  0.2888   0.2897   0.2902   0.2907   0.2918   0.2923   0.2936   0.2954
  0.2969   0.2973   0.2974   0.2990   0.2993   0.3001   0.3023   0.3027
  0.3034   0.3041   0.3044   0.3055   0.3057   0.3062   0.3075   0.3087
  0.3102   0.3107   0.3112   0.3120   0.3133   0.3154   0.3158   0.3165
  0.3171   0.3176   0.3183   0.3199   0.3208   0.3214   0.3219   0.3238
  0.3244   0.3253   0.3257   0.3262   0.3267   0.3292   0.3297   0.3304
  0.3313   0.3325   0.3337   0.3343   0.3355   0.3372   0.3378   0.3391
  0.3393   0.3410   0.3419   0.3428   0.3431   0.3446   0.3462   0.3466
  0.3477   0.3487   0.3494   0.3505   0.3506   0.3511   0.3520   0.3524
  0.3536   0.3547   0.3549   0.3569   0.3581   0.3584   0.3597   0.3606
  0.3612   0.3615   0.3620   0.3639   0.3641   0.3658   0.3662   0.3667
  0.3678   0.3681   0.3694   0.3707   0.3715   0.3736   0.3742   0.3748
  0.3751   0.3767   0.3776   0.3785   0.3787   0.3802   0.3809   0.3816
  0.3825   0.3826   0.3832   0.3846   0.3848   0.3862   0.3870   0.3887
  0.3896   0.3907   0.3909   0.3926   0.3936   0.3947   0.3954   0.3961
  0.3971   0.3984   0.3987   0.3997   0.4008   0.4011   0.4019   0.4030
  0.4043   0.4046   0.4052   0.4055   0.4079   0.4103   0.4108   0.4114
  0.4116   0.4128   0.4140   0.4142   0.4157   0.4162   0.4170   0.4195
  0.4205   0.4206   0.4212   0.4215   0.4227   0.4236   0.4244   0.4254
  0.4263   0.4269   0.4287   0.4295   0.4307   0.4314   0.4330   0.4341
  0.4349   0.4358   0.4372   0.4380   0.4399   0.4407   0.4428   0.4438
  0.4448   0.4452   0.4466   0.4470   0.4487   0.4503   0.4517   0.4533
  0.4541   0.4551   0.4559   0.4579   0.4592   0.4593   0.4607   0.4617
  0.4628   0.4638   0.4657   0.4674   0.4694   0.4702   0.4720   0.4726
  0.4746   0.4758   0.4762   0.4791   0.4815   0.4821   0.4826   0.4851
  0.4860   0.4868   0.4887   0.4906   0.4920   0.4932   0.4941   0.4958
  0.4963   0.4977   0.4988   0.4993   0.5021   0.5026   0.5039   0.5068
  0.5086   0.5098   0.5122   0.5132   0.5156   0.5164   0.5177   0.5188
  0.5209   0.5223   0.5249   0.5258   0.5270   0.5295   0.5312   0.5326
  0.5342   0.5363   0.5369   0.5389   0.5411   0.5444   0.5454   0.5478
  0.5484   0.5499   0.5516   0.5534   0.5547   0.5560   0.5564   0.5584
  0.5612   0.5627   0.5635   0.5654   0.5687   0.5692   0.5706   0.5713
  0.5746   0.5751   0.5772   0.5809   0.5823   0.5837   0.5841   0.5858
  0.5867   0.5877   0.5887   0.5917   0.5926   0.5940   0.5964   0.5975
  0.5982   0.5992   0.6005   0.6025   0.6044   0.6051   0.6065   0.6092
  0.6100   0.6119   0.6136   0.6148   0.6159   0.6179   0.6195   0.6202
  0.6213   0.6222   0.6240   0.6246   0.6251   0.6263   0.6271   0.6277
  0.6307   0.6320   0.6330   0.6344   0.6349   0.6354   0.6363   0.6375
  0.6390   0.6411   0.6433   0.6443   0.6452   0.6469   0.6477   0.6488
  0.6500   0.6510   0.6517   0.6527   0.6535   0.6539   0.6554   0.6580
  0.6583   0.6592   0.6608   0.6628   0.6630   0.6648   0.6655   0.6665
  0.6670   0.6678   0.6701   0.6719   0.6728   0.6740   0.6751   0.6761
  0.6772   0.6786   0.6803   0.6808   0.6819   0.6833   0.6837   0.6856
  0.6869   0.6880   0.6883   0.6906   0.6907   0.6925   0.6940   0.6955
  0.6958   0.6985   0.6998   0.7009   0.7010   0.7030   0.7042   0.7056
  0.7081   0.7089   0.7095   0.7109   0.7117   0.7122   0.7149   0.7159
  0.7179   0.7183   0.7193   0.7211   0.7214   0.7237   0.7256   0.7261
  0.7266   0.7279   0.7307   0.7324   0.7327   0.7332   0.7343   0.7361
  0.7385   0.7398   0.7408   0.7420   0.7451   0.7460   0.7467   0.7489
  0.7498   0.7513   0.7528   0.7541   0.7562   0.7577   0.7629   0.7646
  0.7659   0.7670   0.7680   0.7681   0.7714   0.7728   0.7733   0.7762
  0.7770   0.7789   0.7813   0.7831   0.7844   0.7865   0.7874   0.7893
  0.7919   0.7920   0.7949   0.7961   0.7986   0.7993   0.8010   0.8019
  0.8043   0.8051   0.8088   0.8091   0.8106   0.8119   0.8137   0.8154
  0.8169   0.8197   0.8220   0.8227   0.8235   0.8243   0.8251   0.8265
  0.8299   0.8305   0.8309   0.8313   0.8342   0.8344   0.8367   0.8378
  0.8391   0.8402   0.8423   0.8430   0.8432   0.8461   0.8479   0.8510
  0.8511   0.8529   0.8545   0.8554   0.8579   0.8594   0.8608   0.8626
  0.8644   0.8665   0.8671   0.8679   0.8698   0.8714   0.8723   0.8728
  0.8741   0.8762   0.8765   0.8778   0.8804   0.8828   0.8834   0.8844
  0.8852   0.8869   0.8878   0.8899   0.8907   0.8919   0.8928   0.8944
  0.8952   0.8970   0.8990   0.9016   0.9023   0.9033   0.9043   0.9054
  0.9058   0.9075   0.9090   0.9096   0.9100   0.9112   0.9125   0.9143
  0.9169   0.9178   0.9203   0.9208   0.9220   0.9234   0.9266   0.9272
  0.9286   0.9296   0.9300   0.9318   0.9325   0.9328   0.9348   0.9354
  0.9376   0.9379   0.9396   0.9406   0.9413   0.9426   0.9445   0.9448
  0.9467   0.9485   0.9496   0.9520   0.9529   0.9542   0.9548   0.9554
  0.9566   0.9570   0.9578   0.9598   0.9607   0.9611   0.9625   0.9641
  0.9647   0.9652   0.9672   0.9692   0.9701   0.9709   0.9714   0.9732
  0.9749   0.9756   0.9767   0.9771   0.9793   0.9805   0.9819   0.9828
  0.9845   0.9849   0.9861   0.9868   0.9876   0.9884   0.9899   0.9918
  0.9935   0.9941   0.9946   0.9963   0.9969   0.9985   0.9994   1.0012
  1.0027   1.0033   1.0043   1.0054   1.0060   1.0075   1.0082   1.0101
  1.0107   1.0122   1.0127   1.0151   1.0156   1.0176   1.0181   1.0191
  1.0204   1.0209   1.0228   1.0245   1.0245   1.0267   1.0282   1.0300
  1.0310   1.0319   1.0325   1.0340   1.0350   1.0372   1.0390   1.0399
  1.0413   1.0416   1.0424   1.0447   1.0457   1.0465   1.0475   1.0491
  1.0495   1.0514   1.0518   1.0529   1.0541   1.0552   1.0575   1.0605
  1.0613   1.0624   1.0626   1.0662   1.0671   1.0681   1.0698   1.0710
  1.0717   1.0729   1.0742   1.0748   1.0754   1.0771   1.0798   1.0822
  1.0825   1.0841   1.0863   1.0874   1.0891   1.0903   1.0910   1.0917
  1.0943   1.0946   1.0967   1.0981   1.0988   1.0994   1.1011   1.1021
  1.1051   1.1066   1.1076   1.1096   1.1106   1.1114   1.1128   1.1146
  1.1160   1.1172   1.1195   1.1211   1.1217   1.1232   1.1249   1.1260
  1.1267   1.1286   1.1308   1.1320   1.1325   1.1346   1.1354   1.1371
  1.1377   1.1389   1.1405   1.1418   1.1430   1.1442   1.1454   1.1475
  1.1494   1.1509   1.1528   1.1537   1.1546   1.1553   1.1573   1.1586
  1.1597   1.1609   1.1617   1.1633   1.1652   1.1658   1.1668   1.1700
  1.1706   1.1716   1.1740   1.1746   1.1771   1.1773   1.1795   1.1804
  1.1810   1.1827   1.1844   1.1870   1.1876   1.1896   1.1906   1.1929
  1.1937   1.1962   1.1976   1.1998   1.2008   1.2029   1.2049   1.2066
  1.2072   1.2095   1.2100   1.2111   1.2135   1.2145   1.2179   1.2205
  1.2229   1.2255   1.2282   1.2290   1.2298   1.2315   1.2342   1.2361
  1.2379   1.2402   1.2423   1.2443   1.2461   1.2482   1.2504   1.2506
  1.2538   1.2581   1.2590   1.2617   1.2633   1.2670   1.2694   1.2720
  1.2729   1.2755   1.2786   1.2807   1.2818   1.2869   1.2885   1.2890
  1.2931   1.2943   1.2967   1.2991   1.3003   1.3011   1.3052   1.3067
  1.3083   1.3096   1.3135   1.3172   1.3195   1.3203   1.3223   1.3234
  1.3264   1.3269   1.3312   1.3335   1.3337   1.3363   1.3374   1.3387
  1.3427   1.3438   1.3474   1.3490   1.3500   1.3515   1.3550   1.3552
  1.3604   1.3606   1.3631   1.3664   1.3682   1.3704   1.3721   1.3737
  1.3773   1.3779   1.3789   1.3797   1.3816   1.3830   1.3841   1.3861
  1.3887   1.3915   1.3923   1.3949   1.3961   1.3979   1.4004   1.4022
  1.4026   1.4036   1.4053   1.4064   1.4078   1.4092   1.4118   1.4121
  1.4147   1.4162   1.4168   1.4171   1.4193   1.4210   1.4232   1.4250
  1.4262   1.4279   1.4296   1.4301   1.4329   1.4333   1.4349   1.4372
  1.4377   1.4406   1.4419   1.4430   1.4439   1.4464   1.4487   1.4495
  1.4505   1.4521   1.4539   1.4570   1.4577   1.4598   1.4619   1.4629
  1.4638   1.4651   1.4673   1.4696   1.4705   1.4721   1.4744   1.4776
  1.4782   1.4811   1.4828   1.4837   1.4862   1.4897   1.4922   1.4941
  1.4987   1.5005   1.5023   1.5042   1.5064   1.5072   1.5101   1.5113
  1.5168   1.5176   1.5186   1.5224   1.5249   1.5267   1.5287   1.5311
  1.5344   1.5373   1.5381   1.5398   1.5421   1.5454   1.5483   1.5495
  1.5529   1.5564   1.5582   1.5628   1.5652   1.5683   1.5757   1.5786
  1.5800   1.5807   1.5847   1.5889   1.5901   1.5961   1.6005   1.6011
  1.6065   1.6096   1.6139   1.6175   1.6209   1.6241   1.6286   1.6303
  1.6334   1.6395   1.6427   1.6464   1.6494   1.6507   1.6516   1.6538
  1.6550   1.6576   1.6589   1.6628   1.6642   1.6695   1.6723   1.6746
  1.6771   1.6795   1.6812   1.6819   1.6837   1.6859   1.6862   1.6875
  1.6884   1.6895   1.6905   1.6922   1.6945   1.6971   1.6973   1.6981
  1.7000   1.7010   1.7024   1.7032   1.7058   1.7070   1.7076   1.7094
  1.7110   1.7116   1.7127   1.7133   1.7142   1.7154   1.7187   1.7198
  1.7212   1.7218   1.7242   1.7255   1.7270   1.7274   1.7297   1.7314
  1.7323   1.7349   1.7359   1.7378   1.7395   1.7405   1.7415   1.7428
  1.7441   1.7465   1.7478   1.7492   1.7505   1.7531   1.7539   1.7550
  1.7570   1.7581   1.7608   1.7621   1.7638   1.7650   1.7681   1.7687
  1.7700   1.7722   1.7723   1.7729   1.7756   1.7773   1.7794   1.7806
  1.7828   1.7838   1.7861   1.7872   1.7892   1.7933   1.7940   1.7960
  1.7981   1.7997   1.8018   1.8035   1.8074   1.8089   1.8104   1.8121
  1.8128   1.8152   1.8171   1.8184   1.8217   1.8242   1.8276   1.8296
  1.8348   1.8371   1.8376   1.8393   1.8423   1.8463   1.8474   1.8486
  1.8526   1.8549   1.8603   1.8610   1.8625   1.8655   1.8681   1.8709
  1.8741   1.8751   1.8765   1.8785   1.8795   1.8813   1.8847   1.8868
  1.8878   1.8915   1.8922   1.8941   1.8955   1.8977   1.8995   1.9006
  1.9018   1.9031   1.9041   1.9056   1.9063   1.9073   1.9081   1.9095
  1.9097   1.9108   1.9128   1.9129   1.9148   1.9162   1.9175   1.9198
  1.9206   1.9223   1.9243   1.9243   1.9289   1.9303   1.9321   1.9358
  1.9381   1.9388   1.9399   1.9406   1.9417   1.9445   1.9455   1.9473
  1.9508   1.9523   1.9555   1.9564   1.9586   1.9597   1.9627   1.9641
  1.9696   1.9714   1.9748   1.9770   1.9814   1.9834   1.9877   1.9916
  1.9963   2.0021   2.0053   2.0114   2.0141   2.0216   2.0288   2.0304
  2.0364   2.0372   2.0420   2.0487   2.0518   2.0546   2.0569   2.0606
  2.0639   2.0645   2.0661   2.0674   2.0685   2.0727   2.0746   2.0759
  2.0788   2.0809   2.0816   2.0830   2.0877   2.0884   2.0901   2.0918
  2.0936   2.0944   2.0945   2.0959   2.0970   2.0980   2.0987   2.0997
  2.1003   2.1042   2.1062   2.1067   2.1079   2.1096   2.1112   2.1124
  2.1134   2.1143   2.1229   2.1246   2.1250   2.1267   2.1287   2.1291
  2.1339   2.1366   2.1391   2.1425   2.1446   2.1467   2.1512   2.1555
  2.1592   2.1654   2.1661   2.1669   2.1691   2.1736   2.1759   2.1794
  2.1881   2.1912   2.1922   2.1935   2.1954   2.1966   2.1988   2.2042
  2.2042   2.2051   2.2067   2.2074   2.2120   2.2132   2.2150   2.2197
  2.2203   2.2238   2.2255   2.2257   2.2262   2.2304   2.2308   2.2319
  2.2345   2.2350   2.2355   2.2373   2.2392   2.2404   2.2415   2.2419
  2.2426   2.2455   2.2469   2.2491   2.2500   2.2510   2.2525   2.2538
  2.2543   2.2553   2.2567   2.2574   2.2577   2.2580   2.2593   2.2596
  2.2611   2.2629   2.2644   2.2652   2.2664   2.2681   2.2684   2.2695
  2.2712   2.2718   2.2735   2.2744   2.2753   2.2761   2.2776   2.2783
  2.2799   2.2803   2.2827   2.2835   2.2840   2.2870   2.2879   2.2889
  2.2909   2.2916   2.2919   2.2928   2.2943   2.2956   2.2960   2.2969
  2.2978   2.2987   2.2997   2.3010   2.3017   2.3023   2.3030   2.3038
  2.3053   2.3072   2.3073   2.3083   2.3094   2.3115   2.3119   2.3130
  2.3146   2.3168   2.3176   2.3202   2.3206   2.3233   2.3247   2.3266
  2.3283   2.3287   2.3299   2.3316   2.3332   2.3337   2.3348   2.3374
  2.3396   2.3422   2.3439   2.3474   2.3484   2.3513   2.3523   2.3530
  2.3551   2.3567   2.3586   2.3610   2.3620   2.3649   2.3653   2.3686
  2.3694   2.3711   2.3724   2.3758   2.3763   2.3800   2.3817   2.3823
  2.3859   2.3865   2.3888   2.3931   2.3979   2.4005   2.4048   2.4085
  2.4102   2.4114   2.4224   2.4281   2.4295   2.4379   2.4486   2.4559
  2.4826   2.5254   2.5506   2.5629   2.6003   2.6920   2.7401   2.7607
  2.7748   2.7980   2.8004   2.8194   2.8250   2.8328   2.8431   2.8444
  2.8510   2.8514   2.8547   2.8559   2.8571   2.8614   2.8631   2.8645
  2.8654   2.8682   2.8719   2.8733   2.8753   2.8790   2.8836   2.8881
  2.8902   2.8958   2.8961   2.8982   2.9015   2.9120   2.9745   3.1080
  3.2898   3.9338   3.9357   3.9406   3.9633   3.9718   3.9761   3.9790
  3.9817   3.9824   3.9864   3.9893   3.9917   3.9927   3.9940   3.9989
  4.0006   4.0064   4.0086   4.0168   4.0180   4.0213   4.0249   4.0329
  4.0376   4.0459   4.1993   4.2012   4.2192   4.2262   4.2280   4.2363
  4.2366   4.2424   4.2493   4.2517   4.2542   4.2562   4.2664   4.2676
  4.2715   4.2749   4.2769   4.2796   4.2830   4.2863   4.2872   4.2937
  4.2941   4.2961   4.2973   4.2995   4.3027   4.3054   4.3094   4.3099
  4.3135   4.3162   4.3174   4.3195   4.3273   4.3285   4.3337   4.3348
  4.3380   4.3401   4.3429   4.3479   4.3522   4.3532   4.3570   4.3608
  4.3625   4.3679   4.3697   4.3722   4.3743   4.3783   4.3834   4.3865
  4.3921   4.3969   4.3977   4.4049   4.4054   4.4126   4.4172   4.4235
  4.4252   4.4294   4.4369   4.4374   4.4481   4.4627   4.4764   4.4885
  4.5039   4.5244   4.5467   4.5525   4.5578   4.5784   4.6020   4.6281
  4.6420   4.6593   4.7293   4.7659   4.7959   4.9990
 --------------------------------------------------------------
 
          Ground-State Mulliken Net Atomic Charges

     Atom                 Charge (a.u.)
  ----------------------------------------
      1 C                    -0.800350
      2 C                    -0.748896
      3 C                    -0.144849
      4 C                    -0.381369
      5 C                    -0.515169
      6 C                    -0.199112
      7 H                     0.196981
      8 H                     0.219381
      9 H                     0.174989
     10 H                     0.264373
     11 H                     0.250560
     12 H                     0.207782
     13 H                     0.219141
     14 H                     0.179403
     15 H                     0.212696
     16 H                     0.185941
     17 H                     0.237106
     18 N                     0.147243
     19 H                     0.486198
     20 C                    -0.484616
     21 H                     0.183130
     22 O                    -0.139679
     23 C                    -1.104707
     24 H                     0.264398
     25 H                     0.300286
     26 H                     0.240383
     27 S                     1.161551
     28 C                    -1.063410
     29 H                     0.254005
     30 H                     0.252856
     31 H                     0.247366
     32 O                    -0.679543
     33 C                    -0.903462
     34 H                     0.268705
     35 H                     0.247566
     36 H                     0.240626
     37 S                     1.140311
     38 C                    -0.895327
     39 H                     0.256138
     40 H                     0.274354
     41 H                     0.231938
     42 O                    -0.799382
     43 C                    -0.875035
     44 H                     0.271462
     45 H                     0.223395
     46 H                     0.254545
     47 S                     1.100542
     48 C                    -0.953370
     49 H                     0.263040
     50 H                     0.250830
     51 H                     0.244348
     52 O                    -0.691994
     53 C                    -1.132386
     54 H                     0.260126
     55 H                     0.235511
     56 H                     0.316057
     57 S                     1.067750
     58 C                    -1.146845
     59 H                     0.238075
     60 H                     0.264247
     61 H                     0.295049
     62 O                    -0.622631
     63 C                    -1.046599
     64 H                     0.262512
     65 H                     0.282785
     66 H                     0.235936
     67 S                     1.158456
     68 C                    -0.936318
     69 H                     0.250990
     70 H                     0.275408
     71 H                     0.264969
     72 O                    -0.697663
     73 C                    -0.835442
     74 H                     0.273611
     75 H                     0.268254
     76 H                     0.216572
     77 S                     1.058677
     78 C                    -0.868803
     79 H                     0.242086
     80 H                     0.239496
     81 H                     0.247037
     82 O                    -0.754643
     83 C                    -0.765219
     84 H                     0.293444
     85 H                     0.236347
     86 H                     0.254292
     87 S                     0.718374
     88 C                    -0.891000
     89 H                     0.270378
     90 H                     0.298770
     91 H                     0.227992
     92 O                    -0.622607
     93 C                    -0.915643
     94 H                     0.240357
     95 H                     0.247706
     96 H                     0.244548
     97 S                     0.991770
     98 C                    -0.871898
     99 H                     0.247248
    100 H                     0.254261
    101 H                     0.240209
    102 O                    -0.651651
    103 C                    -0.968005
    104 H                     0.268352
    105 H                     0.236365
    106 H                     0.264921
    107 S                     1.045250
    108 C                    -0.891651
    109 H                     0.277699
    110 H                     0.237547
    111 H                     0.284215
    112 O                    -0.642503
    113 C                    -0.975493
    114 H                     0.251737
    115 H                     0.251334
    116 H                     0.266477
    117 S                     0.925411
    118 C                    -0.848108
    119 H                     0.299226
    120 H                     0.260372
    121 H                     0.216826
    122 O                    -0.618924
    123 C                    -0.760113
    124 H                     0.258498
    125 H                     0.261249
    126 H                     0.264008
    127 S                     0.512214
    128 C                    -0.838653
    129 H                     0.277275
    130 H                     0.240283
    131 H                     0.257111
    132 O                    -0.535422
    133 C                    -0.889615
    134 H                     0.252079
    135 H                     0.265474
    136 H                     0.278558
    137 S                     0.720359
    138 C                    -0.838222
    139 H                     0.329197
    140 H                     0.304031
    141 H                     0.276406
    142 O                    -0.605695
    143 C                    -0.845662
    144 H                     0.257812
    145 H                     0.273701
    146 H                     0.244323
    147 S                     0.917939
    148 C                    -0.901528
    149 H                     0.260428
    150 H                     0.273838
    151 H                     0.237022
    152 O                    -0.713825
    153 C                    -0.784724
    154 H                     0.249993
    155 H                     0.277910
    156 H                     0.261510
    157 S                     0.902896
    158 C                    -0.862544
    159 H                     0.249944
    160 H                     0.279044
    161 H                     0.226272
    162 O                    -0.701869
    163 C                    -0.787181
    164 H                     0.256504
    165 H                     0.249477
    166 H                     0.243894
    167 S                     0.917969
    168 C                    -0.952007
    169 H                     0.251039
    170 H                     0.249305
    171 H                     0.244770
    172 O                    -0.723067
    173 C                    -0.881546
    174 H                     0.242050
    175 H                     0.289057
    176 H                     0.233086
    177 S                     1.031963
    178 C                    -0.818199
    179 H                     0.241379
    180 H                     0.247074
    181 H                     0.245727
    182 O                    -0.718889
    183 C                    -0.417895
    184 H                     0.259471
    185 H                     0.300687
    186 H                     0.227077
    187 S                     0.334865
    188 C                    -0.832136
    189 H                     0.241175
    190 H                     0.291864
    191 H                     0.266511
    192 O                    -0.605351
    193 C                    -0.849702
    194 H                     0.231858
    195 H                     0.271929
    196 H                     0.298149
    197 S                     0.672004
    198 C                    -0.833881
    199 H                     0.265748
    200 H                     0.275950
    201 H                     0.241798
    202 O                    -0.551592
    203 C                    -0.672797
    204 H                     0.263729
    205 H                     0.225666
    206 H                     0.308878
    207 S                     0.901685
    208 C                    -1.002706
    209 H                     0.221472
    210 H                     0.259986
    211 H                     0.289474
    212 O                    -0.588289
    213 C                    -0.682570
    214 H                     0.281510
    215 H                     0.251987
    216 H                     0.267547
    217 S                     0.101969
    218 C                    -0.509592
    219 H                     0.236288
    220 H                     0.273707
    221 H                     0.257875
    222 O                    -0.641785
    223 C                    -1.016659
    224 H                     0.285673
    225 H                     0.271822
    226 H                     0.237680
    227 S                     0.820512
    228 C                    -0.886353
    229 H                     0.245010
    230 H                     0.259325
    231 H                     0.280474
    232 O                    -0.666139
    233 C                    -0.932212
    234 H                     0.285526
    235 H                     0.277573
    236 H                     0.266641
    237 S                     0.745185
    238 C                    -0.812063
    239 H                     0.235721
    240 H                     0.296674
    241 H                     0.252693
    242 O                    -0.618332
    243 C                    -1.151621
    244 H                     0.269492
    245 H                     0.244200
    246 H                     0.281930
    247 S                     1.403449
    248 C                    -1.140536
    249 H                     0.303939
    250 H                     0.240405
    251 H                     0.267945
    252 O                    -0.694772
    253 C                    -1.067046
    254 H                     0.293907
    255 H                     0.226345
    256 H                     0.240248
    257 S                     1.292435
    258 C                    -1.069915
    259 H                     0.244513
    260 H                     0.266044
    261 H                     0.321053
    262 O                    -0.639600
    263 C                    -0.931411
    264 H                     0.271785
    265 H                     0.319644
    266 H                     0.273111
    267 S                     0.728530
    268 C                    -0.965036
    269 H                     0.236870
    270 H                     0.269175
    271 H                     0.282031
    272 O                    -0.646631
  ----------------------------------------
  Sum of atomic charges =     0.000000

 -----------------------------------------------------------------
                    Cartesian Multipole Moments
 -----------------------------------------------------------------
    Charge (ESU x 10^10)
                -0.0000
    Dipole Moment (Debye)
         X     -28.4317      Y       5.1329      Z     -30.5410
       Tot      42.0412
    Quadrupole Moments (Debye-Ang)
        XX   -2391.9765     XY    -334.9267     YY    -702.8745
        XZ   -1518.1313     YZ    -428.8877     ZZ   -2527.1917
    Octopole Moments (Debye-Ang^2)
       XXX -129436.8328    XXY  -36106.7784    XYY  -26251.8654
       YYY  -38904.1473    XXZ  -84019.1876    XYZ  -23237.8227
       YYZ  -30669.2508    XZZ  -84769.9309    YZZ  -42003.2542
       ZZZ -143421.5220
    Hexadecapole Moments (Debye-Ang^3)
      XXXX ************   XXXY ************   XXYY ************
      XYYY ************   YYYY ************   XXXZ ************
      XXYZ ************   XYYZ ************   YYYZ ************
      XXZZ ************   XYZZ ************   YYZZ ************
      XZZZ ************   YZZZ ************   ZZZZ ************
 -----------------------------------------------------------------
Archival summary:
[...]
    2   0.0276704   0.0040745   0.0099592   0.0249224  -0.0189657   0.0129494
    3   0.0369615  -0.0078655  -0.0106935  -0.0015016  -0.0194972   0.0067226
          103         104         105         106         107         108
    1   0.0033953  -0.0169506   0.0104632   0.0293615  -0.0274398  -0.0082029
    2  -0.0054926  -0.0251271   0.0199835  -0.0029237  -0.0378999   0.0058700
    3  -0.0052233  -0.0194510  -0.0220190   0.0144803   0.0351277  -0.0048399
          109         110         111         112         113         114
    1  -0.0294447   0.0185295  -0.0184565   0.0646781   0.0059839   0.0026469
    2   0.0190880   0.0258819  -0.0228632   0.0818205   0.0070449   0.0139191
    3   0.0129332  -0.0105580  -0.0194961   0.0334120   0.0011534  -0.0285092
          115         116         117         118         119         120
    1  -0.0127682   0.0296087   0.0034523  -0.0057055  -0.0249495  -0.0041591
    2   0.0325706  -0.0064415  -0.0437623  -0.0027406  -0.0219980   0.0231925
    3   0.0113076  -0.0075951  -0.0466642   0.0007523   0.0136413   0.0200192
          121         122         123         124         125         126
    1  -0.0087621   0.0195960  -0.0017882   0.0143838   0.0129754  -0.0297583
    2   0.0142155  -0.0291160   0.0077096   0.0158106   0.0017754   0.0134103
    3  -0.0272437   0.1040707  -0.0057799   0.0234150  -0.0269091  -0.0157937
          127         128         129         130         131         132
    1  -0.0281103  -0.0027253   0.0239146  -0.0320662  -0.0046623   0.1060915
    2  -0.0316286   0.0026402   0.0167950   0.0143884  -0.0230327  -0.0104092
    3  -0.0264092   0.0076615   0.0093592   0.0014331   0.0210310   0.0275021
          133         134         135         136         137         138
    1   0.0061550   0.0151750   0.0228056   0.0155727  -0.0273769   0.0032591
    2   0.0005553   0.0087720  -0.0319219   0.0198703  -0.0339575  -0.0004898
    3  -0.0004376   0.0270329  -0.0029894  -0.0175053   0.0328660  -0.0108691
          139         140         141         142         143         144
    1   0.0280511   0.0021954  -0.0281872  -0.0298960  -0.0050309  -0.0088635
    2   0.0037921  -0.0284015   0.0159162   0.1045458  -0.0068019  -0.0323453
    3  -0.0193522  -0.0108980  -0.0080393  -0.0168468   0.0024824  -0.0082553
          145         146         147         148         149         150
    1   0.0034782  -0.0281937  -0.0030067  -0.0011249   0.0252286   0.0225273
    2   0.0087864   0.0142950   0.0659277  -0.0083626   0.0221478  -0.0242764
    3   0.0308005  -0.0077174  -0.0002140  -0.0077820  -0.0132367  -0.0021191
          151         152         153         154         155         156
    1  -0.0333521   0.0905719   0.0007154   0.0096363  -0.0182453   0.0273817
    2  -0.0099091  -0.0416847  -0.0005475  -0.0297814   0.0043398   0.0142274
    3  -0.0106824   0.0466084  -0.0096249  -0.0104646  -0.0261101  -0.0063463
          157         158         159         160         161         162
    1   0.0212963  -0.0053568  -0.0163508  -0.0073947  -0.0133901  -0.0086629
    2  -0.0263305  -0.0014326   0.0129426   0.0141445  -0.0344396   0.1103136
    3   0.0382795  -0.0038644   0.0223612  -0.0227004  -0.0043642  -0.0059567
          163         164         165         166         167         168
    1   0.0068590  -0.0132582   0.0236861   0.0181479  -0.0206049   0.0035266
    2   0.0033443   0.0241477   0.0085788  -0.0085903   0.0120436  -0.0050055
    3  -0.0032791  -0.0142671   0.0236603  -0.0253039   0.0461066  -0.0016285
          169         170         171         172         173         174
    1   0.0107487   0.0310603  -0.0166860  -0.0579484  -0.0056843  -0.0332196
    2  -0.0080181  -0.0040750  -0.0238856  -0.0188594  -0.0056993   0.0076570
    3  -0.0267528   0.0150858   0.0075722  -0.0922358  -0.0013238  -0.0104202
          175         176         177         178         179         180
    1   0.0257696  -0.0138261   0.0507669  -0.0083139  -0.0002118   0.0092572
    2  -0.0221661  -0.0156329  -0.0076609   0.0026814  -0.0009726   0.0255099
    3  -0.0073104   0.0289017   0.0291899   0.0005301   0.0360293  -0.0046034
          181         182         183         184         185         186
    1  -0.0264874  -0.0040435  -0.0009863   0.0145533  -0.0042479  -0.0194953
    2   0.0065880   0.0227740  -0.0067452  -0.0229534  -0.0225401   0.0050894
    3  -0.0235343  -0.1070788  -0.0023200  -0.0176424   0.0260192  -0.0289093
          187         188         189         190         191         192
    1  -0.0336762   0.0076052  -0.0021886   0.0153229   0.0180818   0.0390064
    2   0.0366083  -0.0017010   0.0144870   0.0190100  -0.0257211  -0.0728971
    3   0.0134540  -0.0032515  -0.0299271   0.0180903   0.0025102   0.0817013
          193         194         195         196         197         198
    1  -0.0073462  -0.0046660  -0.0240948  -0.0149113   0.0432862   0.0020249
    2   0.0014447   0.0163976  -0.0230505   0.0289102   0.0493429  -0.0100456
    3   0.0079788  -0.0236794  -0.0052130   0.0217431  -0.0066577  -0.0043290
          199         200         201         202         203         204
    1   0.0229097  -0.0220273  -0.0025168   0.0110510  -0.0007196   0.0223574
    2  -0.0227817  -0.0247270   0.0240723  -0.0709221   0.0044744   0.0193619
    3   0.0033303  -0.0012033  -0.0219958   0.0850649   0.0100961   0.0134686
          205         206         207         208         209         210
    1  -0.0199116  -0.0109698   0.0088393  -0.0074449  -0.0286397  -0.0017343
    2   0.0210846   0.0163861   0.0060318  -0.0030307   0.0125672  -0.0316995
    3  -0.0109231   0.0387353  -0.0540563   0.0035535  -0.0179986  -0.0105391
          211         212         213         214         215         216
    1  -0.0077298   0.0467291  -0.0046714  -0.0178175  -0.0263856   0.0183731
    2   0.0174463  -0.0698167   0.0105953  -0.0055089  -0.0000991   0.0303621
    3   0.0302899   0.0695130  -0.0032357  -0.0211739   0.0148487   0.0016385
          217         218         219         220         221         222
    1   0.0280416   0.0045430   0.0126685   0.0106026  -0.0199219  -0.0716588
    2  -0.0004652   0.0025207   0.0300217  -0.0315081   0.0067040  -0.0638586
    3   0.0507056  -0.0077776   0.0094551  -0.0076152  -0.0255123  -0.0468927
          223         224         225         226         227         228
    1  -0.0010163  -0.0206740   0.0243226  -0.0093526  -0.0540601   0.0034094
    2  -0.0011269  -0.0203066  -0.0143251   0.0229720  -0.0204083  -0.0067988
    3   0.0080217   0.0222566   0.0089249   0.0082874  -0.0138630  -0.0004524
          229         230         231         232         233         234
    1   0.0062786   0.0274198  -0.0064356   0.0443219  -0.0006137  -0.0110742
    2  -0.0122279   0.0053496  -0.0343673   0.0914594   0.0101867   0.0227531
    3  -0.0268748   0.0113990   0.0040455  -0.0379025   0.0029759   0.0298051
          235         236         237         238         239         240
    1   0.0242356  -0.0135421   0.0037158  -0.0045092  -0.0085311   0.0004127
    2   0.0099987  -0.0098109  -0.0468043   0.0037715  -0.0238671   0.0265312
    3  -0.0164959  -0.0209586  -0.0309395   0.0086233   0.0212962   0.0213030
          241         242         243         244         245         246
    1  -0.0283890   0.0820709  -0.0102661  -0.0341595   0.0232422  -0.0095647
    2  -0.0071926   0.0387004  -0.0025299  -0.0052420  -0.0203706   0.0182923
    3  -0.0134519   0.0640103   0.0067140  -0.0120033   0.0157558   0.0314890
          247         248         249         250         251         252
    1   0.0508756  -0.0076425   0.0039188  -0.0295881  -0.0100593  -0.0463467
    2   0.0074042   0.0074356   0.0130769  -0.0044344   0.0306588  -0.0635867
    3   0.0021377  -0.0044903  -0.0340057   0.0089015   0.0205161  -0.0797470
          253         254         255         256         257         258
    1  -0.0002055   0.0080929   0.0111042  -0.0293400  -0.0134975  -0.0073246
    2   0.0048898   0.0239149  -0.0213494   0.0065696  -0.0440459   0.0119571
    3  -0.0091696  -0.0207249  -0.0258033   0.0121068   0.0296957   0.0020369
          259         260         261         262         263         264
    1  -0.0356119   0.0086919   0.0231316   0.0982896   0.0081357  -0.0241513
    2  -0.0096584   0.0141720   0.0270568   0.0490110   0.0074140   0.0213505
    3   0.0170742   0.0220016  -0.0198194   0.0018356   0.0100201   0.0026193
          265         266         267         268         269         270
    1   0.0193830   0.0331202  -0.0072613  -0.0063924  -0.0262729  -0.0045185
    2  -0.0131210   0.0160748   0.0210788  -0.0034212   0.0234651  -0.0301952
    3   0.0120260  -0.0033230  -0.0425494   0.0044038   0.0012040  -0.0136580
          271         272
    1   0.0115032   0.0804414
    2  -0.0015120  -0.0717466
    3   0.0268091   0.0278434
  --- DONE ESP SUMMARY ---
Archival summary:
1\1\node010\SP\ProcedureUnspecified\6-31+G*\252550h22\ymao90\FriDec312:11:162021FriDec312:11:162021\0\\#,ProcedureUnspecified,6-31+G*,\\0,1\S\O,1,1.498\C,1,1.80671,2,100.919\H,3,1.0924,1,111.559,2,79.0694,0\H,3,1.09351,1,110.193,2,-36.1199,0\H,3,1.09373,1,107.387,2,-158.329,0\C,1,1.80682,2,108.674,3,99.1159,0\H,7,1.09234,1,107.534,2,82.8439,0\H,7,1.09305,1,98.4695,2,-162.447,0\H,7,1.09347,1,111.557,2,-45.3784,0\Gh,5,2.25616,3,115.196,1,-45.5701,0\Gh,11,1.09718,5,120.249,3,-176.195,0\Gh,12,1.46153,11,106.545,5,38.735,0\Gh,13,1.01367,12,125.579,11,-125.781,0\Gh,13,1.37901,12,127.615,11,47.8351,0\Gh,15,1.10478,13,111.537,12,178.155,0\Gh,15,1.21864,13,125.142,12,4.7741,0\Gh,12,1.53738,11,112.944,5,-85.2919,0\Gh,18,1.0964,12,111.317,11,57.6839,0\Gh,18,1.09761,12,115.345,11,177.268,0\Gh,18,1.5367,12,113.875,11,-59.4779,0\Gh,21,1.09739,18,107.595,12,68.0593,0\Gh,21,1.09755,18,106.647,12,-170.139,0\Gh,21,1.53738,18,110.177,12,-55.7096,0\Gh,24,1.09699,21,104.743,18,177.44,0\Gh,24,1.09704,21,108.121,18,-63.1484,0\Gh,12,1.5376,11,105.293,5,156.799,0\Gh,27,1.09621,12,109.039,11,-56.0746,0\Gh,27,1.09689,12,110.808,11,-164.615,0\Gh,27,1.53722,12,111.722,11,64.7407,0\Gh,30,1.0966,27,104.56,12,-56.237,0\Gh,30,1.09748,27,109.282,12,-177.213,0\H,19,2.01504,18,152.093,12,-99.1363,0\C,33,1.0931,19,150.767,18,-154.262,0\H,34,1.09251,33,114.088,19,87.4077,0\H,34,1.09259,33,110.804,19,-150.309,0\S,34,1.807,33,105.214,19,-27.4792,0\O,37,1.49695,34,107.663,33,157.571,0\C,37,1.8068,34,93.9775,33,-91.8268,0\H,39,1.09286,37,111.371,34,-52.2567,0\H,39,1.09305,37,103.454,34,66.4848,0\H,39,1.09319,37,107.873,34,-174.16,0\H,35,2.00599,34,108.41,33,90.8866,0\C,43,1.09361,35,116.438,34,-76.5784,0\H,44,1.0923,43,111.231,35,-1.45728,0\H,44,1.09271,43,108.995,35,-130.473,0\S,44,1.80721,43,97.6598,35,116.227,0\O,47,1.49669,44,101.36,43,70.9578,0\C,47,1.80655,44,93.305,43,177.359,0\H,49,1.09268,47,99.0825,44,-171.454,0\H,49,1.09278,47,107.749,44,78.4437,0\H,49,1.0931,47,116.156,44,-55.9361,0\H,51,2.00464,49,131.395,47,131.994,0\C,53,1.09363,51,140.395,49,-172.585,0\H,54,1.09275,53,100.137,51,118.384,0\H,54,1.09335,53,109.98,51,4.17931,0\S,54,1.80734,53,112.704,51,-124.906,0\O,57,1.49674,54,101.883,53,170.649,0\C,57,1.80761,54,94.9224,53,75.0934,0\H,59,1.09274,57,107.648,54,64.7409,0\H,59,1.09288,57,113.272,54,-55.5668,0\H,59,1.09312,57,108.165,54,-172.262,0\H,46,2.01498,44,132.739,43,136.863,0\C,63,1.09279,46,129.532,44,-37.7236,0\H,64,1.09256,63,114.991,46,-23.5732,0\H,64,1.09297,63,99.4999,46,-149.765,0\S,64,1.8075,63,110.061,46,96.6832,0\O,67,1.49715,64,115.169,63,55.2522,0\C,67,1.80715,64,97.538,63,166.844,0\H,69,1.09255,67,99.3436,64,171.146,0\H,69,1.09267,67,113.511,64,-69.4953,0\H,69,1.09373,67,107.414,64,62.9425,0\H,32,2.01764,30,142.576,27,131.778,0\C,73,1.09302,32,131.01,30,-169.078,0\H,74,1.09257,73,111.512,32,39.1531,0\H,74,1.09327,73,114.135,32,-88.3437,0\S,74,1.80738,73,111.211,32,156.184,0\O,77,1.49646,74,105.488,73,175.99,0\C,77,1.80771,74,93.9289,73,64.6148,0\H,79,1.09263,77,112.59,74,165.543,0\H,79,1.09276,77,106.014,74,51.3302,0\H,79,1.09377,77,107.193,74,-68.9387,0\H,29,2.13147,27,113.828,12,-160.532,0\C,83,1.09342,29,142.848,27,-142.837,0\H,84,1.09265,83,111.541,29,-74.8722,0\H,84,1.09344,83,117.139,29,151.356,0\S,84,1.80714,83,104.295,29,43.155,0\O,87,1.49678,84,108.121,83,69.5903,0\C,87,1.80751,84,93.4467,83,172.809,0\H,89,1.09288,87,114.112,84,-48.2528,0\H,89,1.09292,87,107.546,84,-160.982,0\H,89,1.09294,87,106.123,84,79.7524,0\H,62,2.13422,59,118.922,57,136.293,0\C,93,1.09278,62,146.175,59,-179.087,0\H,94,1.09251,93,105.925,62,165.783,0\H,94,1.09356,93,116.784,62,-78.6307,0\S,94,1.80715,93,112.787,62,47.8471,0\O,97,1.49732,94,100.319,93,179.085,0\C,97,1.8071,94,97.6558,93,-81.6525,0\H,99,1.09225,97,115.727,94,-66.4279,0\H,99,1.09308,97,110.024,94,56.1166,0\H,99,1.09315,97,104.717,94,167.679,0\H,96,2.1619,94,163.43,93,43.9927,0\C,103,1.09333,96,134.65,94,-10.5808,0\H,104,1.09274,103,107.657,96,-169.412,0\H,104,1.09291,103,108.919,96,72.3238,0\S,104,1.80665,103,114.723,96,-48.8657,0\O,107,1.49765,104,100.153,103,39.6165,0\C,107,1.80719,104,90.8669,103,-62.552,0\H,109,1.09285,107,105.13,104,-75.9771,0\H,109,1.09289,107,115.493,104,44.8073,0\H,109,1.09326,107,108.807,104,169.159,0\H,29,2.18794,27,128.848,12,20.0358,0\C,113,1.09232,29,148.61,27,-122.46,0\H,114,1.09325,113,107.292,29,-20.4529,0\H,114,1.09332,113,111.597,29,94.9913,0\S,114,1.80721,113,103.486,29,-146.484,0\O,117,1.49666,114,96.3574,113,-29.2347,0\C,117,1.80737,114,90.3848,113,71.7799,0\H,119,1.09228,117,110.944,114,-162.437,0\H,119,1.09282,117,113.348,114,-43.7405,0\H,119,1.09282,117,109.521,114,82.4154,0\O,14,2.1936,13,149.842,12,102.379,0\S,123,1.49616,14,126.369,13,-176.781,0\C,124,1.80686,123,97.5579,14,178.389,0\H,125,1.09283,124,110.302,123,-74.6648,0\H,125,1.09293,124,104.071,123,43.7649,0\H,125,1.09346,124,112.02,123,161.543,0\C,124,1.80725,123,96.9123,14,-81.0693,0\H,129,1.09222,124,113.364,123,45.364,0\H,129,1.09306,124,106.332,123,165.886,0\H,129,1.09313,124,102.686,123,-74.555,0\H,115,2.19621,114,165.399,113,-82.439,0\C,133,1.09308,115,150.216,114,105.103,0\H,134,1.0932,133,112.752,115,-105.481,0\H,134,1.0933,133,110.392,115,134.984,0\S,134,1.80672,133,109.801,115,16.0639,0\O,137,1.49705,134,99.8684,133,171.001,0\C,137,1.80708,134,96.531,133,67.4749,0\H,139,1.0921,137,106.088,134,28.0133,0\H,139,1.0929,137,120.419,134,-89.0199,0\H,139,1.09292,137,110.411,134,144.975,0\H,72,2.22554,69,150.535,67,-138.595,0\C,143,1.09365,72,113.931,69,83.3752,0\H,144,1.0921,143,107.816,72,115.144,0\H,144,1.09295,143,110.872,72,-15.843,0\S,144,1.80696,143,106.511,72,-134.155,0\O,147,1.49734,144,97.8524,143,-76.2909,0\C,147,1.80697,144,94.2772,143,179.858,0\H,149,1.09277,147,111.209,144,160.965,0\H,149,1.09292,147,109.545,144,-78.9714,0\H,149,1.09302,147,106.425,144,39.4807,0\H,145,2.11536,144,123.938,143,-103.439,0\C,153,1.0926,145,153.939,144,-32.2474,0\H,154,1.09298,153,107.761,145,79.3942,0\H,154,1.09331,153,107.597,145,-163.741,0\S,154,1.80689,153,108.486,145,-42.2309,0\O,157,1.49691,154,101.265,153,108.527,0\C,157,1.80744,154,97.3995,153,-148.611,0\H,159,1.09242,157,108.699,154,-179.656,0\H,159,1.09304,157,111.778,154,54.4712,0\H,159,1.09338,157,105.905,154,-64.9158,0\H,82,2.2346,79,95.5151,77,-78.5092,0\C,163,1.09327,82,138.563,79,-69.6193,0\H,164,1.09222,163,113.891,82,11.4062,0\H,164,1.09308,163,111.615,82,135.827,0\S,164,1.80763,163,107.938,82,-108.19,0\O,167,1.49681,164,97.3025,163,55.6367,0\C,167,1.80715,164,96.9338,163,-47.5162,0\H,169,1.09216,167,107.519,164,36.4035,0\H,169,1.09265,167,111.26,164,-89.1802,0\H,169,1.09329,167,105.51,164,151.058,0\H,16,2.27782,15,108.982,13,78.9427,0\C,173,1.09315,16,135.314,15,117.22,0\H,174,1.09252,173,111.417,16,32.2601,0\H,174,1.09268,173,107.772,16,148.489,0\S,174,1.80727,173,108.665,16,-88.5565,0\O,177,1.49734,174,105.734,173,-82.8051,0\C,177,1.80652,174,97.767,173,170.714,0\H,179,1.09301,177,113.789,174,46.0048,0\H,179,1.0932,177,107.658,174,174.361,0\H,179,1.09375,177,105.483,174,-76.7724,0\O,133,2.3638,115,72.0192,114,-131.196,0\S,183,1.49723,133,111.861,115,148.335,0\C,184,1.80711,183,99.0012,133,-75.8989,0\H,185,1.09272,184,110.89,183,-174.506,0\H,185,1.09275,184,100.995,183,72.8638,0\H,185,1.09356,184,112.244,183,-45.0269,0\C,184,1.80723,183,102.808,133,-171.768,0\H,189,1.0926,184,101.448,183,137.754,0\H,189,1.09273,184,108.061,183,-101.648,0\H,189,1.09335,184,113.64,183,20.6119,0\H,170,2.37793,169,136.259,167,-128.123,0\C,193,1.09262,170,140.056,169,-6.81554,0\H,194,1.09359,193,110.342,170,47.5066,0\H,194,1.09361,193,105.864,170,173.18,0\S,194,1.80695,193,106.283,170,-68.3495,0\O,197,1.49675,194,107.029,193,39.824,0\C,197,1.80722,194,89.8849,193,-65.0157,0\H,199,1.09261,197,109.07,194,44.0708,0\H,199,1.09314,197,107.464,194,155.162,0\H,199,1.09324,197,114.685,194,-74.1485,0\H,192,2.3836,189,128.392,184,-53.178,0\C,203,1.09294,192,116.775,189,-106.596,0\H,204,1.09251,203,111.81,192,-129.824,0\H,204,1.09298,203,112.846,192,-13.5113,0\S,204,1.80691,203,109.325,192,111.686,0\O,207,1.49639,204,111.159,203,60.0472,0\C,207,1.80689,204,96.2135,203,-57.7195,0\H,209,1.09258,207,109.478,204,76.231,0\H,209,1.09317,207,99.5825,204,-174.819,0\H,209,1.09385,207,110.466,204,-58.4719,0\H,28,2.42341,27,133.848,12,-91.9284,0\C,213,1.09268,28,170.626,27,-47.2145,0\H,214,1.09257,213,107.126,28,90.2633,0\H,214,1.09315,213,120.249,28,-35.2912,0\S,214,1.80725,213,102.083,28,-156.075,0\O,217,1.49752,214,101.332,213,-172.914,0\C,217,1.80682,214,96.6335,213,79.5653,0\H,219,1.09313,217,114.395,214,-174.488,0\H,219,1.09322,217,108.445,214,73.155,0\H,219,1.09324,217,106.348,214,-41.4342,0\O,86,2.51998,84,154.342,83,105.846,0\S,223,1.49748,86,134.82,84,-141.371,0\C,224,1.80677,223,100.508,86,-108.231,0\H,225,1.09247,224,106.88,223,-170.14,0\H,225,1.09311,224,102.181,223,-45.477,0\H,225,1.09373,224,114.015,223,64.9262,0\C,224,1.80732,223,102.532,86,150.66,0\H,229,1.09304,224,112.607,223,165.279,0\H,229,1.09315,224,105.203,223,54.7094,0\H,229,1.09323,224,110.565,223,-65.5343,0\H,16,2.59748,15,130.689,13,-165.123,0\C,233,1.09229,16,134.357,15,154.353,0\H,234,1.09302,233,117.073,16,24.5738,0\H,234,1.09316,233,110.713,16,-81.504,0\S,234,1.8077,233,108.539,16,155.722,0\O,237,1.49697,234,92.8667,233,-67.1899,0\C,237,1.80731,234,92.4222,233,178.424,0\H,239,1.09272,237,107.422,234,-167.738,0\H,239,1.0935,237,114.776,234,-51.3389,0\H,239,1.09372,237,105.018,234,67.053,0\O,235,2.21723,234,141.57,233,-158.868,0\S,243,1.49715,235,148.017,234,77.4765,0\C,244,1.80758,243,103.701,235,-148.254,0\H,245,1.09215,244,118.617,243,-101.817,0\H,245,1.09338,244,106.032,243,29.971,0\H,245,1.09367,244,108.283,243,143.099,0\C,244,1.80764,243,111.466,235,-37.5234,0\H,249,1.09237,244,111.122,243,49.1425,0\H,249,1.09318,244,106.591,243,173.991,0\H,249,1.09344,244,108.246,243,-65.3601,0\H,233,2.55194,16,76.0789,15,-57.2046,0\C,253,1.09279,233,111.093,16,126.434,0\H,254,1.09278,253,108.486,233,106.989,0\H,254,1.09353,253,118.528,233,-14.8073,0\S,254,1.80664,253,105.267,233,-134.111,0\O,257,1.49673,254,102.476,253,-65.6121,0\C,257,1.80782,254,103.914,253,-172.86,0\H,259,1.09215,257,107.348,254,160.238,0\H,259,1.09317,257,112.848,254,40.7584,0\H,259,1.09331,257,113.683,254,-76.5636,0\O,261,2.29469,259,129.269,257,-93.9879,0\S,263,1.49766,261,123.138,259,-5.59272,0\C,264,1.807,263,102.42,261,115.991,0\H,265,1.09262,264,117.021,263,61.0522,0\H,265,1.09271,264,110.076,263,-64.1945,0\H,265,1.09321,264,101.789,263,177.832,0\C,264,1.80741,263,109.846,261,-140.043,0\H,269,1.09254,264,105.252,263,-56.4535,0\H,269,1.09324,264,116.136,263,173.795,0\H,269,1.0939,264,99.9911,263,61.9368,0\\\@

 Total job time:  78.81s(wall), 137.08s(cpu) 
 Fri Dec  3 12:11:16 2021

        *************************************************************
        *                                                           *
        *  Thank you very much for using Q-Chem.  Have a nice day.  *
        *                                                           *
        *************************************************************


