                  Welcome to Q-Chem
     A Quantum Leap Into The Future Of Chemistry


 Q-Chem 5.2 (devel), Q-Chem, Inc., Pleasanton, CA (2019)

 Yihan Shao,  Zhengting Gan,  E. Epifanovsky,  A. T. B. Gilbert,  M. Wormit,  
 J. Kussmann,  A. W. Lange,  A. Behn,  Jia Deng,  Xintian Feng,  D. Ghosh,  
 M. Goldey,  P. R. Horn,  L. D. Jacobson,  I. Kaliman,  T. Kus,  A. Landau,  
 Jie Liu,  E. I. Proynov,  R. M. Richard,  R. P. Steele,  E. J. Sundstrom,  
 H. L. Woodcock III,  P. M. Zimmerman,  D. Zuev,  B. Alam,  B. Albrecht,  
 E. Alguire,  S. A. Baeppler,  D. Barton,  Z. Benda,  Y. A. Bernard,  
 E. J. Berquist,  K. B. Bravaya,  H. Burton,  K. Carter-Fenk,  D. Casanova,  
 Chun-Min Chang,  Yunqing Chen,  A. Chien,  K. D. Closser,  M. P. Coons,  
 S. Coriani,  S. Dasgupta,  A. L. Dempwolff,  M. Diedenhofen,  Hainam Do,  
 R. G. Edgar,  Po-Tung Fang,  S. Faraji,  S. Fatehi,  Qingguo Feng,  
 J. Fosso-Tande,  J. Gayvert,  Qinghui Ge,  A. Ghysels,  G. Gidofalvi,  
 J. Gomes,  J. Gonthier,  A. Gunina,  D. Hait,  M. W. D. Hanson-Heine,  
 P. H. P. Harbach,  A. W. Hauser,  M. F. Herbst,  J. E. Herr,  
 E. G. Hohenstein,  Z. C. Holden,  Kerwin Hui,  B. C. Huynh,  T.-C. Jagau,  
 Hyunjun Ji,  B. Kaduk,  K. Khistyaev,  Jaehoon Kim,  P. Klunzinger,  K. Koh,  
 D. Kosenkov,  L. Koulias,  T. Kowalczyk,  C. M. Krauter,  A. Kunitsa,  
 Ka Un Lao,  A. Laurent,  K. V. Lawler,  Joonho Lee,  D. Lefrancois,  
 S. Lehtola,  D. S. Levine,  Yi-Pei Li,  You-Sheng Lin,  Fenglai Liu,  
 Kuan-Yu Liu,  E. Livshits,  M. Loipersberger,  A. Luenser,  P. Manohar,  
 E. Mansoor,  S. F. Manzer,  Shan-Ping Mao,  Yuezhi Mao,  N. Mardirossian,  
 A. V. Marenich,  T. Markovich,  L. A. Martinez-Martinez,  S. A. Maurer,  
 N. J. Mayhall,  S. C. McKenzie,  J.-M. Mewes,  P. Morgante,  A. F. Morrison,  
 J. W. Mullinax,  K. Nanda,  T. S. Nguyen-Beck,  R. Olivares-Amaya,  
 J. A. Parkhill,  S. K. Paul,  F. Pavosevic,  Zheng Pei,  T. M. Perrine,  
 F. Plasser,  P. Pokhilko,  S. Prager,  A. Prociuk,  E. Ramos,  B. Rana,  
 D. R. Rehn,  F. Rob,  M. Scheurer,  M. Schneider,  N. Sergueev,  
 S. M. Sharada,  S. Sharma,  D. W. Small,  T. Stauch,  C. J. Stein,  
 T. Stein,  Yu-Chuan Su,  S. P. Veccham,  Zhen Tao,  A. J. W. Thom,  
 A. Tkatchenko,  T. Tsuchimochi,  N. M. Tubman,  L. Vogt,  M. L. Vidal,  
 O. Vydrov,  M. A. Watson,  J. Wenzel,  M. de Wergifosse,  T. A. Wesolowski,  
 A. White,  J. Witte,  A. Yamada,  Jun Yang,  K. Yao,  S. Yeganeh,  
 S. R. Yost,  Zhi-Qiang You,  A. Zech,  Igor Ying Zhang,  Xing Zhang,  
 Yan Zhao,  Ying Zhu,  B. R. Brooks,  G. K. L. Chan,  C. J. Cramer,  
 M. S. Gordon,  W. J. Hehre,  A. Klamt,  M. W. Schmidt,  C. D. Sherrill,  
 D. G. Truhlar,  A. Aspuru-Guzik,  R. Baer,  A. T. Bell,  N. A. Besley,  
 Jeng-Da Chai,  A. E. DePrince, III,  R. A. DiStasio Jr.,  A. Dreuw,  
 B. D. Dunietz,  T. R. Furlani,  Chao-Ping Hsu,  Yousung Jung,  Jing Kong,  
 D. S. Lambrecht,  WanZhen Liang,  C. Ochsenfeld,  V. A. Rassolov,  
 L. V. Slipchenko,  J. E. Subotnik,  T. Van Voorhis,  J. M. Herbert,  
 A. I. Krylov,  P. M. W. Gill,  M. Head-Gordon

 Contributors to earlier versions of Q-Chem not listed above: 
 R. D. Adamson,  B. Austin,  J. Baker,  G. J. O. Beran,  K. Brandhorst,  
 S. T. Brown,  E. F. C. Byrd,  A. K. Chakraborty,  C.-L. Cheng,  
 Siu Hung Chien,  D. M. Chipman,  D. L. Crittenden,  H. Dachsel,  
 R. J. Doerksen,  A. D. Dutoi,  L. Fusti-Molnar,  W. A. Goddard III,  
 A. Golubeva-Zadorozhnaya,  S. R. Gwaltney,  G. Hawkins,  A. Heyden,  
 S. Hirata,  G. Kedziora,  F. J. Keil,  C. Kelley,  Jihan Kim,  R. A. King,  
 R. Z. Khaliullin,  P. P. Korambath,  W. Kurlancheek,  A. M. Lee,  M. S. Lee,  
 S. V. Levchenko,  Ching Yeh Lin,  D. Liotard,  R. C. Lochan,  I. Lotan,  
 P. E. Maslen,  N. Nair,  D. P. O'Neill,  D. Neuhauser,  E. Neuscamman,  
 C. M. Oana,  R. Olson,  B. Peters,  R. Peverati,  P. A. Pieniazek,  
 Y. M. Rhee,  J. Ritchie,  M. A. Rohrdanz,  E. Rosta,  N. J. Russ,  
 H. F. Schaefer III,  N. E. Schultz,  N. Shenvi,  A. C. Simmonett,  A. Sodt,  
 D. Stuck,  K. S. Thanthiriwatte,  V. Vanovschi,  Tao Wang,  A. Warshel,  
 C. F. Williams,  Q. Wu,  X. Xu,  W. Zhang

 Please cite Q-Chem as follows:
 Y. Shao et al., Mol. Phys. 113, 184-215 (2015)
 DOI: 10.1080/00268976.2014.952696

 Q-Chem 5.2.2 for Intel X86 EM64T Linux

 Parts of Q-Chem use Armadillo 9.800.1 (Horizon Scraper).
 http://arma.sourceforge.net/

 Q-Chem begins on Fri Dec  3 12:08:47 2021  

Host: node029
0

     Scratch files written to /home/ymao90/scratch/r7.00_frame_0007_spade_B3LYP_dp20211203120846//

Checking the input file for inconsistencies... 	...done.

--------------------------------------------------------------
User input:
--------------------------------------------------------------
$molecule
0 1
--
0 1
C    20.56200   22.26300   28.60200  
C    20.66300   21.18300   29.69200  
C    20.47000   19.80500   29.03900  
C    21.38800   19.48900   27.84700  
C    21.13800   20.55900   26.77200  
C    21.40000   21.96000   27.34900  
H    20.45900   19.06900   29.85300  
H    21.68100   21.33400   30.07100  
H    19.53500   22.57000   28.36800  
H    20.92000   23.20000   29.04600  
H    22.38200   19.42600   28.30600  
H    21.08100   18.48900   27.51500  
H    21.81800   20.43600   25.92100  
H    20.13100   20.50400   26.34000  
H    22.44500   22.15000   27.62300  
H    21.09300   22.67400   26.57500  
H    19.42100   19.79100   28.72000  
N    19.75500   21.50100   30.79300  
H    18.84600   21.83600   30.49800  
C    19.97400   21.18600   32.11700  
H    19.13200   21.43100   32.79000  
O    20.97800   20.65600   32.55700  
--
0 1
C    26.43700   23.79700   29.18800  
H    26.65100   22.91300   28.58300  
H    27.29500   24.47200   29.25200  
H    26.13100   23.36300   30.14300  
S    25.06500   24.72500   28.46700  
C    25.16100   26.05600   29.68500  
H    26.21500   26.34000   29.75200  
H    24.54000   26.94100   29.52500  
H    24.95900   25.54000   30.62700  
O    23.88100   23.88800   28.84100  
C    17.65500   24.13300   24.40500  
H    17.64100   24.74100   25.31300  
H    17.02500   23.24000   24.36600  
H    18.66300   23.71300   24.45600  
S    17.51900   25.17400   22.93400  
C    15.98900   25.89400   23.57200  
H    16.16200   26.36800   24.54200  
H    15.72800   26.54500   22.73500  
H    15.30100   25.04600   23.60800  
O    17.02600   24.31800   21.81000  
C    16.15300   18.93000   20.56400  
H    15.50600   19.39300   19.81400  
H    16.51800   17.91100   20.41100  
H    15.38100   18.83900   21.33200  
S    17.41600   20.05200   21.20400  
C    18.72800   19.87400   19.97400  
H    18.42800   20.09400   18.94600  
H    19.53400   20.57500   20.20600  
H    19.11800   18.86000   20.09500  
O    17.93900   19.41500   22.45300  
C    23.70800   16.23800   27.91600  
H    23.87300   17.30700   27.76200  
H    24.67100   15.74900   28.08600  
H    23.25900   15.78700   27.02800  
S    22.78500   15.72600   29.38300  
C    24.12000   15.79800   30.59900  
H    23.69000   15.61000   31.58700  
H    24.86900   15.08100   30.25400  
H    24.51700   16.80400   30.75700  
O    22.77600   14.23300   29.27600  
C    27.94400   18.63500   27.66700  
H    28.44300   19.25100   28.41900  
H    28.33100   18.77500   26.65500  
H    26.90800   18.96500   27.55500  
S    28.00000   16.91500   28.21800  
C    29.78500   16.66900   28.34200  
H    30.14100   16.34000   27.36200  
H    30.23000   17.60400   28.69200  
H    30.02100   15.87400   29.05400  
O    27.60100   16.15800   26.99000  
C    25.39800   22.19900   34.92200  
H    26.26400   21.66100   35.31500  
H    25.31100   21.91900   33.86900  
H    25.42700   23.28700   35.01900  
S    24.01900   21.43200   35.80200  
C    24.47700   21.77700   37.51600  
H    25.52900   21.52900   37.68300  
H    24.31100   22.85300   37.60400  
H    23.82000   21.25400   38.21600  
O    24.39600   19.98300   35.79300  
C    20.99700   22.04900   37.32300  
H    20.42900   21.23100   37.77300  
H    21.00900   21.94200   36.23600  
H    21.94300   22.04900   37.87000  
S    20.02800   23.54500   37.62500  
C    18.51100   22.79900   36.98700  
H    17.98900   22.23300   37.76300  
H    17.80100   23.58600   36.72300  
H    18.75500   22.28200   36.05500  
O    20.45800   24.53300   36.58500  
C    19.29800   18.96600   35.64500  
H    19.26400   17.89300   35.85000  
H    20.01200   19.07700   34.82400  
H    19.65600   19.55200   36.49600  
S    17.61200   19.34300   35.11800  
C    17.10400   17.61400   34.99200  
H    17.12100   17.08200   35.94700  
H    16.06600   17.66800   34.65500  
H    17.54600   16.98500   34.21400  
O    17.64900   19.75900   33.68000  
C    16.38500   20.75500   30.09600  
H    15.47900   20.15600   29.98100  
H    17.22500   20.19800   29.67300  
H    16.60300   20.92900   31.15300  
S    16.22500   22.42700   29.42900  
C    16.33900   21.89300   27.70700  
H    15.39600   21.44200   27.38700  
H    16.55000   22.75600   27.07000  
H    17.19500   21.22100   27.60600  
O    17.57700   22.94700   29.80800  
C    19.02600   16.50600   25.70500  
H    20.03000   16.91300   25.84800  
H    18.75500   16.48800   24.64600  
H    18.30200   16.94900   26.39400  
S    19.09200   14.73100   26.03800  
C    20.54500   14.41000   25.01400  
H    21.34800   14.97800   25.49000  
H    20.62400   13.32900   25.15600  
H    20.34500   14.71800   23.98500  
O    17.95100   14.16800   25.24900  
C    26.54200   20.86700   30.81800  
H    27.21400   21.20100   30.02300  
H    26.58300   21.62000   31.60900  
H    26.91100   19.88200   31.11300  
S    24.94800   20.68700   29.98500  
C    24.02100   20.79600   31.53200  
H    23.11500   20.24600   31.26200  
H    24.58100   20.32400   32.34300  
H    23.75100   21.84200   31.70000  
O    24.81400   19.25300   29.57500  
C    15.52700   16.75300   24.38900  
H    15.93700   17.73700   24.14500  
H    16.33600   16.17000   24.83500  
H    15.22100   16.22300   23.48300  
S    14.15300   16.93800   25.54800  
C    15.08800   16.91200   27.09400  
H    15.86900   16.14800   27.13600  
H    15.39400   17.95100   27.23600  
H    14.28200   16.69200   27.79900  
O    13.53200   15.57700   25.60200  
C    22.03700   24.01500   31.84000  
H    22.13900   23.08900   32.41200  
H    21.26800   23.95200   31.06600  
H    23.00600   24.25500   31.39500  
S    21.72000   25.35500   33.01000  
C    20.07900   24.76300   33.48000  
H    19.60700   25.66000   33.88800  
H    19.55300   24.39800   32.59400  
H    20.09600   24.09600   34.34700  
O    21.32200   26.36500   31.97900  
C    20.59500   26.70700   28.48500  
H    20.62000   26.10600   27.57200  
H    21.01000   26.15000   29.32900  
H    19.58900   27.03300   28.76000  
S    21.51800   28.18600   28.00800  
C    21.00300   29.09400   29.48200  
H    20.00700   29.51900   29.32800  
H    21.01300   28.36200   30.29400  
H    21.63300   29.93900   29.77200  
O    20.68000   28.75600   26.90500  
C    14.50400   20.43700   36.06200  
H    14.54900   19.35500   36.20600  
H    15.45000   20.88000   35.74100  
H    14.06800   20.94100   36.92900  
S    13.60600   20.84700   34.54800  
C    14.38400   19.61400   33.47900  
H    13.67400   19.46000   32.66300  
H    15.33400   20.00200   33.10100  
H    14.39400   18.66000   34.01300  
O    13.99800   22.21900   34.09500  
C    22.25100   17.62700   33.32900  
H    21.84000   18.63000   33.47000  
H    23.33800   17.70600   33.40900  
H    22.00700   17.08400   32.41200  
S    21.72200   16.58300   34.70600  
C    22.61000   17.50300   35.98400  
H    23.57800   17.84600   35.60800  
H    21.96700   18.36100   36.19100  
H    22.82000   16.94600   36.90100  
O    22.69600   15.48000   34.43000  
C    20.96600   22.05100   23.16500  
H    21.07500   21.11900   23.72400  
H    21.16800   22.76900   23.96400  
H    19.92400   22.03000   22.83300  
S    22.02400   22.26900   21.71700  
C    20.88100   23.37400   20.85800  
H    21.22000   23.55200   19.83400  
H    19.96700   22.77900   20.79200  
H    20.70300   24.31700   21.38000  
O    22.02000   20.99800   20.92600  
C    12.28600   21.31500   30.55200  
H    12.26400   20.53000   31.31300  
H    13.22800   21.86600   30.60800  
H    11.42700   21.99000   30.54900  
S    12.31400   20.42900   28.97700  
C    11.10700   19.20400   29.53300  
H    11.49700   18.70500   30.42400  
H    10.18300   19.68000   29.86900  
H    10.98300   18.48200   28.72200  
O    13.60300   19.69100   28.79100  
C    23.90500   25.88300   24.58900  
H    23.33600   25.13200   24.03700  
H    24.25700   25.47100   25.53800  
H    23.30700   26.78400   24.74800  
S    25.34800   26.41300   23.63900  
C    24.57500   26.70900   22.03300  
H    24.10000   27.68800   22.13900  
H    25.43100   26.74000   21.35400  
H    24.01100   25.84400   21.67600  
O    26.04800   25.10100   23.46400  
C    27.65100   18.70900   35.57600  
H    28.56100   18.19200   35.25800  
H    27.97900   19.73700   35.40400  
H    27.37000   18.33900   36.56600  
S    26.48300   18.33600   34.24900  
C    26.42800   16.54400   34.47200  
H    26.86900   16.00300   33.63100  
H    26.66100   16.23000   35.49300  
H    25.36100   16.37900   34.30800  
O    27.31900   18.55600   33.02700  
C    23.22100   18.70900   22.74400  
H    24.20800   18.37000   23.06800  
H    23.14200   18.78900   21.65700  
H    22.87200   19.62500   23.22700  
S    22.11800   17.36300   23.23300  
C    20.54500   18.25200   23.20700  
H    20.53900   19.05800   23.94500  
H    20.40100   18.68300   22.21300  
H    19.75700   17.54400   23.47700  
O    22.27100   17.37500   24.72300  
C    19.62200   28.42500   21.96700  
H    19.01400   29.25100   22.34600  
H    20.43700   28.83100   21.36100  
H    19.07200   27.71800   21.34100  
S    20.49000   27.65400   23.35200  
C    21.39600   29.15900   23.77400  
H    21.96100   29.50900   22.90700  
H    20.67300   29.93600   24.03700  
H    21.94300   28.99100   24.70500  
O    21.51400   26.71200   22.79700  
C    24.78500   19.64800   25.60800  
H    25.59100   19.50200   24.88500  
H    24.96300   18.90700   26.39100  
H    23.75500   19.48300   25.28100  
S    25.05300   21.36800   26.09200  
C    25.48700   22.06100   24.48100  
H    24.75300   21.55600   23.84700  
H    25.42800   23.14100   24.64000  
H    26.47900   21.68400   24.22300  
O    26.40300   21.23700   26.72600  
C    26.22800   14.14500   25.07000  
H    26.71300   13.30400   24.56700  
H    26.86000   15.00800   25.29300  
H    25.73600   13.83200   25.99500  
S    25.00600   14.83900   23.93400  
C    23.72400   13.56600   23.94600  
H    23.17800   13.64300   24.88900  
H    22.99900   13.84000   23.17500  
H    24.11900   12.57800   23.69500  
O    25.60500   14.67700   22.57100  
C    16.66400   25.84700   28.10000  
H    16.90200   25.12100   28.88200  
H    16.73200   25.57500   27.04400  
H    17.28000   26.73900   28.24400  
S    14.98500   26.47800   28.31900  
C    14.03500   25.04700   27.75800  
H    13.02100   25.36700   28.00900  
H    14.30600   24.93000   26.70500  
H    14.35300   24.14900   28.29400  
O    14.88400   27.45200   27.18700  
C    18.48400   14.89000   30.33800  
H    17.40000   14.75500   30.34000  
H    18.98400   14.28500   29.57800  
H    18.87000   14.65700   31.33400  
S    18.91000   16.61100   29.98800  
C    18.08800   17.28700   31.44800  
H    18.83400   17.74000   32.10600  
H    17.38400   18.06500   31.14100  
H    17.55800   16.49300   31.98000  
O    17.95900   16.83200   28.85300  
C    15.07000   25.34200   34.45400  
H    15.91600   25.98100   34.72000  
H    14.07800   25.80100   34.44500  
H    15.03400   24.56000   35.21700  
S    15.42900   24.52000   32.88600  
C    16.84300   23.51700   33.39400  
H    17.53000   24.10300   34.01000  
H    16.46700   22.61400   33.88100  
H    17.41600   23.12100   32.55100  
O    16.11900   25.53900   32.03300  
C    14.41200   20.55700   25.00600  
H    14.16800   20.41700   26.06200  
H    14.13200   19.65000   24.46400  
H    15.45700   20.82100   24.82200  
S    13.43700   21.87900   24.25500  
C    14.18700   21.75600   22.61500  
H    14.21500   20.69300   22.36000  
H    13.63500   22.42200   21.94800  
H    15.22500   22.09500   22.66700  
O    13.99700   23.17800   24.74500  
$end

$rem
JOBTYPE  SP
METHOD  B3LYP
BASIS  6-31+G(D)
SYMMETRY  FALSE
SYM_IGNORE  TRUE
MEM_TOTAL  16000
MEM_STATIC  8000
MAX_SUB_FILE_NUM  16000
BASIS_LIN_DEP_THRESH  6
THRESH  14
SCF_CONVERGENCE  8
GEN_SCFMAN  TRUE
SCF_GUESS  SAD
FD_MAT_VEC_PROD  FALSE
XC_GRID  000075000302
NL_GRID  1
MAX_SCF_CYCLES  200
ENV_METHOD  B3LYP
GEN_SCFMAN_EMBED  TRUE
SPADE_PARTITION  TRUE
$end

$development
embedding_early_stop  1
$end

--------------------------------------------------------------
 ----------------------------------------------------------------
             Standard Nuclear Orientation (Angstroms)
    I     Atom           X                Y                Z
 ----------------------------------------------------------------
    1      C      20.5620000000    22.2630000000    28.6020000000
    2      C      20.6630000000    21.1830000000    29.6920000000
    3      C      20.4700000000    19.8050000000    29.0390000000
    4      C      21.3880000000    19.4890000000    27.8470000000
    5      C      21.1380000000    20.5590000000    26.7720000000
    6      C      21.4000000000    21.9600000000    27.3490000000
    7      H      20.4590000000    19.0690000000    29.8530000000
    8      H      21.6810000000    21.3340000000    30.0710000000
    9      H      19.5350000000    22.5700000000    28.3680000000
   10      H      20.9200000000    23.2000000000    29.0460000000
   11      H      22.3820000000    19.4260000000    28.3060000000
   12      H      21.0810000000    18.4890000000    27.5150000000
   13      H      21.8180000000    20.4360000000    25.9210000000
   14      H      20.1310000000    20.5040000000    26.3400000000
   15      H      22.4450000000    22.1500000000    27.6230000000
   16      H      21.0930000000    22.6740000000    26.5750000000
   17      H      19.4210000000    19.7910000000    28.7200000000
   18      N      19.7550000000    21.5010000000    30.7930000000
   19      H      18.8460000000    21.8360000000    30.4980000000
   20      C      19.9740000000    21.1860000000    32.1170000000
   21      H      19.1320000000    21.4310000000    32.7900000000
   22      O      20.9780000000    20.6560000000    32.5570000000
   23      C      26.4370000000    23.7970000000    29.1880000000
   24      H      26.6510000000    22.9130000000    28.5830000000
   25      H      27.2950000000    24.4720000000    29.2520000000
   26      H      26.1310000000    23.3630000000    30.1430000000
   27      S      25.0650000000    24.7250000000    28.4670000000
   28      C      25.1610000000    26.0560000000    29.6850000000
   29      H      26.2150000000    26.3400000000    29.7520000000
   30      H      24.5400000000    26.9410000000    29.5250000000
   31      H      24.9590000000    25.5400000000    30.6270000000
   32      O      23.8810000000    23.8880000000    28.8410000000
   33      C      17.6550000000    24.1330000000    24.4050000000
   34      H      17.6410000000    24.7410000000    25.3130000000
   35      H      17.0250000000    23.2400000000    24.3660000000
   36      H      18.6630000000    23.7130000000    24.4560000000
   37      S      17.5190000000    25.1740000000    22.9340000000
   38      C      15.9890000000    25.8940000000    23.5720000000
   39      H      16.1620000000    26.3680000000    24.5420000000
   40      H      15.7280000000    26.5450000000    22.7350000000
   41      H      15.3010000000    25.0460000000    23.6080000000
   42      O      17.0260000000    24.3180000000    21.8100000000
   43      C      16.1530000000    18.9300000000    20.5640000000
   44      H      15.5060000000    19.3930000000    19.8140000000
   45      H      16.5180000000    17.9110000000    20.4110000000
   46      H      15.3810000000    18.8390000000    21.3320000000
   47      S      17.4160000000    20.0520000000    21.2040000000
   48      C      18.7280000000    19.8740000000    19.9740000000
   49      H      18.4280000000    20.0940000000    18.9460000000
   50      H      19.5340000000    20.5750000000    20.2060000000
   51      H      19.1180000000    18.8600000000    20.0950000000
   52      O      17.9390000000    19.4150000000    22.4530000000
   53      C      23.7080000000    16.2380000000    27.9160000000
   54      H      23.8730000000    17.3070000000    27.7620000000
   55      H      24.6710000000    15.7490000000    28.0860000000
   56      H      23.2590000000    15.7870000000    27.0280000000
   57      S      22.7850000000    15.7260000000    29.3830000000
   58      C      24.1200000000    15.7980000000    30.5990000000
   59      H      23.6900000000    15.6100000000    31.5870000000
   60      H      24.8690000000    15.0810000000    30.2540000000
   61      H      24.5170000000    16.8040000000    30.7570000000
   62      O      22.7760000000    14.2330000000    29.2760000000
   63      C      27.9440000000    18.6350000000    27.6670000000
   64      H      28.4430000000    19.2510000000    28.4190000000
   65      H      28.3310000000    18.7750000000    26.6550000000
   66      H      26.9080000000    18.9650000000    27.5550000000
   67      S      28.0000000000    16.9150000000    28.2180000000
   68      C      29.7850000000    16.6690000000    28.3420000000
   69      H      30.1410000000    16.3400000000    27.3620000000
   70      H      30.2300000000    17.6040000000    28.6920000000
   71      H      30.0210000000    15.8740000000    29.0540000000
   72      O      27.6010000000    16.1580000000    26.9900000000
   73      C      25.3980000000    22.1990000000    34.9220000000
   74      H      26.2640000000    21.6610000000    35.3150000000
   75      H      25.3110000000    21.9190000000    33.8690000000
   76      H      25.4270000000    23.2870000000    35.0190000000
   77      S      24.0190000000    21.4320000000    35.8020000000
   78      C      24.4770000000    21.7770000000    37.5160000000
   79      H      25.5290000000    21.5290000000    37.6830000000
   80      H      24.3110000000    22.8530000000    37.6040000000
   81      H      23.8200000000    21.2540000000    38.2160000000
   82      O      24.3960000000    19.9830000000    35.7930000000
   83      C      20.9970000000    22.0490000000    37.3230000000
   84      H      20.4290000000    21.2310000000    37.7730000000
   85      H      21.0090000000    21.9420000000    36.2360000000
   86      H      21.9430000000    22.0490000000    37.8700000000
   87      S      20.0280000000    23.5450000000    37.6250000000
   88      C      18.5110000000    22.7990000000    36.9870000000
   89      H      17.9890000000    22.2330000000    37.7630000000
   90      H      17.8010000000    23.5860000000    36.7230000000
   91      H      18.7550000000    22.2820000000    36.0550000000
   92      O      20.4580000000    24.5330000000    36.5850000000
   93      C      19.2980000000    18.9660000000    35.6450000000
   94      H      19.2640000000    17.8930000000    35.8500000000
   95      H      20.0120000000    19.0770000000    34.8240000000
   96      H      19.6560000000    19.5520000000    36.4960000000
   97      S      17.6120000000    19.3430000000    35.1180000000
   98      C      17.1040000000    17.6140000000    34.9920000000
   99      H      17.1210000000    17.0820000000    35.9470000000
  100      H      16.0660000000    17.6680000000    34.6550000000
  101      H      17.5460000000    16.9850000000    34.2140000000
  102      O      17.6490000000    19.7590000000    33.6800000000
  103      C      16.3850000000    20.7550000000    30.0960000000
  104      H      15.4790000000    20.1560000000    29.9810000000
  105      H      17.2250000000    20.1980000000    29.6730000000
  106      H      16.6030000000    20.9290000000    31.1530000000
  107      S      16.2250000000    22.4270000000    29.4290000000
  108      C      16.3390000000    21.8930000000    27.7070000000
  109      H      15.3960000000    21.4420000000    27.3870000000
  110      H      16.5500000000    22.7560000000    27.0700000000
  111      H      17.1950000000    21.2210000000    27.6060000000
  112      O      17.5770000000    22.9470000000    29.8080000000
  113      C      19.0260000000    16.5060000000    25.7050000000
  114      H      20.0300000000    16.9130000000    25.8480000000
  115      H      18.7550000000    16.4880000000    24.6460000000
  116      H      18.3020000000    16.9490000000    26.3940000000
  117      S      19.0920000000    14.7310000000    26.0380000000
  118      C      20.5450000000    14.4100000000    25.0140000000
  119      H      21.3480000000    14.9780000000    25.4900000000
  120      H      20.6240000000    13.3290000000    25.1560000000
  121      H      20.3450000000    14.7180000000    23.9850000000
  122      O      17.9510000000    14.1680000000    25.2490000000
  123      C      26.5420000000    20.8670000000    30.8180000000
  124      H      27.2140000000    21.2010000000    30.0230000000
  125      H      26.5830000000    21.6200000000    31.6090000000
  126      H      26.9110000000    19.8820000000    31.1130000000
  127      S      24.9480000000    20.6870000000    29.9850000000
  128      C      24.0210000000    20.7960000000    31.5320000000
  129      H      23.1150000000    20.2460000000    31.2620000000
  130      H      24.5810000000    20.3240000000    32.3430000000
  131      H      23.7510000000    21.8420000000    31.7000000000
  132      O      24.8140000000    19.2530000000    29.5750000000
  133      C      15.5270000000    16.7530000000    24.3890000000
  134      H      15.9370000000    17.7370000000    24.1450000000
  135      H      16.3360000000    16.1700000000    24.8350000000
  136      H      15.2210000000    16.2230000000    23.4830000000
  137      S      14.1530000000    16.9380000000    25.5480000000
  138      C      15.0880000000    16.9120000000    27.0940000000
  139      H      15.8690000000    16.1480000000    27.1360000000
  140      H      15.3940000000    17.9510000000    27.2360000000
  141      H      14.2820000000    16.6920000000    27.7990000000
  142      O      13.5320000000    15.5770000000    25.6020000000
  143      C      22.0370000000    24.0150000000    31.8400000000
  144      H      22.1390000000    23.0890000000    32.4120000000
  145      H      21.2680000000    23.9520000000    31.0660000000
  146      H      23.0060000000    24.2550000000    31.3950000000
  147      S      21.7200000000    25.3550000000    33.0100000000
  148      C      20.0790000000    24.7630000000    33.4800000000
  149      H      19.6070000000    25.6600000000    33.8880000000
  150      H      19.5530000000    24.3980000000    32.5940000000
  151      H      20.0960000000    24.0960000000    34.3470000000
  152      O      21.3220000000    26.3650000000    31.9790000000
  153      C      20.5950000000    26.7070000000    28.4850000000
  154      H      20.6200000000    26.1060000000    27.5720000000
  155      H      21.0100000000    26.1500000000    29.3290000000
  156      H      19.5890000000    27.0330000000    28.7600000000
  157      S      21.5180000000    28.1860000000    28.0080000000
  158      C      21.0030000000    29.0940000000    29.4820000000
  159      H      20.0070000000    29.5190000000    29.3280000000
  160      H      21.0130000000    28.3620000000    30.2940000000
  161      H      21.6330000000    29.9390000000    29.7720000000
  162      O      20.6800000000    28.7560000000    26.9050000000
  163      C      14.5040000000    20.4370000000    36.0620000000
  164      H      14.5490000000    19.3550000000    36.2060000000
  165      H      15.4500000000    20.8800000000    35.7410000000
  166      H      14.0680000000    20.9410000000    36.9290000000
  167      S      13.6060000000    20.8470000000    34.5480000000
  168      C      14.3840000000    19.6140000000    33.4790000000
  169      H      13.6740000000    19.4600000000    32.6630000000
  170      H      15.3340000000    20.0020000000    33.1010000000
  171      H      14.3940000000    18.6600000000    34.0130000000
  172      O      13.9980000000    22.2190000000    34.0950000000
  173      C      22.2510000000    17.6270000000    33.3290000000
  174      H      21.8400000000    18.6300000000    33.4700000000
  175      H      23.3380000000    17.7060000000    33.4090000000
  176      H      22.0070000000    17.0840000000    32.4120000000
  177      S      21.7220000000    16.5830000000    34.7060000000
  178      C      22.6100000000    17.5030000000    35.9840000000
  179      H      23.5780000000    17.8460000000    35.6080000000
  180      H      21.9670000000    18.3610000000    36.1910000000
  181      H      22.8200000000    16.9460000000    36.9010000000
  182      O      22.6960000000    15.4800000000    34.4300000000
  183      C      20.9660000000    22.0510000000    23.1650000000
  184      H      21.0750000000    21.1190000000    23.7240000000
  185      H      21.1680000000    22.7690000000    23.9640000000
  186      H      19.9240000000    22.0300000000    22.8330000000
  187      S      22.0240000000    22.2690000000    21.7170000000
  188      C      20.8810000000    23.3740000000    20.8580000000
  189      H      21.2200000000    23.5520000000    19.8340000000
  190      H      19.9670000000    22.7790000000    20.7920000000
  191      H      20.7030000000    24.3170000000    21.3800000000
  192      O      22.0200000000    20.9980000000    20.9260000000
  193      C      12.2860000000    21.3150000000    30.5520000000
  194      H      12.2640000000    20.5300000000    31.3130000000
  195      H      13.2280000000    21.8660000000    30.6080000000
  196      H      11.4270000000    21.9900000000    30.5490000000
  197      S      12.3140000000    20.4290000000    28.9770000000
  198      C      11.1070000000    19.2040000000    29.5330000000
  199      H      11.4970000000    18.7050000000    30.4240000000
  200      H      10.1830000000    19.6800000000    29.8690000000
  201      H      10.9830000000    18.4820000000    28.7220000000
  202      O      13.6030000000    19.6910000000    28.7910000000
  203      C      23.9050000000    25.8830000000    24.5890000000
  204      H      23.3360000000    25.1320000000    24.0370000000
  205      H      24.2570000000    25.4710000000    25.5380000000
  206      H      23.3070000000    26.7840000000    24.7480000000
  207      S      25.3480000000    26.4130000000    23.6390000000
  208      C      24.5750000000    26.7090000000    22.0330000000
  209      H      24.1000000000    27.6880000000    22.1390000000
  210      H      25.4310000000    26.7400000000    21.3540000000
  211      H      24.0110000000    25.8440000000    21.6760000000
  212      O      26.0480000000    25.1010000000    23.4640000000
  213      C      27.6510000000    18.7090000000    35.5760000000
  214      H      28.5610000000    18.1920000000    35.2580000000
  215      H      27.9790000000    19.7370000000    35.4040000000
  216      H      27.3700000000    18.3390000000    36.5660000000
  217      S      26.4830000000    18.3360000000    34.2490000000
  218      C      26.4280000000    16.5440000000    34.4720000000
  219      H      26.8690000000    16.0030000000    33.6310000000
  220      H      26.6610000000    16.2300000000    35.4930000000
  221      H      25.3610000000    16.3790000000    34.3080000000
  222      O      27.3190000000    18.5560000000    33.0270000000
  223      C      23.2210000000    18.7090000000    22.7440000000
  224      H      24.2080000000    18.3700000000    23.0680000000
  225      H      23.1420000000    18.7890000000    21.6570000000
  226      H      22.8720000000    19.6250000000    23.2270000000
  227      S      22.1180000000    17.3630000000    23.2330000000
  228      C      20.5450000000    18.2520000000    23.2070000000
  229      H      20.5390000000    19.0580000000    23.9450000000
  230      H      20.4010000000    18.6830000000    22.2130000000
  231      H      19.7570000000    17.5440000000    23.4770000000
  232      O      22.2710000000    17.3750000000    24.7230000000
  233      C      19.6220000000    28.4250000000    21.9670000000
  234      H      19.0140000000    29.2510000000    22.3460000000
  235      H      20.4370000000    28.8310000000    21.3610000000
  236      H      19.0720000000    27.7180000000    21.3410000000
  237      S      20.4900000000    27.6540000000    23.3520000000
  238      C      21.3960000000    29.1590000000    23.7740000000
  239      H      21.9610000000    29.5090000000    22.9070000000
  240      H      20.6730000000    29.9360000000    24.0370000000
  241      H      21.9430000000    28.9910000000    24.7050000000
  242      O      21.5140000000    26.7120000000    22.7970000000
  243      C      24.7850000000    19.6480000000    25.6080000000
  244      H      25.5910000000    19.5020000000    24.8850000000
  245      H      24.9630000000    18.9070000000    26.3910000000
  246      H      23.7550000000    19.4830000000    25.2810000000
  247      S      25.0530000000    21.3680000000    26.0920000000
  248      C      25.4870000000    22.0610000000    24.4810000000
  249      H      24.7530000000    21.5560000000    23.8470000000
  250      H      25.4280000000    23.1410000000    24.6400000000
  251      H      26.4790000000    21.6840000000    24.2230000000
  252      O      26.4030000000    21.2370000000    26.7260000000
  253      C      26.2280000000    14.1450000000    25.0700000000
  254      H      26.7130000000    13.3040000000    24.5670000000
  255      H      26.8600000000    15.0080000000    25.2930000000
  256      H      25.7360000000    13.8320000000    25.9950000000
  257      S      25.0060000000    14.8390000000    23.9340000000
  258      C      23.7240000000    13.5660000000    23.9460000000
  259      H      23.1780000000    13.6430000000    24.8890000000
  260      H      22.9990000000    13.8400000000    23.1750000000
  261      H      24.1190000000    12.5780000000    23.6950000000
  262      O      25.6050000000    14.6770000000    22.5710000000
  263      C      16.6640000000    25.8470000000    28.1000000000
  264      H      16.9020000000    25.1210000000    28.8820000000
  265      H      16.7320000000    25.5750000000    27.0440000000
  266      H      17.2800000000    26.7390000000    28.2440000000
  267      S      14.9850000000    26.4780000000    28.3190000000
  268      C      14.0350000000    25.0470000000    27.7580000000
  269      H      13.0210000000    25.3670000000    28.0090000000
  270      H      14.3060000000    24.9300000000    26.7050000000
  271      H      14.3530000000    24.1490000000    28.2940000000
  272      O      14.8840000000    27.4520000000    27.1870000000
  273      C      18.4840000000    14.8900000000    30.3380000000
  274      H      17.4000000000    14.7550000000    30.3400000000
  275      H      18.9840000000    14.2850000000    29.5780000000
  276      H      18.8700000000    14.6570000000    31.3340000000
  277      S      18.9100000000    16.6110000000    29.9880000000
  278      C      18.0880000000    17.2870000000    31.4480000000
  279      H      18.8340000000    17.7400000000    32.1060000000
  280      H      17.3840000000    18.0650000000    31.1410000000
  281      H      17.5580000000    16.4930000000    31.9800000000
  282      O      17.9590000000    16.8320000000    28.8530000000
  283      C      15.0700000000    25.3420000000    34.4540000000
  284      H      15.9160000000    25.9810000000    34.7200000000
  285      H      14.0780000000    25.8010000000    34.4450000000
  286      H      15.0340000000    24.5600000000    35.2170000000
  287      S      15.4290000000    24.5200000000    32.8860000000
  288      C      16.8430000000    23.5170000000    33.3940000000
  289      H      17.5300000000    24.1030000000    34.0100000000
  290      H      16.4670000000    22.6140000000    33.8810000000
  291      H      17.4160000000    23.1210000000    32.5510000000
  292      O      16.1190000000    25.5390000000    32.0330000000
  293      C      14.4120000000    20.5570000000    25.0060000000
  294      H      14.1680000000    20.4170000000    26.0620000000
  295      H      14.1320000000    19.6500000000    24.4640000000
  296      H      15.4570000000    20.8210000000    24.8220000000
  297      S      13.4370000000    21.8790000000    24.2550000000
  298      C      14.1870000000    21.7560000000    22.6150000000
  299      H      14.2150000000    20.6930000000    22.3600000000
  300      H      13.6350000000    22.4220000000    21.9480000000
  301      H      15.2250000000    22.0950000000    22.6670000000
  302      O      13.9970000000    23.1780000000    24.7450000000
 ----------------------------------------------------------------
 Nuclear Repulsion Energy =       50830.00584020 hartrees
 There are      623 alpha and      623 beta electrons
 Requested basis set is 6-31+G(d)
 There are 995 shells and 2773 basis functions

 Total QAlloc Memory Limit  16000 MB
 Mega-Array Size      7821 MB
 MEM_STATIC part      8000 MB
 A cutoff of  1.0D-14 yielded 185404 shell pairs
 There are   1611366 function pairs
 Smallest overlap matrix eigenvalue = 4.39E-07
 Linear dependence detected in AO basis
 Tighter screening thresholds may be required for diffuse basis sets
 Use S2THRESH > 14 and THRESH = 14 in case of SCF convergence issues
 Number of orthogonalized atomic orbitals = 2771
 Maximum deviation from orthogonality = 1.071E-10

 Scale SEOQF with 1.000000e-03/1.000000e-03/1.000000e-03

 Standard Electronic Orientation quadrupole field applied
 Nucleus-field energy     =    -0.0000005237 hartrees
 Guess from superposition of atomic densities
 Warning:  Energy on first SCF cycle will be non-variational
 SAD guess density has 1246.000002 electrons

 -----------------------------------------------------------------------
  General SCF calculation program by
  Eric Jon Sundstrom, Paul Horn, Yuezhi Mao, Dmitri Zuev, Alec White,
  David Stuck, Shaama M.S., Shane Yost, Joonho Lee, David Small,
  Daniel Levine, Susi Lehtola, Hugh Burton, Evgeny Epifanovsky,
  Bang C. Huynh
 -----------------------------------------------------------------------
=================================================
        Doing projection-based embedding         
      F. Manby et al. JCTC, 8, 2564 (2012)       
=================================================

****************************************************
   Low-level SCF calculation for the whole system   
****************************************************
----------------------------------------------
 Summary of the low-level theory: 
 Exchange:     0.2000 Hartree-Fock + 0.0800 Slater + 0.7200 B88
 Correlation:  0.1900 VWN1RPA + 0.8100 LYP
 Using Euler-Maclaurin-Lebedev (75,302) quadrature formula
----------------------------------------------
 using 16 threads for integral computing
 -------------------------------------------------------
 OpenMP Integral computing Module                
 Release: version 2.0, May 2017, Q-Chem Inc. Pleasanton 
 -------------------------------------------------------
 A restricted SCF calculation will be
 performed using DIIS
 SCF converges when DIIS error is below 1.0e-08
 ---------------------------------------
  Cycle       Energy         DIIS error
 ---------------------------------------
    1  -15913.7575133407      1.33e-02  
    2  -15888.8849627690      2.47e-03  
    3  -15868.6728505204      5.06e-03  
    4  -15883.1993787156      2.12e-03  
    5  -15891.6867231347      1.13e-03  
    6  -15893.7854179065      3.68e-04  
    7  -15893.8591623960      2.82e-04  
    8  -15893.9116564719      1.03e-04  
    9  -15893.9198039541      3.52e-05  
   10  -15893.9209207326      1.97e-05  
   11  -15893.9212419340      1.25e-05  
   12  -15893.9213839990      5.24e-06  
   13  -15893.9214115835      1.50e-06  
   14  -15893.9214136715      5.75e-07  
   15  -15893.9214139071      2.23e-07  
   16  -15893.9214139454      5.63e-08  
   17  -15893.9214139477      2.29e-08  
   18  -15893.9214139482      8.68e-09  Convergence criterion met
 ---------------------------------------
 SCF time:   CPU 249075.71s  wall 15745.00s 
 SCF   energy in the final basis set =   -15893.9214139482
 Total energy in the final basis set =   -15893.9214139482

****************************************************
             Start embedding calculation            
****************************************************
----------------------------------------------
 Summary of the high-level theory: 
 Exchange:     0.2000 Hartree-Fock + 0.0800 Slater + 0.7200 B88
 Correlation:  0.1900 VWN1RPA + 0.8100 LYP
 Using Euler-Maclaurin-Lebedev (75,302) quadrature formula
----------------------------------------------
Doing R-in-R Embedding Calculation
Number of fragments: 2
Embedded fragment(s): 1 
NOcc for each fragment
           35
          588
NBasis for each fragment
          197
         2576
Variational space of the embedded problem: 
NOcc (active)  = 35
NOcc (fixed)   = 588
NVir (total)   = 2148
Read converged orbitals from disk
=========================================================
       Doing SPADE partition for the orbital space       
     D. CLaudino and N. Mayhall JCTC 15, 1053 (2019)     
=========================================================
SPADE singular values:
 1.0000 1.0000 1.0000 1.0000 1.0000 1.0000 1.0000 1.0000 1.0000 0.9999
 0.9998 0.9997 0.9997 0.9996 0.9994 0.9993 0.9990 0.9989 0.9979 0.9976
 0.9973 0.9966 0.9962 0.9959 0.9953 0.9946 0.9937 0.9931 0.9927 0.9916
 0.9913 0.9902 0.9880 0.9852 0.9767 0.2317 0.2050 0.1750 0.1640 0.1525
 0.1425 0.1311 0.1238 0.1198 0.1036 0.0987 0.0949 0.0869 0.0822 0.0705
 0.0657 0.0617 0.0527 0.0491 0.0448 0.0427 0.0407 0.0371 0.0369 0.0356
 0.0338 0.0296 0.0288 0.0241 0.0237 0.0225 0.0218 0.0202 0.0193 0.0183
 0.0168 0.0163 0.0154 0.0148 0.0134 0.0128 0.0115 0.0114 0.0109 0.0105
 0.0102 0.0095 0.0092 0.0089 0.0083 0.0081 0.0075 0.0071 0.0068 0.0065
 0.0058 0.0058 0.0057 0.0054 0.0053 0.0051 0.0046 0.0046 0.0043 0.0039
 0.0038 0.0037 0.0033 0.0032 0.0031 0.0029 0.0029 0.0026 0.0026 0.0025
 0.0024 0.0022 0.0021 0.0020 0.0019 0.0018 0.0017 0.0017 0.0016 0.0016
 0.0015 0.0015 0.0014 0.0013 0.0012 0.0012 0.0012 0.0011 0.0011 0.0010
 0.0010 0.0009 0.0009 0.0009 0.0008 0.0008 0.0008 0.0008 0.0007 0.0007
 0.0007 0.0006 0.0006 0.0006 0.0006 0.0005 0.0005 0.0005 0.0004 0.0004
 0.0004 0.0004 0.0004 0.0004 0.0003 0.0003 0.0003 0.0003 0.0003 0.0003
 0.0003 0.0003 0.0003 0.0002 0.0002 0.0002 0.0002 0.0002 0.0002 0.0002
 0.0002 0.0002 0.0002 0.0002 0.0002 0.0002 0.0002 0.0002 0.0001 0.0001
 0.0001 0.0001 0.0001 0.0001 0.0001 0.0001 0.0001 0.0001 0.0001 0.0001
 0.0001 0.0001 0.0001 0.0001 0.0001 0.0001 0.0001
Early stop requested!
588 environment occs will be part of frozen-core in future post-HF calculations
 
 --------------------------------------------------------------
 
                    Orbital Energies (a.u.)
 --------------------------------------------------------------
 
 Alpha MOs
 -- Occupied --
 -0.5418  -0.5430  -0.4566  -0.4680  -0.4891  -0.4638  -0.4828  -0.4993
 -0.4962  -0.4826  -0.4731  -0.4974  -0.4598  -0.4729  -0.4509  -0.4971
 -0.4370  -0.5357  -0.4379  -0.4994  -0.5835  -0.4554  -0.4716  -0.5113
 -0.5038  -0.4904  -0.5665  -0.5060  -0.5483  -0.6281  -0.6252  -0.6151
 -0.6945  -0.5176  -0.5543  -0.5630  -0.5909  -0.5744  -0.5603  -0.5493
 -0.5774  -0.5758  -0.5170  -0.5794  -0.5655  -0.6419  -0.7413  -0.5752
 -0.7611  -0.6285  -0.5915  -0.6080  -0.6290  -0.5435  -0.6039  -0.5858
 -0.6424  -0.6608  -0.5779  -0.7415  -0.6528  -0.6541  -0.6416  -0.6944
 -0.6221  -0.8562  -0.6920  -0.8908  -0.8254  -0.7368  -0.8107  -0.9763
 -1.0900  -0.9537  -0.9867  -1.1382  -0.9345  -1.1590  -1.0787  -0.9932
 -1.1465  -1.6662  -1.0535  -1.7359  -1.2549  -0.8434  -1.2956  -1.6058
 -0.9745  -1.1672  -1.0038  -1.1859  -1.1697  -1.9150  -2.5384  -1.0314
 -1.2289  -0.8613  -0.9318  -1.2537  -2.4272  -1.1381  -1.6605  -1.0988
 -1.2018  -1.9396  -1.1123  -1.5562  -1.3348  -1.5671  -0.9827  -1.8071
 -1.0657  -1.5378  -1.9381  -1.1422  -1.1752  -1.1599  -1.6381  -1.4057
 -1.4130  -1.3968  -0.9256  -1.5218  -1.2772  -1.1320  -1.0874  -1.6715
 -1.4880  -1.3519  -1.1471  -1.3943  -1.1870  -1.4884  -2.0978  -1.5842
 -1.5040  -2.0704  -1.4678  -1.2643  -1.7383  -2.1969  -1.5405  -1.5773
 -1.7152  -2.0401  -1.3133  -2.2927  -1.7037  -1.6591  -1.5717  -1.4262
 -2.1300  -2.0762  -1.9646  -2.2345  -1.8215  -1.7540  -1.6271  -2.0686
 -2.0554  -2.1021  -5.9984  -5.9235  -5.9836  -5.9958  -5.9852  -5.9732
 -6.0107  -5.9732  -5.9841  -5.7052  -5.9938  -5.9738  -5.9853  -5.9768
 -5.9799  -6.0249  -5.8338  -5.9503  -6.0330  -5.9699  -5.9780  -5.9809
 -6.0563  -5.9750  -5.8915  -6.0324  -5.9413  -5.9724  -5.9585  -5.9727
 -5.9964  -5.8411  -5.9516  -5.9662  -5.9668  -5.9552  -6.0160  -1.5641
 -1.9390  -3.2924  -2.3296 -35.1151 -32.2218  -2.2382  -1.7092 -19.8086
 -3.3923  -1.7572  -1.5137  -4.0494 -12.2944  -2.1622  -6.7019  -4.3718
-10.9618  -3.5233  -7.4752  -1.9064  -9.5879  -1.3974  -2.9266  -5.3611
 -8.2052  -1.7128  -1.6387 -77.2490  -5.7355  -2.8039  -1.9301  -1.8856
 -2.1743 -81.9232 -15.5456 -12.3262  -1.8292  -1.2436  -2.0337  -5.9880
-10.9796  -2.4022  -3.1009  -2.2687 -13.9431  -4.2317  -8.2736 -14.4720
 -1.7898  -8.0146  -2.7985  -1.5137  -5.0749  -7.5448  -4.5411  -1.6385
 -1.8444  -1.8076  -2.8828  -9.1580  -1.7879  -2.2055 -44.0080 -17.8005
-35.2468 -75.4496  -1.0976  -2.8740  -5.9278  -4.9807 -10.5591  -5.9219
 -7.4420  -0.9076 -17.8667  -2.1974  -3.9699 -12.0539  -3.6646  -6.2529
-13.4921  -2.6803  -8.0290  -1.8011  -4.5385  -5.2440  -1.5985  -4.7936
 -2.6238  -2.0508  -1.5078  -2.8349 -59.1496 -35.1677  -4.0568  -2.0119
 -9.7709  -5.0987  -8.1686  -5.5247  -1.0221  -5.8691 -24.7406 -42.2343
-13.4132  -4.6645  -9.2147 -13.0167  -6.8558  -3.2867  -2.3422 -17.7097
-54.6244  -3.5690  -3.1295  -6.5961  -4.1700  -0.9713 -59.9600  -3.1447
 -7.5706 -61.1739  -3.3746  -3.2199  -5.4669  -3.7240  -4.4963  -3.0667
 -1.9672  -1.8938  -3.7562  -3.9275  -2.0816  -7.4470  -1.3614  -7.0547
 -7.8114 -25.3774 -15.2482  -8.8380  -5.3118  -8.3098  -6.9043  -5.5727
 -8.1321  -2.3185 -14.6656  -5.2887 -24.8649  -6.9117 -10.2604  -9.1906
 -5.5186 -20.2936  -3.0521  -4.5955  -1.7772  -6.2603 -10.5362  -4.1163
 -9.7810 -10.6259  -8.3428  -2.8638  -5.6325  -5.5787  -7.0920  -7.9127
 -7.3515  -4.1728  -6.4193  -4.6507  -5.5818  -3.8754 -10.4768 -10.1764
 -6.5098  -7.6870  -8.9828  -2.5931  -6.7837  -8.7332  -4.6181  -3.3303
-12.8003 -10.2100 -12.7839  -2.7818 -13.6868  -3.9146  -2.8411  -8.6622
 -6.9761  -7.2753  -4.9590  -9.6278  -4.9765  -6.1699  -8.5647  -3.3774
 -3.1813  -5.0660  -6.9230  -3.9803 -35.1913  -7.6682  -4.9593  -7.6738
-14.1154  -4.0861 -15.6640 -18.1813  -8.5546 -20.4132  -6.0356 -11.8658
 -5.1915  -6.7583 -24.7424  -9.0916  -6.1247  -5.2347  -6.9975  -3.8194
 -1.4825  -5.7415  -5.8444  -9.9503  -6.3722 -11.5074  -4.0039  -1.5189
 -2.8912  -4.8640  -2.5552  -7.6523 -14.6016  -2.6968 -17.7580 -24.0817
-14.6004  -2.7331 -11.4531 -10.3351 -21.9009  -8.1225  -6.0613 -10.1501
 -4.4082  -5.2101 -10.2556 -12.2681  -5.9249  -5.9902  -6.2687  -6.7889
 -6.0075  -7.0122  -5.1810  -2.6763  -9.4818  -3.4222  -4.0638  -6.8308
 -7.0665 -11.6921  -8.6033  -7.8031  -2.9290  -6.2155  -9.5985 -13.6037
 -4.7138  -5.7035 -11.7963  -1.9569  -6.1888 -26.5878 -16.5878  -4.9336
-12.5603 -17.2601 -14.0066  -5.2377  -5.0586 -17.5951 -21.2969  -4.3057
-12.1337  -3.8082 -10.3919 -16.1451 -24.4073  -5.8026 -27.3968 -12.4036
 -2.1950 -28.3259 -13.7262 -11.5330 -13.9766  -5.6534  -2.7258  -9.1264
 -5.9550 -17.9412  -5.4845 -20.4162  -5.6625 -11.8621 -32.5208  -2.4966
 -2.0808  -6.1305  -4.2026 -40.8243  -5.4883 -36.2102 -14.9813 -17.6194
 -1.9217  -4.0189  -3.3957  -5.8806 -30.3362 -36.2778  -9.9827  -1.6667
 -2.2323 -71.9747  -2.9016 -12.2076 -81.9949  -4.0926 -78.7929 -43.0779
 -9.5900  -6.6164  -6.8268  -4.7317  -1.8164 -16.0855  -6.1659  -2.5710
-52.1501 -14.9807  -9.2254  -6.1086  -4.4465  -5.6802 -15.8052 -20.0951
 -9.8678 -48.8821 -19.4189 -16.6453  -7.7478  -3.2744 -74.8644 -13.9934
-11.5280 -13.1072  -4.3152 -18.1081  -9.6484  -7.7868 -13.3823  -9.1216
 -5.2778  -7.3286 -11.4759  -5.4541  -6.0498 -21.1874  -4.6393 -14.0023
 -3.4979 -14.5310  -7.6285  -5.6827 -10.9441 -14.0041  -8.3360  -8.7044
 -7.3431  -6.7300 -13.9387  -5.3926 -10.2578 -10.5719 -12.6953 -11.0051
-15.6394 -10.7808 -11.5567 -11.0435 -10.5843  -0.7386  -0.6560  -0.7207
 -0.6496  -0.9238  -0.6854  -0.5887  -0.8068  -0.3888  -0.4236  -0.4477
 -0.4193  -0.4149  -0.4661  -0.4702  -0.3885  -0.4104  -0.4465  -0.4169
 -0.4771  -0.4275  -0.4511  -0.4278  -0.5375  -0.4988  -0.5352
 -- Virtual --
 -0.0574  -0.0489  -0.0413  -0.0380  -0.0366  -0.0282  -0.0260  -0.0248
 -0.0203  -0.0193  -0.0170  -0.0161  -0.0149  -0.0144  -0.0143  -0.0112
 -0.0108  -0.0102  -0.0095  -0.0078  -0.0071  -0.0058  -0.0051  -0.0038
 -0.0029  -0.0026  -0.0002   0.0009   0.0011   0.0022   0.0032   0.0037
  0.0044   0.0049   0.0053   0.0055   0.0065   0.0071   0.0075   0.0085
  0.0093   0.0105   0.0112   0.0120   0.0126   0.0132   0.0141   0.0148
  0.0150   0.0155   0.0163   0.0172   0.0181   0.0184   0.0198   0.0202
  0.0209   0.0218   0.0222   0.0226   0.0230   0.0236   0.0242   0.0250
  0.0256   0.0261   0.0270   0.0275   0.0287   0.0293   0.0295   0.0305
  0.0306   0.0311   0.0322   0.0329   0.0335   0.0346   0.0351   0.0356
  0.0363   0.0371   0.0373   0.0381   0.0381   0.0387   0.0395   0.0400
  0.0408   0.0411   0.0420   0.0427   0.0432   0.0435   0.0443   0.0445
  0.0456   0.0459   0.0471   0.0474   0.0477   0.0479   0.0488   0.0492
  0.0498   0.0507   0.0521   0.0527   0.0533   0.0535   0.0541   0.0552
  0.0557   0.0562   0.0564   0.0571   0.0582   0.0585   0.0589   0.0601
  0.0613   0.0619   0.0621   0.0633   0.0637   0.0640   0.0642   0.0648
  0.0656   0.0657   0.0662   0.0666   0.0674   0.0677   0.0689   0.0696
  0.0698   0.0707   0.0714   0.0717   0.0725   0.0730   0.0731   0.0746
  0.0750   0.0756   0.0765   0.0768   0.0772   0.0777   0.0787   0.0793
  0.0796   0.0806   0.0810   0.0815   0.0824   0.0832   0.0833   0.0840
  0.0849   0.0852   0.0858   0.0867   0.0873   0.0878   0.0883   0.0892
  0.0895   0.0897   0.0903   0.0913   0.0921   0.0932   0.0934   0.0937
  0.0944   0.0951   0.0955   0.0963   0.0966   0.0971   0.0978   0.0979
  0.0995   0.0998   0.1002   0.1011   0.1017   0.1026   0.1029   0.1044
  0.1045   0.1051   0.1057   0.1060   0.1062   0.1071   0.1077   0.1085
  0.1089   0.1094   0.1102   0.1105   0.1110   0.1113   0.1124   0.1128
  0.1139   0.1146   0.1153   0.1159   0.1161   0.1169   0.1172   0.1178
  0.1182   0.1187   0.1191   0.1199   0.1208   0.1224   0.1227   0.1234
  0.1241   0.1248   0.1251   0.1258   0.1261   0.1269   0.1278   0.1281
  0.1285   0.1294   0.1299   0.1304   0.1308   0.1314   0.1320   0.1324
  0.1329   0.1341   0.1346   0.1355   0.1361   0.1369   0.1369   0.1374
  0.1379   0.1387   0.1389   0.1396   0.1406   0.1414   0.1418   0.1420
  0.1425   0.1435   0.1441   0.1442   0.1451   0.1454   0.1460   0.1466
  0.1468   0.1476   0.1478   0.1488   0.1497   0.1500   0.1507   0.1508
  0.1517   0.1526   0.1534   0.1541   0.1545   0.1549   0.1553   0.1561
  0.1564   0.1574   0.1576   0.1584   0.1600   0.1602   0.1610   0.1612
  0.1616   0.1620   0.1623   0.1628   0.1635   0.1640   0.1642   0.1654
  0.1657   0.1668   0.1670   0.1680   0.1684   0.1687   0.1696   0.1706
  0.1707   0.1709   0.1714   0.1719   0.1728   0.1735   0.1740   0.1746
  0.1753   0.1758   0.1761   0.1769   0.1774   0.1780   0.1784   0.1794
  0.1799   0.1802   0.1804   0.1810   0.1822   0.1828   0.1832   0.1840
  0.1846   0.1850   0.1857   0.1862   0.1871   0.1876   0.1884   0.1888
  0.1891   0.1893   0.1902   0.1907   0.1913   0.1917   0.1927   0.1928
  0.1934   0.1940   0.1943   0.1961   0.1964   0.1972   0.1975   0.1979
  0.1982   0.1990   0.1999   0.2006   0.2013   0.2018   0.2028   0.2033
  0.2041   0.2043   0.2051   0.2058   0.2062   0.2067   0.2076   0.2079
  0.2089   0.2098   0.2104   0.2110   0.2113   0.2115   0.2119   0.2130
  0.2139   0.2143   0.2146   0.2153   0.2172   0.2175   0.2179   0.2184
  0.2189   0.2192   0.2196   0.2209   0.2212   0.2216   0.2221   0.2224
  0.2228   0.2243   0.2244   0.2253   0.2263   0.2267   0.2274   0.2278
  0.2284   0.2292   0.2295   0.2302   0.2307   0.2316   0.2319   0.2328
  0.2328   0.2336   0.2338   0.2352   0.2359   0.2362   0.2369   0.2370
  0.2382   0.2384   0.2390   0.2396   0.2404   0.2410   0.2416   0.2424
  0.2431   0.2440   0.2442   0.2448   0.2454   0.2456   0.2464   0.2467
  0.2472   0.2480   0.2488   0.2495   0.2504   0.2514   0.2517   0.2521
  0.2526   0.2531   0.2534   0.2543   0.2551   0.2559   0.2569   0.2572
  0.2580   0.2585   0.2592   0.2595   0.2604   0.2611   0.2621   0.2622
  0.2631   0.2638   0.2647   0.2648   0.2652   0.2663   0.2673   0.2683
  0.2693   0.2695   0.2700   0.2705   0.2711   0.2717   0.2729   0.2733
  0.2740   0.2750   0.2755   0.2773   0.2775   0.2779   0.2787   0.2796
  0.2800   0.2810   0.2818   0.2825   0.2831   0.2832   0.2843   0.2846
  0.2854   0.2855   0.2860   0.2875   0.2891   0.2894   0.2904   0.2904
  0.2911   0.2920   0.2929   0.2935   0.2944   0.2949   0.2957   0.2962
  0.2967   0.2975   0.2982   0.2986   0.2995   0.3003   0.3013   0.3023
  0.3032   0.3036   0.3048   0.3055   0.3064   0.3075   0.3083   0.3085
  0.3103   0.3108   0.3113   0.3118   0.3131   0.3145   0.3152   0.3156
  0.3166   0.3171   0.3186   0.3197   0.3201   0.3204   0.3221   0.3227
  0.3229   0.3240   0.3248   0.3251   0.3266   0.3274   0.3282   0.3290
  0.3293   0.3304   0.3315   0.3326   0.3341   0.3344   0.3355   0.3366
  0.3375   0.3378   0.3382   0.3391   0.3393   0.3404   0.3427   0.3432
  0.3434   0.3446   0.3452   0.3459   0.3482   0.3488   0.3489   0.3497
  0.3507   0.3516   0.3522   0.3525   0.3549   0.3555   0.3560   0.3568
  0.3576   0.3582   0.3588   0.3595   0.3601   0.3612   0.3617   0.3621
  0.3634   0.3640   0.3649   0.3663   0.3664   0.3670   0.3676   0.3684
  0.3690   0.3699   0.3702   0.3710   0.3717   0.3721   0.3725   0.3733
  0.3737   0.3749   0.3762   0.3775   0.3781   0.3791   0.3797   0.3800
  0.3815   0.3820   0.3828   0.3844   0.3856   0.3864   0.3871   0.3878
  0.3893   0.3901   0.3908   0.3919   0.3920   0.3930   0.3936   0.3948
  0.3957   0.3974   0.3979   0.3983   0.3985   0.4006   0.4009   0.4016
  0.4031   0.4035   0.4049   0.4051   0.4061   0.4070   0.4079   0.4085
  0.4101   0.4103   0.4112   0.4115   0.4129   0.4143   0.4158   0.4160
  0.4166   0.4176   0.4182   0.4199   0.4207   0.4217   0.4225   0.4227
  0.4236   0.4241   0.4259   0.4260   0.4272   0.4282   0.4293   0.4302
  0.4308   0.4317   0.4323   0.4335   0.4350   0.4362   0.4367   0.4382
  0.4390   0.4393   0.4404   0.4417   0.4426   0.4435   0.4453   0.4462
  0.4468   0.4475   0.4482   0.4497   0.4513   0.4519   0.4534   0.4542
  0.4547   0.4550   0.4583   0.4590   0.4601   0.4606   0.4621   0.4637
  0.4651   0.4660   0.4664   0.4678   0.4686   0.4701   0.4716   0.4727
  0.4736   0.4754   0.4758   0.4769   0.4776   0.4801   0.4812   0.4815
  0.4829   0.4841   0.4849   0.4851   0.4876   0.4881   0.4912   0.4916
  0.4934   0.4942   0.4967   0.4978   0.4989   0.5002   0.5028   0.5042
  0.5056   0.5067   0.5070   0.5082   0.5101   0.5106   0.5114   0.5136
  0.5151   0.5163   0.5170   0.5201   0.5217   0.5231   0.5245   0.5261
  0.5276   0.5283   0.5311   0.5321   0.5324   0.5358   0.5368   0.5384
  0.5395   0.5408   0.5413   0.5444   0.5457   0.5466   0.5480   0.5495
  0.5513   0.5522   0.5549   0.5559   0.5568   0.5585   0.5600   0.5622
  0.5633   0.5638   0.5651   0.5682   0.5690   0.5706   0.5712   0.5726
  0.5732   0.5745   0.5779   0.5790   0.5802   0.5815   0.5826   0.5839
  0.5847   0.5866   0.5872   0.5890   0.5898   0.5899   0.5915   0.5921
  0.5927   0.5953   0.5961   0.5974   0.5990   0.5994   0.6006   0.6013
  0.6035   0.6040   0.6054   0.6078   0.6084   0.6104   0.6114   0.6125
  0.6140   0.6155   0.6172   0.6176   0.6189   0.6207   0.6213   0.6225
  0.6239   0.6250   0.6263   0.6276   0.6293   0.6303   0.6314   0.6334
  0.6345   0.6358   0.6360   0.6374   0.6387   0.6403   0.6409   0.6421
  0.6430   0.6438   0.6442   0.6449   0.6469   0.6487   0.6488   0.6503
  0.6515   0.6536   0.6537   0.6538   0.6560   0.6570   0.6581   0.6590
  0.6603   0.6634   0.6640   0.6643   0.6646   0.6672   0.6681   0.6691
  0.6700   0.6702   0.6720   0.6727   0.6734   0.6742   0.6760   0.6779
  0.6792   0.6800   0.6802   0.6806   0.6819   0.6828   0.6841   0.6844
  0.6869   0.6876   0.6886   0.6892   0.6902   0.6904   0.6922   0.6927
  0.6941   0.6945   0.6963   0.6990   0.7010   0.7014   0.7023   0.7033
  0.7042   0.7046   0.7056   0.7072   0.7080   0.7089   0.7092   0.7104
  0.7115   0.7127   0.7137   0.7148   0.7162   0.7172   0.7189   0.7213
  0.7221   0.7233   0.7246   0.7249   0.7254   0.7267   0.7281   0.7302
  0.7315   0.7326   0.7341   0.7352   0.7367   0.7373   0.7383   0.7390
  0.7398   0.7406   0.7419   0.7434   0.7444   0.7464   0.7473   0.7491
  0.7499   0.7516   0.7516   0.7535   0.7560   0.7569   0.7580   0.7603
  0.7618   0.7632   0.7654   0.7665   0.7673   0.7681   0.7686   0.7697
  0.7719   0.7737   0.7754   0.7782   0.7790   0.7802   0.7815   0.7829
  0.7848   0.7858   0.7880   0.7885   0.7905   0.7918   0.7934   0.7957
  0.7970   0.7987   0.8005   0.8013   0.8031   0.8050   0.8056   0.8064
  0.8082   0.8089   0.8111   0.8130   0.8137   0.8156   0.8159   0.8183
  0.8190   0.8215   0.8221   0.8232   0.8249   0.8250   0.8261   0.8285
  0.8289   0.8305   0.8316   0.8321   0.8345   0.8351   0.8361   0.8381
  0.8401   0.8406   0.8419   0.8427   0.8434   0.8446   0.8459   0.8468
  0.8476   0.8518   0.8526   0.8532   0.8553   0.8559   0.8571   0.8586
  0.8601   0.8606   0.8628   0.8635   0.8647   0.8670   0.8689   0.8691
  0.8702   0.8704   0.8726   0.8728   0.8752   0.8761   0.8785   0.8800
  0.8812   0.8818   0.8835   0.8842   0.8842   0.8853   0.8866   0.8886
  0.8894   0.8911   0.8916   0.8932   0.8943   0.8960   0.8971   0.8987
  0.8999   0.9010   0.9015   0.9034   0.9045   0.9053   0.9060   0.9072
  0.9083   0.9088   0.9100   0.9115   0.9124   0.9137   0.9147   0.9154
  0.9160   0.9169   0.9189   0.9200   0.9208   0.9226   0.9237   0.9258
  0.9276   0.9278   0.9285   0.9302   0.9308   0.9317   0.9320   0.9342
  0.9351   0.9359   0.9373   0.9376   0.9389   0.9392   0.9406   0.9425
  0.9441   0.9445   0.9450   0.9467   0.9479   0.9484   0.9501   0.9510
  0.9521   0.9546   0.9549   0.9557   0.9569   0.9575   0.9588   0.9608
  0.9614   0.9624   0.9636   0.9654   0.9662   0.9681   0.9687   0.9692
  0.9703   0.9714   0.9725   0.9738   0.9747   0.9756   0.9771   0.9793
  0.9799   0.9808   0.9813   0.9820   0.9832   0.9840   0.9862   0.9867
  0.9874   0.9888   0.9895   0.9904   0.9920   0.9925   0.9941   0.9944
  0.9957   0.9969   0.9974   0.9988   0.9994   0.9999   1.0017   1.0019
  1.0041   1.0045   1.0053   1.0077   1.0086   1.0095   1.0100   1.0104
  1.0111   1.0123   1.0139   1.0140   1.0149   1.0161   1.0170   1.0172
  1.0182   1.0194   1.0206   1.0226   1.0241   1.0243   1.0261   1.0272
  1.0280   1.0298   1.0309   1.0323   1.0332   1.0333   1.0342   1.0362
  1.0364   1.0381   1.0391   1.0412   1.0421   1.0426   1.0433   1.0445
  1.0453   1.0476   1.0491   1.0494   1.0505   1.0514   1.0527   1.0541
  1.0552   1.0557   1.0583   1.0590   1.0602   1.0612   1.0615   1.0641
  1.0659   1.0673   1.0678   1.0696   1.0705   1.0716   1.0731   1.0756
  1.0764   1.0775   1.0796   1.0807   1.0824   1.0841   1.0850   1.0872
  1.0886   1.0886   1.0904   1.0916   1.0923   1.0939   1.0947   1.0975
  1.0981   1.0988   1.0999   1.1009   1.1022   1.1030   1.1043   1.1055
  1.1070   1.1072   1.1089   1.1102   1.1105   1.1122   1.1139   1.1152
  1.1163   1.1175   1.1195   1.1211   1.1226   1.1241   1.1246   1.1259
  1.1281   1.1289   1.1300   1.1318   1.1330   1.1347   1.1350   1.1369
  1.1380   1.1392   1.1398   1.1410   1.1427   1.1441   1.1450   1.1462
  1.1467   1.1489   1.1504   1.1511   1.1536   1.1543   1.1556   1.1570
  1.1577   1.1590   1.1596   1.1612   1.1620   1.1643   1.1649   1.1654
  1.1672   1.1685   1.1695   1.1710   1.1735   1.1740   1.1760   1.1772
  1.1777   1.1799   1.1818   1.1821   1.1849   1.1853   1.1864   1.1886
  1.1894   1.1897   1.1914   1.1931   1.1950   1.1958   1.1988   1.2009
  1.2019   1.2028   1.2044   1.2052   1.2073   1.2090   1.2117   1.2132
  1.2141   1.2151   1.2180   1.2199   1.2202   1.2223   1.2240   1.2260
  1.2285   1.2290   1.2306   1.2332   1.2353   1.2371   1.2386   1.2394
  1.2432   1.2443   1.2463   1.2467   1.2487   1.2512   1.2516   1.2529
  1.2547   1.2561   1.2580   1.2599   1.2623   1.2637   1.2673   1.2694
  1.2706   1.2717   1.2749   1.2783   1.2801   1.2820   1.2844   1.2854
  1.2883   1.2896   1.2939   1.2954   1.2961   1.2978   1.2996   1.3020
  1.3029   1.3065   1.3073   1.3106   1.3118   1.3138   1.3160   1.3176
  1.3194   1.3203   1.3233   1.3256   1.3271   1.3292   1.3314   1.3333
  1.3357   1.3376   1.3412   1.3420   1.3436   1.3450   1.3478   1.3488
  1.3509   1.3526   1.3536   1.3550   1.3567   1.3582   1.3611   1.3621
  1.3634   1.3660   1.3673   1.3688   1.3723   1.3735   1.3756   1.3784
  1.3800   1.3807   1.3825   1.3828   1.3858   1.3873   1.3874   1.3889
  1.3915   1.3930   1.3941   1.3954   1.3962   1.3977   1.3986   1.3992
  1.4005   1.4029   1.4047   1.4051   1.4087   1.4093   1.4105   1.4126
  1.4137   1.4149   1.4150   1.4157   1.4184   1.4206   1.4210   1.4226
  1.4237   1.4246   1.4262   1.4270   1.4287   1.4305   1.4311   1.4329
  1.4341   1.4358   1.4385   1.4390   1.4396   1.4412   1.4425   1.4446
  1.4471   1.4486   1.4494   1.4512   1.4530   1.4562   1.4565   1.4579
  1.4604   1.4617   1.4627   1.4645   1.4651   1.4659   1.4662   1.4681
  1.4697   1.4714   1.4728   1.4745   1.4747   1.4761   1.4776   1.4802
  1.4828   1.4833   1.4857   1.4866   1.4888   1.4903   1.4909   1.4925
  1.4956   1.4971   1.4991   1.5003   1.5026   1.5037   1.5057   1.5083
  1.5107   1.5110   1.5127   1.5163   1.5176   1.5206   1.5230   1.5237
  1.5265   1.5298   1.5312   1.5342   1.5352   1.5392   1.5402   1.5410
  1.5463   1.5484   1.5496   1.5518   1.5529   1.5558   1.5573   1.5617
  1.5655   1.5669   1.5685   1.5729   1.5796   1.5822   1.5834   1.5863
  1.5907   1.5918   1.5944   1.5979   1.6000   1.6028   1.6081   1.6084
  1.6139   1.6167   1.6182   1.6231   1.6307   1.6332   1.6356   1.6373
  1.6400   1.6449   1.6467   1.6535   1.6546   1.6565   1.6603   1.6610
  1.6670   1.6683   1.6686   1.6709   1.6731   1.6744   1.6747   1.6761
  1.6765   1.6775   1.6785   1.6817   1.6831   1.6835   1.6847   1.6854
  1.6875   1.6878   1.6899   1.6910   1.6922   1.6925   1.6949   1.6967
  1.6971   1.6984   1.6998   1.7013   1.7015   1.7035   1.7041   1.7056
  1.7067   1.7082   1.7086   1.7097   1.7111   1.7117   1.7140   1.7142
  1.7155   1.7186   1.7191   1.7193   1.7215   1.7229   1.7236   1.7239
  1.7248   1.7267   1.7275   1.7289   1.7306   1.7329   1.7336   1.7352
  1.7368   1.7372   1.7400   1.7404   1.7419   1.7425   1.7435   1.7457
  1.7459   1.7474   1.7492   1.7506   1.7523   1.7539   1.7551   1.7560
  1.7580   1.7586   1.7599   1.7616   1.7641   1.7651   1.7675   1.7684
  1.7695   1.7709   1.7742   1.7750   1.7774   1.7802   1.7831   1.7859
  1.7868   1.7882   1.7906   1.7921   1.7931   1.7949   1.7959   1.7991
  1.8004   1.8024   1.8061   1.8068   1.8089   1.8110   1.8125   1.8160
  1.8188   1.8199   1.8221   1.8228   1.8256   1.8286   1.8313   1.8347
  1.8374   1.8386   1.8403   1.8427   1.8441   1.8457   1.8505   1.8507
  1.8521   1.8541   1.8567   1.8576   1.8590   1.8603   1.8632   1.8635
  1.8664   1.8677   1.8697   1.8716   1.8722   1.8739   1.8754   1.8764
  1.8774   1.8805   1.8819   1.8821   1.8835   1.8847   1.8868   1.8882
  1.8888   1.8896   1.8910   1.8946   1.8960   1.8977   1.8996   1.9001
  1.9020   1.9039   1.9069   1.9081   1.9087   1.9106   1.9115   1.9137
  1.9147   1.9166   1.9177   1.9179   1.9189   1.9192   1.9207   1.9216
  1.9233   1.9242   1.9268   1.9271   1.9292   1.9298   1.9324   1.9335
  1.9345   1.9365   1.9370   1.9384   1.9400   1.9404   1.9415   1.9420
  1.9442   1.9461   1.9490   1.9494   1.9532   1.9540   1.9583   1.9589
  1.9629   1.9648   1.9666   1.9700   1.9745   1.9808   1.9832   1.9869
  1.9985   2.0041   2.0122   2.0150   2.0194   2.0213   2.0269   2.0360
  2.0399   2.0427   2.0470   2.0495   2.0526   2.0546   2.0565   2.0607
  2.0627   2.0641   2.0658   2.0664   2.0670   2.0677   2.0696   2.0711
  2.0729   2.0760   2.0785   2.0811   2.0837   2.0843   2.0849   2.0862
  2.0868   2.0878   2.0883   2.0929   2.0944   2.0954   2.0958   2.0975
  2.0980   2.0994   2.1007   2.1016   2.1018   2.1029   2.1036   2.1044
  2.1057   2.1064   2.1076   2.1101   2.1119   2.1137   2.1142   2.1164
  2.1209   2.1220   2.1236   2.1253   2.1314   2.1326   2.1373   2.1397
  2.1403   2.1435   2.1462   2.1490   2.1505   2.1512   2.1531   2.1556
  2.1596   2.1621   2.1701   2.1774   2.1838   2.1884   2.1885   2.1902
  2.1932   2.1961   2.1990   2.1994   2.2017   2.2049   2.2071   2.2084
  2.2091   2.2116   2.2129   2.2142   2.2148   2.2155   2.2174   2.2191
  2.2207   2.2216   2.2229   2.2245   2.2252   2.2257   2.2272   2.2296
  2.2307   2.2310   2.2317   2.2330   2.2338   2.2350   2.2377   2.2388
  2.2415   2.2420   2.2430   2.2436   2.2443   2.2456   2.2475   2.2486
  2.2495   2.2503   2.2513   2.2528   2.2534   2.2548   2.2554   2.2566
  2.2575   2.2586   2.2593   2.2600   2.2611   2.2626   2.2634   2.2646
  2.2668   2.2677   2.2683   2.2693   2.2697   2.2716   2.2724   2.2733
  2.2748   2.2762   2.2769   2.2774   2.2778   2.2785   2.2790   2.2805
  2.2816   2.2833   2.2844   2.2854   2.2866   2.2869   2.2869   2.2881
  2.2897   2.2906   2.2908   2.2913   2.2938   2.2943   2.2949   2.2958
  2.2963   2.2979   2.3000   2.3003   2.3009   2.3019   2.3032   2.3040
  2.3049   2.3052   2.3059   2.3073   2.3075   2.3094   2.3107   2.3110
  2.3125   2.3132   2.3145   2.3152   2.3160   2.3170   2.3183   2.3188
  2.3217   2.3226   2.3236   2.3251   2.3259   2.3275   2.3285   2.3308
  2.3315   2.3334   2.3362   2.3375   2.3383   2.3386   2.3395   2.3414
  2.3435   2.3438   2.3448   2.3471   2.3491   2.3502   2.3515   2.3531
  2.3538   2.3565   2.3575   2.3593   2.3618   2.3637   2.3665   2.3677
  2.3689   2.3698   2.3699   2.3719   2.3736   2.3761   2.3797   2.3811
  2.3812   2.3820   2.3854   2.3867   2.3907   2.3915   2.3972   2.4026
  2.4046   2.4056   2.4125   2.4159   2.4227   2.4308   2.4637   2.4910
  2.5219   2.5494   2.5524   2.5996   2.6754   2.7387   2.7588   2.7698
  2.8046   2.8087   2.8186   2.8215   2.8229   2.8261   2.8387   2.8448
  2.8462   2.8483   2.8507   2.8524   2.8539   2.8559   2.8602   2.8625
  2.8648   2.8666   2.8679   2.8694   2.8701   2.8753   2.8780   2.8794
  2.8822   2.8841   2.8910   2.8932   2.8950   2.8986   2.9072   2.9230
  2.9373   3.0974   3.2766   3.9344   3.9463   3.9544   3.9595   3.9636
  3.9666   3.9695   3.9716   3.9720   3.9760   3.9822   3.9837   3.9853
  3.9865   3.9935   3.9937   3.9982   3.9988   4.0001   4.0025   4.0087
  4.0107   4.0138   4.0207   4.0226   4.0352   4.0409   4.0503   4.2116
  4.2156   4.2243   4.2323   4.2371   4.2400   4.2419   4.2438   4.2456
  4.2498   4.2545   4.2591   4.2615   4.2666   4.2689   4.2714   4.2722
  4.2744   4.2754   4.2782   4.2815   4.2825   4.2843   4.2858   4.2875
  4.2901   4.2947   4.2957   4.2975   4.2997   4.3031   4.3054   4.3066
  4.3086   4.3110   4.3118   4.3184   4.3185   4.3241   4.3257   4.3294
  4.3313   4.3323   4.3340   4.3375   4.3400   4.3418   4.3438   4.3472
  4.3513   4.3530   4.3557   4.3587   4.3602   4.3612   4.3652   4.3679
  4.3716   4.3757   4.3821   4.3836   4.3884   4.3918   4.3929   4.4008
  4.4026   4.4050   4.4082   4.4099   4.4172   4.4195   4.4283   4.4315
  4.4403   4.4456   4.4492   4.4557   4.4619   4.4852   4.4940   4.5117
  4.5171   4.5326   4.5583   4.5777   4.5926   4.6347   4.6854   4.6966
  4.7343   4.7509   4.7982   4.9155
 --------------------------------------------------------------
 
          Ground-State Mulliken Net Atomic Charges

     Atom                 Charge (a.u.)
  ----------------------------------------
      1 C                    -0.052315
      2 C                    -1.002810
      3 C                    -0.247848
      4 C                    -0.306921
      5 C                    -0.888596
      6 C                    -0.712134
      7 H                     0.209288
      8 H                     0.212777
      9 H                     0.236453
     10 H                     0.226552
     11 H                     0.251034
     12 H                     0.222288
     13 H                     0.197200
     14 H                     0.209549
     15 H                     0.281725
     16 H                     0.174868
     17 H                     0.219982
     18 N                     0.336003
     19 H                     0.526801
     20 C                    -0.079336
     21 H                     0.181248
     22 O                    -0.279271
     23 C                    -0.730069
     24 H                     0.331254
     25 H                     0.218869
     26 H                     0.247881
     27 S                     0.829094
     28 C                    -0.862163
     29 H                     0.235886
     30 H                     0.263190
     31 H                     0.247411
     32 O                    -0.622808
     33 C                    -0.771799
     34 H                     0.227365
     35 H                     0.277243
     36 H                     0.252109
     37 S                     0.672526
     38 C                    -0.840921
     39 H                     0.256433
     40 H                     0.233808
     41 H                     0.300216
     42 O                    -0.649474
     43 C                    -0.808334
     44 H                     0.249663
     45 H                     0.263002
     46 H                     0.255376
     47 S                     0.805182
     48 C                    -0.847508
     49 H                     0.241822
     50 H                     0.283001
     51 H                     0.253945
     52 O                    -0.624992
     53 C                    -0.927403
     54 H                     0.263413
     55 H                     0.251807
     56 H                     0.271501
     57 S                     1.092462
     58 C                    -0.972707
     59 H                     0.271044
     60 H                     0.257173
     61 H                     0.276706
     62 O                    -0.706340
     63 C                    -0.820766
     64 H                     0.212694
     65 H                     0.264852
     66 H                     0.306741
     67 S                     1.059249
     68 C                    -0.927951
     69 H                     0.268441
     70 H                     0.224586
     71 H                     0.243193
     72 O                    -0.757886
     73 C                    -0.760150
     74 H                     0.254519
     75 H                     0.277795
     76 H                     0.248651
     77 S                     0.833849
     78 C                    -0.847408
     79 H                     0.260770
     80 H                     0.243203
     81 H                     0.250712
     82 O                    -0.652799
     83 C                    -0.842775
     84 H                     0.235193
     85 H                     0.299546
     86 H                     0.234453
     87 S                     0.692605
     88 C                    -0.866278
     89 H                     0.251383
     90 H                     0.282612
     91 H                     0.251862
     92 O                    -0.636010
     93 C                    -1.006774
     94 H                     0.273204
     95 H                     0.315532
     96 H                     0.240971
     97 S                     0.784681
     98 C                    -0.817334
     99 H                     0.250333
    100 H                     0.236584
    101 H                     0.286925
    102 O                    -0.599044
    103 C                    -0.868260
    104 H                     0.319425
    105 H                     0.305414
    106 H                     0.273255
    107 S                    -0.054390
    108 C                    -0.348719
    109 H                     0.259219
    110 H                     0.283985
    111 H                     0.266690
    112 O                    -0.598277
    113 C                    -1.126071
    114 H                     0.284431
    115 H                     0.234722
    116 H                     0.308970
    117 S                     0.954157
    118 C                    -0.867080
    119 H                     0.263276
    120 H                     0.249348
    121 H                     0.256507
    122 O                    -0.682720
    123 C                    -0.968184
    124 H                     0.273157
    125 H                     0.227245
    126 H                     0.348991
    127 S                     0.981801
    128 C                    -1.140231
    129 H                     0.290527
    130 H                     0.259297
    131 H                     0.238788
    132 O                    -0.595340
    133 C                    -0.843386
    134 H                     0.241334
    135 H                     0.297296
    136 H                     0.252518
    137 S                     0.991237
    138 C                    -0.856872
    139 H                     0.290469
    140 H                     0.236805
    141 H                     0.249888
    142 O                    -0.745964
    143 C                    -1.072895
    144 H                     0.244650
    145 H                     0.290887
    146 H                     0.252173
    147 S                     0.955362
    148 C                    -0.833108
    149 H                     0.268397
    150 H                     0.266088
    151 H                     0.275694
    152 O                    -0.772606
    153 C                    -0.819415
    154 H                     0.236743
    155 H                     0.293300
    156 H                     0.254796
    157 S                     0.934222
    158 C                    -0.955154
    159 H                     0.267414
    160 H                     0.300644
    161 H                     0.233562
    162 O                    -0.734206
    163 C                    -0.673203
    164 H                     0.232684
    165 H                     0.249058
    166 H                     0.256685
    167 S                     0.710262
    168 C                    -0.835247
    169 H                     0.250429
    170 H                     0.314689
    171 H                     0.219043
    172 O                    -0.651166
    173 C                    -1.164472
    174 H                     0.270128
    175 H                     0.289381
    176 H                     0.272112
    177 S                     1.034775
    178 C                    -0.802827
    179 H                     0.295365
    180 H                     0.210425
    181 H                     0.250692
    182 O                    -0.714862
    183 C                    -0.964004
    184 H                     0.260957
    185 H                     0.255951
    186 H                     0.257602
    187 S                     0.892317
    188 C                    -0.885412
    189 H                     0.255376
    190 H                     0.246464
    191 H                     0.286641
    192 O                    -0.621210
    193 C                    -0.806181
    194 H                     0.215456
    195 H                     0.284025
    196 H                     0.257376
    197 S                     0.760384
    198 C                    -0.768636
    199 H                     0.243004
    200 H                     0.246685
    201 H                     0.265561
    202 O                    -0.665679
    203 C                    -0.972577
    204 H                     0.280790
    205 H                     0.253152
    206 H                     0.228854
    207 S                     1.008043
    208 C                    -0.827227
    209 H                     0.229554
    210 H                     0.249312
    211 H                     0.270765
    212 O                    -0.743504
    213 C                    -0.933528
    214 H                     0.266819
    215 H                     0.239629
    216 H                     0.237865
    217 S                     1.043847
    218 C                    -0.944222
    219 H                     0.283892
    220 H                     0.234729
    221 H                     0.287980
    222 O                    -0.714754
    223 C                    -0.904071
    224 H                     0.268857
    225 H                     0.283936
    226 H                     0.225943
    227 S                     0.825036
    228 C                    -0.701244
    229 H                     0.269972
    230 H                     0.261918
    231 H                     0.244753
    232 O                    -0.703217
    233 C                    -0.788519
    234 H                     0.245928
    235 H                     0.236073
    236 H                     0.260017
    237 S                     0.791138
    238 C                    -0.903005
    239 H                     0.236661
    240 H                     0.263209
    241 H                     0.284338
    242 O                    -0.624837
    243 C                    -1.200918
    244 H                     0.253058
    245 H                     0.294252
    246 H                     0.260481
    247 S                     1.204926
    248 C                    -0.938811
    249 H                     0.226729
    250 H                     0.292426
    251 H                     0.275834
    252 O                    -0.668021
    253 C                    -0.828969
    254 H                     0.245226
    255 H                     0.306251
    256 H                     0.238564
    257 S                     0.825596
    258 C                    -0.796432
    259 H                     0.232706
    260 H                     0.252590
    261 H                     0.245797
    262 O                    -0.722271
    263 C                    -0.868179
    264 H                     0.290500
    265 H                     0.225051
    266 H                     0.257948
    267 S                     0.851340
    268 C                    -0.774745
    269 H                     0.237486
    270 H                     0.299253
    271 H                     0.214280
    272 O                    -0.709397
    273 C                    -1.008528
    274 H                     0.268981
    275 H                     0.290190
    276 H                     0.229093
    277 S                     1.003688
    278 C                    -0.885090
    279 H                     0.267872
    280 H                     0.296112
    281 H                     0.227243
    282 O                    -0.641068
    283 C                    -0.955769
    284 H                     0.261054
    285 H                     0.253958
    286 H                     0.245305
    287 S                     0.996955
    288 C                    -0.884447
    289 H                     0.251118
    290 H                     0.255828
    291 H                     0.285718
    292 O                    -0.663937
    293 C                    -0.994129
    294 H                     0.272006
    295 H                     0.245075
    296 H                     0.274850
    297 S                     0.861167
[...]
    2  -0.0196659   0.0744150  -0.0093872  -0.0250901  -0.0158090   0.0039006
    3   0.0214789  -0.0765038   0.0034175  -0.0216343   0.0254740   0.0024811
          157         158         159         160         161         162
    1   0.0526268  -0.0053114  -0.0313841  -0.0045496   0.0235836  -0.0615311
    2  -0.0099797   0.0021212   0.0048434  -0.0161801   0.0223905   0.0420667
    3  -0.0003273   0.0100623  -0.0092114   0.0321594   0.0034984  -0.0800035
          163         164         165         166         167         168
    1   0.0062105   0.0031641   0.0371807  -0.0112450  -0.0639570   0.0062212
    2   0.0021513  -0.0292178   0.0094251   0.0159584  -0.0171472  -0.0011229
    3   0.0027740   0.0077337   0.0125818   0.0223006   0.0049760  -0.0082931
          169         170         171         172         173         174
    1  -0.0134477   0.0330118   0.0069889   0.0228989   0.0066345  -0.0066906
    2  -0.0030199   0.0035211  -0.0276794   0.1012464   0.0003372   0.0178868
    3  -0.0290579  -0.0097759   0.0100049  -0.0356911  -0.0042446  -0.0118103
          175         176         177         178         179         180
    1   0.0332080  -0.0096075  -0.0453058   0.0090475   0.0237566  -0.0062270
    2  -0.0051016  -0.0129842  -0.0073736   0.0050207   0.0144711   0.0313611
    3   0.0007494  -0.0301200   0.0064606   0.0044058  -0.0089208   0.0188315
          181         182         183         184         185         186
    1  -0.0009915   0.0720266  -0.0088131   0.0113111   0.0020990  -0.0325812
    2  -0.0246145  -0.0847444  -0.0026833  -0.0327307   0.0331345   0.0033283
    3   0.0246023  -0.0203790   0.0072288   0.0041783   0.0161912  -0.0021809
          187         188         189         190         191         192
    1   0.0539064  -0.0088563   0.0137296  -0.0335116  -0.0034911   0.0052726
    2   0.0301456   0.0044212   0.0058431  -0.0069925   0.0292521  -0.0922804
    3   0.0155774  -0.0039547  -0.0273291  -0.0060179   0.0168667  -0.0582506
          193         194         195         196         197         198
    1   0.0045977  -0.0021205   0.0246900  -0.0233076  -0.0256200  -0.0030423
    2   0.0028595  -0.0104715   0.0217437   0.0208216   0.0369101  -0.0074486
    3   0.0062337   0.0305442   0.0088950   0.0065914  -0.0438092   0.0022613
          199         200         201         202         203         204
    1   0.0160387  -0.0323754  -0.0095731   0.0938597  -0.0088228  -0.0174934
    2  -0.0220340   0.0129447  -0.0220775  -0.0536480  -0.0021161  -0.0174879
    3   0.0211317   0.0006505  -0.0202596  -0.0181151   0.0025899  -0.0175148
          205         206         207         208         209         210
    1   0.0100248  -0.0278844   0.0205728  -0.0031258  -0.0264201   0.0252502
    2  -0.0109412   0.0182537   0.0427732  -0.0009673   0.0222198   0.0080164
    3   0.0273955   0.0079009   0.0197051  -0.0061402  -0.0112047  -0.0220574
          211         212         213         214         215         216
    1  -0.0287121   0.0529561   0.0086225   0.0274513   0.0025446  -0.0096450
    2  -0.0191190  -0.0960764  -0.0018912  -0.0225144   0.0349327   0.0013518
    3  -0.0019419  -0.0126774   0.0004110  -0.0085168   0.0091172   0.0313198
          217         218         219         220         221         222
    1  -0.0542653  -0.0034131   0.0272929   0.0125299  -0.0333317   0.0606241
    2   0.0232671  -0.0085201  -0.0110491  -0.0168746  -0.0235047   0.0153946
    3   0.0076851  -0.0020715  -0.0199075   0.0246358   0.0020847  -0.0906736
          223         224         225         226         227         228
    1   0.0035862   0.0297598   0.0042791  -0.0040949   0.0001424  -0.0088040
    2   0.0051872  -0.0031944   0.0149093   0.0246032  -0.0384474   0.0052962
    3  -0.0048914   0.0069264  -0.0319956   0.0110140  -0.0312683  -0.0028451
          229         230         231         232         233         234
    1   0.0028888  -0.0160612  -0.0230611   0.0110224  -0.0002519  -0.0228238
    2   0.0169191   0.0141817  -0.0103817   0.0015604   0.0032204   0.0216313
    3   0.0235868  -0.0251323  -0.0005842   0.1088185  -0.0076142   0.0073392
          235         236         237         238         239         240
    1   0.0185061  -0.0182235  -0.0396421   0.0035241   0.0246268  -0.0210253
    2   0.0136073  -0.0219102  -0.0149216   0.0071685   0.0075107   0.0233417
    3  -0.0258617  -0.0120732   0.0470178   0.0048417  -0.0212454   0.0119813
          241         242         243         244         245         246
    1   0.0166907   0.0741347  -0.0028858   0.0162712   0.0040660  -0.0265570
    2  -0.0039255  -0.0701184  -0.0083033  -0.0155659  -0.0097718  -0.0122432
    3   0.0254079  -0.0373840  -0.0023192  -0.0272057   0.0309138  -0.0154341
          247         248         249         250         251         252
    1  -0.0456662   0.0025899  -0.0203926   0.0034031   0.0316381   0.0980832
    2   0.0252150   0.0034224   0.0041774   0.0328367  -0.0039542  -0.0097940
    3   0.0218991  -0.0041771  -0.0371461  -0.0185449  -0.0042510   0.0439923
          253         254         255         256         257         258
    1   0.0074469   0.0190145   0.0283205  -0.0090119  -0.0202243  -0.0042560
    2  -0.0001617  -0.0203731   0.0155418  -0.0091705   0.0499293  -0.0038860
    3   0.0047104  -0.0153217   0.0147045   0.0306329   0.0205760   0.0000522
          259         260         261         262         263         264
    1  -0.0143004  -0.0173882   0.0134452   0.0438300   0.0065731   0.0173278
    2  -0.0084558   0.0084452  -0.0282154  -0.0102320  -0.0029449  -0.0265991
    3   0.0299378  -0.0255776  -0.0039413  -0.1010507   0.0021117   0.0197616
          265         266         267         268         269         270
    1   0.0066226   0.0202069  -0.0098280   0.0013482  -0.0343218  -0.0091439
    2  -0.0142347   0.0218273   0.0121711  -0.0042189  -0.0033118  -0.0057586
    3  -0.0263135   0.0036888   0.0568546  -0.0058626  -0.0053857  -0.0341957
          271         272         273         274         275         276
    1   0.0026911  -0.0078012  -0.0011148  -0.0320129   0.0106842   0.0141848
    2  -0.0267304   0.0738921  -0.0086257  -0.0003739  -0.0219321  -0.0196381
    3   0.0188479  -0.0807884  -0.0001072  -0.0095266  -0.0209920   0.0270860
          277         278         279         280         281         282
    1   0.0540179  -0.0053860   0.0141513  -0.0196621  -0.0200984  -0.0691709
    2   0.0083214   0.0055695   0.0171406   0.0222736  -0.0203980   0.0156624
    3  -0.0032007   0.0030804   0.0173489  -0.0116768   0.0120761  -0.0844994
          283         284         285         286         287         288
    1   0.0015070   0.0192072  -0.0232315  -0.0060601  -0.0438327   0.0062805
    2   0.0013499   0.0283912   0.0198641  -0.0252240  -0.0330295  -0.0083986
    3   0.0061187  -0.0000551  -0.0053001   0.0225850  -0.0244980  -0.0001976
          289         290         291         292         293         294
    1   0.0174688  -0.0105630   0.0120271   0.0509504   0.0053951  -0.0062520
    2   0.0161912  -0.0234933  -0.0022581   0.0724599  -0.0051763  -0.0043279
    3   0.0144743   0.0182953  -0.0399904  -0.0656404   0.0027100   0.0294232
          295         296         297         298         299         300
    1  -0.0030491   0.0334656  -0.0545471   0.0075115  -0.0044040  -0.0140210
    2  -0.0316811   0.0012413  -0.0127280   0.0010940  -0.0274189   0.0138193
    3  -0.0091469   0.0013062  -0.0010650  -0.0048714  -0.0211686  -0.0241833
          301         302
    1   0.0290848   0.0380692
    2   0.0167678   0.0965790
    3   0.0014224   0.0356590
  --- DONE ESP SUMMARY ---
Archival summary:
1\1\node029\SP\ProcedureUnspecified\6-31+G*\282856h22\ymao90\FriDec316:44:512021FriDec316:44:512021\0\\#,ProcedureUnspecified,6-31+G*,\\0,1\S\O,1,1.49731\C,1,1.8065,2,106.676\H,3,1.09294,1,108.618,2,51.7604,0\H,3,1.09318,1,110.276,2,176.42,0\H,3,1.09319,1,109.528,2,-63.9229,0\C,1,1.80723,2,98.5076,3,96.9839,0\H,7,1.09218,1,113.272,2,177.546,0\H,7,1.09306,1,113.369,2,-58.2552,0\H,7,1.09318,1,103.135,2,57.7662,0\Gh,2,1.8223,1,120.857,3,-89.2745,0\Gh,11,1.01269,2,159.563,1,164.416,0\Gh,12,1.37846,11,119.867,2,119.04,0\Gh,13,1.1054,12,114.4,11,-5.98885,0\Gh,13,1.21759,12,125.28,11,172.459,0\Gh,12,1.46212,11,114.206,2,-70.8871,0\Gh,16,1.09671,12,106.635,11,151.906,0\Gh,16,1.53706,12,115.907,11,-81.657,0\Gh,18,1.09652,16,104.783,12,56.2064,0\Gh,18,1.09746,16,106.702,12,-50.8061,0\Gh,18,1.53735,16,116.021,12,177.784,0\Gh,21,1.09667,18,103.21,16,67.1041,0\Gh,21,1.09748,18,104.762,16,-178.687,0\Gh,21,1.53721,18,107.58,16,-59.171,0\Gh,24,1.09623,21,111.34,18,175.722,0\Gh,24,1.09713,21,112.938,18,-66.4917,0\Gh,24,1.53765,21,110.125,18,57.5394,0\Gh,27,1.09687,24,106.297,21,-173.564,0\Gh,27,1.09691,24,114.449,21,65.7206,0\Gh,27,1.53755,24,113.109,21,-56.3023,0\Gh,30,1.09694,27,108.682,24,170.789,0\Gh,30,1.09715,27,113.048,24,-80.5991,0\H,5,2.07707,3,154.2,1,-172.36,0\C,33,1.09283,5,114.91,3,-30.016,0\H,34,1.09308,33,108.4,5,149.864,0\H,34,1.09342,33,114.012,5,25.427,0\S,34,1.80619,33,112.026,5,-94.45,0\O,37,1.49703,34,107.282,33,74.7373,0\C,37,1.80755,34,95.9386,33,178.848,0\H,39,1.09231,37,107.629,34,173.391,0\H,39,1.09319,37,109.252,34,-68.806,0\H,39,1.09352,37,106.759,34,46.2823,0\H,17,2.15837,16,137.561,12,80.6937,0\C,43,1.09373,17,115.664,16,-173.11,0\H,44,1.09275,43,112.986,17,164.246,0\H,44,1.09327,43,108.33,17,35.3615,0\S,44,1.80677,43,100.562,17,-78.242,0\O,47,1.49747,44,104.258,43,-45.4489,0\C,47,1.80752,44,92.9728,43,-154.331,0\H,49,1.09243,47,109.423,44,88.7369,0\H,49,1.09287,47,115.801,44,-42.3369,0\H,49,1.09324,47,103.731,44,-159.266,0\H,46,2.15882,44,141.975,43,32.2776,0\C,53,1.09319,46,112.73,44,-142.161,0\H,54,1.09289,53,112.792,46,97.3549,0\H,54,1.09297,53,108.44,46,-25.2046,0\S,54,1.80693,53,107.803,46,-138.213,0\O,57,1.49715,54,95.7982,53,-167.751,0\C,57,1.80672,54,94.8641,53,-68.035,0\H,59,1.09264,57,102.738,54,-159.059,0\H,59,1.09311,57,109.61,54,-40.2395,0\H,59,1.09401,57,113.068,54,91.5666,0\H,25,2.25162,24,143.3,21,-18.624,0\C,63,1.09319,25,131.425,24,-64.1792,0\H,64,1.09256,63,118.487,25,-148.8,0\H,64,1.09264,63,105.396,25,93.794,0\S,64,1.80679,63,111.32,25,-32.0551,0\O,67,1.4972,64,99.4326,63,169.452,0\C,67,1.80663,64,99.3185,63,-87.4208,0\H,69,1.09213,67,107.244,64,-71.1069,0\H,69,1.09323,67,103.668,64,166.698,0\H,69,1.0935,67,100.289,64,41.8329,0\H,63,2.24026,25,83.9558,24,156.393,0\C,73,1.09277,63,103.075,25,-143.532,0\H,74,1.09273,73,114.675,63,-33.0431,0\H,74,1.0928,73,110.806,63,-161.753,0\S,74,1.80761,73,108.043,63,82.2565,0\O,77,1.49788,74,101.584,73,-59.2708,0\C,77,1.80702,74,99.2618,73,38.5525,0\H,79,1.09285,77,110.971,74,-62.8353,0\H,79,1.09295,77,108.771,74,56.8449,0\H,79,1.09321,77,107.776,74,179.258,0\H,82,1.867,79,155.204,77,75.9084,0\C,83,1.09327,82,117.656,79,-0.370687,0\H,84,1.09276,83,111.139,82,-17.1951,0\H,84,1.09323,83,116.936,82,113.161,0\S,84,1.80717,83,99.8675,82,-130.936,0\O,87,1.49712,84,104.147,83,-38.5156,0\C,87,1.80633,84,95.7082,83,67.8444,0\H,89,1.09257,87,109.668,84,-58.4271,0\H,89,1.09271,87,104.584,84,63.5788,0\H,89,1.09315,87,99.22,84,-178.678,0\H,80,2.14099,79,129.709,77,92.2727,0\C,93,1.09224,80,148.131,79,50.5073,0\H,94,1.09304,93,99.6691,80,152.225,0\H,94,1.09381,93,103.534,80,34.2326,0\S,94,1.80654,93,117.048,80,-85.0378,0\O,97,1.49704,94,108.632,93,44.7793,0\C,97,1.80703,94,94.8399,93,152.874,0\H,99,1.09244,97,113.814,94,63.3897,0\H,99,1.0926,97,102.994,94,-57.1839,0\H,99,1.09324,97,110.407,94,-171.076,0\H,66,2.26744,64,119.358,63,-173.86,0\C,103,1.09304,66,149.083,64,-91.5323,0\H,104,1.09248,103,101.662,66,47.2115,0\H,104,1.09269,103,109.461,66,167.869,0\S,104,1.80697,103,110.365,66,-73.131,0\O,107,1.49674,104,102.884,103,73.3641,0\C,107,1.80613,104,100.44,103,-178.946,0\H,109,1.09301,107,110.927,104,155.065,0\H,109,1.09305,107,107.929,104,35.7101,0\H,109,1.09333,107,107.533,104,-88.0819,0\H,108,2.17977,107,174.998,104,-112.207,0\C,113,1.09267,108,140.552,107,-29.6032,0\H,114,1.0934,113,116.412,108,-118.286,0\H,114,1.09346,113,108.281,108,8.40343,0\S,114,1.80705,113,102.481,108,124.324,0\O,117,1.4976,114,105.078,113,89.0045,0\C,117,1.80671,114,101.834,113,-164.586,0\H,119,1.09238,117,108.103,114,74.9648,0\H,119,1.09323,117,106.816,114,-172.441,0\H,119,1.09324,117,112.263,114,-54.5943,0\O,8,2.26974,7,148.561,1,30.1723,0\S,123,1.49692,8,123.064,7,-85.4543,0\C,124,1.80732,123,111.304,8,-17.9621,0\H,125,1.09248,124,108.221,123,168.682,0\H,125,1.09275,124,106.17,123,48.8741,0\H,125,1.09354,124,104.765,123,-67.6413,0\C,124,1.80738,123,106.208,8,-117.955,0\H,129,1.09236,124,111.357,123,169.659,0\H,129,1.09288,124,107.173,123,-63.9691,0\H,129,1.09315,124,108.776,123,55.049,0\H,128,2.2261,125,138.967,124,98.2234,0\C,133,1.09255,128,142.826,125,60.4639,0\H,134,1.09333,133,104.344,128,153.522,0\H,134,1.09358,133,110.878,128,-78.3622,0\S,134,1.80785,133,104.958,128,39.9582,0\O,137,1.49708,134,109.477,133,-89.1998,0\C,137,1.8074,134,97.2842,133,157.257,0\H,139,1.09247,137,110.827,134,-44.5801,0\H,139,1.0928,137,95.2837,134,73.4457,0\H,139,1.09353,137,111.192,134,-169.346,0\H,135,2.04739,134,125.69,133,134.556,0\C,143,1.09267,135,153.695,134,27.057,0\H,144,1.09332,143,107.952,135,125.708,0\H,144,1.09375,143,101.124,135,-119.279,0\S,144,1.80648,143,103.966,135,4.7566,0\O,147,1.49742,144,101.88,143,-69.2714,0\C,147,1.80623,144,94.7652,143,-179.189,0\H,149,1.09294,147,103.333,144,-10.1624,0\H,149,1.09351,147,114.885,144,-133.676,0\H,149,1.09369,147,111.665,144,102.325,0\H,151,2.24662,149,162.841,147,-74.6044,0\C,153,1.09282,151,120.277,149,-24.9968,0\H,154,1.09232,153,110.009,151,5.61384,0\H,154,1.09276,153,104.113,151,-123.27,0\S,154,1.80781,153,105.785,151,118.131,0\O,157,1.49755,154,106.024,153,-157.413,0\C,157,1.80689,154,92.8301,153,-50.3375,0\H,159,1.09232,157,109.487,154,-160.538,0\H,159,1.09317,157,111.347,154,85.5674,0\H,159,1.09337,157,107.99,154,-45.2688,0\H,156,2.06758,154,150.42,153,78.3191,0\C,163,1.09324,156,104.742,154,87.4106,0\H,164,1.09228,163,109.168,156,50.0282,0\H,164,1.09366,163,111.828,156,173.168,0\S,164,1.80737,163,111.322,156,-63.0791,0\O,167,1.49727,164,97.2747,163,-67.4847,0\C,167,1.80675,164,100.804,163,-171.712,0\H,169,1.09263,167,102.751,164,59.2856,0\H,169,1.0927,167,113.56,164,-66.7169,0\H,169,1.09306,167,107.441,164,171.354,0\H,146,2.28757,144,145.131,143,37.6938,0\C,173,1.09287,146,108.764,144,75.066,0\H,174,1.09302,173,109.819,146,28.5391,0\H,174,1.09323,173,109.965,146,-90.5133,0\S,174,1.80673,173,110.01,146,148.918,0\O,177,1.49715,174,105.569,173,94.8416,0\C,177,1.80716,174,95.3111,173,-4.91276,0\H,179,1.09238,177,110.608,174,61.8779,0\H,179,1.09253,177,106.544,174,-175.235,0\H,179,1.0933,177,107.228,174,-56.6221,0\H,168,2.29567,167,144.256,164,114.645,0\C,183,1.09364,168,125.425,167,-34.5924,0\H,184,1.092,183,109.873,168,16.732,0\H,184,1.09327,183,106.15,168,-103.07,0\S,184,1.80782,183,110.569,168,131.154,0\O,187,1.49715,184,100.701,183,59.0316,0\C,187,1.80718,184,95.7897,183,-37.6318,0\H,189,1.0928,187,106.09,184,50.729,0\H,189,1.09307,187,108.768,184,-64.4747,0\H,189,1.09329,187,106.669,184,166.404,0\H,52,2.30684,49,122.05,47,47.6221,0\C,193,1.09237,52,107.618,49,57.2898,0\H,194,1.09271,193,102.561,52,-25.7645,0\H,194,1.09357,193,112.223,52,97.5283,0\S,194,1.80649,193,110.087,52,-142.673,0\O,197,1.49743,194,102.339,193,75.3204,0\C,197,1.80674,194,93.9578,193,-176.741,0\H,199,1.0929,197,102.91,194,-61.6603,0\H,199,1.09292,197,117.882,194,172.212,0\H,199,1.09365,197,106.488,194,47.7976,0\H,101,2.32131,99,133.499,97,-45.2765,0\C,203,1.0931,101,143.131,99,-169.691,0\H,204,1.09313,203,107.958,101,-160.975,0\H,204,1.09324,203,105.835,101,77.9207,0\S,204,1.80719,203,109.129,101,-46.2392,0\O,207,1.49643,204,105.808,203,-73.9629,0\C,207,1.80656,204,101.845,203,175.421,0\H,209,1.09274,207,107.256,204,170.619,0\H,209,1.09316,207,113.272,204,55.3971,0\H,209,1.09338,207,113.185,204,-85.1304,0\O,50,2.36392,49,141.509,47,-110.881,0\S,213,1.49686,50,130.319,49,43.8663,0\C,214,1.80666,213,105.281,50,130.795,0\H,215,1.09207,214,99.2691,213,-115.032,0\H,215,1.09291,214,112.565,213,-8.08221,0\H,215,1.09331,214,113.182,213,131.005,0\C,214,1.80673,213,102.017,50,-127.67,0\H,219,1.09268,214,105.823,213,58.5341,0\H,219,1.0936,214,115.4,213,-162.569,0\H,219,1.09385,214,103.104,213,-44.4787,0\O,71,2.36833,69,136.989,67,168.864,0\S,223,1.49732,71,123.007,69,152.963,0\C,224,1.80676,223,103.868,71,-114.25,0\H,225,1.0926,224,112.432,223,49.5657,0\H,225,1.09304,224,102.813,223,-60.4404,0\H,225,1.0933,224,104.265,223,-177.487,0\C,224,1.80711,223,100.239,71,-11.1646,0\H,229,1.092,224,110.612,223,-58.5432,0\H,229,1.09282,224,108.052,223,62.3277,0\H,229,1.09302,224,105.759,223,-178.585,0\H,66,2.37229,64,142.816,63,-10.2688,0\C,233,1.09257,66,144.17,64,105.413,0\H,234,1.0925,233,110.574,66,-58.3727,0\H,234,1.09334,233,109.057,66,59.8502,0\S,234,1.80725,233,117.952,66,174.631,0\O,237,1.49686,234,103.157,233,-179.116,0\C,237,1.80723,234,99.0687,233,-81.457,0\H,239,1.09276,237,105.531,234,-60.9048,0\H,239,1.09298,237,113.719,234,64.2817,0\H,239,1.0938,237,108.091,234,174.119,0\H,14,2.42031,13,129.397,12,-26.6006,0\C,243,1.09352,14,123.247,13,-158.371,0\H,244,1.09268,243,102.981,14,-52.133,0\H,244,1.09308,243,107.412,14,68.6144,0\S,244,1.80651,243,113.23,14,-168.91,0\O,247,1.49735,244,100.215,243,-56.1208,0\C,247,1.80643,244,99.4456,243,-164.462,0\H,249,1.09307,247,108.871,244,64.4393,0\H,249,1.09308,247,111.364,244,-164.681,0\H,249,1.09316,247,106.671,244,-49.4168,0\H,83,2.44712,82,130.721,79,134.688,0\C,253,1.09238,83,129.138,82,-13.408,0\H,254,1.09333,253,106.672,83,97.3126,0\H,254,1.09357,253,107.077,83,-21.4389,0\S,254,1.80704,253,110.848,83,-140.989,0\O,257,1.49696,254,104.211,253,-71.9903,0\C,257,1.80694,254,98.8495,253,30.5808,0\H,259,1.09239,257,104.033,254,85.8395,0\H,259,1.09319,257,99.9714,254,-162.28,0\H,259,1.09335,257,114.365,254,-43.4446,0\H,2,2.45751,1,87.9275,3,85.8085,0\C,263,1.09327,2,156.458,1,-73.4286,0\H,264,1.09259,263,120.828,2,-0.862423,0\H,264,1.09355,263,108.957,2,-125.513,0\S,264,1.80698,263,110.333,2,122.259,0\O,267,1.49676,264,101.436,263,178.864,0\C,267,1.80693,264,100.04,263,-74.2934,0\H,269,1.09252,267,100.642,264,172.9,0\H,269,1.09308,267,110.207,264,52.8551,0\H,269,1.09359,267,104.678,264,-63.2668,0\H,265,2.12561,264,155.697,263,-47.6235,0\C,273,1.09285,265,154.207,264,132.832,0\H,274,1.09319,273,100.766,265,-142.447,0\H,274,1.09356,273,118.461,265,-31.5434,0\S,274,1.80721,273,110.784,265,102.084,0\O,277,1.49638,274,107.859,273,-158.738,0\C,277,1.8073,274,90.3351,273,-55.6246,0\H,279,1.09201,277,99.7446,274,-177.076,0\H,279,1.09259,277,103.622,274,-63.8784,0\H,279,1.09339,277,110.606,274,58.6943,0\H,266,2.38415,264,132.426,263,43.9146,0\C,283,1.09267,266,143.168,264,47.6919,0\H,284,1.09307,283,107.894,266,-113.344,0\H,284,1.09334,283,113.279,266,9.75928,0\S,284,1.80746,283,107.004,266,122.059,0\O,287,1.49792,284,102.71,283,-57.0329,0\C,287,1.8062,284,92.8881,283,48.5184,0\H,289,1.09317,287,116.152,284,158.585,0\H,289,1.09328,287,105.481,284,38.5572,0\H,289,1.09378,287,109.881,284,-82.2263,0\H,288,2.54763,287,113.181,284,-121.604,0\C,293,1.09279,288,120.114,287,165.077,0\H,294,1.09243,293,117.808,288,164.483,0\H,294,1.09345,293,103.609,288,45.6211,0\S,294,1.80664,293,108.781,288,-69.6144,0\O,297,1.49799,294,105.521,293,-76.7327,0\C,297,1.80723,294,93.6969,293,173.201,0\H,299,1.09281,297,113.874,294,170.135,0\H,299,1.09343,297,108.887,294,-61.3787,0\H,299,1.09375,297,103.008,294,54.2557,0\\\@

 Total job time:  63.19s(wall), 207.25s(cpu) 
 Fri Dec  3 16:44:51 2021

        *************************************************************
        *                                                           *
        *  Thank you very much for using Q-Chem.  Have a nice day.  *
        *                                                           *
        *************************************************************


