                  Welcome to Q-Chem
     A Quantum Leap Into The Future Of Chemistry


 Q-Chem 5.2 (devel), Q-Chem, Inc., Pleasanton, CA (2019)

 Yihan Shao,  Zhengting Gan,  E. Epifanovsky,  A. T. B. Gilbert,  M. Wormit,  
 J. Kussmann,  A. W. Lange,  A. Behn,  Jia Deng,  Xintian Feng,  D. Ghosh,  
 M. Goldey,  P. R. Horn,  L. D. Jacobson,  I. Kaliman,  T. Kus,  A. Landau,  
 Jie Liu,  E. I. Proynov,  R. M. Richard,  R. P. Steele,  E. J. Sundstrom,  
 H. L. Woodcock III,  P. M. Zimmerman,  D. Zuev,  B. Alam,  B. Albrecht,  
 E. Alguire,  S. A. Baeppler,  D. Barton,  Z. Benda,  Y. A. Bernard,  
 E. J. Berquist,  K. B. Bravaya,  H. Burton,  K. Carter-Fenk,  D. Casanova,  
 Chun-Min Chang,  Yunqing Chen,  A. Chien,  K. D. Closser,  M. P. Coons,  
 S. Coriani,  S. Dasgupta,  A. L. Dempwolff,  M. Diedenhofen,  Hainam Do,  
 R. G. Edgar,  Po-Tung Fang,  S. Faraji,  S. Fatehi,  Qingguo Feng,  
 J. Fosso-Tande,  J. Gayvert,  Qinghui Ge,  A. Ghysels,  G. Gidofalvi,  
 J. Gomes,  J. Gonthier,  A. Gunina,  D. Hait,  M. W. D. Hanson-Heine,  
 P. H. P. Harbach,  A. W. Hauser,  M. F. Herbst,  J. E. Herr,  
 E. G. Hohenstein,  Z. C. Holden,  Kerwin Hui,  B. C. Huynh,  T.-C. Jagau,  
 Hyunjun Ji,  B. Kaduk,  K. Khistyaev,  Jaehoon Kim,  P. Klunzinger,  K. Koh,  
 D. Kosenkov,  L. Koulias,  T. Kowalczyk,  C. M. Krauter,  A. Kunitsa,  
 Ka Un Lao,  A. Laurent,  K. V. Lawler,  Joonho Lee,  D. Lefrancois,  
 S. Lehtola,  D. S. Levine,  Yi-Pei Li,  You-Sheng Lin,  Fenglai Liu,  
 Kuan-Yu Liu,  E. Livshits,  M. Loipersberger,  A. Luenser,  P. Manohar,  
 E. Mansoor,  S. F. Manzer,  Shan-Ping Mao,  Yuezhi Mao,  N. Mardirossian,  
 A. V. Marenich,  T. Markovich,  L. A. Martinez-Martinez,  S. A. Maurer,  
 N. J. Mayhall,  S. C. McKenzie,  J.-M. Mewes,  P. Morgante,  A. F. Morrison,  
 J. W. Mullinax,  K. Nanda,  T. S. Nguyen-Beck,  R. Olivares-Amaya,  
 J. A. Parkhill,  S. K. Paul,  F. Pavosevic,  Zheng Pei,  T. M. Perrine,  
 F. Plasser,  P. Pokhilko,  S. Prager,  A. Prociuk,  E. Ramos,  B. Rana,  
 D. R. Rehn,  F. Rob,  M. Scheurer,  M. Schneider,  N. Sergueev,  
 S. M. Sharada,  S. Sharma,  D. W. Small,  T. Stauch,  C. J. Stein,  
 T. Stein,  Yu-Chuan Su,  S. P. Veccham,  Zhen Tao,  A. J. W. Thom,  
 A. Tkatchenko,  T. Tsuchimochi,  N. M. Tubman,  L. Vogt,  M. L. Vidal,  
 O. Vydrov,  M. A. Watson,  J. Wenzel,  M. de Wergifosse,  T. A. Wesolowski,  
 A. White,  J. Witte,  A. Yamada,  Jun Yang,  K. Yao,  S. Yeganeh,  
 S. R. Yost,  Zhi-Qiang You,  A. Zech,  Igor Ying Zhang,  Xing Zhang,  
 Yan Zhao,  Ying Zhu,  B. R. Brooks,  G. K. L. Chan,  C. J. Cramer,  
 M. S. Gordon,  W. J. Hehre,  A. Klamt,  M. W. Schmidt,  C. D. Sherrill,  
 D. G. Truhlar,  A. Aspuru-Guzik,  R. Baer,  A. T. Bell,  N. A. Besley,  
 Jeng-Da Chai,  A. E. DePrince, III,  R. A. DiStasio Jr.,  A. Dreuw,  
 B. D. Dunietz,  T. R. Furlani,  Chao-Ping Hsu,  Yousung Jung,  Jing Kong,  
 D. S. Lambrecht,  WanZhen Liang,  C. Ochsenfeld,  V. A. Rassolov,  
 L. V. Slipchenko,  J. E. Subotnik,  T. Van Voorhis,  J. M. Herbert,  
 A. I. Krylov,  P. M. W. Gill,  M. Head-Gordon

 Contributors to earlier versions of Q-Chem not listed above: 
 R. D. Adamson,  B. Austin,  J. Baker,  G. J. O. Beran,  K. Brandhorst,  
 S. T. Brown,  E. F. C. Byrd,  A. K. Chakraborty,  C.-L. Cheng,  
 Siu Hung Chien,  D. M. Chipman,  D. L. Crittenden,  H. Dachsel,  
 R. J. Doerksen,  A. D. Dutoi,  L. Fusti-Molnar,  W. A. Goddard III,  
 A. Golubeva-Zadorozhnaya,  S. R. Gwaltney,  G. Hawkins,  A. Heyden,  
 S. Hirata,  G. Kedziora,  F. J. Keil,  C. Kelley,  Jihan Kim,  R. A. King,  
 R. Z. Khaliullin,  P. P. Korambath,  W. Kurlancheek,  A. M. Lee,  M. S. Lee,  
 S. V. Levchenko,  Ching Yeh Lin,  D. Liotard,  R. C. Lochan,  I. Lotan,  
 P. E. Maslen,  N. Nair,  D. P. O'Neill,  D. Neuhauser,  E. Neuscamman,  
 C. M. Oana,  R. Olson,  B. Peters,  R. Peverati,  P. A. Pieniazek,  
 Y. M. Rhee,  J. Ritchie,  M. A. Rohrdanz,  E. Rosta,  N. J. Russ,  
 H. F. Schaefer III,  N. E. Schultz,  N. Shenvi,  A. C. Simmonett,  A. Sodt,  
 D. Stuck,  K. S. Thanthiriwatte,  V. Vanovschi,  Tao Wang,  A. Warshel,  
 C. F. Williams,  Q. Wu,  X. Xu,  W. Zhang

 Please cite Q-Chem as follows:
 Y. Shao et al., Mol. Phys. 113, 184-215 (2015)
 DOI: 10.1080/00268976.2014.952696

 Q-Chem 5.2.2 for Intel X86 EM64T Linux

 Parts of Q-Chem use Armadillo 9.800.1 (Horizon Scraper).
 http://arma.sourceforge.net/

 Q-Chem begins on Fri Dec  3 16:44:55 2021  

Host: node029
0

     Scratch files written to /home/ymao90/scratch/r7.00_frame_0041_spade_B3LYP_dp20211203120848//

Checking the input file for inconsistencies... 	...done.

--------------------------------------------------------------
User input:
--------------------------------------------------------------
$molecule
0 1
--
0 1
C    23.65900   15.88500   26.52000  
C    22.22200   16.04800   27.04200  
C    22.13000   17.14500   28.11500  
C    22.56800   18.49400   27.52300  
C    23.96000   18.48000   26.87000  
C    24.34800   17.19800   26.11500  
H    21.11800   17.30700   28.50800  
H    21.54600   16.30400   26.21700  
H    24.21300   15.46700   27.37000  
H    23.81500   15.14000   25.73100  
H    21.92500   18.79500   26.68700  
H    22.56100   19.30000   28.26700  
H    24.31300   19.38700   26.36500  
H    24.55600   18.57900   27.78600  
H    24.09000   17.32500   25.05600  
H    25.43900   17.09700   26.17000  
H    22.89400   16.86300   28.85000  
N    21.84300   14.80300   27.70800  
H    22.24100   14.56700   28.60900  
C    20.60700   14.23000   27.49700  
H    20.40100   13.37100   28.16100  
O    19.80900   14.66000   26.68400  
--
0 1
C    19.54000   17.45200   24.59800  
H    19.07200   18.32500   25.06000  
H    18.87000   17.20400   23.77200  
H    19.84800   16.62800   25.24700  
S    21.15300   18.07100   24.07000  
C    20.51400   19.44300   23.08200  
H    21.35600   20.00100   22.66500  
H    19.99700   18.98400   22.23500  
H    19.78400   20.05000   23.62400  
O    21.51800   17.19900   22.90900  
C    23.50800   22.48400   32.42300  
H    23.68100   23.48100   32.83300  
H    22.45500   22.20500   32.51600  
H    24.02000   21.74700   33.04600  
S    24.02700   22.19300   30.71700  
C    23.69900   20.43100   30.94400  
H    24.11000   20.07900   29.99500  
H    24.06500   20.02900   31.89200  
H    22.62700   20.21500   30.96100  
O    25.51600   22.32400   30.80600  
C    27.30000   20.00300   32.85700  
H    26.66700   20.25600   33.71100  
H    27.39100   20.87000   32.19800  
H    26.85800   19.16100   32.31800  
S    28.96300   19.54700   33.39800  
C    29.46400   18.89900   31.78800  
H    29.56700   19.77300   31.13900  
H    30.38700   18.35700   32.00800  
H    28.62500   18.33000   31.37800  
O    28.86200   18.25600   34.14900  
C    15.41400   9.31900    29.22000  
H    16.23100   9.04300    28.54900  
H    15.71200   9.22500    30.26700  
H    14.60900   8.62700    28.95900  
S    14.89400   11.02800   28.94100  
C    16.05100   11.68400   30.16400  
H    15.82800   11.16100   31.09800  
H    17.06300   11.46700   29.81300  
H    15.80700   12.74800   30.23500  
O    13.71300   11.03200   29.86000  
C    17.18800   14.88600   24.62400  
H    16.62100   15.79000   24.38600  
H    18.23700   15.17400   24.73100  
H    17.21400   14.19600   23.77700  
S    16.60400   14.10800   26.14600  
C    17.27500   12.48600   25.72000  
H    16.73900   12.16300   24.82300  
H    18.34100   12.71500   25.63800  
H    17.05300   11.80400   26.54500  
O    15.14500   13.86700   25.91500  
C    23.80600   6.80100    29.93600  
H    22.74500   6.72300    29.68600  
H    24.56800   6.25700    29.37200  
H    23.93800   6.41900    30.95200  
S    24.28500   8.54200    29.88100  
C    22.91600   9.19100    30.86600  
H    22.02200   8.95900    30.28200  
H    22.97100   8.75600    31.86700  
H    23.09200   10.26800   30.94200  
O    23.90600   8.92100    28.48300  
C    21.33500   12.27800   21.52100  
H    20.49900   12.22800   20.81800  
H    21.84900   13.20600   21.25800  
H    21.85300   11.33600   21.32100  
S    20.76800   12.25100   23.23600  
C    21.58600   13.77200   23.76900  
H    21.47700   14.56400   23.02400  
H    21.21400   14.14700   24.72600  
H    22.65200   13.54900   23.86100  
O    21.73500   11.28500   23.84600  
C    28.23500   15.81100   27.31200  
H    27.66500   15.47600   26.44300  
H    27.95300   16.81600   27.63600  
H    29.29400   15.84800   27.04400  
S    27.85900   14.71600   28.69900  
C    26.98000   16.00700   29.60900  
H    27.82000   16.61600   29.95200  
H    26.31700   16.60300   28.97600  
H    26.51100   15.48600   30.44700  
O    29.21400   14.65800   29.33300  
C    24.19700   19.98000   23.11400  
H    24.33700   20.78200   22.38500  
H    23.32700   19.33100   22.98600  
H    24.03200   20.45900   24.08200  
S    25.68900   18.96300   23.20000  
C    26.85200   20.34100   23.09100  
H    26.40100   21.08400   22.42900  
H    26.99400   20.75300   24.09400  
H    27.76900   19.99400   22.60800  
O    25.64100   18.21800   21.90300  
C    17.37400   15.09100   29.40600  
H    17.98800   14.70000   28.59100  
H    16.34000   14.74200   29.34200  
H    17.51800   16.17300   29.45900  
S    18.17300   14.40400   30.87400  
C    16.99600   14.89600   32.15400  
H    16.92100   15.98300   32.06600  
H    16.04400   14.41200   31.92300  
H    17.42900   14.72300   33.14200  
O    19.38400   15.28000   30.96300  
C    15.73400   19.51700   25.42900  
H    16.30400   19.21700   24.54600  
H    14.70500   19.69000   25.10700  
H    16.08200   20.41300   25.95000  
S    15.73000   18.09500   26.54400  
C    14.33300   18.50100   27.61600  
H    13.46900   18.84800   27.04200  
H    14.12600   17.73500   28.36700  
H    14.69800   19.33000   28.22800  
O    16.98300   18.53100   27.23700  
C    21.15000   18.35300   31.57000  
H    21.49400   18.45900   30.53800  
H    21.83100   18.63200   32.37900  
H    20.87200   17.30900   31.73600  
S    19.58700   19.23200   31.79400  
C    19.02400   18.59600   30.19900  
H    17.97700   18.82600   29.98700  
H    19.49300   19.10500   29.35300  
H    19.16800   17.51300   30.16600  
O    19.91200   20.64400   31.41600  
C    24.64100   12.34500   31.85700  
H    25.43700   12.79400   32.45600  
H    23.81600   12.14900   32.54600  
H    24.93600   11.37800   31.44100  
S    23.96300   13.35400   30.51900  
C    23.04100   14.31100   31.74300  
H    22.46700   15.07900   31.21900  
H    22.39000   13.72300   32.39500  
H    23.78000   14.74100   32.42400  
O    22.92200   12.50800   29.85500  
C    28.94400   19.36900   26.73600  
H    28.88800   19.93300   25.80100  
H    29.87400   19.57100   27.27400  
H    28.85600   18.31900   26.44300  
S    27.52700   19.92700   27.70800  
C    28.11200   21.55100   28.24200  
H    27.47400   21.82500   29.08600  
H    29.13000   21.46800   28.63000  
H    28.11000   22.32500   27.46900  
O    27.78900   19.10400   28.93000  
C    28.94000   16.95900   23.77000  
H    28.69000   16.69900   22.73800  
H    28.86900   16.07100   24.40300  
H    28.30300   17.75500   24.16300  
S    30.65100   17.53700   23.85500  
C    31.35800   15.96200   23.32200  
H    31.43400   15.13400   24.03100  
H    30.83300   15.64800   22.41600  
H    32.38600   16.20600   23.04100  
O    31.00100   17.62500   25.30800  
C    20.15800   11.70300   30.83500  
H    20.36200   12.71500   31.19300  
H    21.03900   11.14800   30.50400  
H    19.41200   11.64400   30.03800  
S    19.70900   10.78000   32.32300  
C    18.83000   9.29300    31.79100  
H    19.23500   8.82600    30.89000  
H    18.90100   8.57700    32.61400  
H    17.78000   9.59800    31.79900  
O    18.63600   11.52500   33.05300  
C    25.55800   14.79000   20.80900  
H    25.84300   14.26300   19.89500  
H    24.46700   14.84800   20.78200  
H    26.02600   15.77000   20.92900  
S    26.20500   13.88600   22.23400  
C    25.47500   14.99000   23.46500  
H    24.47700   15.33300   23.18100  
H    25.53100   14.51800   24.44900  
H    26.04400   15.92000   23.40100  
O    27.69000   14.05300   22.15300  
C    24.87800   24.95200   25.98300  
H    24.96600   25.41700   24.99700  
H    24.09600   25.51600   26.49800  
H    25.79700   24.94800   26.57300  
S    24.32900   23.26400   25.64600  
C    24.19000   22.74800   27.37300  
H    25.15100   22.95400   27.85100  
H    23.39600   23.36000   27.80900  
H    23.95500   21.70000   27.17000  
O    25.66400   22.73000   25.22900  
C    20.28200   8.02700    27.51600  
H    21.09200   7.73600    26.84200  
H    20.75700   8.43000    28.41400  
H    19.64100   7.18400    27.78500  
S    19.24400   9.33200    26.82000  
C    20.66500   10.44600   26.74500  
H    21.26500   9.89200    26.01900  
H    20.22800   11.40700   26.46100  
H    21.13700   10.53000   27.72700  
O    18.52900   9.86800    28.02200  
C    19.56300   21.02000   26.70000  
H    19.62700   19.94100   26.54200  
H    19.37700   21.22000   27.75900  
H    18.78400   21.46000   26.07200  
S    21.14400   21.81100   26.32800  
C    20.61300   23.50900   26.64700  
H    20.04000   23.85100   25.78200  
H    19.94900   23.55000   27.51300  
H    21.51800   24.11000   26.77000  
O    21.23400   21.69100   24.83800  
C    19.31800   26.08500   31.30800  
H    19.87100   25.88100   32.22800  
H    20.00200   26.60900   30.63400  
H    18.35100   26.55600   31.49800  
S    18.95600   24.41600   30.72000  
C    20.65700   23.81500   30.61100  
H    21.13000   24.57300   29.98200  
H    21.16200   23.62000   31.56100  
H    20.55300   22.90600   30.01400  
O    18.55200   24.64700   29.29800  
C    18.71500   15.03700   21.39300  
H    19.69800   15.09300   20.91900  
H    18.32200   16.05100   21.49700  
H    18.73900   14.50600   22.34800  
S    17.65100   14.06100   20.30600  
C    17.35000   15.44900   19.18900  
H    17.28800   16.36400   19.78500  
H    18.22800   15.45900   18.53800  
H    16.40100   15.16100   18.72900  
O    16.34900   14.06400   21.04400  
C    23.78600   11.83200   26.60700  
H    23.04100   11.06200   26.38700  
H    24.12600   11.71600   27.63900  
H    23.41700   12.86000   26.56000  
S    25.23200   11.81500   25.52400  
C    25.79900   10.26200   26.25200  
H    26.85100   10.13600   25.98100  
H    25.71800   10.29200   27.34100  
H    25.20400   9.45200    25.82200  
O    26.11700   12.80600   26.21400  
C    23.26200   18.96100   19.21600  
H    23.33300   19.98800   19.58200  
H    24.10400   18.33500   19.52200  
H    23.08200   18.90000   18.14000  
S    21.85600   18.29900   20.13800  
C    21.83300   16.83400   19.08100  
H    21.90600   17.02600   18.00800  
H    22.72600   16.29700   19.41200  
H    20.91900   16.28600   19.32700  
O    20.71800   19.21800   19.82400  
C    24.66900   10.55700   21.69700  
H    24.41400   9.56000    21.32900  
H    23.83700   10.91200   22.31000  
H    24.91300   11.09200   20.77600  
S    26.18800   10.23800   22.62300  
C    27.05700   9.57900    21.18200  
H    27.30400   10.43900   20.55300  
H    27.99000   9.15300    21.55900  
H    26.45200   8.78400    20.74000  
O    25.83600   8.95300    23.30500  
$end

$rem
JOBTYPE  SP
METHOD  B3LYP
BASIS  6-31+G(D)
SYMMETRY  FALSE
SYM_IGNORE  TRUE
MEM_TOTAL  16000
MEM_STATIC  8000
MAX_SUB_FILE_NUM  16000
BASIS_LIN_DEP_THRESH  6
THRESH  14
SCF_CONVERGENCE  8
GEN_SCFMAN  TRUE
SCF_GUESS  SAD
FD_MAT_VEC_PROD  FALSE
XC_GRID  000075000302
NL_GRID  1
MAX_SCF_CYCLES  200
ENV_METHOD  B3LYP
GEN_SCFMAN_EMBED  TRUE
SPADE_PARTITION  TRUE
$end

$development
embedding_early_stop  1
$end

--------------------------------------------------------------
 ----------------------------------------------------------------
             Standard Nuclear Orientation (Angstroms)
    I     Atom           X                Y                Z
 ----------------------------------------------------------------
    1      C      23.6590000000    15.8850000000    26.5200000000
    2      C      22.2220000000    16.0480000000    27.0420000000
    3      C      22.1300000000    17.1450000000    28.1150000000
    4      C      22.5680000000    18.4940000000    27.5230000000
    5      C      23.9600000000    18.4800000000    26.8700000000
    6      C      24.3480000000    17.1980000000    26.1150000000
    7      H      21.1180000000    17.3070000000    28.5080000000
    8      H      21.5460000000    16.3040000000    26.2170000000
    9      H      24.2130000000    15.4670000000    27.3700000000
   10      H      23.8150000000    15.1400000000    25.7310000000
   11      H      21.9250000000    18.7950000000    26.6870000000
   12      H      22.5610000000    19.3000000000    28.2670000000
   13      H      24.3130000000    19.3870000000    26.3650000000
   14      H      24.5560000000    18.5790000000    27.7860000000
   15      H      24.0900000000    17.3250000000    25.0560000000
   16      H      25.4390000000    17.0970000000    26.1700000000
   17      H      22.8940000000    16.8630000000    28.8500000000
   18      N      21.8430000000    14.8030000000    27.7080000000
   19      H      22.2410000000    14.5670000000    28.6090000000
   20      C      20.6070000000    14.2300000000    27.4970000000
   21      H      20.4010000000    13.3710000000    28.1610000000
   22      O      19.8090000000    14.6600000000    26.6840000000
   23      C      19.5400000000    17.4520000000    24.5980000000
   24      H      19.0720000000    18.3250000000    25.0600000000
   25      H      18.8700000000    17.2040000000    23.7720000000
   26      H      19.8480000000    16.6280000000    25.2470000000
   27      S      21.1530000000    18.0710000000    24.0700000000
   28      C      20.5140000000    19.4430000000    23.0820000000
   29      H      21.3560000000    20.0010000000    22.6650000000
   30      H      19.9970000000    18.9840000000    22.2350000000
   31      H      19.7840000000    20.0500000000    23.6240000000
   32      O      21.5180000000    17.1990000000    22.9090000000
   33      C      23.5080000000    22.4840000000    32.4230000000
   34      H      23.6810000000    23.4810000000    32.8330000000
   35      H      22.4550000000    22.2050000000    32.5160000000
   36      H      24.0200000000    21.7470000000    33.0460000000
   37      S      24.0270000000    22.1930000000    30.7170000000
   38      C      23.6990000000    20.4310000000    30.9440000000
   39      H      24.1100000000    20.0790000000    29.9950000000
   40      H      24.0650000000    20.0290000000    31.8920000000
   41      H      22.6270000000    20.2150000000    30.9610000000
   42      O      25.5160000000    22.3240000000    30.8060000000
   43      C      27.3000000000    20.0030000000    32.8570000000
   44      H      26.6670000000    20.2560000000    33.7110000000
   45      H      27.3910000000    20.8700000000    32.1980000000
   46      H      26.8580000000    19.1610000000    32.3180000000
   47      S      28.9630000000    19.5470000000    33.3980000000
   48      C      29.4640000000    18.8990000000    31.7880000000
   49      H      29.5670000000    19.7730000000    31.1390000000
   50      H      30.3870000000    18.3570000000    32.0080000000
   51      H      28.6250000000    18.3300000000    31.3780000000
   52      O      28.8620000000    18.2560000000    34.1490000000
   53      C      15.4140000000     9.3190000000    29.2200000000
   54      H      16.2310000000     9.0430000000    28.5490000000
   55      H      15.7120000000     9.2250000000    30.2670000000
   56      H      14.6090000000     8.6270000000    28.9590000000
   57      S      14.8940000000    11.0280000000    28.9410000000
   58      C      16.0510000000    11.6840000000    30.1640000000
   59      H      15.8280000000    11.1610000000    31.0980000000
   60      H      17.0630000000    11.4670000000    29.8130000000
   61      H      15.8070000000    12.7480000000    30.2350000000
   62      O      13.7130000000    11.0320000000    29.8600000000
   63      C      17.1880000000    14.8860000000    24.6240000000
   64      H      16.6210000000    15.7900000000    24.3860000000
   65      H      18.2370000000    15.1740000000    24.7310000000
   66      H      17.2140000000    14.1960000000    23.7770000000
   67      S      16.6040000000    14.1080000000    26.1460000000
   68      C      17.2750000000    12.4860000000    25.7200000000
   69      H      16.7390000000    12.1630000000    24.8230000000
   70      H      18.3410000000    12.7150000000    25.6380000000
   71      H      17.0530000000    11.8040000000    26.5450000000
   72      O      15.1450000000    13.8670000000    25.9150000000
   73      C      23.8060000000     6.8010000000    29.9360000000
   74      H      22.7450000000     6.7230000000    29.6860000000
   75      H      24.5680000000     6.2570000000    29.3720000000
   76      H      23.9380000000     6.4190000000    30.9520000000
   77      S      24.2850000000     8.5420000000    29.8810000000
   78      C      22.9160000000     9.1910000000    30.8660000000
   79      H      22.0220000000     8.9590000000    30.2820000000
   80      H      22.9710000000     8.7560000000    31.8670000000
   81      H      23.0920000000    10.2680000000    30.9420000000
   82      O      23.9060000000     8.9210000000    28.4830000000
   83      C      21.3350000000    12.2780000000    21.5210000000
   84      H      20.4990000000    12.2280000000    20.8180000000
   85      H      21.8490000000    13.2060000000    21.2580000000
   86      H      21.8530000000    11.3360000000    21.3210000000
   87      S      20.7680000000    12.2510000000    23.2360000000
   88      C      21.5860000000    13.7720000000    23.7690000000
   89      H      21.4770000000    14.5640000000    23.0240000000
   90      H      21.2140000000    14.1470000000    24.7260000000
   91      H      22.6520000000    13.5490000000    23.8610000000
   92      O      21.7350000000    11.2850000000    23.8460000000
   93      C      28.2350000000    15.8110000000    27.3120000000
   94      H      27.6650000000    15.4760000000    26.4430000000
   95      H      27.9530000000    16.8160000000    27.6360000000
   96      H      29.2940000000    15.8480000000    27.0440000000
   97      S      27.8590000000    14.7160000000    28.6990000000
   98      C      26.9800000000    16.0070000000    29.6090000000
   99      H      27.8200000000    16.6160000000    29.9520000000
  100      H      26.3170000000    16.6030000000    28.9760000000
  101      H      26.5110000000    15.4860000000    30.4470000000
  102      O      29.2140000000    14.6580000000    29.3330000000
  103      C      24.1970000000    19.9800000000    23.1140000000
  104      H      24.3370000000    20.7820000000    22.3850000000
  105      H      23.3270000000    19.3310000000    22.9860000000
  106      H      24.0320000000    20.4590000000    24.0820000000
  107      S      25.6890000000    18.9630000000    23.2000000000
  108      C      26.8520000000    20.3410000000    23.0910000000
  109      H      26.4010000000    21.0840000000    22.4290000000
  110      H      26.9940000000    20.7530000000    24.0940000000
  111      H      27.7690000000    19.9940000000    22.6080000000
  112      O      25.6410000000    18.2180000000    21.9030000000
  113      C      17.3740000000    15.0910000000    29.4060000000
  114      H      17.9880000000    14.7000000000    28.5910000000
  115      H      16.3400000000    14.7420000000    29.3420000000
  116      H      17.5180000000    16.1730000000    29.4590000000
  117      S      18.1730000000    14.4040000000    30.8740000000
  118      C      16.9960000000    14.8960000000    32.1540000000
  119      H      16.9210000000    15.9830000000    32.0660000000
  120      H      16.0440000000    14.4120000000    31.9230000000
  121      H      17.4290000000    14.7230000000    33.1420000000
  122      O      19.3840000000    15.2800000000    30.9630000000
  123      C      15.7340000000    19.5170000000    25.4290000000
  124      H      16.3040000000    19.2170000000    24.5460000000
  125      H      14.7050000000    19.6900000000    25.1070000000
  126      H      16.0820000000    20.4130000000    25.9500000000
  127      S      15.7300000000    18.0950000000    26.5440000000
  128      C      14.3330000000    18.5010000000    27.6160000000
  129      H      13.4690000000    18.8480000000    27.0420000000
  130      H      14.1260000000    17.7350000000    28.3670000000
  131      H      14.6980000000    19.3300000000    28.2280000000
  132      O      16.9830000000    18.5310000000    27.2370000000
  133      C      21.1500000000    18.3530000000    31.5700000000
  134      H      21.4940000000    18.4590000000    30.5380000000
  135      H      21.8310000000    18.6320000000    32.3790000000
  136      H      20.8720000000    17.3090000000    31.7360000000
  137      S      19.5870000000    19.2320000000    31.7940000000
  138      C      19.0240000000    18.5960000000    30.1990000000
  139      H      17.9770000000    18.8260000000    29.9870000000
  140      H      19.4930000000    19.1050000000    29.3530000000
  141      H      19.1680000000    17.5130000000    30.1660000000
  142      O      19.9120000000    20.6440000000    31.4160000000
  143      C      24.6410000000    12.3450000000    31.8570000000
  144      H      25.4370000000    12.7940000000    32.4560000000
  145      H      23.8160000000    12.1490000000    32.5460000000
  146      H      24.9360000000    11.3780000000    31.4410000000
  147      S      23.9630000000    13.3540000000    30.5190000000
  148      C      23.0410000000    14.3110000000    31.7430000000
  149      H      22.4670000000    15.0790000000    31.2190000000
  150      H      22.3900000000    13.7230000000    32.3950000000
  151      H      23.7800000000    14.7410000000    32.4240000000
  152      O      22.9220000000    12.5080000000    29.8550000000
  153      C      28.9440000000    19.3690000000    26.7360000000
  154      H      28.8880000000    19.9330000000    25.8010000000
  155      H      29.8740000000    19.5710000000    27.2740000000
  156      H      28.8560000000    18.3190000000    26.4430000000
  157      S      27.5270000000    19.9270000000    27.7080000000
  158      C      28.1120000000    21.5510000000    28.2420000000
  159      H      27.4740000000    21.8250000000    29.0860000000
  160      H      29.1300000000    21.4680000000    28.6300000000
  161      H      28.1100000000    22.3250000000    27.4690000000
  162      O      27.7890000000    19.1040000000    28.9300000000
  163      C      28.9400000000    16.9590000000    23.7700000000
  164      H      28.6900000000    16.6990000000    22.7380000000
  165      H      28.8690000000    16.0710000000    24.4030000000
  166      H      28.3030000000    17.7550000000    24.1630000000
  167      S      30.6510000000    17.5370000000    23.8550000000
  168      C      31.3580000000    15.9620000000    23.3220000000
  169      H      31.4340000000    15.1340000000    24.0310000000
  170      H      30.8330000000    15.6480000000    22.4160000000
  171      H      32.3860000000    16.2060000000    23.0410000000
  172      O      31.0010000000    17.6250000000    25.3080000000
  173      C      20.1580000000    11.7030000000    30.8350000000
  174      H      20.3620000000    12.7150000000    31.1930000000
  175      H      21.0390000000    11.1480000000    30.5040000000
  176      H      19.4120000000    11.6440000000    30.0380000000
  177      S      19.7090000000    10.7800000000    32.3230000000
  178      C      18.8300000000     9.2930000000    31.7910000000
  179      H      19.2350000000     8.8260000000    30.8900000000
  180      H      18.9010000000     8.5770000000    32.6140000000
  181      H      17.7800000000     9.5980000000    31.7990000000
  182      O      18.6360000000    11.5250000000    33.0530000000
  183      C      25.5580000000    14.7900000000    20.8090000000
  184      H      25.8430000000    14.2630000000    19.8950000000
  185      H      24.4670000000    14.8480000000    20.7820000000
  186      H      26.0260000000    15.7700000000    20.9290000000
  187      S      26.2050000000    13.8860000000    22.2340000000
  188      C      25.4750000000    14.9900000000    23.4650000000
  189      H      24.4770000000    15.3330000000    23.1810000000
  190      H      25.5310000000    14.5180000000    24.4490000000
  191      H      26.0440000000    15.9200000000    23.4010000000
  192      O      27.6900000000    14.0530000000    22.1530000000
  193      C      24.8780000000    24.9520000000    25.9830000000
  194      H      24.9660000000    25.4170000000    24.9970000000
  195      H      24.0960000000    25.5160000000    26.4980000000
  196      H      25.7970000000    24.9480000000    26.5730000000
  197      S      24.3290000000    23.2640000000    25.6460000000
  198      C      24.1900000000    22.7480000000    27.3730000000
  199      H      25.1510000000    22.9540000000    27.8510000000
  200      H      23.3960000000    23.3600000000    27.8090000000
  201      H      23.9550000000    21.7000000000    27.1700000000
  202      O      25.6640000000    22.7300000000    25.2290000000
  203      C      20.2820000000     8.0270000000    27.5160000000
  204      H      21.0920000000     7.7360000000    26.8420000000
  205      H      20.7570000000     8.4300000000    28.4140000000
  206      H      19.6410000000     7.1840000000    27.7850000000
  207      S      19.2440000000     9.3320000000    26.8200000000
  208      C      20.6650000000    10.4460000000    26.7450000000
  209      H      21.2650000000     9.8920000000    26.0190000000
  210      H      20.2280000000    11.4070000000    26.4610000000
  211      H      21.1370000000    10.5300000000    27.7270000000
  212      O      18.5290000000     9.8680000000    28.0220000000
  213      C      19.5630000000    21.0200000000    26.7000000000
  214      H      19.6270000000    19.9410000000    26.5420000000
  215      H      19.3770000000    21.2200000000    27.7590000000
  216      H      18.7840000000    21.4600000000    26.0720000000
  217      S      21.1440000000    21.8110000000    26.3280000000
  218      C      20.6130000000    23.5090000000    26.6470000000
  219      H      20.0400000000    23.8510000000    25.7820000000
  220      H      19.9490000000    23.5500000000    27.5130000000
  221      H      21.5180000000    24.1100000000    26.7700000000
  222      O      21.2340000000    21.6910000000    24.8380000000
  223      C      19.3180000000    26.0850000000    31.3080000000
  224      H      19.8710000000    25.8810000000    32.2280000000
  225      H      20.0020000000    26.6090000000    30.6340000000
  226      H      18.3510000000    26.5560000000    31.4980000000
  227      S      18.9560000000    24.4160000000    30.7200000000
  228      C      20.6570000000    23.8150000000    30.6110000000
  229      H      21.1300000000    24.5730000000    29.9820000000
  230      H      21.1620000000    23.6200000000    31.5610000000
  231      H      20.5530000000    22.9060000000    30.0140000000
  232      O      18.5520000000    24.6470000000    29.2980000000
  233      C      18.7150000000    15.0370000000    21.3930000000
  234      H      19.6980000000    15.0930000000    20.9190000000
  235      H      18.3220000000    16.0510000000    21.4970000000
  236      H      18.7390000000    14.5060000000    22.3480000000
  237      S      17.6510000000    14.0610000000    20.3060000000
  238      C      17.3500000000    15.4490000000    19.1890000000
  239      H      17.2880000000    16.3640000000    19.7850000000
  240      H      18.2280000000    15.4590000000    18.5380000000
  241      H      16.4010000000    15.1610000000    18.7290000000
  242      O      16.3490000000    14.0640000000    21.0440000000
  243      C      23.7860000000    11.8320000000    26.6070000000
  244      H      23.0410000000    11.0620000000    26.3870000000
  245      H      24.1260000000    11.7160000000    27.6390000000
  246      H      23.4170000000    12.8600000000    26.5600000000
  247      S      25.2320000000    11.8150000000    25.5240000000
  248      C      25.7990000000    10.2620000000    26.2520000000
  249      H      26.8510000000    10.1360000000    25.9810000000
  250      H      25.7180000000    10.2920000000    27.3410000000
  251      H      25.2040000000     9.4520000000    25.8220000000
  252      O      26.1170000000    12.8060000000    26.2140000000
  253      C      23.2620000000    18.9610000000    19.2160000000
  254      H      23.3330000000    19.9880000000    19.5820000000
  255      H      24.1040000000    18.3350000000    19.5220000000
  256      H      23.0820000000    18.9000000000    18.1400000000
  257      S      21.8560000000    18.2990000000    20.1380000000
  258      C      21.8330000000    16.8340000000    19.0810000000
  259      H      21.9060000000    17.0260000000    18.0080000000
  260      H      22.7260000000    16.2970000000    19.4120000000
  261      H      20.9190000000    16.2860000000    19.3270000000
  262      O      20.7180000000    19.2180000000    19.8240000000
  263      C      24.6690000000    10.5570000000    21.6970000000
  264      H      24.4140000000     9.5600000000    21.3290000000
  265      H      23.8370000000    10.9120000000    22.3100000000
  266      H      24.9130000000    11.0920000000    20.7760000000
  267      S      26.1880000000    10.2380000000    22.6230000000
  268      C      27.0570000000     9.5790000000    21.1820000000
  269      H      27.3040000000    10.4390000000    20.5530000000
  270      H      27.9900000000     9.1530000000    21.5590000000
  271      H      26.4520000000     8.7840000000    20.7400000000
  272      O      25.8360000000     8.9530000000    23.3050000000
 ----------------------------------------------------------------
 Nuclear Repulsion Energy =       42752.15760376 hartrees
 There are      560 alpha and      560 beta electrons
 Requested basis set is 6-31+G(d)
 There are 896 shells and 2497 basis functions

 Total QAlloc Memory Limit  16000 MB
 Mega-Array Size      7821 MB
 MEM_STATIC part      8000 MB
 A cutoff of  1.0D-14 yielded 159969 shell pairs
 There are   1379448 function pairs
 Smallest overlap matrix eigenvalue = 3.75E-07
 Linear dependence detected in AO basis
 Tighter screening thresholds may be required for diffuse basis sets
 Use S2THRESH > 14 and THRESH = 14 in case of SCF convergence issues
 Number of orthogonalized atomic orbitals = 2494
 Maximum deviation from orthogonality = 1.092E-10

 Scale SEOQF with 1.000000e-03/1.000000e-03/1.000000e-03

 Standard Electronic Orientation quadrupole field applied
 Nucleus-field energy     =    -0.0000004540 hartrees
 Guess from superposition of atomic densities
 Warning:  Energy on first SCF cycle will be non-variational
 SAD guess density has 1120.000002 electrons

 -----------------------------------------------------------------------
  General SCF calculation program by
  Eric Jon Sundstrom, Paul Horn, Yuezhi Mao, Dmitri Zuev, Alec White,
  David Stuck, Shaama M.S., Shane Yost, Joonho Lee, David Small,
  Daniel Levine, Susi Lehtola, Hugh Burton, Evgeny Epifanovsky,
  Bang C. Huynh
 -----------------------------------------------------------------------
=================================================
        Doing projection-based embedding         
      F. Manby et al. JCTC, 8, 2564 (2012)       
=================================================

****************************************************
   Low-level SCF calculation for the whole system   
****************************************************
----------------------------------------------
 Summary of the low-level theory: 
 Exchange:     0.2000 Hartree-Fock + 0.0800 Slater + 0.7200 B88
 Correlation:  0.1900 VWN1RPA + 0.8100 LYP
 Using Euler-Maclaurin-Lebedev (75,302) quadrature formula
----------------------------------------------
 using 16 threads for integral computing
 -------------------------------------------------------
 OpenMP Integral computing Module                
 Release: version 2.0, May 2017, Q-Chem Inc. Pleasanton 
 -------------------------------------------------------
 A restricted SCF calculation will be
 performed using DIIS
 SCF converges when DIIS error is below 1.0e-08
 ---------------------------------------
  Cycle       Energy         DIIS error
 ---------------------------------------
    1  -14252.3750007959      1.40e-02  
    2  -14229.7211191655      2.61e-03  
    3  -14217.7136047823      5.05e-03  
    4  -14233.5240723410      1.02e-03  
    5  -14234.2638234652      2.20e-04  
    6  -14234.2868192351      1.30e-04  
    7  -14234.2965089960      4.40e-05  
    8  -14234.2977736225      7.78e-06  
    9  -14234.2978119813      3.48e-06  
   10  -14234.2978192640      1.32e-06  
   11  -14234.2978202993      4.11e-07  
   12  -14234.2978204010      1.32e-07  
   13  -14234.2978204110      5.14e-08  
   14  -14234.2978204126      2.20e-08  
   15  -14234.2978204131      5.78e-09  Convergence criterion met
 ---------------------------------------
 SCF time:   CPU 162016.50s  wall 10240.00s 
 SCF   energy in the final basis set =   -14234.2978204131
 Total energy in the final basis set =   -14234.2978204131

****************************************************
             Start embedding calculation            
****************************************************
----------------------------------------------
 Summary of the high-level theory: 
 Exchange:     0.2000 Hartree-Fock + 0.0800 Slater + 0.7200 B88
 Correlation:  0.1900 VWN1RPA + 0.8100 LYP
 Using Euler-Maclaurin-Lebedev (75,302) quadrature formula
----------------------------------------------
Doing R-in-R Embedding Calculation
Number of fragments: 2
Embedded fragment(s): 1 
NOcc for each fragment
           35
          525
NBasis for each fragment
          197
         2300
Variational space of the embedded problem: 
NOcc (active)  = 35
NOcc (fixed)   = 525
NVir (total)   = 1934
Read converged orbitals from disk
=========================================================
       Doing SPADE partition for the orbital space       
     D. CLaudino and N. Mayhall JCTC 15, 1053 (2019)     
=========================================================
SPADE singular values:
 1.0000 1.0000 1.0000 1.0000 1.0000 1.0000 1.0000 1.0000 1.0000 0.9999
 0.9998 0.9997 0.9996 0.9994 0.9993 0.9992 0.9991 0.9989 0.9981 0.9976
 0.9971 0.9965 0.9964 0.9956 0.9946 0.9943 0.9938 0.9936 0.9928 0.9912
 0.9908 0.9895 0.9877 0.9847 0.9772 0.2330 0.2044 0.1816 0.1732 0.1586
 0.1543 0.1476 0.1355 0.1267 0.1155 0.1034 0.0998 0.0975 0.0857 0.0764
 0.0740 0.0593 0.0542 0.0478 0.0465 0.0435 0.0395 0.0385 0.0353 0.0345
 0.0298 0.0292 0.0277 0.0266 0.0247 0.0242 0.0229 0.0218 0.0209 0.0202
 0.0198 0.0173 0.0169 0.0157 0.0152 0.0149 0.0131 0.0130 0.0123 0.0121
 0.0119 0.0110 0.0104 0.0096 0.0088 0.0087 0.0086 0.0078 0.0074 0.0071
 0.0069 0.0068 0.0063 0.0060 0.0057 0.0054 0.0051 0.0049 0.0045 0.0044
 0.0043 0.0040 0.0036 0.0033 0.0032 0.0031 0.0030 0.0029 0.0027 0.0026
 0.0025 0.0023 0.0022 0.0021 0.0021 0.0020 0.0020 0.0019 0.0019 0.0018
 0.0017 0.0016 0.0016 0.0015 0.0015 0.0013 0.0013 0.0013 0.0012 0.0012
 0.0011 0.0011 0.0011 0.0010 0.0009 0.0009 0.0009 0.0008 0.0008 0.0008
 0.0007 0.0007 0.0007 0.0006 0.0006 0.0006 0.0005 0.0005 0.0005 0.0005
 0.0004 0.0004 0.0004 0.0004 0.0004 0.0004 0.0004 0.0003 0.0003 0.0003
 0.0003 0.0003 0.0003 0.0003 0.0003 0.0003 0.0002 0.0002 0.0002 0.0002
 0.0002 0.0002 0.0002 0.0002 0.0002 0.0002 0.0002 0.0002 0.0002 0.0001
 0.0001 0.0001 0.0001 0.0001 0.0001 0.0001 0.0001 0.0001 0.0001 0.0001
 0.0001 0.0001 0.0001 0.0001 0.0001 0.0001 0.0001
Early stop requested!
525 environment occs will be part of frozen-core in future post-HF calculations
 
 --------------------------------------------------------------
 
                    Orbital Energies (a.u.)
 --------------------------------------------------------------
 
 Alpha MOs
 -- Occupied --
 -0.5151  -0.4959  -0.4743  -0.4666  -0.4756  -0.5097  -0.4837  -0.4818
 -0.4869  -0.4455  -0.4833  -0.4709  -0.4739  -0.4820  -0.4529  -0.4767
 -0.5279  -0.4827  -0.5014  -0.4738  -0.4988  -0.4997  -0.5875  -0.5271
 -0.5779  -0.5913  -0.7697  -0.6050  -0.5822  -0.5318  -0.5558  -0.5646
 -0.6016  -0.5886  -0.5531  -0.5988  -0.5640  -0.6116  -0.6099  -0.6021
 -0.6295  -0.7744  -0.5389  -0.6121  -0.6138  -0.5795  -0.5233  -0.6132
 -0.6075  -0.6230  -0.5903  -0.5561  -0.5565  -0.6475  -0.6149  -0.6232
 -0.7443  -0.5738  -0.8006  -0.5947  -0.6884  -0.8864  -0.5691  -0.7168
 -0.8714  -0.6591  -0.9341  -0.9091  -0.7167  -0.6727  -0.8314  -1.0311
 -0.9924  -1.0248  -1.1952  -1.0952  -0.6961  -0.9431  -1.0014  -1.0280
 -0.8702  -0.8983  -0.9678  -1.0441  -1.2087  -0.9868  -0.8505  -1.2019
 -0.8468  -1.0707  -0.7847  -0.8494  -1.1252  -0.8793  -0.9644  -1.1160
 -1.0984  -0.9295  -1.1749  -1.1044  -0.9947  -1.3895  -0.9476  -1.1307
 -1.2471  -1.1301  -1.2988  -0.9928  -1.6468  -1.5543  -1.0358  -1.4442
 -1.1605  -1.5768  -1.5449  -1.3818  -1.2807  -1.1889  -1.2472  -1.2812
 -1.6633  -1.6909  -1.0472  -1.2811  -1.0969  -1.2741  -1.5965  -1.5717
 -1.7320  -1.6101  -1.2546  -1.2022  -1.2879  -1.2859  -1.4027  -1.1440
 -1.8193  -1.3408  -1.6564  -1.9061  -1.7692  -1.9205  -1.9587  -1.8870
 -2.4152  -1.9301  -1.7280  -1.5810  -2.0466  -1.5439  -1.9846  -1.8593
 -1.7470  -1.8426  -2.2655  -1.4453  -2.2126  -1.7908  -2.1671  -2.6601
 -1.6610  -2.3192  -5.9819  -5.6907  -5.9769  -5.8670  -5.7025  -5.9833
 -5.9800  -5.9508  -5.9731  -5.8531  -5.9370  -5.9231 -30.6197  -9.1895
 -2.8463  -5.2021  -2.8855  -5.5505  -7.8963  -7.4401  -5.0994  -1.9230
 -1.1905  -3.2165 -18.9838  -1.4117  -7.5515  -2.6438  -6.8954  -6.9729
 -2.4160  -1.9569  -1.5749  -5.2669 -17.7201  -1.1707  -1.1264  -7.1922
-65.2818 -69.5222  -6.9295  -6.4534  -6.5713 -10.6040  -1.8680  -2.3013
 -6.6527  -1.7529  -2.7842  -3.1515  -1.6232  -5.5557  -8.6121  -8.1872
-15.5941 -15.3967  -2.9048  -2.1947  -1.1371  -6.9094  -5.7966  -1.1134
 -1.2650 -24.9317 -56.7941 -25.0705 -62.5352  -1.3255  -2.4758  -6.5081
 -1.9905  -7.3335  -9.3916  -8.1967 -17.6957  -1.7517  -5.6636  -3.3301
 -9.6394  -8.4293  -3.7172  -7.1179  -5.3019  -6.5962 -22.2440  -1.2943
 -3.3721  -5.9274  -1.3176  -0.9343  -7.5731 -17.3108 -57.7749  -6.8476
-67.5659  -6.3158  -3.5797 -13.4050  -8.1843  -6.3310  -1.5238  -6.1087
 -3.1026  -1.5043  -6.3808 -28.8059  -8.0432 -41.6792  -8.7129  -7.6529
 -7.1187  -8.5911  -3.5227  -2.8163  -4.1181  -4.9897  -1.2848 -30.2281
 -5.4790 -25.1821 -10.3043 -57.5418 -49.5702 -11.2370  -9.8471  -9.2709
-34.2654 -19.0545 -11.0898  -3.0114 -15.4340  -6.0392  -6.8020  -4.9221
 -9.4721 -13.3207 -13.4775  -6.4427 -10.9577  -7.3093  -6.6061  -8.1404
-10.3565  -4.0014  -6.8314 -10.0402  -6.4790  -6.1089  -9.7707  -3.6044
 -5.5486  -2.4931  -3.0189  -5.7404  -3.6746  -3.3914  -4.6008  -3.3650
 -4.5723  -7.2426  -4.2741  -5.8481  -6.5852  -6.5753  -3.6359 -11.1385
 -5.6043 -12.8119  -5.6357  -5.6559 -10.4806  -6.5039  -7.5753  -7.8111
-10.8310  -7.2883 -10.4342 -14.2909 -13.3359  -5.0328 -24.9234 -14.1722
-13.2523  -6.3721 -10.8715 -12.5419  -7.4296  -8.1007  -2.9099  -3.2695
 -4.2111  -8.4363  -5.4149 -26.9889  -8.4702  -7.3762  -2.4085  -7.6833
 -2.4426  -1.7006 -13.7745  -5.5350 -17.1824  -9.9409  -8.1415 -10.6710
-16.6092 -17.6417  -3.6146  -4.8920  -3.3934  -8.5743  -4.3110  -8.0571
-12.5335  -7.8123  -9.1517  -4.8994  -5.1146  -4.0928 -14.0215 -16.1223
 -9.7178  -1.9122 -12.7247  -5.2004  -4.0377 -12.3084  -3.2900 -21.9146
-10.3194  -4.6840  -3.6432 -16.0303 -15.6762 -11.0452  -8.6653 -28.9839
 -1.8175  -9.4956  -8.2201  -8.7057  -6.7136  -4.9790  -2.5026 -16.3135
-10.4215 -15.4895  -3.0842  -8.4772 -17.4181  -6.5653 -12.1107 -24.0068
-12.9771  -7.5105 -11.3862 -12.1380  -7.5223  -8.5420 -10.7741 -17.9021
 -3.9356  -6.1213 -10.4994 -12.9003  -9.8969  -3.5849  -2.7416  -6.0153
 -2.4079  -1.9687 -19.1670  -3.6011  -5.6155  -5.5930  -6.0782  -6.7499
 -6.2268  -6.9067  -3.0964 -24.9711 -24.1330 -19.0312  -3.7214  -2.2202
 -3.1888  -7.7611  -0.9039  -7.2165 -16.1817 -20.2703 -11.5758  -7.4025
-12.3676 -21.4854 -33.2739 -31.9830 -16.5185  -4.9549 -14.8365 -13.7686
-11.3232 -10.8725 -28.1315 -37.6010 -13.5777 -76.4132  -1.2144 -10.2575
-71.5223 -15.0084 -43.8883 -10.5495 -12.2084  -6.6365  -6.5847  -6.6808
 -7.8028  -5.2290  -8.7857  -9.0197  -9.8753 -57.5131 -16.0589 -20.8278
-13.7418  -9.7606  -6.3059  -5.8331  -9.5551  -4.9993  -7.5841 -14.8158
 -6.7443  -8.5686  -7.6127  -2.8313  -9.5963  -8.9077  -8.3302  -7.4466
 -6.8713 -10.0313  -3.0691  -9.6645 -13.6954 -35.4582  -3.3998 -30.0713
 -3.7984  -9.6062 -10.6412 -10.5855 -12.9502  -6.0031  -5.5597  -6.7170
 -8.4828 -10.7289  -2.4013  -2.6279 -15.6579 -13.3152 -10.6102 -10.7116
-11.5423 -10.2212 -13.3354 -10.6677 -11.8497 -12.0082  -0.8896  -0.7063
 -0.5642  -0.9261  -0.7514  -0.6030  -0.8108  -0.8655  -0.4243  -0.4578
 -0.5010  -0.4949  -0.4418  -0.4901  -0.4850  -0.4172  -0.4813  -0.4614
 -0.4108  -0.4439  -0.4434  -0.4559  -0.5064  -0.5038  -0.6219  -0.5802
 -- Virtual --
 -0.0335  -0.0316  -0.0315  -0.0293  -0.0252  -0.0245  -0.0232  -0.0225
 -0.0206  -0.0197  -0.0182  -0.0166  -0.0159  -0.0151  -0.0141  -0.0124
 -0.0116  -0.0110  -0.0103  -0.0092  -0.0074  -0.0066  -0.0063  -0.0053
 -0.0045  -0.0040  -0.0022  -0.0017  -0.0007  -0.0003   0.0006   0.0011
  0.0023   0.0031   0.0038   0.0041   0.0052   0.0059   0.0063   0.0070
  0.0080   0.0090   0.0095   0.0099   0.0105   0.0119   0.0128   0.0133
  0.0146   0.0151   0.0156   0.0162   0.0167   0.0178   0.0184   0.0196
  0.0211   0.0220   0.0222   0.0229   0.0235   0.0241   0.0245   0.0247
  0.0258   0.0262   0.0272   0.0280   0.0290   0.0295   0.0302   0.0304
  0.0312   0.0317   0.0326   0.0336   0.0340   0.0346   0.0348   0.0352
  0.0357   0.0364   0.0372   0.0387   0.0397   0.0403   0.0405   0.0411
  0.0419   0.0424   0.0437   0.0440   0.0449   0.0454   0.0461   0.0463
  0.0472   0.0478   0.0490   0.0491   0.0500   0.0502   0.0505   0.0519
  0.0524   0.0525   0.0538   0.0544   0.0551   0.0553   0.0561   0.0569
  0.0573   0.0576   0.0580   0.0586   0.0596   0.0605   0.0614   0.0618
  0.0626   0.0636   0.0642   0.0645   0.0653   0.0659   0.0669   0.0675
  0.0681   0.0691   0.0696   0.0708   0.0717   0.0724   0.0729   0.0732
  0.0739   0.0748   0.0755   0.0761   0.0769   0.0778   0.0784   0.0787
  0.0795   0.0800   0.0813   0.0817   0.0826   0.0830   0.0840   0.0841
  0.0850   0.0853   0.0862   0.0876   0.0881   0.0886   0.0893   0.0901
  0.0907   0.0914   0.0919   0.0925   0.0934   0.0943   0.0950   0.0957
  0.0963   0.0971   0.0981   0.0986   0.0988   0.0994   0.1005   0.1009
  0.1019   0.1023   0.1032   0.1034   0.1055   0.1056   0.1062   0.1064
  0.1077   0.1081   0.1084   0.1094   0.1095   0.1106   0.1113   0.1115
  0.1120   0.1127   0.1138   0.1141   0.1153   0.1163   0.1165   0.1170
  0.1180   0.1186   0.1187   0.1191   0.1198   0.1209   0.1217   0.1220
  0.1222   0.1228   0.1234   0.1244   0.1250   0.1253   0.1260   0.1262
  0.1268   0.1281   0.1284   0.1289   0.1296   0.1301   0.1310   0.1314
  0.1316   0.1324   0.1337   0.1349   0.1354   0.1361   0.1363   0.1373
  0.1379   0.1382   0.1390   0.1392   0.1397   0.1409   0.1416   0.1421
  0.1432   0.1436   0.1443   0.1449   0.1458   0.1459   0.1462   0.1478
  0.1484   0.1489   0.1495   0.1504   0.1507   0.1518   0.1521   0.1532
  0.1535   0.1542   0.1553   0.1559   0.1564   0.1571   0.1576   0.1580
  0.1586   0.1600   0.1601   0.1607   0.1614   0.1624   0.1627   0.1636
  0.1639   0.1652   0.1658   0.1659   0.1667   0.1675   0.1678   0.1688
  0.1691   0.1704   0.1711   0.1713   0.1717   0.1718   0.1732   0.1737
  0.1742   0.1746   0.1755   0.1757   0.1763   0.1769   0.1777   0.1780
  0.1788   0.1796   0.1802   0.1809   0.1813   0.1823   0.1826   0.1838
  0.1840   0.1849   0.1855   0.1865   0.1867   0.1872   0.1875   0.1882
  0.1885   0.1889   0.1897   0.1906   0.1908   0.1925   0.1929   0.1935
  0.1942   0.1946   0.1950   0.1955   0.1964   0.1970   0.1979   0.1985
  0.1990   0.1998   0.2002   0.2010   0.2015   0.2025   0.2033   0.2038
  0.2047   0.2052   0.2062   0.2068   0.2077   0.2081   0.2086   0.2092
  0.2104   0.2105   0.2113   0.2123   0.2127   0.2137   0.2143   0.2150
  0.2158   0.2171   0.2175   0.2177   0.2182   0.2188   0.2194   0.2204
  0.2211   0.2214   0.2222   0.2239   0.2242   0.2248   0.2254   0.2261
  0.2271   0.2276   0.2282   0.2284   0.2295   0.2298   0.2303   0.2306
  0.2316   0.2322   0.2329   0.2342   0.2349   0.2359   0.2363   0.2370
  0.2383   0.2384   0.2392   0.2400   0.2404   0.2420   0.2423   0.2427
  0.2432   0.2441   0.2451   0.2456   0.2468   0.2476   0.2482   0.2494
  0.2505   0.2510   0.2512   0.2525   0.2532   0.2539   0.2545   0.2558
  0.2567   0.2574   0.2577   0.2583   0.2591   0.2603   0.2610   0.2611
  0.2619   0.2632   0.2635   0.2644   0.2652   0.2654   0.2664   0.2667
  0.2675   0.2688   0.2704   0.2713   0.2720   0.2730   0.2739   0.2747
  0.2753   0.2762   0.2772   0.2779   0.2784   0.2795   0.2809   0.2814
  0.2817   0.2832   0.2839   0.2859   0.2861   0.2869   0.2874   0.2884
  0.2892   0.2906   0.2916   0.2921   0.2928   0.2934   0.2944   0.2952
  0.2959   0.2961   0.2963   0.2971   0.2977   0.2998   0.3004   0.3015
  0.3018   0.3022   0.3029   0.3036   0.3043   0.3044   0.3062   0.3069
  0.3077   0.3090   0.3095   0.3099   0.3109   0.3115   0.3123   0.3131
  0.3145   0.3149   0.3154   0.3160   0.3169   0.3177   0.3182   0.3200
  0.3208   0.3211   0.3221   0.3227   0.3234   0.3243   0.3251   0.3261
  0.3268   0.3275   0.3285   0.3299   0.3304   0.3324   0.3327   0.3331
  0.3335   0.3342   0.3361   0.3375   0.3378   0.3381   0.3394   0.3407
  0.3421   0.3426   0.3436   0.3446   0.3459   0.3468   0.3474   0.3484
  0.3500   0.3505   0.3513   0.3520   0.3531   0.3538   0.3546   0.3552
  0.3557   0.3560   0.3578   0.3587   0.3601   0.3606   0.3614   0.3623
  0.3638   0.3641   0.3652   0.3658   0.3668   0.3679   0.3705   0.3708
  0.3716   0.3729   0.3731   0.3739   0.3752   0.3761   0.3769   0.3786
  0.3792   0.3800   0.3809   0.3819   0.3827   0.3833   0.3843   0.3856
  0.3860   0.3875   0.3880   0.3897   0.3911   0.3913   0.3920   0.3928
  0.3940   0.3956   0.3959   0.3974   0.3987   0.3997   0.4005   0.4017
  0.4024   0.4032   0.4038   0.4048   0.4049   0.4065   0.4077   0.4080
  0.4088   0.4095   0.4113   0.4124   0.4142   0.4145   0.4169   0.4178
  0.4190   0.4194   0.4214   0.4216   0.4233   0.4243   0.4251   0.4263
  0.4269   0.4286   0.4298   0.4306   0.4323   0.4332   0.4337   0.4348
  0.4361   0.4379   0.4386   0.4393   0.4404   0.4407   0.4421   0.4422
  0.4439   0.4453   0.4467   0.4475   0.4482   0.4499   0.4509   0.4512
  0.4542   0.4563   0.4576   0.4583   0.4598   0.4611   0.4617   0.4631
  0.4655   0.4663   0.4669   0.4680   0.4702   0.4706   0.4735   0.4748
  0.4757   0.4770   0.4774   0.4786   0.4819   0.4829   0.4859   0.4863
  0.4875   0.4885   0.4896   0.4933   0.4950   0.4959   0.4968   0.4989
  0.4992   0.5008   0.5023   0.5043   0.5063   0.5069   0.5080   0.5099
  0.5109   0.5124   0.5141   0.5169   0.5195   0.5207   0.5227   0.5263
  0.5284   0.5296   0.5315   0.5324   0.5336   0.5337   0.5351   0.5384
  0.5390   0.5426   0.5437   0.5447   0.5478   0.5486   0.5498   0.5530
  0.5535   0.5542   0.5554   0.5573   0.5594   0.5607   0.5627   0.5649
  0.5661   0.5671   0.5683   0.5703   0.5718   0.5737   0.5747   0.5762
  0.5775   0.5801   0.5812   0.5829   0.5847   0.5861   0.5876   0.5882
  0.5884   0.5920   0.5933   0.5944   0.5967   0.5988   0.6007   0.6010
  0.6032   0.6039   0.6045   0.6065   0.6083   0.6087   0.6098   0.6109
  0.6133   0.6160   0.6167   0.6171   0.6199   0.6209   0.6213   0.6223
  0.6233   0.6247   0.6254   0.6277   0.6286   0.6299   0.6301   0.6308
  0.6330   0.6349   0.6357   0.6367   0.6374   0.6380   0.6393   0.6407
  0.6430   0.6442   0.6446   0.6453   0.6470   0.6485   0.6491   0.6497
  0.6509   0.6530   0.6535   0.6545   0.6573   0.6579   0.6588   0.6609
  0.6621   0.6639   0.6641   0.6653   0.6656   0.6671   0.6676   0.6685
  0.6694   0.6705   0.6718   0.6719   0.6731   0.6740   0.6761   0.6775
  0.6792   0.6802   0.6819   0.6835   0.6844   0.6851   0.6867   0.6890
  0.6895   0.6912   0.6914   0.6932   0.6939   0.6954   0.6963   0.6982
  0.6997   0.7009   0.7030   0.7037   0.7054   0.7063   0.7093   0.7105
  0.7107   0.7120   0.7127   0.7146   0.7174   0.7180   0.7193   0.7211
  0.7229   0.7233   0.7248   0.7254   0.7278   0.7284   0.7308   0.7315
  0.7322   0.7356   0.7382   0.7383   0.7388   0.7397   0.7421   0.7427
  0.7436   0.7451   0.7480   0.7493   0.7499   0.7518   0.7530   0.7542
  0.7584   0.7590   0.7599   0.7614   0.7626   0.7647   0.7652   0.7668
  0.7679   0.7702   0.7726   0.7731   0.7762   0.7772   0.7789   0.7807
  0.7826   0.7842   0.7862   0.7876   0.7884   0.7908   0.7925   0.7931
  0.7955   0.7957   0.7973   0.7994   0.8010   0.8019   0.8064   0.8073
  0.8081   0.8084   0.8103   0.8106   0.8137   0.8160   0.8173   0.8188
  0.8204   0.8208   0.8220   0.8238   0.8241   0.8268   0.8278   0.8290
  0.8310   0.8323   0.8330   0.8348   0.8359   0.8365   0.8391   0.8395
  0.8406   0.8414   0.8439   0.8461   0.8470   0.8489   0.8494   0.8502
  0.8509   0.8519   0.8536   0.8544   0.8571   0.8589   0.8591   0.8598
  0.8612   0.8621   0.8640   0.8656   0.8670   0.8681   0.8694   0.8710
  0.8728   0.8739   0.8748   0.8768   0.8779   0.8787   0.8799   0.8812
  0.8832   0.8849   0.8866   0.8873   0.8894   0.8902   0.8907   0.8922
  0.8933   0.8943   0.8953   0.8966   0.8981   0.8991   0.9001   0.9014
  0.9034   0.9055   0.9064   0.9079   0.9087   0.9111   0.9124   0.9135
  0.9140   0.9158   0.9170   0.9188   0.9203   0.9204   0.9222   0.9224
  0.9239   0.9252   0.9275   0.9288   0.9307   0.9311   0.9332   0.9337
  0.9343   0.9354   0.9371   0.9403   0.9406   0.9412   0.9421   0.9435
  0.9444   0.9457   0.9467   0.9483   0.9488   0.9509   0.9511   0.9524
  0.9531   0.9550   0.9556   0.9559   0.9581   0.9596   0.9607   0.9618
  0.9637   0.9647   0.9648   0.9654   0.9671   0.9675   0.9692   0.9714
  0.9720   0.9742   0.9749   0.9763   0.9771   0.9784   0.9794   0.9797
  0.9834   0.9839   0.9849   0.9861   0.9865   0.9880   0.9905   0.9915
  0.9933   0.9947   0.9954   0.9966   0.9980   0.9983   0.9999   1.0007
  1.0024   1.0035   1.0051   1.0057   1.0064   1.0092   1.0108   1.0121
  1.0134   1.0136   1.0142   1.0153   1.0166   1.0198   1.0207   1.0218
  1.0231   1.0239   1.0246   1.0255   1.0263   1.0284   1.0298   1.0308
  1.0325   1.0329   1.0338   1.0352   1.0370   1.0391   1.0396   1.0399
  1.0430   1.0438   1.0454   1.0465   1.0475   1.0477   1.0493   1.0527
  1.0531   1.0540   1.0553   1.0557   1.0569   1.0585   1.0604   1.0613
  1.0622   1.0645   1.0645   1.0661   1.0679   1.0694   1.0705   1.0714
  1.0731   1.0748   1.0757   1.0771   1.0793   1.0803   1.0826   1.0831
  1.0848   1.0860   1.0870   1.0886   1.0909   1.0912   1.0928   1.0938
  1.0971   1.0978   1.0991   1.0993   1.1015   1.1029   1.1034   1.1052
  1.1076   1.1091   1.1099   1.1113   1.1129   1.1133   1.1155   1.1165
  1.1195   1.1201   1.1222   1.1237   1.1251   1.1263   1.1265   1.1289
  1.1305   1.1316   1.1331   1.1345   1.1347   1.1360   1.1374   1.1390
  1.1410   1.1415   1.1429   1.1442   1.1455   1.1464   1.1469   1.1489
  1.1501   1.1507   1.1527   1.1532   1.1543   1.1546   1.1568   1.1580
  1.1612   1.1619   1.1640   1.1649   1.1669   1.1674   1.1695   1.1708
  1.1718   1.1725   1.1752   1.1764   1.1772   1.1785   1.1798   1.1816
  1.1822   1.1834   1.1871   1.1878   1.1905   1.1920   1.1942   1.1946
  1.1959   1.1988   1.1998   1.2018   1.2029   1.2040   1.2070   1.2078
  1.2093   1.2118   1.2140   1.2170   1.2195   1.2217   1.2224   1.2232
  1.2257   1.2279   1.2294   1.2310   1.2367   1.2370   1.2380   1.2424
  1.2440   1.2448   1.2485   1.2502   1.2515   1.2544   1.2581   1.2590
  1.2620   1.2649   1.2666   1.2708   1.2739   1.2754   1.2779   1.2796
  1.2815   1.2849   1.2854   1.2889   1.2940   1.2942   1.2961   1.2989
  1.2995   1.3022   1.3031   1.3052   1.3087   1.3106   1.3151   1.3159
  1.3164   1.3199   1.3218   1.3234   1.3266   1.3276   1.3298   1.3310
  1.3321   1.3352   1.3356   1.3385   1.3406   1.3431   1.3444   1.3453
  1.3478   1.3502   1.3521   1.3546   1.3554   1.3567   1.3587   1.3611
  1.3628   1.3638   1.3652   1.3662   1.3714   1.3726   1.3740   1.3760
  1.3786   1.3796   1.3801   1.3817   1.3833   1.3842   1.3867   1.3882
  1.3909   1.3921   1.3940   1.3945   1.3963   1.3971   1.3974   1.3992
  1.4010   1.4015   1.4045   1.4059   1.4093   1.4108   1.4126   1.4137
  1.4153   1.4159   1.4175   1.4212   1.4226   1.4237   1.4250   1.4267
  1.4274   1.4281   1.4312   1.4322   1.4336   1.4351   1.4376   1.4391
  1.4415   1.4425   1.4448   1.4484   1.4492   1.4500   1.4517   1.4524
  1.4539   1.4551   1.4575   1.4593   1.4602   1.4633   1.4640   1.4655
  1.4671   1.4704   1.4724   1.4734   1.4742   1.4759   1.4777   1.4800
  1.4802   1.4821   1.4841   1.4869   1.4869   1.4886   1.4921   1.4929
  1.4958   1.4974   1.5003   1.5016   1.5038   1.5046   1.5092   1.5103
  1.5122   1.5136   1.5159   1.5181   1.5232   1.5248   1.5279   1.5299
  1.5318   1.5381   1.5391   1.5411   1.5450   1.5464   1.5514   1.5531
  1.5564   1.5578   1.5627   1.5653   1.5673   1.5699   1.5736   1.5787
  1.5823   1.5899   1.5917   1.5941   1.6000   1.6037   1.6116   1.6152
  1.6174   1.6233   1.6279   1.6317   1.6373   1.6403   1.6476   1.6497
  1.6537   1.6542   1.6578   1.6593   1.6604   1.6612   1.6624   1.6631
  1.6650   1.6662   1.6674   1.6696   1.6705   1.6717   1.6738   1.6772
  1.6773   1.6796   1.6802   1.6815   1.6843   1.6855   1.6865   1.6878
  1.6887   1.6901   1.6911   1.6921   1.6943   1.6946   1.6956   1.6975
  1.6980   1.7000   1.7010   1.7025   1.7032   1.7042   1.7051   1.7083
  1.7098   1.7106   1.7118   1.7139   1.7150   1.7173   1.7205   1.7219
  1.7219   1.7234   1.7243   1.7252   1.7269   1.7288   1.7292   1.7320
  1.7325   1.7353   1.7358   1.7374   1.7395   1.7400   1.7417   1.7425
  1.7435   1.7452   1.7471   1.7488   1.7508   1.7514   1.7534   1.7538
  1.7555   1.7574   1.7580   1.7601   1.7627   1.7646   1.7660   1.7681
  1.7699   1.7727   1.7749   1.7764   1.7780   1.7790   1.7803   1.7824
  1.7840   1.7860   1.7870   1.7881   1.7913   1.7930   1.7941   1.7997
  1.8010   1.8018   1.8041   1.8078   1.8094   1.8120   1.8142   1.8155
  1.8211   1.8225   1.8246   1.8257   1.8304   1.8355   1.8395   1.8414
  1.8418   1.8433   1.8479   1.8488   1.8496   1.8538   1.8557   1.8596
  1.8610   1.8633   1.8664   1.8673   1.8685   1.8721   1.8733   1.8742
  1.8779   1.8793   1.8809   1.8814   1.8837   1.8851   1.8857   1.8879
  1.8890   1.8899   1.8904   1.8921   1.8938   1.8944   1.8969   1.8980
  1.8989   1.8998   1.9009   1.9019   1.9041   1.9044   1.9047   1.9070
  1.9081   1.9087   1.9107   1.9124   1.9152   1.9163   1.9194   1.9203
  1.9217   1.9229   1.9236   1.9249   1.9276   1.9282   1.9297   1.9323
  1.9330   1.9341   1.9355   1.9375   1.9397   1.9449   1.9493   1.9519
  1.9526   1.9550   1.9571   1.9584   1.9626   1.9669   1.9688   1.9777
  1.9828   1.9855   1.9945   2.0042   2.0116   2.0153   2.0288   2.0328
  2.0426   2.0434   2.0460   2.0488   2.0520   2.0528   2.0542   2.0558
  2.0567   2.0583   2.0600   2.0608   2.0632   2.0665   2.0679   2.0688
  2.0690   2.0744   2.0768   2.0789   2.0805   2.0811   2.0819   2.0837
  2.0846   2.0867   2.0878   2.0881   2.0891   2.0901   2.0914   2.0933
  2.0941   2.0956   2.0970   2.0976   2.0991   2.0994   2.1005   2.1051
  2.1073   2.1081   2.1096   2.1115   2.1133   2.1144   2.1163   2.1177
  2.1217   2.1265   2.1342   2.1377   2.1427   2.1459   2.1497   2.1537
  2.1596   2.1608   2.1651   2.1665   2.1720   2.1821   2.1851   2.1882
  2.1895   2.1917   2.1938   2.1943   2.1956   2.1972   2.1993   2.2007
  2.2036   2.2055   2.2068   2.2089   2.2096   2.2102   2.2111   2.2121
  2.2152   2.2164   2.2180   2.2194   2.2229   2.2253   2.2274   2.2290
  2.2294   2.2304   2.2314   2.2335   2.2340   2.2346   2.2351   2.2357
  2.2372   2.2373   2.2410   2.2419   2.2432   2.2451   2.2462   2.2469
  2.2476   2.2494   2.2508   2.2529   2.2535   2.2550   2.2560   2.2563
  2.2567   2.2576   2.2587   2.2597   2.2601   2.2610   2.2621   2.2635
  2.2643   2.2649   2.2658   2.2671   2.2678   2.2688   2.2702   2.2709
  2.2727   2.2729   2.2736   2.2746   2.2759   2.2775   2.2784   2.2789
  2.2799   2.2811   2.2831   2.2844   2.2849   2.2856   2.2864   2.2882
  2.2892   2.2901   2.2911   2.2923   2.2932   2.2946   2.2968   2.2978
  2.2989   2.3006   2.3017   2.3023   2.3034   2.3041   2.3050   2.3055
  2.3066   2.3085   2.3094   2.3112   2.3128   2.3132   2.3150   2.3176
  2.3191   2.3210   2.3214   2.3223   2.3236   2.3237   2.3244   2.3263
  2.3277   2.3290   2.3315   2.3318   2.3334   2.3343   2.3359   2.3370
  2.3390   2.3407   2.3420   2.3434   2.3442   2.3448   2.3470   2.3487
  2.3500   2.3532   2.3535   2.3587   2.3603   2.3621   2.3650   2.3665
  2.3680   2.3695   2.3743   2.3751   2.3777   2.3796   2.3819   2.3868
  2.3897   2.3908   2.3930   2.4006   2.4059   2.4193   2.4279   2.4380
  2.4682   2.4917   2.5134   2.5365   2.5786   2.6640   2.6926   2.7573
  2.7879   2.7953   2.8088   2.8186   2.8327   2.8342   2.8350   2.8378
  2.8382   2.8436   2.8441   2.8457   2.8463   2.8465   2.8503   2.8518
  2.8552   2.8575   2.8602   2.8608   2.8657   2.8663   2.8676   2.8694
  2.8713   2.8841   2.8885   2.8935   2.8953   2.9016   2.9607   3.0687
  3.2228   3.9372   3.9495   3.9583   3.9600   3.9663   3.9680   3.9720
  3.9726   3.9733   3.9754   3.9789   3.9802   3.9829   3.9846   3.9860
  3.9905   3.9974   3.9988   4.0057   4.0069   4.0089   4.0136   4.0156
  4.0222   4.0393   4.1959   4.2016   4.2093   4.2179   4.2253   4.2343
  4.2362   4.2398   4.2421   4.2438   4.2493   4.2527   4.2552   4.2630
  4.2659   4.2695   4.2710   4.2717   4.2728   4.2751   4.2792   4.2809
  4.2858   4.2879   4.2903   4.2922   4.2935   4.2962   4.2976   4.2986
  4.3023   4.3057   4.3086   4.3119   4.3130   4.3163   4.3186   4.3249
  4.3259   4.3283   4.3301   4.3326   4.3371   4.3383   4.3424   4.3435
  4.3444   4.3479   4.3522   4.3544   4.3558   4.3594   4.3640   4.3681
  4.3699   4.3802   4.3846   4.3879   4.3946   4.3980   4.4005   4.4023
  4.4160   4.4183   4.4274   4.4359   4.4378   4.4447   4.4652   4.4793
  4.4868   4.5049   4.5123   4.5187   4.5520   4.5633   4.5687   4.5907
  4.6040   4.6927   4.6970   4.7503   4.8229   4.9478
 --------------------------------------------------------------
 
          Ground-State Mulliken Net Atomic Charges

     Atom                 Charge (a.u.)
  ----------------------------------------
      1 C                    -0.116753
      2 C                    -0.582353
      3 C                    -0.413866
      4 C                    -0.846819
      5 C                    -0.684822
      6 C                     0.245635
      7 H                     0.238296
      8 H                     0.193833
      9 H                     0.234967
     10 H                     0.244499
     11 H                     0.216610
     12 H                     0.198032
     13 H                     0.217841
     14 H                     0.227863
     15 H                     0.230185
     16 H                     0.235143
     17 H                     0.206743
     18 N                     0.267638
     19 H                     0.429236
     20 C                    -0.572194
     21 H                     0.192531
     22 O                    -0.307879
     23 C                    -0.415206
     24 H                     0.247767
     25 H                     0.258304
     26 H                     0.268997
     27 S                    -0.519447
     28 C                    -0.630083
     29 H                     0.280725
     30 H                     0.302389
     31 H                     0.254116
     32 O                    -0.361984
     33 C                    -1.013092
     34 H                     0.254841
     35 H                     0.258828
     36 H                     0.251788
     37 S                     0.862042
     38 C                    -0.692039
     39 H                     0.245954
     40 H                     0.247283
     41 H                     0.282182
     42 O                    -0.635808
     43 C                    -0.785990
     44 H                     0.227295
     45 H                     0.269813
     46 H                     0.241485
     47 S                     0.808061
     48 C                    -0.717633
     49 H                     0.228705
     50 H                     0.249361
     51 H                     0.250559
     52 O                    -0.741671
     53 C                    -0.883551
     54 H                     0.265190
     55 H                     0.226458
     56 H                     0.249339
     57 S                     1.149317
     58 C                    -0.989017
     59 H                     0.270724
     60 H                     0.257627
     61 H                     0.199032
     62 O                    -0.757812
     63 C                    -1.029084
     64 H                     0.247754
     65 H                     0.259981
     66 H                     0.265737
     67 S                     1.145091
     68 C                    -0.989152
     69 H                     0.277745
     70 H                     0.227029
     71 H                     0.273259
     72 O                    -0.673825
     73 C                    -0.780016
     74 H                     0.240202
     75 H                     0.260013
     76 H                     0.236126
     77 S                     0.797415
     78 C                    -0.783235
     79 H                     0.230115
     80 H                     0.237477
     81 H                     0.277222
     82 O                    -0.701482
     83 C                    -1.145156
     84 H                     0.254410
     85 H                     0.249276
     86 H                     0.278428
     87 S                     1.466517
     88 C                    -1.082799
     89 H                     0.278350
     90 H                     0.290857
     91 H                     0.289723
     92 O                    -0.741829
     93 C                    -0.950786
     94 H                     0.253853
     95 H                     0.245082
     96 H                     0.302006
     97 S                     1.134631
     98 C                    -1.003042
     99 H                     0.300661
    100 H                     0.255034
    101 H                     0.215458
    102 O                    -0.733896
    103 C                    -0.957747
    104 H                     0.244047
    105 H                     0.262930
    106 H                     0.279223
    107 S                     0.933492
    108 C                    -1.041771
    109 H                     0.241695
    110 H                     0.284411
    111 H                     0.260013
    112 O                    -0.579717
    113 C                    -0.772436
    114 H                     0.279124
    115 H                     0.244363
    116 H                     0.272010
    117 S                     0.777823
    118 C                    -0.930724
    119 H                     0.249022
    120 H                     0.246057
    121 H                     0.277520
    122 O                    -0.639061
    123 C                    -0.796986
    124 H                     0.250784
    125 H                     0.225908
    126 H                     0.268650
    127 S                     0.898831
    128 C                    -0.913125
    129 H                     0.243937
    130 H                     0.264956
    131 H                     0.269658
    132 O                    -0.685089
    133 C                    -1.064271
    134 H                     0.267681
    135 H                     0.247098
    136 H                     0.299245
    137 S                     1.098077
    138 C                    -0.971038
    139 H                     0.270940
    140 H                     0.279271
    141 H                     0.292149
    142 O                    -0.738279
    143 C                    -0.813828
    144 H                     0.273626
    145 H                     0.258348
    146 H                     0.259307
    147 S                     0.614295
    148 C                    -0.749235
    149 H                     0.265586
    150 H                     0.273938
    151 H                     0.254448
    152 O                    -0.617866
    153 C                    -0.598703
    154 H                     0.223439
    155 H                     0.274386
    156 H                     0.283326
    157 S                     0.415304
    158 C                    -0.887149
    159 H                     0.305104
    160 H                     0.254495
    161 H                     0.253507
    162 O                    -0.604221
    163 C                    -0.886060
    164 H                     0.276779
    165 H                     0.285324
    166 H                     0.235566
    167 S                     0.962824
    168 C                    -0.871003
    169 H                     0.275378
    170 H                     0.244921
    171 H                     0.239885
    172 O                    -0.655544
    173 C                    -0.873734
    174 H                     0.281205
    175 H                     0.249680
    176 H                     0.285853
    177 S                     0.872987
    178 C                    -0.837140
    179 H                     0.240714
    180 H                     0.252479
    181 H                     0.270960
    182 O                    -0.694759
    183 C                    -0.761568
    184 H                     0.239093
    185 H                     0.215977
    186 H                     0.297713
    187 S                     0.546713
    188 C                    -0.892821
    189 H                     0.284757
    190 H                     0.289658
    191 H                     0.299547
    192 O                    -0.592352
    193 C                    -0.869904
    194 H                     0.253669
    195 H                     0.223473
    196 H                     0.262006
    197 S                     1.064524
    198 C                    -1.048621
    199 H                     0.286995
    200 H                     0.245520
    201 H                     0.258854
    202 O                    -0.702579
    203 C                    -0.858885
    204 H                     0.268257
    205 H                     0.246263
    206 H                     0.242897
    207 S                     1.098044
    208 C                    -1.234033
    209 H                     0.263538
    210 H                     0.251401
    211 H                     0.302714
    212 O                    -0.763152
    213 C                    -1.138554
    214 H                     0.275709
    215 H                     0.261678
    216 H                     0.267376
    217 S                     1.047928
    218 C                    -0.884716
    219 H                     0.277015
    220 H                     0.296385
    221 H                     0.223604
    222 O                    -0.555805
    223 C                    -0.798071
    224 H                     0.224012
    225 H                     0.252472
    226 H                     0.253227
    227 S                     0.931479
    228 C                    -0.977832
    229 H                     0.241975
    230 H                     0.237314
    231 H                     0.291192
    232 O                    -0.710959
    233 C                    -0.940920
    234 H                     0.232936
    235 H                     0.251164
    236 H                     0.244042
    237 S                     0.976806
    238 C                    -0.819653
    239 H                     0.249470
    240 H                     0.225068
    241 H                     0.261181
    242 O                    -0.720059
    243 C                    -0.808368
    244 H                     0.265567
    245 H                     0.289746
    246 H                     0.247317
    247 S                     0.982267
    248 C                    -1.036219
    249 H                     0.259072
    250 H                     0.266837
    251 H                     0.293503
    252 O                    -0.595848
    253 C                    -0.879717
    254 H                     0.242404
    255 H                     0.270838
    256 H                     0.232036
    257 S                     1.033646
    258 C                    -0.871711
    259 H                     0.242551
    260 H                     0.235630
    261 H                     0.226296
    262 O                    -0.642735
    263 C                    -0.925757
    264 H                     0.252356
    265 H                     0.291137
    266 H                     0.228990
    267 S                     1.178069
    268 C                    -1.004427
    269 H                     0.224691
    270 H                     0.257427
    271 H                     0.246678
    272 O                    -0.722890
  ----------------------------------------
  Sum of atomic charges =     0.000000

 -----------------------------------------------------------------
                    Cartesian Multipole Moments
 -----------------------------------------------------------------
    Charge (ESU x 10^10)
                 0.0000
    Dipole Moment (Debye)
         X      -4.4819      Y       7.4095      Z      -3.8133
       Tot       9.4620
    Quadrupole Moments (Debye-Ang)
        XX   -1309.2379     XY      51.5666     YY    -529.6509
        XZ    -260.5695     YZ     160.6950     ZZ   -1070.5475
    Octopole Moments (Debye-Ang^2)
       XXX  -81092.2885    XXY  -18463.1240    XYY  -14185.1741
       YYY  -31215.8438    XXZ  -40235.5041    XYZ    -634.8853
       YYZ  -13833.5908    XZZ  -30288.0031    YZZ  -10830.2540
       ZZZ  -78865.1490
    Hexadecapole Moments (Debye-Ang^3)
      XXXX ************   XXXY ************   XXYY -666950.7008
      XYYY -746163.2438   YYYY ************   XXXZ ************
      XXYZ -578607.2738   XYYZ -394130.9159   YYYZ -808986.7022
      XXZZ ************   XYZZ -393919.6906   YYZZ -618923.4250
      XZZZ ************   YZZZ ************   ZZZZ ************
 -----------------------------------------------------------------
Archival summary:
[...]
    3  -0.0150854   0.0026220   0.0121749  -0.0124503   0.0262552   0.0441187
          103         104         105         106         107         108
    1  -0.0068561  -0.0039233  -0.0161785  -0.0034503   0.0034377   0.0038222
    2   0.0047915   0.0180751  -0.0198487   0.0187749  -0.0265265   0.0082552
    3   0.0027657  -0.0256132  -0.0146649   0.0290324   0.0547405  -0.0015824
          109         110         111         112         113         114
    1  -0.0061617   0.0039841   0.0285817  -0.0045872  -0.0003616   0.0089426
    2   0.0278051   0.0189365  -0.0102425  -0.0565160   0.0037886  -0.0068497
    3  -0.0157263   0.0263793  -0.0093073  -0.0924601  -0.0020926  -0.0180942
          115         116         117         118         119         120
    1  -0.0315380  -0.0019627   0.0030995  -0.0021049  -0.0084276  -0.0293810
    2  -0.0035857   0.0322936  -0.0651907   0.0053171   0.0336863  -0.0149312
    3  -0.0084469   0.0000365  -0.0043346   0.0061721  -0.0001840   0.0073978
          121         122         123         124         125         126
    1   0.0088445   0.0925535  -0.0045027   0.0198134  -0.0317600   0.0170796
    2  -0.0178752   0.0591603   0.0080703   0.0006226   0.0127189   0.0199805
    3   0.0280726   0.0055292  -0.0036683  -0.0237251  -0.0184613   0.0174314
          127         128         129         130         131         132
    1  -0.0056299  -0.0045662  -0.0302336  -0.0114867   0.0096577   0.0921589
    2  -0.0479119   0.0067049   0.0038361  -0.0300003   0.0306207   0.0347302
    3  -0.0290566   0.0082193  -0.0122164   0.0125696   0.0172783   0.0495302
          133         134         135         136         137         138
    1   0.0045780   0.0147512   0.0247931  -0.0017038  -0.0260794  -0.0030588
    2  -0.0081570   0.0048207   0.0079647  -0.0384058  -0.0183257  -0.0069863
    3  -0.0002649  -0.0241081   0.0165191   0.0008083   0.0388299  -0.0101191
          139         140         141         142         143         144
    1  -0.0332552   0.0261780   0.0059199   0.0214234   0.0007081   0.0277325
    2   0.0041331   0.0146895  -0.0337395   0.1033244  -0.0071917   0.0148502
    3   0.0002234  -0.0160461  -0.0031608  -0.0263736   0.0059771   0.0092857
          145         146         147         148         149         150
    1  -0.0233504   0.0175170   0.0349473  -0.0066839  -0.0204281  -0.0237262
    2  -0.0099871  -0.0232411   0.0375332   0.0050940   0.0209965  -0.0200971
    3   0.0192270  -0.0111734  -0.0291826   0.0002753  -0.0143411   0.0059971
          151         152         153         154         155         156
    1   0.0185937  -0.0777666   0.0077621   0.0120940   0.0264767   0.0030235
    2   0.0235305  -0.0527461  -0.0034003   0.0174498  -0.0022988  -0.0282246
    3   0.0167141  -0.0539137  -0.0051684  -0.0310195   0.0134280   0.0015607
          157         158         159         160         161         162
    1  -0.0446438   0.0033620  -0.0212037   0.0297371  -0.0053921   0.0197452
    2  -0.0009818   0.0079159   0.0106655  -0.0074806   0.0213485  -0.0622004
    3  -0.0289141   0.0050285   0.0246001   0.0124596  -0.0243738   0.0889835
          163         164         165         166         167         168
    1  -0.0069106  -0.0140638  -0.0065449  -0.0224740   0.0091952   0.0042363
    2  -0.0060636  -0.0104653  -0.0258400   0.0186003   0.0381221  -0.0077598
    3   0.0010578  -0.0272548   0.0167985   0.0103234  -0.0369379  -0.0032325
          169         170         171         172         173         174
    1  -0.0084953  -0.0136549   0.0317745   0.0284052   0.0041554   0.0127584
    2  -0.0169367  -0.0168072   0.0026478   0.0076565   0.0041377   0.0302792
    3   0.0300635  -0.0263642  -0.0096052   0.1066216  -0.0108007  -0.0022297
          175         176         177         178         179         180
    1   0.0337433  -0.0201901   0.0531288  -0.0068410   0.0018082   0.0053862
    2   0.0062468   0.0039128  -0.0122425  -0.0040971  -0.0097729  -0.0201795
    3  -0.0192129  -0.0217180   0.0262313  -0.0023208  -0.0324143   0.0253328
          181         182         183         184         185         186
    1  -0.0290076  -0.0770960   0.0013850   0.0175045  -0.0315133   0.0089072
    2   0.0083730   0.0540356   0.0074881  -0.0100211   0.0063045   0.0346651
    3  -0.0107465   0.0563457  -0.0043282  -0.0260630   0.0059519  -0.0081611
          187         188         189         190         191         192
    1  -0.0284083  -0.0005638  -0.0321595   0.0041380   0.0209799   0.1091715
    2  -0.0571523   0.0085399   0.0038869  -0.0096318   0.0267458   0.0071758
    3   0.0052280   0.0099456  -0.0038063   0.0329659   0.0068025  -0.0052658
          193         194         195         196         197         198
    1   0.0015615   0.0141054  -0.0213675   0.0297428  -0.0460546   0.0029645
    2   0.0066348   0.0157109   0.0217266  -0.0030402  -0.0022189  -0.0019089
    3   0.0008639  -0.0253904   0.0187149   0.0102465  -0.0249830   0.0045084
          199         200         201         202         203         204
    1   0.0273547  -0.0236887  -0.0067274   0.0982442   0.0058152   0.0231416
    2  -0.0035562   0.0053754  -0.0348334  -0.0373886  -0.0048780  -0.0132450
    3   0.0166104   0.0236838   0.0207456  -0.0321695   0.0050286  -0.0192868
          205         206         207         208         209         210
    1   0.0113742  -0.0148074  -0.0149813   0.0080341   0.0338621   0.0058308
    2   0.0122064  -0.0273852  -0.0086716   0.0034176   0.0110817   0.0255822
    3   0.0256296   0.0076256  -0.0463714   0.0012367  -0.0285535  -0.0122761
          211         212         213         214         215         216
    1   0.0151240  -0.0514419  -0.0070829   0.0000830  -0.0168142  -0.0224234
    2   0.0026705   0.0387469  -0.0014729  -0.0281879   0.0010584   0.0121892
    3   0.0290157   0.0875727   0.0030094  -0.0023074   0.0315765  -0.0174126
          217         218         219         220         221         222
    1   0.0397405  -0.0069280  -0.0130515  -0.0189800   0.0183374   0.0078808
    2  -0.0165258   0.0077176   0.0103166   0.0122983   0.0242435  -0.0087102
    3   0.0357019   0.0011571  -0.0282290   0.0294569   0.0037882  -0.1093237
          223         224         225         226         227         228
    1   0.0023404   0.0134490   0.0105434  -0.0224352  -0.0320877   0.0060248
    2   0.0039752   0.0086664   0.0182557   0.0216101  -0.0281156  -0.0029740
    3   0.0015784   0.0367046  -0.0248322   0.0042796   0.0396323  -0.0035221
          229         230         231         232         233         234
    1   0.0241220   0.0104779   0.0029646  -0.0337418   0.0028558   0.0351453
    2   0.0186299  -0.0052391  -0.0317476   0.0180742   0.0038304   0.0057004
    3  -0.0170863   0.0256789  -0.0086943  -0.1033510   0.0014401  -0.0058047
          235         236         237         238         239         240
    1  -0.0127489   0.0052293   0.0216068  -0.0019493  -0.0098860   0.0177335
    2   0.0264418  -0.0091020  -0.0373038   0.0039231   0.0264375   0.0115100
    3   0.0068511   0.0231067  -0.0221295  -0.0036489   0.0093953  -0.0339303
          241         242         243         244         245         246
    1  -0.0258356  -0.0984410  -0.0055061  -0.0180031   0.0091533  -0.0168385
    2   0.0021769  -0.0016052   0.0008623  -0.0154546  -0.0047046   0.0232093
    3  -0.0209464   0.0522465   0.0109298  -0.0084825   0.0302273   0.0006530
          247         248         249         250         251         252
    1  -0.0116406   0.0029913   0.0285649  -0.0067551  -0.0105717   0.0660361
    2  -0.0054811  -0.0099106  -0.0067075   0.0012059  -0.0288166   0.0715480
    3  -0.0476864   0.0049656  -0.0093491   0.0289191  -0.0095487   0.0517355
          253         254         255         256         257         258
    1   0.0053016   0.0123050   0.0358204  -0.0043061   0.0204104  -0.0009690
    2   0.0025109   0.0306941  -0.0063487   0.0060519  -0.0145515  -0.0029709
    3  -0.0018639   0.0032348   0.0090458  -0.0310146   0.0572726  -0.0036962
          259         260         261         262         263         264
    1  -0.0025835   0.0235835  -0.0223663  -0.0824594  -0.0066742  -0.0134492
    2   0.0094300  -0.0249544  -0.0187574   0.0693318  -0.0030698  -0.0326717
    3  -0.0313668   0.0060068   0.0022738  -0.0203943  -0.0029009  -0.0024159
          265         266         267         268         269         270
    1  -0.0175951  -0.0001001   0.0244055   0.0036853   0.0105758   0.0267918
    2   0.0142264   0.0282238   0.0427335  -0.0019017   0.0184339  -0.0143168
    3   0.0207640  -0.0231017   0.0231971  -0.0030459  -0.0290996   0.0097944
          271         272
    1  -0.0161305  -0.0247580
    2  -0.0218159  -0.0943354
    3  -0.0142787   0.0512776
  --- DONE ESP SUMMARY ---
Archival summary:
1\1\node029\SP\ProcedureUnspecified\6-31+G*\252550h22\ymao90\FriDec319:45:232021FriDec319:45:232021\0\\#,ProcedureUnspecified,6-31+G*,\\0,1\S\O,1,1.49717\C,1,1.80658,2,104.167\H,3,1.0921,1,113.861,2,-41.0984,0\H,3,1.09298,1,103.425,2,-153.035,0\H,3,1.09318,1,100.383,2,84.4984,0\C,1,1.80744,2,95.9934,3,-97.7329,0\H,7,1.0928,1,108.892,2,-76.4689,0\H,7,1.09321,1,112.74,2,154.852,0\H,7,1.09333,1,105.782,2,37.5883,0\Gh,6,1.98219,3,130.926,1,23.0462,0\Gh,11,1.09688,6,159.091,3,133.072,0\Gh,12,1.46192,11,112.435,6,48.9936,0\Gh,13,1.01287,12,120.12,11,-165.518,0\Gh,13,1.3786,12,121.109,11,-14.0123,0\Gh,15,1.10509,13,113.469,12,-172.295,0\Gh,15,1.21765,13,122.887,12,5.59389,0\Gh,12,1.53727,11,108.757,6,-67.9765,0\Gh,18,1.09702,12,104.036,11,-175.017,0\Gh,18,1.09765,12,114.23,11,57.3914,0\Gh,18,1.53692,12,109.904,11,-61.2381,0\Gh,21,1.09679,18,111.556,12,60.8341,0\Gh,21,1.09691,18,112.45,12,-177.449,0\Gh,12,1.53754,11,110.205,6,169.358,0\Gh,24,1.0963,12,116.703,11,-57.5195,0\Gh,24,1.09733,12,104.433,11,-170.573,0\Gh,24,1.53711,12,114.698,11,71.8498,0\Gh,27,1.09704,24,110.727,12,155.681,0\Gh,27,1.09735,24,104.344,12,-89.4868,0\Gh,27,1.53756,24,118.017,12,31.0389,0\Gh,30,1.09649,27,112.477,24,-166.335,0\Gh,30,1.0973,27,110.369,24,85.6402,0\H,8,2.10637,7,120.027,1,3.5257,0\C,33,1.09292,8,125.018,7,-145.551,0\H,34,1.09256,33,104.116,8,68.9172,0\H,34,1.09282,33,117.364,8,-48.8107,0\S,34,1.80769,33,109.178,8,-174.544,0\O,37,1.49651,34,102.261,33,57.7563,0\C,37,1.80647,34,95.7011,33,170.071,0\H,39,1.09256,37,106.832,34,-34.9259,0\H,39,1.09297,37,108.943,34,-150.336,0\H,39,1.09358,37,108.4,34,84.3776,0\H,25,2.23049,24,135.449,12,174.187,0\C,43,1.09278,25,110.957,24,-98.1036,0\H,44,1.09213,43,113.196,25,93.7517,0\H,44,1.09284,43,114.605,25,-21.5588,0\S,44,1.80751,43,109.192,25,-148.865,0\O,47,1.49655,44,111.682,43,-85.0732,0\C,47,1.80733,44,94.9847,43,166.747,0\H,49,1.09262,47,102.046,44,61.3068,0\H,49,1.09286,47,108.957,44,-177.397,0\H,49,1.09287,47,113.791,44,-60.1424,0\H,6,2.23063,3,98.6567,1,-142.691,0\C,53,1.09307,6,152.56,3,-54.6652,0\H,54,1.09279,53,102.674,6,147.449,0\H,54,1.09332,53,107.527,6,29.7979,0\S,54,1.80633,53,109.955,6,-92.1774,0\O,57,1.4967,54,104.742,53,175.485,0\C,57,1.80627,54,93.8959,53,-82.6477,0\H,59,1.09318,57,107.866,54,178.922,0\H,59,1.0934,57,101.057,54,60.5357,0\H,59,1.09372,57,106.055,54,-63.7411,0\H,55,2.11276,54,116.665,53,-28.8564,0\C,63,1.09296,55,130.273,54,-96.7267,0\H,64,1.09246,63,112.065,55,52.4747,0\H,64,1.09275,63,112.592,55,175.127,0\S,64,1.80727,63,106.027,55,-67.903,0\O,67,1.49662,64,102.387,63,59.9551,0\C,67,1.80689,64,93.1555,63,160.005,0\H,69,1.09306,67,103.969,64,82.1158,0\H,69,1.09323,67,101.675,64,-156.287,0\H,69,1.09375,67,108.374,64,-36.3182,0\H,5,2.26181,3,137.951,1,-46.9406,0\C,73,1.09238,5,141.824,3,134.748,0\H,74,1.09308,73,110.87,5,19.6863,0\H,74,1.09365,73,109.308,5,142.61,0\S,74,1.80655,73,110.575,5,-101.603,0\O,77,1.49753,74,102.85,73,70.4968,0\C,77,1.80746,74,96.7703,73,178.222,0\H,79,1.09203,77,110.724,74,39.1072,0\H,79,1.09248,77,107.965,74,-78.0703,0\H,79,1.09332,77,107.043,74,162.885,0\H,82,2.27352,79,123.63,77,-37.1824,0\C,83,1.0932,82,127.04,79,82.6517,0\H,84,1.0929,83,111.02,82,150.416,0\H,84,1.09304,83,117.044,82,-71.969,0\S,84,1.80779,83,106.085,82,34.2306,0\O,87,1.49709,84,103.465,83,163.069,0\C,87,1.80674,84,96.4219,83,64.7222,0\H,89,1.0921,87,110.674,84,58.0547,0\H,89,1.09309,87,110.644,84,-64.7107,0\H,89,1.09369,87,104.686,84,-177.616,0\H,66,2.33421,64,142.428,63,-159.781,0\C,93,1.09372,66,147.846,64,128.943,0\H,94,1.09248,93,111.396,66,168.624,0\H,94,1.09333,93,111.615,66,46.251,0\S,94,1.80666,93,106.579,66,-64.5116,0\O,97,1.49606,94,111.447,93,-64.4308,0\C,97,1.80698,94,90.4847,93,-170.833,0\H,99,1.09258,97,102.944,94,169.153,0\H,99,1.09266,97,110.722,94,47.944,0\H,99,1.09292,97,104.285,94,-72.4048,0\H,20,2.36419,18,103.457,12,161.701,0\C,103,1.09298,20,135.515,18,-131.09,0\H,104,1.09306,103,108.426,20,25.3182,0\H,104,1.09366,103,118.537,20,147.238,0\S,104,1.80715,103,110.004,20,-86.6773,0\O,107,1.49742,104,103.866,103,-58.2475,0\C,107,1.80707,104,89.3621,103,42.0786,0\H,109,1.09273,107,113.308,104,172.977,0\H,109,1.09303,107,109.531,104,50.778,0\H,109,1.09305,107,112.68,104,-75.1635,0\H,103,2.13217,20,131.008,18,52.1781,0\C,113,1.09368,103,132.877,20,-67.9405,0\H,114,1.09244,113,108.58,103,49.1225,0\H,114,1.09282,113,104.013,103,-80.4758,0\S,114,1.80659,113,111.872,103,156.008,0\O,117,1.4974,114,104.975,113,176.443,0\C,117,1.80679,114,89.2144,113,73.7722,0\H,119,1.0918,117,117.138,114,170.835,0\H,119,1.09245,117,107.169,114,47.8994,0\H,119,1.0933,117,108.414,114,-63.0399,0\H,122,2.14152,119,112.023,117,-72.8296,0\C,123,1.09341,122,141.642,119,93.1269,0\H,124,1.09248,123,111.738,122,20.7545,0\H,124,1.09267,123,115.083,122,-102.462,0\S,124,1.80734,123,116.205,122,138.159,0\O,127,1.49622,124,104.368,123,177.621,0\C,127,1.8062,124,97.9483,123,72.1973,0\H,129,1.09226,127,106.12,124,-175.657,0\H,129,1.09262,127,101.714,124,-57.8729,0\H,129,1.09394,127,111.553,124,55.8463,0\H,111,2.24008,109,120.344,107,132.52,0\C,133,1.09283,111,134.8,109,-174.114,0\H,134,1.09275,133,108.445,111,-73.8362,0\H,134,1.09318,133,116.331,111,158.974,0\S,134,1.80704,133,106.186,111,36.0317,0\O,137,1.49727,134,100.573,133,-38.3982,0\C,137,1.80715,134,100.598,133,73.421,0\H,139,1.0925,137,109.834,134,-169.023,0\H,139,1.09267,137,107.285,134,61.8199,0\H,139,1.09313,137,104.975,134,-56.7018,0\H,136,2.24891,134,118.946,133,-149.414,0\C,143,1.09393,136,141.606,134,-59.4808,0\H,144,1.0929,143,114.867,136,27.3451,0\H,144,1.09344,143,111.364,136,155.448,0\S,144,1.80685,143,104.728,136,-90.5383,0\O,147,1.49644,144,95.0893,143,-75.5095,0\C,147,1.80802,144,93.1278,143,-173.577,0\H,149,1.09263,147,107.916,144,31.6488,0\H,149,1.09266,147,111.042,144,-90.5525,0\H,149,1.09317,147,110.47,144,154.438,0\H,145,2.36638,144,150.902,143,59.3484,0\C,153,1.09325,145,138.652,144,33.1603,0\H,154,1.09259,153,107.575,145,143.603,0\H,154,1.09267,153,114.597,145,-87.4511,0\S,154,1.80767,153,113.769,145,32.6505,0\O,157,1.49641,154,108.994,153,-74.0388,0\C,157,1.80744,154,107.373,153,35.4887,0\H,159,1.09266,157,114.461,154,38.8826,0\H,159,1.09317,157,106.599,154,158.801,0\H,159,1.09343,157,103.613,154,-91.9671,0\H,155,2.27619,154,149.925,153,-172.423,0\C,163,1.09393,155,102.835,154,114.057,0\H,164,1.09276,163,112.196,155,21.0402,0\H,164,1.09282,163,108.673,155,-109.243,0\S,164,1.80709,163,105.639,155,134.437,0\O,167,1.49723,164,103.078,163,-77.4002,0\C,167,1.80653,164,97.3915,163,178.558,0\H,169,1.09284,167,108.617,164,48.2134,0\H,169,1.09301,167,106.206,164,-179.493,0\H,169,1.09344,167,109.449,164,-69.1788,0\H,163,2.2094,155,127.014,154,-64.6074,0\C,173,1.09324,163,107.765,155,23.7893,0\H,174,1.09259,173,106.561,163,43.2491,0\H,174,1.09271,173,112.054,163,158.938,0\S,174,1.80776,173,108.256,163,-70.9387,0\O,177,1.49676,174,105.885,173,51.6419,0\C,177,1.80668,174,89.1758,173,156.159,0\H,179,1.09265,177,108.391,174,-179.888,0\H,179,1.093,177,115.032,174,-55.5646,0\H,179,1.09306,177,106.585,174,59.1776,0\H,165,2.31722,164,157.806,163,93.0827,0\C,183,1.0929,165,169.68,164,55.882,0\H,184,1.09265,183,109.705,165,78.4405,0\H,184,1.09319,183,106.422,165,-43.4011,0\S,184,1.8069,183,107.449,165,-163.956,0\O,187,1.49777,184,102.919,183,-45.5694,0\C,187,1.80717,184,90.5435,183,55.6835,0\H,189,1.0927,187,98.4418,184,64.4197,0\H,189,1.09278,187,110.47,184,-54.6456,0\H,189,1.09323,187,103.789,184,-172.271,0\H,190,2.15836,189,93.6527,187,-167.767,0\C,193,1.09377,190,167.523,189,-33.9979,0\H,194,1.09274,193,109.096,190,101.319,0\H,194,1.09323,193,115.051,190,-15.3302,0\S,194,1.80668,193,114.706,190,-136.845,0\O,197,1.49713,194,100.989,193,-171.349,0\C,197,1.80646,194,91.0158,193,-69.5219,0\H,199,1.09242,197,110.785,194,-44.7851,0\H,199,1.09317,197,107.917,194,77.9679,0\H,199,1.09363,197,107.524,194,-163.502,0\H,17,2.46393,15,94.7813,13,65.4011,0\C,203,1.0931,17,163.989,15,125.665,0\H,204,1.09278,203,108.318,17,96.9961,0\H,204,1.09295,203,109.161,17,-146.105,0\S,204,1.80739,203,113.133,17,-26.9264,0\O,207,1.49678,204,97.5009,203,-92.0859,0\C,207,1.8065,204,97.2001,203,165.579,0\H,209,1.09295,207,112.876,204,-8.02077,0\H,209,1.09344,207,111.698,204,-124.927,0\H,209,1.09348,207,108.026,204,123.866,0\H,212,2.25702,209,119.875,207,-68.885,0\C,213,1.09271,212,118.981,209,-131.421,0\H,214,1.0927,213,118.934,212,49.2816,0\H,214,1.09291,213,107.915,212,-66.6195,0\S,214,1.80737,213,114.195,212,-179.229,0\O,217,1.49675,214,100.797,213,74.9579,0\C,217,1.80719,214,93.4379,213,175.214,0\H,219,1.09243,217,108.765,214,-53.3947,0\H,219,1.09275,217,106.119,214,-170.755,0\H,219,1.09373,217,106.286,214,74.2273,0\H,118,2.65352,117,132.748,114,78.3389,0\C,223,1.09291,118,168.088,117,-1.85594,0\H,224,1.09259,223,106.781,118,-163.128,0\H,224,1.0939,223,111.546,118,79.2825,0\S,224,1.80686,223,105.341,118,-46.4375,0\O,227,1.49641,224,101.32,223,-62.1004,0\C,227,1.80666,224,100.525,223,-162.137,0\H,229,1.09323,227,110.205,224,45.2104,0\H,229,1.09337,227,105.105,224,-75.2345,0\H,229,1.09366,227,112.182,224,170.991,0\H,232,2.12077,229,124.331,227,-34.4407,0\C,233,1.09294,232,112.028,229,-162.47,0\H,234,1.09192,233,112.541,232,-79.7898,0\H,234,1.09301,233,106.951,232,39.5421,0\S,234,1.8067,233,106.023,232,161.812,0\O,237,1.49711,234,99.2201,233,-96.013,0\C,237,1.8076,234,93.1425,233,9.48645,0\H,239,1.09254,237,104.732,234,170.803,0\H,239,1.09276,237,100.501,234,-74.2333,0\H,239,1.09338,237,113.124,234,43.1302,0\H,241,2.37051,239,148.52,237,-166.225,0\C,243,1.09352,241,149.579,239,172.312,0\H,244,1.09275,243,117.74,241,-38.2244,0\H,244,1.09347,243,105.405,241,92.7955,0\S,244,1.80638,243,107.941,241,-154.757,0\O,247,1.49696,244,99.0028,243,67.4321,0\C,247,1.80726,244,94.5265,243,-41.4135,0\H,249,1.09271,247,110.948,244,168.434,0\H,249,1.09282,247,107.702,244,-71.5875,0\H,249,1.09309,247,108.986,244,48.1155,0\H,232,2.41295,229,119.735,227,105.401,0\C,253,1.09263,232,112.119,229,134.331,0\H,254,1.09283,253,110.228,232,57.0587,0\H,254,1.09322,253,112.302,232,179.829,0\S,254,1.80799,253,107.572,232,-59.3891,0\O,257,1.49715,254,106.598,253,68.0268,0\C,257,1.80681,254,94.4599,253,174.334,0\H,259,1.09272,257,119.758,254,-77.6907,0\H,259,1.09319,257,107.875,254,50.0602,0\H,259,1.09329,257,104.43,254,164.351,0\H,75,2.90033,74,122.874,73,50.2846,0\C,263,1.09333,75,127.764,74,-75.906,0\H,264,1.092,263,108.096,75,-148.817,0\H,264,1.09297,263,116.355,75,-28.1379,0\S,264,1.80702,263,110.584,75,93.4764,0\O,267,1.49678,264,93.1302,263,-37.1561,0\C,267,1.80711,264,101.008,263,71.7436,0\H,269,1.09252,267,113.374,264,178.11,0\H,269,1.09317,267,104.144,264,-71.7093,0\H,269,1.09379,267,111.754,264,45.1941,0\\\@

 Total job time:  54.66s(wall), 169.92s(cpu) 
 Fri Dec  3 19:45:23 2021

        *************************************************************
        *                                                           *
        *  Thank you very much for using Q-Chem.  Have a nice day.  *
        *                                                           *
        *************************************************************


