                  Welcome to Q-Chem
     A Quantum Leap Into The Future Of Chemistry


 Q-Chem 6.0 (devel), Q-Chem, Inc., Pleasanton, CA (2022)

 E. Epifanovsky,  A. T. B. Gilbert,  Xintian Feng,  Joonho Lee,  Yuezhi Mao,  
 N. Mardirossian,  P. Pokhilko,  A. White,  M. Wormit,  M. P. Coons,  
 A. L. Dempwolff,  Zhengting Gan,  D. Hait,  P. R. Horn,  L. D. Jacobson,  
 I. Kaliman,  J. Kussmann,  A. W. Lange,  Ka Un Lao,  D. S. Levine,  Jie Liu,  
 S. C. McKenzie,  A. F. Morrison,  K. Nanda,  F. Plasser,  D. R. Rehn,  
 M. L. Vidal,  Zhi-Qiang You,  Ying Zhu,  B. Alam,  B. Albrecht,  
 A. Aldossary,  E. Alguire,  J. H. Andersen,  V. Athavale,  D. Barton,  
 K. Begam,  A. Behn,  N. Bellonzi,  Y. A. Bernard,  E. J. Berquist,  
 H. Burton,  A. Carreras,  K. Carter-Fenk,  Romit Chakraborty,  
 Chandrima Chakravarty,  Junhan Chen,  A. D. Chien,  K. D. Closser,  
 V. Cofer-Shabica,  L. Cunha,  S. Dasgupta,  Jia Deng,  M. de Wergifosse,  
 M. Diedenhofen,  Hainam Do,  S. Ehlert,  Po-Tung Fang,  S. Fatehi,  
 Qingguo Feng,  T. Friedhoff,  B. Ganoe,  J. Gayvert,  Qinghui Ge,  
 G. Gidofalvi,  M. Goldey,  J. Gomes,  C. Gonzalez-Espinoza,  S. Gulania,  
 A. Gunina,  J. A. Gyamfi,  M. W. D. Hanson-Heine,  P. H. P. Harbach,  
 A. W. Hauser,  M. F. Herbst,  M. Hernandez Vera,  M. Hodecker,  
 Z. C. Holden,  S. Houck,  Xunkun Huang,  Kerwin Hui,  B. C. Huynh,  
 K. Ikeda,  M. Ivanov,  Hyunjun Ji,  Zuxin Jin,  Hanjie Jiang,  B. Kaduk,  
 S. Kaehler,  R. Kang,  K. Khistyaev,  Jaehoon Kim,  Yongbin Kim,  
 P. Klunzinger,  Z. Koczor-Benda,  Joong Hoon Koh,  D. Kosenkov,  
 Saikiran Kotaru,  L. Koulias,  T. Kowalczyk,  C. M. Krauter,  K. Kue,  
 A. Kunitsa,  T. Kus,  A. Landau,  K. V. Lawler,  D. Lefrancois,  S. Lehtola,  
 Rain Li,  Shaozhi Li,  Yi-Pei Li,  Jiashu Liang,  M. Liebenthal,  
 Hung-Hsuan Lin,  You-Sheng Lin,  Fenglai Liu,  Kuan-Yu Liu,  
 M. Loipersberger,  A. Luenser,  C. Malbon,  A. Manjanath,  P. Manohar,  
 E. Mansoor,  S. F. Manzer,  Shan-Ping Mao,  A. V. Marenich,  T. Markovich,  
 S. Mason,  F. Matz,  S. A. Maurer,  P. F. McLaughlin,  M. F. S. J. Menger,  
 J.-M. Mewes,  S. A. Mewes,  P. Morgante,  Mohammad Mostafanejad,  
 J. W. Mullinax,  K. J. Oosterbaan,  G. Paran,  V. Parravicini,  
 Alexander C. Paul,  Suranjan K. Paul,  F. Pavosevic,  Zheng Pei,  S. Prager,  
 E. I. Proynov,  E. Ramos,  B. Rana,  A. E. Rask,  A. Rettig,  R. M. Richard,  
 F. Rob,  E. Rossomme,  T. Scheele,  M. Scheurer,  M. Schneider,  
 P. E. Schneider,  N. Sergueev,  S. M. Sharada,  Hengyuan Shen,  
 W. Skomorowski,  D. W. Small,  C. J. Stein,  Yingli Su,  Yu-Chuan Su,  
 E. J. Sundstrom,  Zhen Tao,  J. Thirman,  Hung-Yi Tsai,  T. Tsuchimochi,  
 N. M. Tubman,  C. Utku,  S. P. Veccham,  O. Vydrov,  J. Wenzel,  
 Jonathan Wong,  J. Witte,  A. Yamada,  Chou-Hsun Yang,  Kun Yao,  
 S. Yeganeh,  S. R. Yost,  A. Zech,  F. Zeller,  Igor Ying Zhang,  
 Xing Zhang,  Yu Zhang,  D. Zuev,  A. Aspuru-Guzik,  A. T. Bell,  
 N. A. Besley,  K. B. Bravaya,  B. R. Brooks,  D. Casanova,  Jeng-Da Chai,  
 Hsing-Ta Chen,  S. Coriani,  C. J. Cramer,  A. E. DePrince, III,  
 R. A. DiStasio Jr.,  A. Dreuw,  B. D. Dunietz,  T. R. Furlani,  
 W. A. Goddard III,  S. Grimme,  S. Hammes-Schiffer,  T. Head-Gordon,  
 W. J. Hehre,  Chao-Ping Hsu,  T.-C. Jagau,  Yousung Jung,  A. Klamt,  
 Jing Kong,  D. S. Lambrecht,  Xiangyuan Li,  WanZhen Liang,  N. J. Mayhall,  
 C. W. McCurdy,  J. B. Neaton,  T. Neudecker,  C. Ochsenfeld,  
 J. A. Parkhill,  R. Peverati,  V. A. Rassolov,  Haisheng Ren,  Yihan Shao,  
 L. V. Slipchenko,  R. P. Steele,  J. E. Subotnik,  A. J. W. Thom,  
 A. Tkatchenko,  D. G. Truhlar,  T. Van Voorhis,  Fan Wang,  
 T. A. Wesolowski,  K. B. Whaley,  H. L. Woodcock III,  P. M. Zimmerman,  
 S. Faraji,  P. M. W. Gill,  M. Head-Gordon,  J. M. Herbert,  A. I. Krylov

 Contributors to earlier versions of Q-Chem not listed above: 
 R. D. Adamson,  B. Austin,  R. Baer,  J. Baker,  G. J. O. Beran,  
 K. Brandhorst,  S. T. Brown,  E. F. C. Byrd,  Arup K. Chakraborty,  
 G. K. L. Chan,  Chun-Min Chang,  Yunqing Chen,  C.-L. Cheng,  
 Siu Hung Chien,  D. M. Chipman,  D. L. Crittenden,  H. Dachsel,  
 R. J. Doerksen,  A. D. Dutoi,  R. G. Edgar,  J. Fosso-Tande,  
 L. Fusti-Molnar,  D. Ghosh,  A. Ghysels,  A. Golubeva-Zadorozhnaya,  
 J. Gonthier,  M. S. Gordon,  S. R. Gwaltney,  G. Hawkins,  J. E. Herr,  
 A. Heyden,  S. Hirata,  E. G. Hohenstein,  G. Kedziora,  F. J. Keil,  
 C. Kelley,  Jihan Kim,  R. A. King,  R. Z. Khaliullin,  P. P. Korambath,  
 W. Kurlancheek,  A. Laurent,  A. M. Lee,  M. S. Lee,  S. V. Levchenko,  
 Ching Yeh Lin,  D. Liotard,  E. Livshits,  R. C. Lochan,  I. Lotan,  
 L. A. Martinez-Martinez,  P. E. Maslen,  N. Nair,  D. P. O'Neill,  
 D. Neuhauser,  E. Neuscamman,  C. M. Oana,  R. Olivares-Amaya,  R. Olson,  
 T. M. Perrine,  B. Peters,  P. A. Pieniazek,  A. Prociuk,  Y. M. Rhee,  
 J. Ritchie,  M. A. Rohrdanz,  E. Rosta,  N. J. Russ,  H. F. Schaefer III,  
 M. W. Schmidt,  N. E. Schultz,  S. Sharma,  N. Shenvi,  C. D. Sherrill,  
 A. C. Simmonett,  A. Sodt,  T. Stein,  D. Stuck,  K. S. Thanthiriwatte,  
 V. Vanovschi,  L. Vogt,  Tao Wang,  A. Warshel,  M. A. Watson,  
 C. F. Williams,  Q. Wu,  X. Xu,  Jun Yang,  W. Zhang,  Yan Zhao

   Please cite Q-Chem as follows:
  "Software for the frontiers of quantum chemistry:
   An overview of developments in the Q-Chem 5 package"
   J. Chem. Phys. 155, 084801 (2021)
   https://doi.org/10.1063/5.0055522 (open access)

 Q-Chem 6.0.0 for Intel X86 EM64T Linux

 Parts of Q-Chem use Armadillo 9.900.5 (Nocturnal Misbehaviour).
 http://arma.sourceforge.net/

 Q-Chem begins on Thu Jul 21 03:18:43 2022  

 Host: nid00565
0

     Scratch files written to /global/cscratch1/sd/ymao90/r7.00_frame_0016_spade_B3LYP_dp20220721031336//
 Processing $rem in /global/homes/y/ymao90/my_qchem/qchem_embedding_5p4/config/preferences:
 Processing $rem in /global/homes/y/ymao90/.qchemrc:
 No nuclear gradient supported for projection-based embedding or EMFT. Set max ideriv = 0.

 Checking the input file for inconsistencies... 	...done.

--------------------------------------------------------------
User input:
--------------------------------------------------------------
$molecule
0 1
--
0 1
C    22.55600   17.32400   29.18100  
C    23.91700   17.44200   28.47600  
C    23.88000   18.42300   27.29200  
C    23.34700   19.74100   27.87900  
C    21.97900   19.63900   28.57300  
C    22.04300   18.65600   29.75300  
H    24.81500   18.45400   26.72000  
H    24.59600   17.94400   29.17600  
H    21.78900   17.09100   28.43300  
H    22.52700   16.45700   29.85300  
H    24.07200   20.17200   28.58000  
H    23.46700   20.45000   27.05000  
H    21.63000   20.60200   28.96600  
H    21.18700   19.28900   27.89900  
H    22.76900   19.04000   30.48000  
H    21.05200   18.55000   30.21100  
H    23.11900   18.05900   26.59100  
N    24.47700   16.17900   27.99800  
H    24.42700   15.88900   27.02900  
C    25.10700   15.25300   28.80100  
H    25.29100   14.28100   28.30900  
O    25.27800   15.42400   29.99500  
--
0 1
C    24.12800   25.08500   29.06000  
H    25.12300   25.51600   28.92600  
H    23.41100   25.51100   28.35300  
H    23.82600   25.26500   30.09500  
S    24.11800   23.28200   28.93900  
C    24.40800   23.43200   27.16100  
H    23.79700   24.21600   26.70800  
H    25.42200   23.82200   27.03800  
H    24.23400   22.52800   26.57200  
O    22.69100   22.83900   29.03300  
C    21.19500   20.07000   24.65600  
H    21.51000   19.08400   25.00500  
H    20.70900   20.18700   23.68400  
H    22.06900   20.72400   24.60400  
S    20.02800   20.82200   25.81400  
C    18.67600   19.66300   25.50900  
H    17.74400   20.00400   25.96700  
H    18.55000   19.47800   24.44000  
H    19.05800   18.74600   25.96500  
O    19.68200   22.01200   24.97400  
C    29.19000   16.05200   32.40000  
H    28.84400   16.50900   33.33100  
H    29.92900   16.65700   31.87000  
H    28.32000   16.01400   31.73900  
S    29.72200   14.33800   32.61100  
C    28.75500   13.84100   34.05400  
H    29.12500   14.46700   34.87000  
H    27.76000   14.21800   33.80400  
H    28.73300   12.77500   34.29500  
O    31.02000   14.37900   33.35600  
C    22.59100   10.61800   28.06800  
H    22.84100   10.75800   27.01300  
H    21.67800   10.02900   28.19200  
H    22.50700   11.50600   28.69900  
S    23.79700   9.52000    28.84700  
C    23.83200   8.25400    27.55800  
H    23.97500   8.77200    26.60700  
H    24.69000   7.57800    27.58600  
H    22.94800   7.61400    27.49100  
O    23.03600   8.94400    30.00100  
C    25.61300   17.60100   32.08600  
H    26.04400   16.64700   32.39900  
H    24.82100   18.02700   32.70900  
H    25.18200   17.39300   31.10300  
S    26.86400   18.87300   31.79700  
C    25.70700   20.15400   31.26200  
H    24.86500   20.32600   31.93700  
H    26.26000   21.07900   31.07900  
H    25.32600   19.78100   30.30800  
O    27.60100   18.42900   30.57200  
C    20.50300   20.84300   33.10100  
H    20.13600   20.25700   33.94700  
H    19.84600   21.70900   32.98500  
H    20.46000   20.18900   32.22600  
S    22.22100   21.25600   33.47500  
C    22.58800   22.07600   31.90700  
H    23.63700   22.35900   31.78500  
H    22.41200   21.40000   31.06600  
H    21.86000   22.88600   31.81800  
O    22.89800   19.92900   33.33100  
C    14.39900   20.67600   27.34000  
H    13.80800   19.76300   27.23300  
H    13.67300   21.45200   27.59700  
H    14.91000   20.89700   26.39900  
S    15.58500   20.37300   28.66900  
C    16.43100   21.90400   28.21500  
H    17.32300   21.86000   28.84500  
H    16.70800   21.86800   27.15800  
H    15.75700   22.72400   28.47400  
O    16.38200   19.21900   28.14600  
C    26.71100   12.61400   24.62300  
H    26.09100   11.84400   24.15800  
H    26.54700   13.66500   24.37000  
H    27.75100   12.48600   24.31100  
S    26.57500   12.51000   26.42200  
C    26.87900   10.73400   26.55200  
H    27.00300   10.46400   27.60400  
H    26.00200   10.21500   26.15500  
H    27.77700   10.55200   25.95700  
O    25.14500   12.52200   26.86500  
C    28.63600   24.86500   31.55800  
H    29.15300   25.08700   32.49500  
H    28.89400   25.64600   30.83800  
H    27.57400   24.85300   31.81400  
S    29.10800   23.24200   30.91900  
C    27.62000   23.03200   29.91500  
H    27.64100   23.71800   29.06500  
H    27.49100   21.97300   29.67400  
H    26.80500   23.31200   30.58700  
O    28.69900   22.50300   32.15500  
C    27.13900   24.58600   24.44300  
H    26.63600   25.31100   23.79900  
H    28.03900   24.20400   23.95400  
H    26.44000   23.82400   24.79800  
S    27.45500   25.31600   26.06500  
C    27.03400   27.00300   25.57200  
H    27.57900   27.17500   24.64000  
H    25.96200   27.16900   25.43300  
H    27.43600   27.59000   26.40100  
O    28.94900   25.28800   26.15800  
C    26.59600   22.89700   34.20300  
H    27.06100   23.70100   33.62600  
H    27.38300   22.40800   34.78300  
H    26.12100   22.24000   33.47000  
S    25.38900   23.59800   35.35000  
C    24.77400   22.02300   35.98900  
H    24.50400   21.41000   35.12500  
H    25.49300   21.56400   36.67200  
H    23.89000   22.21200   36.60400  
O    24.32200   23.96400   34.36600  
C    28.64200   12.75400   29.29100  
H    29.14500   12.63300   30.25400  
H    28.60700   13.79400   28.95800  
H    27.72000   12.16800   29.32700  
S    29.83500   11.89300   28.24200  
C    31.28700   12.77600   28.85700  
H    32.18200   12.19300   28.62800  
H    31.38900   13.66200   28.22500  
H    31.21700   13.00300   29.92400  
O    29.53300   12.35900   26.85200  
C    25.11200   13.47200   33.24600  
H    24.42600   14.28500   32.99400  
H    24.47000   12.66200   33.60200  
H    25.71100   13.87300   34.06800  
S    26.09800   12.98400   31.81200  
C    24.75400   12.33900   30.79100  
H    24.31000   11.40200   31.13800  
H    23.98300   13.11300   30.78000  
H    25.11700   12.22400   29.76700  
O    26.63600   11.69000   32.33600  
C    28.69700   9.18500    30.85700  
H    29.00500   9.78700    29.99900  
H    28.78200   9.71600    31.80900  
H    29.36900   8.32700    30.94400  
S    26.93600   8.82600    30.66900  
C    26.83200   8.08700    32.31400  
H    27.62500   7.34900    32.46000  
H    26.93300   8.93700    32.99500  
H    25.89100   7.53200    32.33400  
O    26.76300   7.60200    29.82500  
C    20.72200   26.65200   29.90900  
H    20.72500   27.38300   30.72100  
H    21.75600   26.35100   29.72300  
H    20.21400   27.03500   29.02000  
S    19.66800   25.29100   30.46000  
C    18.27400   26.42200   30.66200  
H    18.54100   27.43800   30.96300  
H    17.63300   26.40700   29.77600  
H    17.63700   25.94900   31.41300  
O    20.05500   25.03800   31.88400  
C    17.77300   18.54700   31.63000  
H    17.56500   19.31700   30.88300  
H    16.88700   18.27800   32.21000  
H    18.56100   18.81400   32.34000  
S    18.51200   17.11600   30.81100  
C    17.07800   16.61400   29.83200  
H    17.31600   15.58700   29.54200  
H    16.14600   16.58800   30.40200  
H    16.85200   17.19900   28.93700  
O    18.53200   16.18600   31.98500  
C    20.65000   16.67600   34.66600  
H    19.95400   15.88600   34.37400  
H    20.56300   16.76300   35.75200  
H    20.46800   17.63700   34.17800  
S    22.33500   16.10000   34.35700  
C    22.09400   16.22900   32.57000  
H    21.94200   17.26700   32.26200  
H    22.99200   15.84800   32.07700  
H    21.26400   15.59500   32.24700  
O    22.23300   14.62000   34.55200  
C    21.58300   23.78000   22.99600  
H    21.78500   23.40500   24.00300  
H    20.83900   24.57500   22.90000  
H    21.26200   22.95000   22.36100  
S    23.17400   24.47500   22.49700  
C    24.17400   22.97200   22.58100  
H    23.75800   22.43000   23.43400  
H    24.05700   22.41800   21.64600  
H    25.18300   23.24600   22.89700  
O    23.61900   25.22800   23.71200  
C    18.89600   13.60200   26.27500  
H    19.92000   13.22700   26.34900  
H    18.14700   12.97000   26.75900  
H    18.63300   13.71000   25.21900  
S    18.83400   15.22300   27.07000  
C    17.06900   15.53300   26.83800  
H    16.95400   16.61900   26.79300  
H    16.83400   15.14600   25.84300  
H    16.36500   15.33300   27.65000  
O    19.39500   16.08600   25.98400  
C    26.59900   16.46800   22.18300  
H    25.80100   15.80900   21.83000  
H    26.47200   16.45900   23.26900  
H    26.46900   17.47900   21.78900  
S    28.14900   15.77600   21.56300  
C    27.65400   15.68700   19.82700  
H    27.71600   16.70300   19.42800  
H    28.41800   14.99700   19.46000  
H    26.70400   15.15800   19.72000  
O    28.07700   14.33300   21.95400  
C    25.92000   16.10300   36.88700  
H    26.36300   15.10500   36.83500  
H    25.81300   16.49500   37.90100  
H    24.89900   16.05400   36.49800  
S    26.96400   17.19400   35.89400  
C    25.75300   18.53500   35.84800  
H    24.87800   18.24400   35.26000  
H    25.51400   18.70600   36.90000  
H    26.23300   19.47600   35.56600  
O    26.83000   16.45400   34.60000  
C    22.61900   16.37600   23.24600  
H    21.90700   15.88700   22.57600  
H    22.03300   16.84600   24.04000  
H    23.25200   17.10300   22.73000  
S    23.74600   15.23500   24.07700  
C    22.44600   14.80500   25.25600  
H    22.86200   13.97200   25.83000  
H    22.20300   15.64900   25.90600  
H    21.49000   14.55600   24.78800  
O    24.57500   16.11700   24.95800  
C    20.23100   24.80200   26.55600  
H    21.02900   24.97100   27.28400  
H    19.50600   24.11500   27.00000  
H    20.64400   24.36100   25.64500  
S    19.42100   26.35400   26.11100  
C    20.93000   27.34800   26.13300  
H    21.36700   27.55400   25.15300  
H    20.64400   28.30900   26.56900  
H    21.58600   26.89900   26.88300  
O    18.67400   26.86800   27.30200  
C    27.35600   20.39000   22.88200  
H    26.67000   21.18600   22.58100  
H    28.29400   20.92500   23.05100  
H    27.36400   19.65500   22.07300  
S    26.73500   19.89500   24.50500  
C    25.08600   19.35400   24.00000  
H    24.80200   20.00400   23.16800  
H    25.14000   18.27600   23.82900  
H    24.28400   19.46300   24.73400  
O    26.38900   21.23700   25.07300  
C    27.53000   17.11700   27.45400  
H    28.56400   17.28500   27.76400  
H    26.92700   18.00700   27.65400  
H    27.14000   16.24100   27.97800  
S    27.84700   16.72000   25.72000  
C    28.90400   15.28900   26.03500  
H    29.16000   14.80800   25.08800  
H    29.77800   15.64700   26.58600  
H    28.25300   14.56600   26.53200  
O    28.86600   17.74200   25.32100  
C    19.19600   13.07800   32.85300  
H    18.80800   13.95200   32.32400  
H    18.30100   12.76200   33.39700  
H    19.91500   13.48100   33.57100  
S    19.79000   11.95700   31.56600  
C    21.29000   12.89900   31.20800  
H    21.78400   12.26900   30.46400  
H    21.07100   13.85400   30.72400  
H    21.97300   12.99800   32.05600  
O    18.97300   12.34600   30.37300  
C    20.90400   12.15400   23.11300  
H    20.16200   12.75300   23.64700  
H    21.58000   12.83300   22.58600  
H    20.51300   11.43300   22.39000  
S    21.84600   11.30900   24.40300  
C    21.74300   9.69500    23.59800  
H    20.66900   9.49700    23.54500  
H    22.17300   9.64600    22.59500  
H    22.17400   9.03800    24.35800  
O    20.80300   11.15700   25.46500  
C    29.28800   20.04900   28.17600  
H    29.24600   19.97700   29.26600  
H    28.29700   20.19900   27.73900  
H    29.82300   19.18900   27.76500  
S    30.25500   21.56100   27.96800  
C    29.45500   22.12100   26.44800  
H    28.98600   21.32900   25.85800  
H    28.64900   22.81800   26.69300  
H    30.15500   22.54600   25.72400  
O    31.63700   21.10100   27.62200  
C    19.71700   17.00100   19.64000  
H    20.68700   17.41900   19.92100  
H    19.76600   16.23200   18.86500  
H    19.01100   17.81100   19.44400  
S    19.10900   16.02300   21.03300  
C    19.61000   17.12400   22.37600  
H    20.39500   17.69500   21.87300  
H    18.72800   17.74900   22.54200  
H    19.94400   16.54300   23.23900  
O    20.12300   14.92400   21.09200  
$end

$rem
JOBTYPE  SP
METHOD  B3LYP
BASIS  6-31+G(D)
SYMMETRY  FALSE
SYM_IGNORE  TRUE
MEM_TOTAL  12000
MEM_STATIC  4000
BASIS_LIN_DEP_THRESH  6
THRESH  14
SCF_CONVERGENCE  8
FD_MAT_VEC_PROD  FALSE
XC_GRID  000075000302
NL_GRID  1
MAX_SCF_CYCLES  200
ENV_METHOD  B3LYP
GEN_SCFMAN_EMBED  TRUE
SPADE_PARTITION  TRUE
EMBEDDING_EARLY_STOP  TRUE
$end

--------------------------------------------------------------
 ----------------------------------------------------------------
             Standard Nuclear Orientation (Angstroms)
    I     Atom           X                Y                Z
 ----------------------------------------------------------------
    1      C      22.5560000000    17.3240000000    29.1810000000
    2      C      23.9170000000    17.4420000000    28.4760000000
    3      C      23.8800000000    18.4230000000    27.2920000000
    4      C      23.3470000000    19.7410000000    27.8790000000
    5      C      21.9790000000    19.6390000000    28.5730000000
    6      C      22.0430000000    18.6560000000    29.7530000000
    7      H      24.8150000000    18.4540000000    26.7200000000
    8      H      24.5960000000    17.9440000000    29.1760000000
    9      H      21.7890000000    17.0910000000    28.4330000000
   10      H      22.5270000000    16.4570000000    29.8530000000
   11      H      24.0720000000    20.1720000000    28.5800000000
   12      H      23.4670000000    20.4500000000    27.0500000000
   13      H      21.6300000000    20.6020000000    28.9660000000
   14      H      21.1870000000    19.2890000000    27.8990000000
   15      H      22.7690000000    19.0400000000    30.4800000000
   16      H      21.0520000000    18.5500000000    30.2110000000
   17      H      23.1190000000    18.0590000000    26.5910000000
   18      N      24.4770000000    16.1790000000    27.9980000000
   19      H      24.4270000000    15.8890000000    27.0290000000
   20      C      25.1070000000    15.2530000000    28.8010000000
   21      H      25.2910000000    14.2810000000    28.3090000000
   22      O      25.2780000000    15.4240000000    29.9950000000
   23      C      24.1280000000    25.0850000000    29.0600000000
   24      H      25.1230000000    25.5160000000    28.9260000000
   25      H      23.4110000000    25.5110000000    28.3530000000
   26      H      23.8260000000    25.2650000000    30.0950000000
   27      S      24.1180000000    23.2820000000    28.9390000000
   28      C      24.4080000000    23.4320000000    27.1610000000
   29      H      23.7970000000    24.2160000000    26.7080000000
   30      H      25.4220000000    23.8220000000    27.0380000000
   31      H      24.2340000000    22.5280000000    26.5720000000
   32      O      22.6910000000    22.8390000000    29.0330000000
   33      C      21.1950000000    20.0700000000    24.6560000000
   34      H      21.5100000000    19.0840000000    25.0050000000
   35      H      20.7090000000    20.1870000000    23.6840000000
   36      H      22.0690000000    20.7240000000    24.6040000000
   37      S      20.0280000000    20.8220000000    25.8140000000
   38      C      18.6760000000    19.6630000000    25.5090000000
   39      H      17.7440000000    20.0040000000    25.9670000000
   40      H      18.5500000000    19.4780000000    24.4400000000
   41      H      19.0580000000    18.7460000000    25.9650000000
   42      O      19.6820000000    22.0120000000    24.9740000000
   43      C      29.1900000000    16.0520000000    32.4000000000
   44      H      28.8440000000    16.5090000000    33.3310000000
   45      H      29.9290000000    16.6570000000    31.8700000000
   46      H      28.3200000000    16.0140000000    31.7390000000
   47      S      29.7220000000    14.3380000000    32.6110000000
   48      C      28.7550000000    13.8410000000    34.0540000000
   49      H      29.1250000000    14.4670000000    34.8700000000
   50      H      27.7600000000    14.2180000000    33.8040000000
   51      H      28.7330000000    12.7750000000    34.2950000000
   52      O      31.0200000000    14.3790000000    33.3560000000
   53      C      22.5910000000    10.6180000000    28.0680000000
   54      H      22.8410000000    10.7580000000    27.0130000000
   55      H      21.6780000000    10.0290000000    28.1920000000
   56      H      22.5070000000    11.5060000000    28.6990000000
   57      S      23.7970000000     9.5200000000    28.8470000000
   58      C      23.8320000000     8.2540000000    27.5580000000
   59      H      23.9750000000     8.7720000000    26.6070000000
   60      H      24.6900000000     7.5780000000    27.5860000000
   61      H      22.9480000000     7.6140000000    27.4910000000
   62      O      23.0360000000     8.9440000000    30.0010000000
   63      C      25.6130000000    17.6010000000    32.0860000000
   64      H      26.0440000000    16.6470000000    32.3990000000
   65      H      24.8210000000    18.0270000000    32.7090000000
   66      H      25.1820000000    17.3930000000    31.1030000000
   67      S      26.8640000000    18.8730000000    31.7970000000
   68      C      25.7070000000    20.1540000000    31.2620000000
   69      H      24.8650000000    20.3260000000    31.9370000000
   70      H      26.2600000000    21.0790000000    31.0790000000
   71      H      25.3260000000    19.7810000000    30.3080000000
   72      O      27.6010000000    18.4290000000    30.5720000000
   73      C      20.5030000000    20.8430000000    33.1010000000
   74      H      20.1360000000    20.2570000000    33.9470000000
   75      H      19.8460000000    21.7090000000    32.9850000000
   76      H      20.4600000000    20.1890000000    32.2260000000
   77      S      22.2210000000    21.2560000000    33.4750000000
   78      C      22.5880000000    22.0760000000    31.9070000000
   79      H      23.6370000000    22.3590000000    31.7850000000
   80      H      22.4120000000    21.4000000000    31.0660000000
   81      H      21.8600000000    22.8860000000    31.8180000000
   82      O      22.8980000000    19.9290000000    33.3310000000
   83      C      14.3990000000    20.6760000000    27.3400000000
   84      H      13.8080000000    19.7630000000    27.2330000000
   85      H      13.6730000000    21.4520000000    27.5970000000
   86      H      14.9100000000    20.8970000000    26.3990000000
   87      S      15.5850000000    20.3730000000    28.6690000000
   88      C      16.4310000000    21.9040000000    28.2150000000
   89      H      17.3230000000    21.8600000000    28.8450000000
   90      H      16.7080000000    21.8680000000    27.1580000000
   91      H      15.7570000000    22.7240000000    28.4740000000
   92      O      16.3820000000    19.2190000000    28.1460000000
   93      C      26.7110000000    12.6140000000    24.6230000000
   94      H      26.0910000000    11.8440000000    24.1580000000
   95      H      26.5470000000    13.6650000000    24.3700000000
   96      H      27.7510000000    12.4860000000    24.3110000000
   97      S      26.5750000000    12.5100000000    26.4220000000
   98      C      26.8790000000    10.7340000000    26.5520000000
   99      H      27.0030000000    10.4640000000    27.6040000000
  100      H      26.0020000000    10.2150000000    26.1550000000
  101      H      27.7770000000    10.5520000000    25.9570000000
  102      O      25.1450000000    12.5220000000    26.8650000000
  103      C      28.6360000000    24.8650000000    31.5580000000
  104      H      29.1530000000    25.0870000000    32.4950000000
  105      H      28.8940000000    25.6460000000    30.8380000000
  106      H      27.5740000000    24.8530000000    31.8140000000
  107      S      29.1080000000    23.2420000000    30.9190000000
  108      C      27.6200000000    23.0320000000    29.9150000000
  109      H      27.6410000000    23.7180000000    29.0650000000
  110      H      27.4910000000    21.9730000000    29.6740000000
  111      H      26.8050000000    23.3120000000    30.5870000000
  112      O      28.6990000000    22.5030000000    32.1550000000
  113      C      27.1390000000    24.5860000000    24.4430000000
  114      H      26.6360000000    25.3110000000    23.7990000000
  115      H      28.0390000000    24.2040000000    23.9540000000
  116      H      26.4400000000    23.8240000000    24.7980000000
  117      S      27.4550000000    25.3160000000    26.0650000000
  118      C      27.0340000000    27.0030000000    25.5720000000
  119      H      27.5790000000    27.1750000000    24.6400000000
  120      H      25.9620000000    27.1690000000    25.4330000000
  121      H      27.4360000000    27.5900000000    26.4010000000
  122      O      28.9490000000    25.2880000000    26.1580000000
  123      C      26.5960000000    22.8970000000    34.2030000000
  124      H      27.0610000000    23.7010000000    33.6260000000
  125      H      27.3830000000    22.4080000000    34.7830000000
  126      H      26.1210000000    22.2400000000    33.4700000000
  127      S      25.3890000000    23.5980000000    35.3500000000
  128      C      24.7740000000    22.0230000000    35.9890000000
  129      H      24.5040000000    21.4100000000    35.1250000000
  130      H      25.4930000000    21.5640000000    36.6720000000
  131      H      23.8900000000    22.2120000000    36.6040000000
  132      O      24.3220000000    23.9640000000    34.3660000000
  133      C      28.6420000000    12.7540000000    29.2910000000
  134      H      29.1450000000    12.6330000000    30.2540000000
  135      H      28.6070000000    13.7940000000    28.9580000000
  136      H      27.7200000000    12.1680000000    29.3270000000
  137      S      29.8350000000    11.8930000000    28.2420000000
  138      C      31.2870000000    12.7760000000    28.8570000000
  139      H      32.1820000000    12.1930000000    28.6280000000
  140      H      31.3890000000    13.6620000000    28.2250000000
  141      H      31.2170000000    13.0030000000    29.9240000000
  142      O      29.5330000000    12.3590000000    26.8520000000
  143      C      25.1120000000    13.4720000000    33.2460000000
  144      H      24.4260000000    14.2850000000    32.9940000000
  145      H      24.4700000000    12.6620000000    33.6020000000
  146      H      25.7110000000    13.8730000000    34.0680000000
  147      S      26.0980000000    12.9840000000    31.8120000000
  148      C      24.7540000000    12.3390000000    30.7910000000
  149      H      24.3100000000    11.4020000000    31.1380000000
  150      H      23.9830000000    13.1130000000    30.7800000000
  151      H      25.1170000000    12.2240000000    29.7670000000
  152      O      26.6360000000    11.6900000000    32.3360000000
  153      C      28.6970000000     9.1850000000    30.8570000000
  154      H      29.0050000000     9.7870000000    29.9990000000
  155      H      28.7820000000     9.7160000000    31.8090000000
  156      H      29.3690000000     8.3270000000    30.9440000000
  157      S      26.9360000000     8.8260000000    30.6690000000
  158      C      26.8320000000     8.0870000000    32.3140000000
  159      H      27.6250000000     7.3490000000    32.4600000000
  160      H      26.9330000000     8.9370000000    32.9950000000
  161      H      25.8910000000     7.5320000000    32.3340000000
  162      O      26.7630000000     7.6020000000    29.8250000000
  163      C      20.7220000000    26.6520000000    29.9090000000
  164      H      20.7250000000    27.3830000000    30.7210000000
  165      H      21.7560000000    26.3510000000    29.7230000000
  166      H      20.2140000000    27.0350000000    29.0200000000
  167      S      19.6680000000    25.2910000000    30.4600000000
  168      C      18.2740000000    26.4220000000    30.6620000000
  169      H      18.5410000000    27.4380000000    30.9630000000
  170      H      17.6330000000    26.4070000000    29.7760000000
  171      H      17.6370000000    25.9490000000    31.4130000000
  172      O      20.0550000000    25.0380000000    31.8840000000
  173      C      17.7730000000    18.5470000000    31.6300000000
  174      H      17.5650000000    19.3170000000    30.8830000000
  175      H      16.8870000000    18.2780000000    32.2100000000
  176      H      18.5610000000    18.8140000000    32.3400000000
  177      S      18.5120000000    17.1160000000    30.8110000000
  178      C      17.0780000000    16.6140000000    29.8320000000
  179      H      17.3160000000    15.5870000000    29.5420000000
  180      H      16.1460000000    16.5880000000    30.4020000000
  181      H      16.8520000000    17.1990000000    28.9370000000
  182      O      18.5320000000    16.1860000000    31.9850000000
  183      C      20.6500000000    16.6760000000    34.6660000000
  184      H      19.9540000000    15.8860000000    34.3740000000
  185      H      20.5630000000    16.7630000000    35.7520000000
  186      H      20.4680000000    17.6370000000    34.1780000000
  187      S      22.3350000000    16.1000000000    34.3570000000
  188      C      22.0940000000    16.2290000000    32.5700000000
  189      H      21.9420000000    17.2670000000    32.2620000000
  190      H      22.9920000000    15.8480000000    32.0770000000
  191      H      21.2640000000    15.5950000000    32.2470000000
  192      O      22.2330000000    14.6200000000    34.5520000000
  193      C      21.5830000000    23.7800000000    22.9960000000
  194      H      21.7850000000    23.4050000000    24.0030000000
  195      H      20.8390000000    24.5750000000    22.9000000000
  196      H      21.2620000000    22.9500000000    22.3610000000
  197      S      23.1740000000    24.4750000000    22.4970000000
  198      C      24.1740000000    22.9720000000    22.5810000000
  199      H      23.7580000000    22.4300000000    23.4340000000
  200      H      24.0570000000    22.4180000000    21.6460000000
  201      H      25.1830000000    23.2460000000    22.8970000000
  202      O      23.6190000000    25.2280000000    23.7120000000
  203      C      18.8960000000    13.6020000000    26.2750000000
  204      H      19.9200000000    13.2270000000    26.3490000000
  205      H      18.1470000000    12.9700000000    26.7590000000
  206      H      18.6330000000    13.7100000000    25.2190000000
  207      S      18.8340000000    15.2230000000    27.0700000000
  208      C      17.0690000000    15.5330000000    26.8380000000
  209      H      16.9540000000    16.6190000000    26.7930000000
  210      H      16.8340000000    15.1460000000    25.8430000000
  211      H      16.3650000000    15.3330000000    27.6500000000
  212      O      19.3950000000    16.0860000000    25.9840000000
  213      C      26.5990000000    16.4680000000    22.1830000000
  214      H      25.8010000000    15.8090000000    21.8300000000
  215      H      26.4720000000    16.4590000000    23.2690000000
  216      H      26.4690000000    17.4790000000    21.7890000000
  217      S      28.1490000000    15.7760000000    21.5630000000
  218      C      27.6540000000    15.6870000000    19.8270000000
  219      H      27.7160000000    16.7030000000    19.4280000000
  220      H      28.4180000000    14.9970000000    19.4600000000
  221      H      26.7040000000    15.1580000000    19.7200000000
  222      O      28.0770000000    14.3330000000    21.9540000000
  223      C      25.9200000000    16.1030000000    36.8870000000
  224      H      26.3630000000    15.1050000000    36.8350000000
  225      H      25.8130000000    16.4950000000    37.9010000000
  226      H      24.8990000000    16.0540000000    36.4980000000
  227      S      26.9640000000    17.1940000000    35.8940000000
  228      C      25.7530000000    18.5350000000    35.8480000000
  229      H      24.8780000000    18.2440000000    35.2600000000
  230      H      25.5140000000    18.7060000000    36.9000000000
  231      H      26.2330000000    19.4760000000    35.5660000000
  232      O      26.8300000000    16.4540000000    34.6000000000
  233      C      22.6190000000    16.3760000000    23.2460000000
  234      H      21.9070000000    15.8870000000    22.5760000000
  235      H      22.0330000000    16.8460000000    24.0400000000
  236      H      23.2520000000    17.1030000000    22.7300000000
  237      S      23.7460000000    15.2350000000    24.0770000000
  238      C      22.4460000000    14.8050000000    25.2560000000
  239      H      22.8620000000    13.9720000000    25.8300000000
  240      H      22.2030000000    15.6490000000    25.9060000000
  241      H      21.4900000000    14.5560000000    24.7880000000
  242      O      24.5750000000    16.1170000000    24.9580000000
  243      C      20.2310000000    24.8020000000    26.5560000000
  244      H      21.0290000000    24.9710000000    27.2840000000
  245      H      19.5060000000    24.1150000000    27.0000000000
  246      H      20.6440000000    24.3610000000    25.6450000000
  247      S      19.4210000000    26.3540000000    26.1110000000
  248      C      20.9300000000    27.3480000000    26.1330000000
  249      H      21.3670000000    27.5540000000    25.1530000000
  250      H      20.6440000000    28.3090000000    26.5690000000
  251      H      21.5860000000    26.8990000000    26.8830000000
  252      O      18.6740000000    26.8680000000    27.3020000000
  253      C      27.3560000000    20.3900000000    22.8820000000
  254      H      26.6700000000    21.1860000000    22.5810000000
  255      H      28.2940000000    20.9250000000    23.0510000000
  256      H      27.3640000000    19.6550000000    22.0730000000
  257      S      26.7350000000    19.8950000000    24.5050000000
  258      C      25.0860000000    19.3540000000    24.0000000000
  259      H      24.8020000000    20.0040000000    23.1680000000
  260      H      25.1400000000    18.2760000000    23.8290000000
  261      H      24.2840000000    19.4630000000    24.7340000000
  262      O      26.3890000000    21.2370000000    25.0730000000
  263      C      27.5300000000    17.1170000000    27.4540000000
  264      H      28.5640000000    17.2850000000    27.7640000000
  265      H      26.9270000000    18.0070000000    27.6540000000
  266      H      27.1400000000    16.2410000000    27.9780000000
  267      S      27.8470000000    16.7200000000    25.7200000000
  268      C      28.9040000000    15.2890000000    26.0350000000
  269      H      29.1600000000    14.8080000000    25.0880000000
  270      H      29.7780000000    15.6470000000    26.5860000000
  271      H      28.2530000000    14.5660000000    26.5320000000
  272      O      28.8660000000    17.7420000000    25.3210000000
  273      C      19.1960000000    13.0780000000    32.8530000000
  274      H      18.8080000000    13.9520000000    32.3240000000
  275      H      18.3010000000    12.7620000000    33.3970000000
  276      H      19.9150000000    13.4810000000    33.5710000000
  277      S      19.7900000000    11.9570000000    31.5660000000
  278      C      21.2900000000    12.8990000000    31.2080000000
  279      H      21.7840000000    12.2690000000    30.4640000000
  280      H      21.0710000000    13.8540000000    30.7240000000
  281      H      21.9730000000    12.9980000000    32.0560000000
  282      O      18.9730000000    12.3460000000    30.3730000000
  283      C      20.9040000000    12.1540000000    23.1130000000
  284      H      20.1620000000    12.7530000000    23.6470000000
  285      H      21.5800000000    12.8330000000    22.5860000000
  286      H      20.5130000000    11.4330000000    22.3900000000
  287      S      21.8460000000    11.3090000000    24.4030000000
  288      C      21.7430000000     9.6950000000    23.5980000000
  289      H      20.6690000000     9.4970000000    23.5450000000
  290      H      22.1730000000     9.6460000000    22.5950000000
  291      H      22.1740000000     9.0380000000    24.3580000000
  292      O      20.8030000000    11.1570000000    25.4650000000
  293      C      29.2880000000    20.0490000000    28.1760000000
  294      H      29.2460000000    19.9770000000    29.2660000000
  295      H      28.2970000000    20.1990000000    27.7390000000
  296      H      29.8230000000    19.1890000000    27.7650000000
  297      S      30.2550000000    21.5610000000    27.9680000000
  298      C      29.4550000000    22.1210000000    26.4480000000
  299      H      28.9860000000    21.3290000000    25.8580000000
  300      H      28.6490000000    22.8180000000    26.6930000000
  301      H      30.1550000000    22.5460000000    25.7240000000
  302      O      31.6370000000    21.1010000000    27.6220000000
  303      C      19.7170000000    17.0010000000    19.6400000000
  304      H      20.6870000000    17.4190000000    19.9210000000
  305      H      19.7660000000    16.2320000000    18.8650000000
  306      H      19.0110000000    17.8110000000    19.4440000000
  307      S      19.1090000000    16.0230000000    21.0330000000
  308      C      19.6100000000    17.1240000000    22.3760000000
  309      H      20.3950000000    17.6950000000    21.8730000000
  310      H      18.7280000000    17.7490000000    22.5420000000
  311      H      19.9440000000    16.5430000000    23.2390000000
  312      O      20.1230000000    14.9240000000    21.0920000000
 ----------------------------------------------------------------
 Nuclear Repulsion Energy =       54329.56679891 hartrees
 There are      644 alpha and      644 beta electrons
 Requested basis set is 6-31+G(d)
 There are 1028 shells and 2865 basis functions

 Total QAlloc Memory Limit  12000 MB
 Mega-Array Size      3911 MB
 MEM_STATIC part      4000 MB

 A cutoff of  1.0D-14 yielded 197830 shell pairs
 There are   1717828 function pairs
 Smallest overlap matrix eigenvalue = 3.97E-07
 Linear dependence detected in AO basis
 Tighter screening thresholds may be required for diffuse basis sets
 Use S2THRESH > 14 and THRESH = 14 in case of SCF convergence issues
 Number of orthogonalized atomic orbitals = 2862
 Maximum deviation from orthogonality = 1.005E-10

 Scale SEOQF with 1.000000e-03/1.000000e-03/1.000000e-03

 Standard Electronic Orientation quadrupole field applied
 Nucleus-field energy     =    -0.0000005531 hartrees
 Guess from superposition of atomic densities
 Warning:  Energy on first SCF cycle will be non-variational
 SAD guess density has 1288.000002 electrons

 -----------------------------------------------------------------------
  General SCF calculation program by
  Eric Jon Sundstrom, Paul Horn, Yuezhi Mao, Dmitri Zuev, Alec White,
  David Stuck, Shaama M.S., Shane Yost, Joonho Lee, David Small,
  Daniel Levine, Susi Lehtola, Hugh Burton, Evgeny Epifanovsky,
  Bang C. Huynh
 -----------------------------------------------------------------------
=================================================
        Doing projection-based embedding         
      F. Manby et al. JCTC, 8, 2564 (2012)       
=================================================

****************************************************
   Low-level SCF calculation for the whole system   
****************************************************
----------------------------------------------
 Summary of the low-level theory: 
 Exchange:     0.2000 Hartree-Fock + 0.0800 Slater + 0.7200 B88
 Correlation:  0.1900 VWN1RPA + 0.8100 LYP
 Using Euler-Maclaurin-Lebedev (75,302) quadrature formula
----------------------------------------------
 using 16 threads for integral computing
 -------------------------------------------------------
 OpenMP Integral computing Module                
 Release: version 1.0, May 2013, Q-Chem Inc. Pittsburgh 
 -------------------------------------------------------
 A restricted SCF calculation will be
 performed using DIIS
 SCF converges when DIIS error is below 1.0e-08
 ---------------------------------------
  Cycle       Energy         DIIS error
 ---------------------------------------
    1  -16467.7469205479      1.31e-02  
    2  -16441.8615925209      2.43e-03  
    3  -16427.2835844581      4.66e-03  
    4  -16445.9670122925      1.07e-03  
    5  -16447.0605718326      1.57e-04  
    6  -16447.0729884293      1.21e-04  
    7  -16447.0838769270      4.74e-05  
    8  -16447.0857132398      1.11e-05  
    9  -16447.0858148222      4.45e-06  
   10  -16447.0858298366      1.69e-06  
   11  -16447.0858320346      5.00e-07  
   12  -16447.0858322345      1.79e-07  
   13  -16447.0858322623      6.02e-08  
   14  -16447.0858322648      2.69e-08  
   15  -16447.0858322654      7.13e-09  Convergence criterion met
 ---------------------------------------
 SCF time:   CPU 330894.89s  wall 24080.00s 
 SCF   energy in the final basis set =   -16447.0858322654
 Total energy in the final basis set =   -16447.0858322654

****************************************************
             Start embedding calculation            
****************************************************
----------------------------------------------
 Summary of the high-level theory: 
 Exchange:     0.2000 Hartree-Fock + 0.0800 Slater + 0.7200 B88
 Correlation:  0.1900 VWN1RPA + 0.8100 LYP
 Using Euler-Maclaurin-Lebedev (75,302) quadrature formula
----------------------------------------------
Doing R-in-R Embedding Calculation
Number of fragments: 2
Embedded fragment(s): 1 
NOcc for each fragment
           35
          609
NBasis for each fragment
          197
         2668
Variational space of the embedded problem: 
NOcc (active)  = 35
NOcc (fixed)   = 609
NVir (total)   = 2218
Read converged orbitals from disk
=========================================================
       Doing SPADE partition for the orbital space       
     D. Claudino and N. Mayhall JCTC 15, 1053 (2019)     
=========================================================
SPADE singular values:
 1.0000 1.0000 1.0000 1.0000 1.0000 1.0000 1.0000 1.0000 1.0000 0.9998
 0.9998 0.9997 0.9995 0.9995 0.9994 0.9992 0.9990 0.9988 0.9978 0.9974
 0.9965 0.9962 0.9954 0.9949 0.9944 0.9939 0.9933 0.9925 0.9916 0.9903
 0.9895 0.9879 0.9863 0.9825 0.9746 0.2356 0.2103 0.1853 0.1782 0.1645
 0.1608 0.1551 0.1429 0.1263 0.1174 0.1071 0.1008 0.0935 0.0857 0.0735
 0.0671 0.0642 0.0619 0.0571 0.0504 0.0487 0.0429 0.0399 0.0389 0.0381
 0.0342 0.0335 0.0306 0.0297 0.0286 0.0276 0.0271 0.0251 0.0233 0.0218
 0.0204 0.0182 0.0180 0.0177 0.0160 0.0155 0.0149 0.0140 0.0128 0.0109
 0.0104 0.0099 0.0098 0.0094 0.0090 0.0087 0.0078 0.0075 0.0074 0.0069
 0.0066 0.0063 0.0062 0.0058 0.0057 0.0056 0.0053 0.0050 0.0046 0.0045
 0.0042 0.0037 0.0036 0.0034 0.0032 0.0030 0.0029 0.0028 0.0027 0.0026
 0.0024 0.0024 0.0023 0.0022 0.0021 0.0021 0.0019 0.0019 0.0018 0.0018
 0.0015 0.0015 0.0015 0.0014 0.0014 0.0013 0.0013 0.0013 0.0012 0.0012
 0.0011 0.0011 0.0011 0.0010 0.0010 0.0009 0.0009 0.0009 0.0008 0.0008
 0.0008 0.0007 0.0007 0.0007 0.0006 0.0006 0.0006 0.0006 0.0005 0.0005
 0.0005 0.0005 0.0005 0.0004 0.0004 0.0004 0.0004 0.0004 0.0003 0.0003
 0.0003 0.0003 0.0003 0.0003 0.0003 0.0003 0.0002 0.0002 0.0002 0.0002
 0.0002 0.0002 0.0002 0.0002 0.0002 0.0002 0.0002 0.0002 0.0002 0.0002
 0.0001 0.0001 0.0001 0.0001 0.0001 0.0001 0.0001 0.0001 0.0001 0.0001
 0.0001 0.0001 0.0001 0.0001 0.0001 0.0001 0.0001
Early stop requested; no embedded SCF will be performed

 609 environment occs will be part of frozen-core in future post-HF calculations

 --------------------------------------------------------------

                    Orbital Energies (a.u.)
 --------------------------------------------------------------

 Alpha MOs
 -- Occupied --
-89.0381 -89.0276 -89.0257 -89.0231 -89.0222 -89.0206 -89.0134 -89.0127
-89.0115 -89.0109 -89.0106 -89.0077 -89.0068 -89.0026 -88.9998 -88.9991
-88.9987 -88.9935 -88.9925 -88.9902 -88.9900 -88.9781 -88.9763 -88.9756
-88.9743 -88.9672 -88.9644 -88.9639 -88.9635 -19.1603 -19.1434 -19.1419
-19.1398 -19.1346 -19.1327 -19.1302 -19.1286 -19.1245 -19.1219 -19.1215
-19.1195 -19.1193 -19.1172 -19.1125 -19.1114 -19.1111 -19.1110 -19.1052
-19.1023 -19.1019 -19.0956 -19.0912 -19.0877 -19.0836 -19.0805 -19.0790
-19.0785 -19.0656 -10.2542 -10.2535 -10.2510 -10.2503 -10.2467 -10.2462
-10.2433 -10.2383 -10.2370 -10.2349 -10.2326 -10.2321 -10.2300 -10.2298
-10.2287 -10.2283 -10.2265 -10.2264 -10.2260 -10.2249 -10.2231 -10.2219
-10.2219 -10.2213 -10.2206 -10.2189 -10.2170 -10.2167 -10.2162 -10.2153
-10.2147 -10.2141 -10.2123 -10.2087 -10.2085 -10.2082 -10.2076 -10.2054
-10.2044 -10.2035 -10.2013 -10.1975 -10.1973 -10.1942 -10.1938 -10.1905
-10.1897 -10.1854 -10.1848 -10.1841 -10.1810 -10.1797 -10.1786 -10.1778
-10.1770 -10.1759 -10.1748 -10.1737  -8.0844  -8.0747  -8.0711  -8.0690
 -8.0688  -8.0651  -8.0586  -8.0584  -8.0572  -8.0566  -8.0565  -8.0540
 -8.0532  -8.0484  -8.0456  -8.0447  -8.0443  -8.0400  -8.0378  -8.0362
 -8.0358  -8.0240  -8.0217  -8.0204  -8.0191  -8.0130  -8.0104  -8.0097
 -8.0096  -6.0487  -6.0471  -6.0420  -6.0390  -6.0378  -6.0355  -6.0340
 -6.0332  -6.0332  -6.0320  -6.0320  -6.0318  -6.0296  -6.0289  -6.0282
 -6.0263  -6.0262  -6.0230  -6.0229  -6.0228  -6.0218  -6.0216  -6.0214
 -6.0208  -6.0208  -6.0202  -6.0199  -6.0197  -6.0182  -6.0173  -6.0171
 -6.0163  -6.0159  -6.0157  -6.0145  -6.0142  -6.0139  -6.0127  -6.0117
 -6.0114  -6.0108  -6.0098  -6.0089  -6.0088  -6.0088  -6.0077  -6.0073
 -6.0060  -6.0042  -6.0032  -6.0031  -6.0024  -6.0021  -6.0015  -6.0008
 -6.0007  -6.0003  -5.9993  -5.9988  -5.9976  -5.9956  -5.9935  -5.9931
 -5.9884  -5.9870  -5.9859  -5.9849  -5.9849  -5.9837  -5.9836  -5.9824
 -5.9816  -5.9793  -5.9780  -5.9774  -5.9765  -5.9761  -5.9748  -5.9741
 -5.9739  -5.9737  -5.9727  -5.9727  -5.9702  -5.9678  -5.9672  -5.9671
 -1.0671  -1.0555  -1.0544  -1.0494  -1.0475  -1.0427  -1.0412  -1.0386
 -1.0381  -1.0339  -1.0329  -1.0327  -1.0293  -1.0275  -1.0254  -1.0219
 -1.0213  -1.0204  -1.0190  -1.0160  -1.0155  -1.0043  -1.0016  -0.9979
 -0.9957  -0.9908  -0.9875  -0.9862  -0.9816  -0.8450  -0.8371  -0.8271
 -0.8251  -0.8237  -0.8217  -0.8139  -0.8129  -0.8108  -0.8103  -0.8091
 -0.8075  -0.8027  -0.8021  -0.7999  -0.7993  -0.7964  -0.7954  -0.7935
 -0.7895  -0.7885  -0.7802  -0.7774  -0.7708  -0.7691  -0.7676  -0.7671
 -0.7659  -0.7637  -0.7583  -0.7574  -0.7565  -0.7525  -0.7474  -0.7437
 -0.7423  -0.7404  -0.7375  -0.7370  -0.7358  -0.7343  -0.7327  -0.7301
 -0.7264  -0.7236  -0.7208  -0.7206  -0.7201  -0.7172  -0.7118  -0.7054
 -0.7014  -0.7002  -0.6980  -0.6966  -0.6932  -0.6898  -0.6897  -0.6495
 -0.6446  -0.6383  -0.6355  -0.6341  -0.6330  -0.6310  -0.6258  -0.6247
 -0.6245  -0.6222  -0.6194  -0.6191  -0.6167  -0.6151  -0.6128  -0.6107
 -0.6051  -0.6045  -0.6036  -0.5989  -0.5908  -0.5896  -0.5865  -0.5858
 -0.5820  -0.5781  -0.5775  -0.5738  -0.5214  -0.5205  -0.5116  -0.5100
 -0.5087  -0.5073  -0.5037  -0.5020  -0.5015  -0.5010  -0.5004  -0.4967
 -0.4965  -0.4959  -0.4958  -0.4925  -0.4921  -0.4913  -0.4907  -0.4899
 -0.4883  -0.4878  -0.4856  -0.4853  -0.4846  -0.4840  -0.4833  -0.4826
 -0.4817  -0.4811  -0.4798  -0.4795  -0.4790  -0.4780  -0.4766  -0.4752
 -0.4747  -0.4745  -0.4739  -0.4738  -0.4719  -0.4713  -0.4709  -0.4704
 -0.4695  -0.4693  -0.4674  -0.4670  -0.4663  -0.4639  -0.4637  -0.4633
 -0.4632  -0.4627  -0.4623  -0.4616  -0.4606  -0.4599  -0.4593  -0.4593
 -0.4582  -0.4573  -0.4572  -0.4568  -0.4555  -0.4553  -0.4538  -0.4533
 -0.4532  -0.4521  -0.4510  -0.4503  -0.4501  -0.4472  -0.4470  -0.4460
 -0.4456  -0.4453  -0.4443  -0.4440  -0.4429  -0.4427  -0.4415  -0.4411
 -0.4408  -0.4403  -0.4387  -0.4373  -0.4370  -0.4367  -0.4366  -0.4364
 -0.4351  -0.4348  -0.4344  -0.4333  -0.4326  -0.4322  -0.4316  -0.4308
 -0.4301  -0.4297  -0.4289  -0.4283  -0.4266  -0.4265  -0.4263  -0.4257
 -0.4247  -0.4244  -0.4240  -0.4238  -0.4235  -0.4233  -0.4226  -0.4222
 -0.4207  -0.4199  -0.4192  -0.4191  -0.4185  -0.4181  -0.4178  -0.4158
 -0.4139  -0.4135  -0.4109  -0.4102  -0.4096  -0.4091  -0.4084  -0.4068
 -0.4055  -0.4051  -0.4042  -0.4040  -0.4029  -0.4026  -0.4023  -0.4019
 -0.4013  -0.4000  -0.3999  -0.3974  -0.3970  -0.3967  -0.3950  -0.3947
 -0.3943  -0.3937  -0.3933  -0.3931  -0.3925  -0.3918  -0.3914  -0.3911
 -0.3906  -0.3891  -0.3887  -0.3880  -0.3867  -0.3859  -0.3858  -0.3852
 -0.3848  -0.3831  -0.3830  -0.3814  -0.3799  -0.3792  -0.3782  -0.3778
 -0.3775  -0.3766  -0.3762  -0.3752  -0.3746  -0.3735  -0.3715  -0.3711
 -0.3701  -0.3685  -0.3668  -0.3662  -0.3640  -0.3627  -0.3609  -0.3609
 -0.3603  -0.3580  -0.3559  -0.3556  -0.3530  -0.3525  -0.3498  -0.3407
 -0.3368  -0.3330  -0.3328  -0.3292  -0.3270  -0.3226  -0.3216  -0.3173
 -0.3059  -0.3026  -0.3021  -0.2956  -0.2948  -0.2921  -0.2897  -0.2871
 -0.2869  -0.2831  -0.2808  -0.2790  -0.2784  -0.2768  -0.2757  -0.2753
 -0.2717  -0.2714  -0.2698  -0.2674  -0.2673  -0.2644  -0.2638  -0.2637
 -0.2632  -0.2611  -0.2603  -0.2579  -0.2568  -0.2527  -0.2523  -0.2516
 -0.2499  -0.2484  -0.2474  -0.2445  -0.2441  -0.2436  -0.2424  -0.2410
 -0.2401  -0.2393  -0.2377  -0.2376  -0.2359  -0.2342  -0.2323  -0.2310
 -0.2253  -0.2179  -0.2168  -0.2154  -0.2124  -0.2069  -0.2049  -0.2022
 -0.1955 -12.4685 -11.3839 -10.3889 -12.9336 -11.4241 -10.3587 -14.0555
-10.1827 -10.7991  -0.7847  -0.7202  -0.6377  -0.7629  -0.8543  -0.6391
 -0.6698  -0.8664  -0.4327  -0.4724  -0.3793  -0.4643  -0.4389  -0.5038
 -0.4689  -0.4672  -0.4480  -0.4274  -0.4259  -0.4260  -0.4605  -0.4785
 -0.4415  -0.5007  -0.5432  -0.5627
 -- Virtual --
 -0.0488  -0.0386  -0.0348  -0.0306  -0.0291  -0.0289  -0.0269  -0.0247
 -0.0235  -0.0222  -0.0204  -0.0183  -0.0174  -0.0163  -0.0156  -0.0146
 -0.0125  -0.0118  -0.0105  -0.0084  -0.0082  -0.0076  -0.0059  -0.0054
 -0.0051  -0.0046  -0.0042  -0.0032  -0.0026  -0.0014  -0.0006  -0.0001
  0.0006   0.0017   0.0023   0.0028   0.0038   0.0044   0.0056   0.0059
  0.0061   0.0073   0.0081   0.0085   0.0091   0.0099   0.0109   0.0112
  0.0113   0.0119   0.0132   0.0137   0.0143   0.0144   0.0154   0.0160
  0.0162   0.0170   0.0180   0.0187   0.0196   0.0197   0.0204   0.0209
  0.0218   0.0228   0.0237   0.0243   0.0249   0.0251   0.0253   0.0265
  0.0278   0.0280   0.0285   0.0295   0.0296   0.0304   0.0311   0.0319
  0.0326   0.0331   0.0340   0.0343   0.0346   0.0348   0.0360   0.0364
  0.0376   0.0379   0.0389   0.0397   0.0399   0.0401   0.0409   0.0418
  0.0424   0.0429   0.0440   0.0440   0.0452   0.0457   0.0462   0.0466
  0.0469   0.0477   0.0488   0.0494   0.0499   0.0504   0.0509   0.0517
  0.0521   0.0527   0.0536   0.0544   0.0549   0.0551   0.0558   0.0560
  0.0569   0.0574   0.0585   0.0587   0.0593   0.0596   0.0602   0.0610
  0.0618   0.0622   0.0632   0.0635   0.0636   0.0641   0.0654   0.0663
  0.0665   0.0669   0.0679   0.0680   0.0687   0.0697   0.0702   0.0710
  0.0713   0.0718   0.0723   0.0729   0.0734   0.0741   0.0752   0.0756
  0.0763   0.0767   0.0775   0.0780   0.0793   0.0796   0.0802   0.0804
  0.0813   0.0815   0.0819   0.0827   0.0830   0.0841   0.0850   0.0851
  0.0852   0.0862   0.0872   0.0880   0.0888   0.0892   0.0895   0.0899
  0.0905   0.0910   0.0924   0.0928   0.0933   0.0941   0.0945   0.0946
  0.0953   0.0963   0.0965   0.0974   0.0981   0.0988   0.0990   0.1002
  0.1007   0.1010   0.1012   0.1024   0.1028   0.1038   0.1040   0.1051
  0.1060   0.1067   0.1070   0.1075   0.1084   0.1088   0.1091   0.1093
  0.1102   0.1105   0.1116   0.1125   0.1129   0.1134   0.1141   0.1147
  0.1155   0.1159   0.1169   0.1173   0.1174   0.1179   0.1185   0.1194
  0.1199   0.1214   0.1218   0.1222   0.1229   0.1233   0.1240   0.1249
  0.1252   0.1256   0.1261   0.1264   0.1272   0.1282   0.1284   0.1291
  0.1293   0.1300   0.1305   0.1315   0.1317   0.1324   0.1327   0.1331
  0.1336   0.1349   0.1351   0.1359   0.1364   0.1374   0.1378   0.1384
  0.1392   0.1397   0.1398   0.1406   0.1413   0.1420   0.1422   0.1431
  0.1432   0.1443   0.1447   0.1455   0.1458   0.1465   0.1474   0.1477
  0.1479   0.1486   0.1493   0.1494   0.1499   0.1516   0.1518   0.1526
  0.1528   0.1531   0.1534   0.1545   0.1554   0.1559   0.1563   0.1566
  0.1573   0.1580   0.1584   0.1592   0.1599   0.1604   0.1611   0.1618
  0.1621   0.1626   0.1627   0.1629   0.1640   0.1641   0.1647   0.1651
  0.1657   0.1667   0.1678   0.1680   0.1690   0.1693   0.1696   0.1700
  0.1706   0.1724   0.1727   0.1732   0.1739   0.1742   0.1744   0.1751
  0.1754   0.1762   0.1763   0.1774   0.1777   0.1786   0.1788   0.1798
  0.1801   0.1808   0.1816   0.1818   0.1824   0.1831   0.1835   0.1843
  0.1847   0.1853   0.1858   0.1862   0.1870   0.1873   0.1879   0.1891
  0.1898   0.1902   0.1906   0.1908   0.1913   0.1918   0.1923   0.1933
  0.1935   0.1943   0.1946   0.1952   0.1960   0.1967   0.1973   0.1974
  0.1979   0.1984   0.1992   0.1996   0.2002   0.2007   0.2009   0.2012
  0.2018   0.2027   0.2031   0.2040   0.2040   0.2051   0.2052   0.2059
  0.2069   0.2071   0.2081   0.2084   0.2090   0.2091   0.2094   0.2102
  0.2111   0.2119   0.2122   0.2128   0.2140   0.2142   0.2146   0.2152
  0.2161   0.2166   0.2169   0.2173   0.2178   0.2186   0.2194   0.2206
  0.2209   0.2211   0.2218   0.2223   0.2232   0.2234   0.2237   0.2244
  0.2247   0.2256   0.2272   0.2276   0.2280   0.2285   0.2292   0.2295
  0.2301   0.2305   0.2321   0.2326   0.2332   0.2334   0.2341   0.2351
  0.2358   0.2365   0.2372   0.2377   0.2380   0.2391   0.2399   0.2405
  0.2412   0.2417   0.2420   0.2426   0.2433   0.2435   0.2440   0.2455
  0.2458   0.2463   0.2472   0.2481   0.2488   0.2498   0.2504   0.2506
  0.2509   0.2520   0.2526   0.2527   0.2530   0.2534   0.2544   0.2547
  0.2560   0.2571   0.2573   0.2579   0.2583   0.2589   0.2594   0.2605
  0.2617   0.2627   0.2633   0.2636   0.2642   0.2652   0.2661   0.2662
  0.2667   0.2671   0.2681   0.2687   0.2694   0.2707   0.2708   0.2714
  0.2724   0.2728   0.2738   0.2741   0.2747   0.2761   0.2767   0.2775
  0.2779   0.2785   0.2793   0.2797   0.2808   0.2811   0.2815   0.2825
  0.2835   0.2843   0.2846   0.2858   0.2863   0.2871   0.2883   0.2889
  0.2896   0.2898   0.2900   0.2910   0.2919   0.2930   0.2933   0.2939
  0.2947   0.2964   0.2966   0.2979   0.2982   0.2988   0.2996   0.3003
  0.3008   0.3013   0.3024   0.3035   0.3036   0.3051   0.3058   0.3061
  0.3070   0.3078   0.3087   0.3091   0.3101   0.3112   0.3120   0.3127
  0.3136   0.3144   0.3152   0.3168   0.3175   0.3178   0.3187   0.3195
  0.3196   0.3211   0.3225   0.3235   0.3240   0.3245   0.3246   0.3258
  0.3260   0.3263   0.3270   0.3276   0.3278   0.3290   0.3292   0.3299
  0.3312   0.3318   0.3329   0.3344   0.3351   0.3357   0.3360   0.3363
  0.3373   0.3381   0.3385   0.3401   0.3408   0.3416   0.3424   0.3426
  0.3435   0.3442   0.3452   0.3462   0.3469   0.3479   0.3490   0.3496
  0.3502   0.3514   0.3519   0.3522   0.3537   0.3541   0.3551   0.3552
  0.3566   0.3571   0.3583   0.3591   0.3595   0.3604   0.3613   0.3623
  0.3631   0.3635   0.3648   0.3655   0.3662   0.3665   0.3676   0.3678
  0.3691   0.3699   0.3707   0.3711   0.3718   0.3721   0.3730   0.3736
  0.3750   0.3758   0.3761   0.3770   0.3791   0.3792   0.3808   0.3811
  0.3814   0.3826   0.3828   0.3835   0.3843   0.3848   0.3859   0.3876
  0.3883   0.3889   0.3893   0.3903   0.3910   0.3928   0.3930   0.3938
  0.3949   0.3954   0.3968   0.3970   0.3983   0.3994   0.3996   0.4010
  0.4011   0.4022   0.4026   0.4033   0.4043   0.4052   0.4061   0.4067
  0.4076   0.4081   0.4084   0.4101   0.4106   0.4115   0.4130   0.4133
  0.4143   0.4147   0.4151   0.4155   0.4174   0.4180   0.4192   0.4201
  0.4207   0.4210   0.4226   0.4238   0.4242   0.4257   0.4271   0.4282
  0.4288   0.4299   0.4304   0.4311   0.4324   0.4333   0.4340   0.4346
  0.4358   0.4365   0.4380   0.4394   0.4399   0.4412   0.4418   0.4428
  0.4440   0.4446   0.4456   0.4461   0.4472   0.4478   0.4486   0.4503
  0.4513   0.4516   0.4520   0.4539   0.4557   0.4562   0.4565   0.4580
  0.4585   0.4595   0.4614   0.4633   0.4645   0.4653   0.4663   0.4674
  0.4692   0.4710   0.4714   0.4732   0.4740   0.4759   0.4763   0.4775
  0.4788   0.4799   0.4811   0.4822   0.4836   0.4846   0.4851   0.4866
  0.4882   0.4901   0.4909   0.4919   0.4927   0.4939   0.4949   0.4962
  0.4970   0.4984   0.4993   0.5013   0.5024   0.5033   0.5034   0.5052
  0.5073   0.5096   0.5110   0.5112   0.5119   0.5130   0.5163   0.5169
  0.5176   0.5189   0.5204   0.5221   0.5236   0.5246   0.5252   0.5260
  0.5268   0.5298   0.5309   0.5326   0.5337   0.5360   0.5369   0.5391
  0.5406   0.5436   0.5450   0.5460   0.5473   0.5487   0.5503   0.5506
  0.5521   0.5543   0.5562   0.5570   0.5584   0.5589   0.5598   0.5617
  0.5620   0.5631   0.5647   0.5676   0.5683   0.5698   0.5722   0.5731
  0.5741   0.5759   0.5763   0.5791   0.5796   0.5805   0.5829   0.5835
  0.5859   0.5871   0.5883   0.5894   0.5911   0.5919   0.5936   0.5948
  0.5954   0.5962   0.5976   0.5992   0.6012   0.6025   0.6032   0.6062
  0.6075   0.6085   0.6089   0.6115   0.6125   0.6140   0.6148   0.6157
  0.6169   0.6186   0.6190   0.6194   0.6207   0.6226   0.6233   0.6248
  0.6277   0.6289   0.6296   0.6316   0.6327   0.6332   0.6335   0.6358
  0.6375   0.6384   0.6398   0.6398   0.6408   0.6423   0.6432   0.6448
  0.6461   0.6469   0.6483   0.6494   0.6502   0.6514   0.6521   0.6530
  0.6542   0.6551   0.6560   0.6571   0.6575   0.6578   0.6601   0.6618
  0.6627   0.6633   0.6644   0.6655   0.6662   0.6668   0.6671   0.6683
  0.6700   0.6711   0.6722   0.6742   0.6743   0.6753   0.6761   0.6773
  0.6792   0.6801   0.6808   0.6824   0.6841   0.6845   0.6849   0.6860
  0.6870   0.6879   0.6896   0.6904   0.6911   0.6930   0.6944   0.6952
  0.6972   0.6973   0.6985   0.6994   0.7016   0.7017   0.7023   0.7037
  0.7043   0.7057   0.7073   0.7077   0.7086   0.7097   0.7118   0.7146
  0.7162   0.7182   0.7191   0.7195   0.7208   0.7209   0.7219   0.7229
  0.7244   0.7253   0.7257   0.7276   0.7286   0.7294   0.7302   0.7303
  0.7329   0.7335   0.7349   0.7355   0.7374   0.7382   0.7389   0.7402
  0.7418   0.7425   0.7439   0.7454   0.7473   0.7482   0.7493   0.7503
  0.7524   0.7530   0.7531   0.7538   0.7562   0.7576   0.7593   0.7606
  0.7614   0.7617   0.7639   0.7649   0.7653   0.7678   0.7681   0.7688
  0.7701   0.7704   0.7720   0.7734   0.7747   0.7756   0.7772   0.7776
  0.7783   0.7802   0.7828   0.7835   0.7843   0.7864   0.7867   0.7886
  0.7888   0.7899   0.7914   0.7938   0.7954   0.7959   0.7979   0.7995
  0.7998   0.8006   0.8015   0.8032   0.8051   0.8056   0.8085   0.8095
  0.8107   0.8112   0.8123   0.8133   0.8154   0.8168   0.8174   0.8183
  0.8209   0.8229   0.8236   0.8245   0.8254   0.8259   0.8264   0.8275
  0.8286   0.8298   0.8319   0.8337   0.8358   0.8384   0.8390   0.8403
  0.8418   0.8432   0.8442   0.8458   0.8477   0.8486   0.8504   0.8512
  0.8532   0.8551   0.8558   0.8581   0.8586   0.8602   0.8614   0.8634
  0.8647   0.8653   0.8679   0.8685   0.8690   0.8711   0.8723   0.8730
  0.8749   0.8756   0.8778   0.8794   0.8804   0.8819   0.8831   0.8840
  0.8845   0.8864   0.8879   0.8897   0.8910   0.8918   0.8936   0.8949
  0.8956   0.8967   0.8969   0.8979   0.8989   0.8999   0.9011   0.9014
  0.9035   0.9062   0.9072   0.9075   0.9086   0.9101   0.9104   0.9118
  0.9126   0.9137   0.9143   0.9159   0.9176   0.9186   0.9198   0.9203
  0.9217   0.9229   0.9238   0.9249   0.9254   0.9263   0.9276   0.9280
  0.9289   0.9308   0.9314   0.9322   0.9343   0.9346   0.9349   0.9365
  0.9383   0.9388   0.9398   0.9412   0.9428   0.9435   0.9445   0.9458
  0.9476   0.9490   0.9503   0.9505   0.9513   0.9515   0.9545   0.9551
  0.9563   0.9575   0.9576   0.9578   0.9599   0.9601   0.9609   0.9617
  0.9634   0.9640   0.9644   0.9657   0.9669   0.9676   0.9683   0.9709
  0.9716   0.9724   0.9735   0.9740   0.9756   0.9763   0.9770   0.9778
  0.9789   0.9801   0.9812   0.9825   0.9838   0.9859   0.9876   0.9883
  0.9885   0.9890   0.9907   0.9914   0.9937   0.9941   0.9948   0.9968
  0.9971   0.9984   0.9988   0.9995   1.0009   1.0011   1.0032   1.0036
  1.0051   1.0061   1.0065   1.0074   1.0091   1.0095   1.0113   1.0118
  1.0126   1.0130   1.0148   1.0170   1.0172   1.0184   1.0196   1.0202
  1.0212   1.0217   1.0222   1.0234   1.0249   1.0262   1.0275   1.0285
  1.0292   1.0302   1.0311   1.0317   1.0333   1.0346   1.0352   1.0381
  1.0382   1.0404   1.0411   1.0420   1.0433   1.0453   1.0456   1.0462
  1.0486   1.0489   1.0503   1.0514   1.0516   1.0526   1.0541   1.0562
  1.0566   1.0573   1.0583   1.0603   1.0617   1.0619   1.0624   1.0637
  1.0642   1.0659   1.0687   1.0689   1.0695   1.0703   1.0712   1.0723
  1.0746   1.0755   1.0775   1.0789   1.0792   1.0810   1.0821   1.0829
  1.0833   1.0845   1.0848   1.0871   1.0899   1.0901   1.0917   1.0938
  1.0943   1.0956   1.0975   1.0979   1.0986   1.1005   1.1010   1.1024
  1.1033   1.1044   1.1068   1.1080   1.1095   1.1098   1.1108   1.1138
  1.1142   1.1151   1.1154   1.1163   1.1180   1.1183   1.1195   1.1211
  1.1218   1.1233   1.1247   1.1269   1.1273   1.1292   1.1294   1.1306
  1.1331   1.1346   1.1351   1.1355   1.1365   1.1379   1.1384   1.1408
  1.1417   1.1428   1.1436   1.1449   1.1462   1.1480   1.1485   1.1496
  1.1510   1.1513   1.1523   1.1526   1.1557   1.1561   1.1591   1.1594
  1.1598   1.1615   1.1626   1.1632   1.1635   1.1654   1.1679   1.1685
  1.1707   1.1727   1.1731   1.1738   1.1755   1.1765   1.1779   1.1791
  1.1802   1.1817   1.1845   1.1859   1.1862   1.1882   1.1894   1.1900
  1.1917   1.1925   1.1959   1.1960   1.1970   1.1988   1.2000   1.2013
  1.2017   1.2031   1.2065   1.2088   1.2117   1.2123   1.2129   1.2142
  1.2163   1.2175   1.2200   1.2217   1.2224   1.2238   1.2257   1.2270
  1.2282   1.2296   1.2327   1.2330   1.2350   1.2362   1.2372   1.2384
  1.2408   1.2420   1.2443   1.2459   1.2472   1.2490   1.2497   1.2509
  1.2529   1.2552   1.2561   1.2575   1.2605   1.2621   1.2662   1.2688
  1.2714   1.2722   1.2732   1.2733   1.2748   1.2785   1.2802   1.2839
  1.2862   1.2881   1.2901   1.2914   1.2933   1.2955   1.2970   1.2996
  1.3020   1.3049   1.3057   1.3076   1.3103   1.3132   1.3140   1.3163
  1.3170   1.3194   1.3200   1.3221   1.3241   1.3267   1.3307   1.3321
  1.3346   1.3357   1.3381   1.3386   1.3396   1.3445   1.3469   1.3476
  1.3490   1.3493   1.3524   1.3560   1.3563   1.3579   1.3595   1.3615
  1.3628   1.3643   1.3656   1.3674   1.3701   1.3709   1.3713   1.3757
  1.3773   1.3792   1.3796   1.3821   1.3828   1.3846   1.3851   1.3872
  1.3893   1.3906   1.3915   1.3934   1.3944   1.3968   1.3978   1.3991
  1.4001   1.4014   1.4027   1.4048   1.4055   1.4072   1.4088   1.4093
  1.4110   1.4118   1.4128   1.4136   1.4157   1.4165   1.4182   1.4192
  1.4206   1.4220   1.4233   1.4242   1.4269   1.4276   1.4283   1.4297
  1.4310   1.4318   1.4326   1.4344   1.4366   1.4382   1.4406   1.4412
  1.4438   1.4445   1.4471   1.4478   1.4502   1.4508   1.4526   1.4529
  1.4541   1.4555   1.4560   1.4580   1.4592   1.4597   1.4614   1.4639
  1.4647   1.4655   1.4680   1.4710   1.4726   1.4735   1.4749   1.4764
  1.4777   1.4793   1.4804   1.4814   1.4835   1.4875   1.4890   1.4911
  1.4939   1.4950   1.4959   1.4961   1.4977   1.4995   1.5042   1.5051
  1.5071   1.5078   1.5090   1.5106   1.5128   1.5165   1.5174   1.5189
  1.5203   1.5218   1.5240   1.5256   1.5275   1.5312   1.5314   1.5337
  1.5354   1.5369   1.5405   1.5438   1.5450   1.5458   1.5492   1.5554
  1.5575   1.5583   1.5599   1.5624   1.5636   1.5666   1.5682   1.5740
  1.5749   1.5786   1.5808   1.5841   1.5859   1.5871   1.5934   1.5940
  1.5952   1.5996   1.6015   1.6056   1.6114   1.6131   1.6188   1.6237
  1.6273   1.6299   1.6341   1.6397   1.6417   1.6420   1.6457   1.6492
  1.6501   1.6518   1.6523   1.6550   1.6590   1.6602   1.6608   1.6623
  1.6635   1.6650   1.6675   1.6679   1.6688   1.6729   1.6748   1.6762
  1.6786   1.6799   1.6823   1.6836   1.6846   1.6864   1.6885   1.6891
  1.6900   1.6916   1.6928   1.6940   1.6947   1.6955   1.6965   1.6976
  1.6991   1.6994   1.7014   1.7020   1.7026   1.7037   1.7052   1.7053
  1.7076   1.7083   1.7090   1.7094   1.7110   1.7131   1.7136   1.7140
  1.7165   1.7166   1.7192   1.7203   1.7204   1.7214   1.7221   1.7251
  1.7265   1.7276   1.7286   1.7317   1.7317   1.7333   1.7342   1.7363
  1.7374   1.7383   1.7404   1.7414   1.7420   1.7444   1.7451   1.7456
  1.7477   1.7487   1.7499   1.7513   1.7517   1.7537   1.7546   1.7552
  1.7570   1.7573   1.7593   1.7598   1.7613   1.7624   1.7648   1.7661
  1.7677   1.7695   1.7702   1.7728   1.7744   1.7755   1.7763   1.7775
  1.7790   1.7809   1.7822   1.7844   1.7861   1.7876   1.7913   1.7929
  1.7957   1.7963   1.7985   1.7998   1.8013   1.8026   1.8042   1.8063
  1.8071   1.8101   1.8103   1.8131   1.8169   1.8187   1.8202   1.8218
  1.8233   1.8268   1.8288   1.8322   1.8338   1.8356   1.8380   1.8391
  1.8433   1.8441   1.8465   1.8487   1.8506   1.8524   1.8539   1.8577
  1.8600   1.8613   1.8647   1.8692   1.8710   1.8724   1.8729   1.8755
  1.8761   1.8772   1.8786   1.8806   1.8822   1.8828   1.8869   1.8888
  1.8896   1.8907   1.8928   1.8935   1.8938   1.8944   1.8977   1.8980
  1.8983   1.8993   1.9018   1.9034   1.9043   1.9053   1.9063   1.9063
  1.9092   1.9112   1.9122   1.9133   1.9142   1.9156   1.9166   1.9172
  1.9184   1.9205   1.9209   1.9213   1.9224   1.9244   1.9259   1.9263
  1.9271   1.9290   1.9293   1.9314   1.9317   1.9347   1.9357   1.9379
  1.9382   1.9419   1.9425   1.9443   1.9456   1.9476   1.9503   1.9519
  1.9535   1.9554   1.9579   1.9609   1.9615   1.9672   1.9681   1.9728
  1.9761   1.9805   1.9863   1.9896   1.9929   1.9963   1.9984   2.0037
  2.0085   2.0140   2.0173   2.0228   2.0322   2.0336   2.0368   2.0381
  2.0391   2.0454   2.0469   2.0492   2.0515   2.0540   2.0550   2.0555
  2.0602   2.0628   2.0647   2.0659   2.0671   2.0695   2.0714   2.0721
  2.0732   2.0736   2.0752   2.0758   2.0766   2.0772   2.0784   2.0797
  2.0805   2.0817   2.0837   2.0857   2.0869   2.0883   2.0896   2.0924
  2.0944   2.0948   2.0964   2.0979   2.0988   2.1005   2.1017   2.1033
  2.1043   2.1060   2.1081   2.1092   2.1098   2.1123   2.1137   2.1168
  2.1177   2.1204   2.1227   2.1258   2.1259   2.1287   2.1307   2.1340
  2.1358   2.1371   2.1402   2.1409   2.1469   2.1482   2.1497   2.1530
  2.1574   2.1592   2.1625   2.1636   2.1700   2.1743   2.1787   2.1793
  2.1835   2.1844   2.1848   2.1870   2.1914   2.1930   2.1942   2.1971
  2.1989   2.2007   2.2027   2.2057   2.2071   2.2073   2.2102   2.2112
  2.2148   2.2183   2.2201   2.2224   2.2235   2.2238   2.2254   2.2278
  2.2287   2.2330   2.2342   2.2350   2.2371   2.2377   2.2385   2.2409
  2.2415   2.2433   2.2435   2.2441   2.2446   2.2457   2.2457   2.2464
  2.2469   2.2472   2.2494   2.2504   2.2510   2.2522   2.2538   2.2546
  2.2560   2.2568   2.2573   2.2588   2.2594   2.2603   2.2613   2.2617
  2.2627   2.2637   2.2643   2.2667   2.2677   2.2680   2.2695   2.2707
  2.2709   2.2715   2.2723   2.2739   2.2747   2.2766   2.2772   2.2776
  2.2784   2.2803   2.2818   2.2825   2.2836   2.2841   2.2849   2.2859
  2.2860   2.2865   2.2879   2.2887   2.2898   2.2903   2.2914   2.2920
  2.2941   2.2947   2.2954   2.2959   2.2968   2.2974   2.2986   2.3001
  2.3011   2.3027   2.3031   2.3041   2.3045   2.3051   2.3059   2.3077
  2.3081   2.3104   2.3108   2.3124   2.3131   2.3135   2.3153   2.3171
  2.3181   2.3193   2.3218   2.3227   2.3246   2.3252   2.3253   2.3275
  2.3286   2.3298   2.3300   2.3325   2.3339   2.3347   2.3362   2.3370
  2.3380   2.3399   2.3401   2.3430   2.3444   2.3461   2.3470   2.3498
  2.3503   2.3516   2.3530   2.3543   2.3566   2.3579   2.3604   2.3634
  2.3639   2.3652   2.3678   2.3686   2.3703   2.3722   2.3733   2.3760
  2.3777   2.3797   2.3835   2.3862   2.3876   2.3896   2.3911   2.3936
  2.3942   2.3973   2.3979   2.3995   2.4050   2.4083   2.4105   2.4128
  2.4162   2.4235   2.4285   2.4343   2.4397   2.4535   2.4569   2.4682
  2.4962   2.5043   2.5610   2.5739   2.6123   2.6816   2.7438   2.7641
  2.7810   2.8054   2.8070   2.8121   2.8193   2.8259   2.8337   2.8396
  2.8457   2.8473   2.8484   2.8487   2.8511   2.8520   2.8546   2.8558
  2.8577   2.8590   2.8619   2.8655   2.8691   2.8721   2.8741   2.8765
  2.8836   2.8857   2.8894   2.8920   2.8982   2.9005   2.9036   2.9064
  2.9186   2.9230   2.9685   3.1175   3.2754   3.9304   3.9402   3.9463
  3.9529   3.9577   3.9637   3.9692   3.9700   3.9728   3.9777   3.9806
  3.9826   3.9886   3.9970   3.9997   4.0012   4.0025   4.0032   4.0066
  4.0109   4.0145   4.0156   4.0189   4.0234   4.0267   4.0371   4.0428
  4.0513   4.0555   4.1976   4.2078   4.2199   4.2245   4.2339   4.2364
  4.2431   4.2464   4.2496   4.2551   4.2568   4.2587   4.2609   4.2620
  4.2631   4.2656   4.2670   4.2718   4.2747   4.2758   4.2781   4.2818
  4.2854   4.2867   4.2883   4.2925   4.2937   4.2968   4.3006   4.3027
  4.3044   4.3066   4.3078   4.3095   4.3103   4.3148   4.3193   4.3217
  4.3232   4.3262   4.3296   4.3301   4.3336   4.3362   4.3387   4.3400
  4.3418   4.3447   4.3463   4.3495   4.3503   4.3545   4.3582   4.3604
  4.3627   4.3666   4.3690   4.3731   4.3776   4.3782   4.3817   4.3845
  4.3895   4.3977   4.3998   4.4047   4.4052   4.4105   4.4186   4.4211
  4.4294   4.4341   4.4386   4.4497   4.4566   4.4607   4.4767   4.4769
  4.4868   4.5021   4.5068   4.5194   4.5432   4.5557   4.5639   4.5845
  4.5941   4.6003   4.6422   4.6549   4.7028   4.7082   4.7428   4.7929
  4.8357   4.9701
 --------------------------------------------------------------

          Ground-State Mulliken Net Atomic Charges

     Atom                 Charge (a.u.)
  ----------------------------------------
      1 C                     0.364756
      2 C                    -1.404354
      3 C                    -0.805029
      4 C                    -0.467863
      5 C                    -0.334425
      6 C                    -0.767376
      7 H                     0.255618
      8 H                     0.236310
      9 H                     0.221038
     10 H                     0.224177
     11 H                     0.216020
     12 H                     0.200746
     13 H                     0.248451
     14 H                     0.185484
     15 H                     0.268515
     16 H                     0.196646
     17 H                     0.226920
     18 N                     0.291840
     19 H                     0.499330
     20 C                    -0.223814
     21 H                     0.215374
     22 O                    -0.113398
     23 C                    -0.900739
     24 H                     0.262858
     25 H                     0.238820
     26 H                     0.269626
     27 S                     0.538205
     28 C                    -0.682956
     29 H                     0.267794
     30 H                     0.243213
     31 H                     0.273317
     32 O                    -0.385225
     33 C                    -1.045799
     34 H                     0.251248
     35 H                     0.261770
     36 H                     0.269128
     37 S                     1.062562
     38 C                    -0.823299
     39 H                     0.261414
     40 H                     0.228052
     41 H                     0.283595
     42 O                    -0.698759
     43 C                    -1.042852
     44 H                     0.294169
     45 H                     0.271951
     46 H                     0.279168
     47 S                     1.126395
     48 C                    -0.983063
     49 H                     0.260301
     50 H                     0.225377
     51 H                     0.266854
     52 O                    -0.721336
     53 C                    -0.816834
     54 H                     0.229343
     55 H                     0.277719
     56 H                     0.236429
     57 S                     1.122619
     58 C                    -1.076861
     59 H                     0.198501
     60 H                     0.290462
     61 H                     0.259912
     62 O                    -0.684068
     63 C                    -0.842454
     64 H                     0.332324
     65 H                     0.270645
     66 H                     0.301848
     67 S                     0.469840
     68 C                    -0.694894
     69 H                     0.294543
     70 H                     0.262537
     71 H                     0.262160
     72 O                    -0.499358
     73 C                    -0.800799
     74 H                     0.249058
     75 H                     0.271242
     76 H                     0.260175
     77 S                     0.534896
     78 C                    -0.888605
     79 H                     0.271174
     80 H                     0.310153
     81 H                     0.290121
     82 O                    -0.660527
     83 C                    -0.835654
     84 H                     0.252800
     85 H                     0.244786
     86 H                     0.240916
     87 S                     0.785432
     88 C                    -0.731810
     89 H                     0.253350
     90 H                     0.252996
     91 H                     0.248472
     92 O                    -0.719904
     93 C                    -0.505552
     94 H                     0.242482
     95 H                     0.278627
     96 H                     0.309070
     97 S                    -0.420143
     98 C                    -0.551926
     99 H                     0.277723
    100 H                     0.255426
    101 H                     0.274390
    102 O                    -0.405806
    103 C                    -0.874022
    104 H                     0.268360
    105 H                     0.231255
    106 H                     0.233894
    107 S                     1.143817
    108 C                    -1.185869
    109 H                     0.251012
    110 H                     0.295382
    111 H                     0.249859
    112 O                    -0.685877
    113 C                    -1.044662
    114 H                     0.261291
    115 H                     0.277129
    116 H                     0.268086
    117 S                     1.316950
    118 C                    -1.081766
    119 H                     0.256058
    120 H                     0.256148
    121 H                     0.244842
    122 O                    -0.720649
    123 C                    -0.816221
    124 H                     0.256394
    125 H                     0.239688
    126 H                     0.271030
    127 S                     0.796094
    128 C                    -0.782240
    129 H                     0.264271
    130 H                     0.224744
    131 H                     0.258969
    132 O                    -0.718395
    133 C                    -1.072012
    134 H                     0.250930
    135 H                     0.275448
    136 H                     0.275979
    137 S                     1.182678
    138 C                    -0.936007
    139 H                     0.254525
    140 H                     0.267115
    141 H                     0.259585
    142 O                    -0.611866
    143 C                    -1.060957
    144 H                     0.250053
    145 H                     0.279973
    146 H                     0.267836
    147 S                     0.905478
    148 C                    -1.073587
    149 H                     0.307741
    150 H                     0.259239
    151 H                     0.286678
    152 O                    -0.672287
    153 C                    -0.866521
    154 H                     0.226534
    155 H                     0.259708
    156 H                     0.251711
    157 S                     1.038490
    158 C                    -0.928794
    159 H                     0.242126
    160 H                     0.256787
    161 H                     0.257992
    162 O                    -0.701297
    163 C                    -0.892990
    164 H                     0.253796
    165 H                     0.224917
    166 H                     0.281031
    167 S                     1.172361
    168 C                    -0.978731
    169 H                     0.241455
    170 H                     0.271637
    171 H                     0.246643
    172 O                    -0.743583
    173 C                    -0.781867
    174 H                     0.226269
    175 H                     0.266961
    176 H                     0.243081
    177 S                     0.944794
    178 C                    -1.009001
    179 H                     0.255686
    180 H                     0.253555
    181 H                     0.301192
    182 O                    -0.661609
    183 C                    -1.069923
    184 H                     0.298310
    185 H                     0.235115
    186 H                     0.229935
    187 S                     1.340925
    188 C                    -1.354752
    189 H                     0.286405
    190 H                     0.280785
    191 H                     0.315952
    192 O                    -0.650947
    193 C                    -0.684276
    194 H                     0.259895
    195 H                     0.255259
    196 H                     0.248970
    197 S                     0.549002
    198 C                    -0.696315
    199 H                     0.247135
    200 H                     0.232728
    201 H                     0.288454
    202 O                    -0.709633
    203 C                    -0.748271
    204 H                     0.308951
    205 H                     0.263452
    206 H                     0.248828
    207 S                     0.673208
    208 C                    -0.855853
    209 H                     0.285311
    210 H                     0.243378
    211 H                     0.247244
    212 O                    -0.663200
    213 C                    -0.898489
    214 H                     0.245686
    215 H                     0.304383
    216 H                     0.212650
[...]
    3  -1.6324242   0.0849871  -0.5136804   0.6677300   0.2903194  -2.2270990
          247         248         249         250         251         252
    1  -1.6076605   0.4257582   0.5031631  -0.5148726   1.2453121  -2.8351266
    2   1.9086693   3.2584851   3.1275402   4.5757822   2.3518985   2.8736212
    3  -1.7713287  -0.9305445  -2.5796454   0.0709681   0.5836347   0.9774093
          253         254         255         256         257         258
    1   1.8934708   0.2568562   3.5212272   1.4780607   1.3367980  -0.9528152
    2   1.0707804   2.3351499   1.8511326  -0.1752873   0.0697257   0.2000551
    3  -3.4864137  -3.6577383  -2.4933221  -4.1957712  -1.4180218  -2.0723616
          259         260         261         262         263         264
    1  -0.9533082  -0.1998096  -1.7234492   0.3467464   0.8743105   3.4875767
    2   1.3823986  -1.0174272   0.5681395   2.6048676   0.1054839   0.2021660
    3  -3.7502731  -2.2781674  -0.2173405  -0.4238832   0.9741851   1.1090789
          265         266         267         268         269         270
    1  -0.3018526   0.1995786   0.9507420   2.9876203   3.1728724   4.4413814
    2   1.3863280  -1.4407369  -0.5411557  -1.3295974  -1.7297247  -0.1623928
    3   0.5346099   1.2772306  -1.0762899  -0.7691747  -2.7542951   0.2615619
          271         272         273         274         275         276
    1   1.2127913   3.7563593  -2.2482853  -2.9033715  -3.5018240  -0.8269974
    2  -1.6568664   1.3485572  -1.0296446   0.1486619  -1.7770491  -0.8513725
    3   0.0604914  -1.7729769   2.6153857   1.1566263   2.8813059   3.4131287
          277         278         279         280         281         282
    1  -1.4351522  -0.1491242  -0.0075520  -0.9500896   0.3322451  -3.1795339
    2  -2.6950899  -0.9681092  -2.2244708   0.5928189  -1.3571117  -1.4490125
    3   1.5748319   0.7341383  -0.4670501  -0.3295530   2.4788495  -1.0724089
          283         284         285         286         287         288
    1  -1.6845207  -3.0222508   0.1384989  -2.0660881   0.0555384  -0.5825622
    2  -1.1236139  -0.4197975  -0.4195871  -2.5549542  -1.7616620  -3.4124592
    3  -2.8458777  -1.3551850  -3.4343535  -3.5668827  -1.6254622  -2.1906163
          289         290         291         292         293         294
    1  -2.8746970   0.3489376   0.1555921  -2.8059462   1.6779940   2.1337676
    2  -3.1980693  -2.6058973  -4.1002320  -2.2861665  -0.5154260  -0.1547379
    3  -1.8293777  -3.6105060  -0.4752297   0.5908845   0.1559788   2.0574067
          295         296         297         298         299         300
    1  -0.0866206   3.2898661   2.3264493   1.8836110   1.5415033   0.6425842
    2   0.4419369  -1.4631771   1.3576992   1.5132320   0.0000325   2.2685019
    3  -0.6770748  -0.6201906   0.2783390  -1.7817261  -2.3133143  -0.5560057
          301         302         303         304         305         306
    1   3.4651466   4.8341001  -0.6775230   1.0961086  -0.6165334  -2.1958780
    2   1.9473857   0.0848863   0.7620210   1.2464709  -1.1278410   1.8684494
    3  -2.7046957  -0.6883560  -3.4730147  -2.6803331  -4.2606016  -3.0001656
          307         308         309         310         311         312
    1  -2.4539202  -1.3881292   0.2794429  -3.2361498  -1.1190347   0.1209316
    2  -0.2863719   0.8522377   1.7773027   1.5177603  -0.6757455  -2.4401167
    3  -2.1780192  -1.0863136  -2.5653280  -1.2919816  -0.2147335  -2.3259003
 EField
            1           2           3           4           5           6
    1  -0.0003695   0.0011302   0.0025410  -0.0002775   0.0012204   0.0009566
    2   0.0000103  -0.0024714  -0.0067355   0.0010234   0.0044881   0.0014175
    3  -0.0031897  -0.0057856  -0.0005323   0.0039342   0.0025045  -0.0012730
            7           8           9          10          11          12
    1  -0.0021695  -0.0007899   0.0001522  -0.0019167  -0.0051872   0.0008686
    2  -0.0107916  -0.0009042  -0.0007448   0.0018612  -0.0000939  -0.0013959
    3  -0.0000861  -0.0087077  -0.0011022  -0.0063543  -0.0014348   0.0084437
           13          14          15          16          17          18
    1   0.0061613   0.0036476   0.0002862   0.0028726   0.0097380  -0.0000236
    2   0.0123185   0.0007180   0.0022477  -0.0013016  -0.0100249  -0.0043465
    3  -0.0019337   0.0083557   0.0027408  -0.0050496   0.0032072  -0.0132062
           19          20          21          22          23          24
    1   0.0047728  -0.0037813  -0.0095141   0.0012254  -0.0027935   0.0293613
    2  -0.0017357  -0.0047314  -0.0142628   0.0002178   0.0067560   0.0118565
    3  -0.0248375  -0.0118660  -0.0200500  -0.0127878   0.0033228  -0.0061767
           25          26          27          28          29          30
    1  -0.0201088  -0.0110024   0.0433612   0.0021942  -0.0255887   0.0331051
    2   0.0116895   0.0147514  -0.0246297   0.0004514   0.0189884  -0.0001674
    3  -0.0169822   0.0294666   0.0242179  -0.0111366  -0.0118194  -0.0087084
           31          32          33          34          35          36
    1   0.0043151  -0.1038260   0.0034152   0.0090463  -0.0149347   0.0257732
    2  -0.0312292  -0.0378896  -0.0033126  -0.0347400  -0.0065440   0.0179141
    3  -0.0098200   0.0080584  -0.0040284   0.0009493  -0.0278562   0.0039194
           37          38          39          40          41          42
    1   0.0148891  -0.0043625  -0.0235177  -0.0051738  -0.0046116  -0.0257801
    2  -0.0001173  -0.0084462   0.0028434  -0.0010590  -0.0397460   0.0873330
    3   0.0525922   0.0001325   0.0170875  -0.0314231   0.0141985  -0.0606644
           43          44          45          46          47          48
    1  -0.0035744  -0.0049629   0.0279215  -0.0207607  -0.0045073  -0.0068633
    2   0.0103267   0.0134839   0.0157889   0.0066791  -0.0307245   0.0026946
    3   0.0019569   0.0290464  -0.0106951  -0.0199041  -0.0410148   0.0080839
           49          50          51          52          53          54
    1   0.0174508  -0.0332231   0.0043685   0.0961936  -0.0075309   0.0019917
    2   0.0135422   0.0058540  -0.0305059   0.0015550   0.0003735   0.0191136
    3   0.0231119   0.0120793  -0.0007925   0.0569759  -0.0051839  -0.0251722
           55          56          57          58          59          60
    1  -0.0332757  -0.0003749   0.0534034   0.0005026  -0.0001521   0.0283107
    2  -0.0087604   0.0295394   0.0276026  -0.0074791   0.0151853  -0.0161327
    3  -0.0038245   0.0044084   0.0051877  -0.0057226  -0.0329459   0.0190259
           61          62          63          64          65          66
    1  -0.0312380  -0.0545370  -0.0075685   0.0156001  -0.0238336  -0.0132893
    2  -0.0122915  -0.0432318  -0.0004484  -0.0117652   0.0105267   0.0101818
    3   0.0062699   0.0848805   0.0005400   0.0290439   0.0263320  -0.0232046
           67          68          69          70          71          72
    1   0.0275376  -0.0073007  -0.0256242   0.0148212  -0.0155173   0.0582193
    2   0.0178492   0.0057498   0.0006986   0.0235916  -0.0061671  -0.0288449
    3   0.0544635  -0.0053985   0.0217389  -0.0013017  -0.0327660  -0.0879397
           73          74          75          76          77          78
    1  -0.0071567  -0.0110548  -0.0164238   0.0039485   0.0057434  -0.0025963
    2  -0.0011830  -0.0154538   0.0289010  -0.0146017   0.0388770   0.0041390
    3  -0.0036837   0.0262108  -0.0058189  -0.0287291   0.0432279  -0.0136282
           79          80          81          82          83          84
    1   0.0249366  -0.0095008  -0.0115767   0.0488092  -0.0068136  -0.0158215
    2   0.0172393  -0.0210213   0.0346965  -0.0945242  -0.0017379  -0.0280012
    3   0.0089425  -0.0247248  -0.0092154  -0.0101995  -0.0066668  -0.0085410
           85          86          87          88          89          90
    1  -0.0195053   0.0129074  -0.0234951   0.0068437   0.0314540   0.0106828
    2   0.0265358   0.0036044   0.0067149   0.0038469   0.0159664   0.0053237
    3   0.0058714  -0.0270653   0.0494296  -0.0012511   0.0138576  -0.0282864
           91          92          93          94          95          96
    1  -0.0113527   0.0570444   0.0009574  -0.0236158  -0.0179562   0.0309629
    2   0.0312076  -0.0856948   0.0033085  -0.0125109   0.0267082  -0.0078133
    3   0.0057410  -0.0360779  -0.0070837  -0.0187922  -0.0158278  -0.0065340
           97          98          99         100         101         102
    1   0.0416693   0.0025378   0.0031917  -0.0246992   0.0288248  -0.1025928
    2   0.0349471  -0.0069555  -0.0108486  -0.0117556  -0.0146146   0.0073775
    3   0.0275770  -0.0020825   0.0255433  -0.0111797  -0.0104770   0.0372554
          103         104         105         106         107         108
    1  -0.0015288   0.0217144   0.0032162  -0.0306042   0.0474059  -0.0073002
    2   0.0076482  -0.0012960   0.0292843   0.0014170  -0.0026103   0.0001468
    3   0.0015936   0.0243821  -0.0204112   0.0033786  -0.0248573  -0.0016694
          109         110         111         112         113         114
    1  -0.0006482   0.0005427  -0.0254423  -0.0273732  -0.0041840  -0.0189952
    2   0.0138385  -0.0260998   0.0050071  -0.0537831  -0.0048348   0.0161450
    3  -0.0316375  -0.0144214   0.0169433   0.0918349  -0.0057296  -0.0193668
          115         116         117         118         119         120
    1   0.0280881  -0.0183564  -0.0326475   0.0010226   0.0182709  -0.0319682
    2  -0.0124525  -0.0383426  -0.0209798   0.0062477   0.0137480   0.0041061
    3  -0.0027484  -0.0160884   0.0346636  -0.0021044  -0.0229232  -0.0045564
          121         122         123         124         125         126
    1   0.0111322   0.1100598   0.0069520   0.0152259   0.0298874  -0.0134118
    2   0.0282638  -0.0052146  -0.0023752   0.0186526  -0.0189891  -0.0196851
    3   0.0174358   0.0070751  -0.0065249  -0.0129556   0.0057245  -0.0165132
          127         128         129         130         131         132
    1   0.0218480  -0.0037859  -0.0088336   0.0240662  -0.0294338  -0.0793414
    2   0.0310642  -0.0061641  -0.0208431  -0.0178895   0.0083279   0.0295896
    3   0.0337464   0.0001752  -0.0199983   0.0164113   0.0119343  -0.0721408
          133         134         135         136         137         138
    1  -0.0009143  -0.0016708  -0.0087566  -0.0291895  -0.0002811   0.0078977
    2   0.0018859   0.0076160   0.0273899  -0.0083615  -0.0571847   0.0064921
    3   0.0041202   0.0375943  -0.0088735  -0.0031138   0.0164113  -0.0003352
          139         140         141         142         143         144
    1   0.0264305   0.0009959   0.0043504  -0.0221065  -0.0093287  -0.0237457
    2  -0.0201524   0.0314242   0.0090400   0.0320407   0.0001215   0.0199874
    3  -0.0020473  -0.0143328   0.0289324  -0.1024427   0.0120089   0.0001194
          145         146         147         148         149         150
    1  -0.0128213   0.0209185   0.0300567  -0.0102279  -0.0026390  -0.0294708
    2  -0.0304996   0.0051083   0.0305390  -0.0087658  -0.0310160   0.0127395
    3   0.0115645   0.0240310  -0.0196526  -0.0083106   0.0173680  -0.0107279
          151         152         153         154         155         156
    1   0.0072041   0.0382669   0.0073268   0.0148097   0.0062156   0.0112161
    2  -0.0080194  -0.0983200   0.0005008   0.0174281   0.0264142  -0.0335380
    3  -0.0380419   0.0396997   0.0003892  -0.0213012   0.0216091  -0.0041701
          157         158         159         160         161         162
    1  -0.0310295  -0.0016842   0.0249761  -0.0073981  -0.0308321  -0.0155182
    2   0.0459500  -0.0023958  -0.0207343   0.0177859  -0.0094174  -0.0902249
    3  -0.0043585   0.0062235   0.0001835   0.0304166   0.0058019  -0.0612396
          163         164         165         166         167         168
    1   0.0024253   0.0019677   0.0258897  -0.0122765  -0.0080753  -0.0094174
    2   0.0076992   0.0210071  -0.0116209   0.0178463  -0.0369759   0.0030857
    3  -0.0027022   0.0234726  -0.0050758  -0.0272715  -0.0379366  -0.0000301
          169         170         171         172         173         174
    1   0.0085368  -0.0107641  -0.0136233   0.0279349  -0.0021970  -0.0058347
    2   0.0264668   0.0094403  -0.0096816  -0.0189744   0.0048393   0.0278120
    3   0.0093809  -0.0341100   0.0307887   0.1044306   0.0027602  -0.0174274
          175         176         177         178         179         180
    1  -0.0249987   0.0161397   0.0426952  -0.0088351   0.0039532  -0.0226954
    2  -0.0141673   0.0175626   0.0156853  -0.0034521  -0.0309015  -0.0023758
    3   0.0133625   0.0205530  -0.0316224  -0.0079487  -0.0036811   0.0253177
          181         182         183         184         185         186
    1   0.0020554   0.0020677  -0.0096495  -0.0201185  -0.0081771  -0.0100052
    2   0.0281456  -0.0671365  -0.0007301  -0.0185055   0.0076069   0.0259160
    3  -0.0208868   0.0854959   0.0017618  -0.0175984   0.0327546  -0.0131511
          187         188         189         190         191         192
    1   0.0347738  -0.0049223  -0.0049273   0.0184428  -0.0300056  -0.0071275
    2   0.0337878   0.0012823   0.0314062  -0.0059464  -0.0142105  -0.1088601
    3   0.0183123  -0.0100774  -0.0095923  -0.0130449  -0.0021264   0.0169275
          193         194         195         196         197         198
    1  -0.0047990  -0.0105860  -0.0237455  -0.0113890  -0.0010749   0.0035451
    2  -0.0047077  -0.0072847   0.0201158  -0.0259353   0.0221952  -0.0050587
    3   0.0052018   0.0317093   0.0071380  -0.0170158  -0.0539066   0.0046579
          199         200         201         202         203         204
    1  -0.0047879   0.0055555   0.0296091   0.0334448   0.0024484   0.0238659
    2  -0.0239463  -0.0200446   0.0072990   0.0576173  -0.0096908  -0.0236907
    3   0.0241972  -0.0260990   0.0015084   0.0872348  -0.0033962   0.0043319
          205         206         207         208         209         210
    1  -0.0120308  -0.0068996   0.0180574  -0.0084119   0.0052564  -0.0154702
    2  -0.0305785   0.0075730  -0.0039675   0.0047845   0.0343924  -0.0124939
    3   0.0148875  -0.0297318   0.0536201  -0.0032567  -0.0098424  -0.0250538
          211         212         213         214         215         216
    1  -0.0183388   0.0420062  -0.0085052  -0.0227478   0.0072452  -0.0083527
    2  -0.0267098   0.0626310  -0.0001882  -0.0198308  -0.0002816   0.0294571
    3   0.0187463  -0.0782754   0.0065368  -0.0134530   0.0355002  -0.0094368
          217         218         219         220         221         222
    1   0.0433140  -0.0008089  -0.0007368   0.0217740  -0.0301249  -0.0031491
    2   0.0328669  -0.0029749   0.0246777  -0.0151684  -0.0112235  -0.1065938
    3   0.0084125  -0.0034725  -0.0247712  -0.0227608  -0.0017403   0.0293909
          223         224         225         226         227         228
    1  -0.0059674   0.0115095   0.0017003  -0.0259055   0.0452848  -0.0056889
    2  -0.0047902  -0.0278267   0.0030579  -0.0030708   0.0139814   0.0061400
    3   0.0052316   0.0042490   0.0373935  -0.0196428   0.0259147  -0.0008062
          229         230         231         232         233         234
    1  -0.0236332  -0.0196955   0.0110030  -0.0081319  -0.0049022  -0.0122512
    2  -0.0025241   0.0074175   0.0239043  -0.0536451   0.0041640  -0.0204424
    3  -0.0175705   0.0320408  -0.0214037  -0.0910025  -0.0009824  -0.0235680
          235         236         237         238         239         240
    1  -0.0096814   0.0124541   0.0141346  -0.0009333   0.0106075   0.0081486
    2   0.0188497   0.0229054  -0.0420844  -0.0016843  -0.0203478   0.0265975
    3   0.0227170  -0.0157268  -0.0250829   0.0121897   0.0246079   0.0183182
          241         242         243         244         245         246
    1  -0.0237833   0.0605211   0.0047032   0.0208789  -0.0197470   0.0081773
    2  -0.0105958   0.0596546  -0.0096850  -0.0019974  -0.0212170  -0.0197717
    3  -0.0118452   0.0780963   0.0029206   0.0229436   0.0075529  -0.0223342
          247         248         249         250         251         252
    1  -0.0228739   0.0059963   0.0185818  -0.0134843   0.0282563  -0.0583800
    2  -0.0055826   0.0061871  -0.0024884   0.0281265  -0.0090486   0.0394051
    3  -0.0542221   0.0027021  -0.0275968   0.0104395   0.0124657   0.0838290
          253         254         255         256         257         258
    1   0.0000290  -0.0214805   0.0325704   0.0094369   0.0304031  -0.0060017
    2   0.0053739   0.0240302   0.0044669  -0.0255554  -0.0454234  -0.0070906
    3  -0.0063817  -0.0078431   0.0028976  -0.0184999   0.0324218  -0.0013085
          259         260         261         262         263         264
    1  -0.0106398  -0.0047152  -0.0076725  -0.0245709   0.0012473   0.0242884
    2   0.0093656  -0.0338213   0.0054078   0.0948266  -0.0000602   0.0126197
    3  -0.0289462  -0.0094359   0.0340641   0.0436646   0.0058059   0.0208077
          265         266         267         268         269         270
    1  -0.0171359  -0.0146021  -0.0480911   0.0002723   0.0131504   0.0247779
    2   0.0230784  -0.0207049  -0.0149791  -0.0075736  -0.0096633   0.0052720
    3  -0.0002281   0.0131882  -0.0307960   0.0013119  -0.0272364   0.0130792
          271         272         273         274         275         276
    1  -0.0056939   0.0733620  -0.0056462  -0.0074213  -0.0228066   0.0280282
    2  -0.0291475   0.0735672   0.0139255   0.0286018  -0.0224096   0.0023939
    3   0.0219965  -0.0300735   0.0038544  -0.0219320   0.0150432   0.0205025
          277         278         279         280         281         282
    1   0.0109126   0.0059445   0.0152701  -0.0173386   0.0136202  -0.0602897
    2  -0.0514576   0.0019796  -0.0157018   0.0250988   0.0038496   0.0260747
    3   0.0165245  -0.0025956  -0.0222890  -0.0122419   0.0275083  -0.0880641
          283         284         285         286         287         288
    1  -0.0026338  -0.0250172   0.0132077  -0.0202143   0.0502588  -0.0036257
    2   0.0058759   0.0118578   0.0238483  -0.0135169   0.0203696  -0.0060703
    3  -0.0049003   0.0084644  -0.0214347  -0.0181867   0.0057948   0.0000595
          289         290         291         292         293         294
    1  -0.0306118   0.0196300   0.0133854  -0.0750276  -0.0019547  -0.0124360
    2  -0.0095327  -0.0052856  -0.0300366  -0.0107585  -0.0071616  -0.0202767
    3   0.0021923  -0.0269541   0.0112459   0.0789979   0.0022250   0.0296303
          295         296         297         298         299         300
    1  -0.0293848   0.0161428  -0.0117838  -0.0042819  -0.0133981  -0.0153452
    2  -0.0039538  -0.0184836   0.0351732   0.0012945  -0.0301900   0.0241073
    3  -0.0112873  -0.0188414   0.0421507  -0.0099911  -0.0084367   0.0034553
          301         302         303         304         305         306
    1   0.0257604   0.1027850   0.0025632   0.0330099   0.0071956  -0.0202946
    2   0.0232696  -0.0328858   0.0018496   0.0066490  -0.0127091   0.0240427
    3  -0.0079620  -0.0238977  -0.0031317  -0.0020050  -0.0303231  -0.0161609
          307         308         309         310         311         312
    1  -0.0550737   0.0031638   0.0282382  -0.0203494   0.0010874   0.0724843
    2  -0.0084954   0.0032512   0.0231928   0.0217777  -0.0127069  -0.0837848
    3  -0.0004140   0.0051094   0.0070745   0.0182625   0.0270111   0.0037341
  --- DONE ESP SUMMARY ---
 Total job time:  38.09s(wall), 97.23s(cpu) 
 Thu Jul 21 10:05:57 2022

        *************************************************************
        *                                                           *
        *  Thank you very much for using Q-Chem.  Have a nice day.  *
        *                                                           *
        *************************************************************


