                  Welcome to Q-Chem
     A Quantum Leap Into The Future Of Chemistry


 Q-Chem 6.0 (devel), Q-Chem, Inc., Pleasanton, CA (2022)

 E. Epifanovsky,  A. T. B. Gilbert,  Xintian Feng,  Joonho Lee,  Yuezhi Mao,  
 N. Mardirossian,  P. Pokhilko,  A. White,  M. Wormit,  M. P. Coons,  
 A. L. Dempwolff,  Zhengting Gan,  D. Hait,  P. R. Horn,  L. D. Jacobson,  
 I. Kaliman,  J. Kussmann,  A. W. Lange,  Ka Un Lao,  D. S. Levine,  Jie Liu,  
 S. C. McKenzie,  A. F. Morrison,  K. Nanda,  F. Plasser,  D. R. Rehn,  
 M. L. Vidal,  Zhi-Qiang You,  Ying Zhu,  B. Alam,  B. Albrecht,  
 A. Aldossary,  E. Alguire,  J. H. Andersen,  V. Athavale,  D. Barton,  
 K. Begam,  A. Behn,  N. Bellonzi,  Y. A. Bernard,  E. J. Berquist,  
 H. Burton,  A. Carreras,  K. Carter-Fenk,  Romit Chakraborty,  
 Chandrima Chakravarty,  Junhan Chen,  A. D. Chien,  K. D. Closser,  
 V. Cofer-Shabica,  L. Cunha,  S. Dasgupta,  Jia Deng,  M. de Wergifosse,  
 M. Diedenhofen,  Hainam Do,  S. Ehlert,  Po-Tung Fang,  S. Fatehi,  
 Qingguo Feng,  T. Friedhoff,  B. Ganoe,  J. Gayvert,  Qinghui Ge,  
 G. Gidofalvi,  M. Goldey,  J. Gomes,  C. Gonzalez-Espinoza,  S. Gulania,  
 A. Gunina,  J. A. Gyamfi,  M. W. D. Hanson-Heine,  P. H. P. Harbach,  
 A. W. Hauser,  M. F. Herbst,  M. Hernandez Vera,  M. Hodecker,  
 Z. C. Holden,  S. Houck,  Xunkun Huang,  Kerwin Hui,  B. C. Huynh,  
 K. Ikeda,  M. Ivanov,  Hyunjun Ji,  Zuxin Jin,  Hanjie Jiang,  B. Kaduk,  
 S. Kaehler,  R. Kang,  K. Khistyaev,  Jaehoon Kim,  Yongbin Kim,  
 P. Klunzinger,  Z. Koczor-Benda,  Joong Hoon Koh,  D. Kosenkov,  
 Saikiran Kotaru,  L. Koulias,  T. Kowalczyk,  C. M. Krauter,  K. Kue,  
 A. Kunitsa,  T. Kus,  A. Landau,  K. V. Lawler,  D. Lefrancois,  S. Lehtola,  
 Rain Li,  Shaozhi Li,  Yi-Pei Li,  Jiashu Liang,  M. Liebenthal,  
 Hung-Hsuan Lin,  You-Sheng Lin,  Fenglai Liu,  Kuan-Yu Liu,  
 M. Loipersberger,  A. Luenser,  C. Malbon,  A. Manjanath,  P. Manohar,  
 E. Mansoor,  S. F. Manzer,  Shan-Ping Mao,  A. V. Marenich,  T. Markovich,  
 S. Mason,  F. Matz,  S. A. Maurer,  P. F. McLaughlin,  M. F. S. J. Menger,  
 J.-M. Mewes,  S. A. Mewes,  P. Morgante,  Mohammad Mostafanejad,  
 J. W. Mullinax,  K. J. Oosterbaan,  G. Paran,  V. Parravicini,  
 Alexander C. Paul,  Suranjan K. Paul,  F. Pavosevic,  Zheng Pei,  S. Prager,  
 E. I. Proynov,  E. Ramos,  B. Rana,  A. E. Rask,  A. Rettig,  R. M. Richard,  
 F. Rob,  E. Rossomme,  T. Scheele,  M. Scheurer,  M. Schneider,  
 P. E. Schneider,  N. Sergueev,  S. M. Sharada,  Hengyuan Shen,  
 W. Skomorowski,  D. W. Small,  C. J. Stein,  Yingli Su,  Yu-Chuan Su,  
 E. J. Sundstrom,  Zhen Tao,  J. Thirman,  Hung-Yi Tsai,  T. Tsuchimochi,  
 N. M. Tubman,  C. Utku,  S. P. Veccham,  O. Vydrov,  J. Wenzel,  
 Jonathan Wong,  J. Witte,  A. Yamada,  Chou-Hsun Yang,  Kun Yao,  
 S. Yeganeh,  S. R. Yost,  A. Zech,  F. Zeller,  Igor Ying Zhang,  
 Xing Zhang,  Yu Zhang,  D. Zuev,  A. Aspuru-Guzik,  A. T. Bell,  
 N. A. Besley,  K. B. Bravaya,  B. R. Brooks,  D. Casanova,  Jeng-Da Chai,  
 Hsing-Ta Chen,  S. Coriani,  C. J. Cramer,  A. E. DePrince, III,  
 R. A. DiStasio Jr.,  A. Dreuw,  B. D. Dunietz,  T. R. Furlani,  
 W. A. Goddard III,  S. Grimme,  S. Hammes-Schiffer,  T. Head-Gordon,  
 W. J. Hehre,  Chao-Ping Hsu,  T.-C. Jagau,  Yousung Jung,  A. Klamt,  
 Jing Kong,  D. S. Lambrecht,  Xiangyuan Li,  WanZhen Liang,  N. J. Mayhall,  
 C. W. McCurdy,  J. B. Neaton,  T. Neudecker,  C. Ochsenfeld,  
 J. A. Parkhill,  R. Peverati,  V. A. Rassolov,  Haisheng Ren,  Yihan Shao,  
 L. V. Slipchenko,  R. P. Steele,  J. E. Subotnik,  A. J. W. Thom,  
 A. Tkatchenko,  D. G. Truhlar,  T. Van Voorhis,  Fan Wang,  
 T. A. Wesolowski,  K. B. Whaley,  H. L. Woodcock III,  P. M. Zimmerman,  
 S. Faraji,  P. M. W. Gill,  M. Head-Gordon,  J. M. Herbert,  A. I. Krylov

 Contributors to earlier versions of Q-Chem not listed above: 
 R. D. Adamson,  B. Austin,  R. Baer,  J. Baker,  G. J. O. Beran,  
 K. Brandhorst,  S. T. Brown,  E. F. C. Byrd,  Arup K. Chakraborty,  
 G. K. L. Chan,  Chun-Min Chang,  Yunqing Chen,  C.-L. Cheng,  
 Siu Hung Chien,  D. M. Chipman,  D. L. Crittenden,  H. Dachsel,  
 R. J. Doerksen,  A. D. Dutoi,  R. G. Edgar,  J. Fosso-Tande,  
 L. Fusti-Molnar,  D. Ghosh,  A. Ghysels,  A. Golubeva-Zadorozhnaya,  
 J. Gonthier,  M. S. Gordon,  S. R. Gwaltney,  G. Hawkins,  J. E. Herr,  
 A. Heyden,  S. Hirata,  E. G. Hohenstein,  G. Kedziora,  F. J. Keil,  
 C. Kelley,  Jihan Kim,  R. A. King,  R. Z. Khaliullin,  P. P. Korambath,  
 W. Kurlancheek,  A. Laurent,  A. M. Lee,  M. S. Lee,  S. V. Levchenko,  
 Ching Yeh Lin,  D. Liotard,  E. Livshits,  R. C. Lochan,  I. Lotan,  
 L. A. Martinez-Martinez,  P. E. Maslen,  N. Nair,  D. P. O'Neill,  
 D. Neuhauser,  E. Neuscamman,  C. M. Oana,  R. Olivares-Amaya,  R. Olson,  
 T. M. Perrine,  B. Peters,  P. A. Pieniazek,  A. Prociuk,  Y. M. Rhee,  
 J. Ritchie,  M. A. Rohrdanz,  E. Rosta,  N. J. Russ,  H. F. Schaefer III,  
 M. W. Schmidt,  N. E. Schultz,  S. Sharma,  N. Shenvi,  C. D. Sherrill,  
 A. C. Simmonett,  A. Sodt,  T. Stein,  D. Stuck,  K. S. Thanthiriwatte,  
 V. Vanovschi,  L. Vogt,  Tao Wang,  A. Warshel,  M. A. Watson,  
 C. F. Williams,  Q. Wu,  X. Xu,  Jun Yang,  W. Zhang,  Yan Zhao

   Please cite Q-Chem as follows:
  "Software for the frontiers of quantum chemistry:
   An overview of developments in the Q-Chem 5 package"
   J. Chem. Phys. 155, 084801 (2021)
   https://doi.org/10.1063/5.0055522 (open access)

 Q-Chem 6.0.0 for Intel X86 EM64T Linux

 Parts of Q-Chem use Armadillo 9.900.5 (Nocturnal Misbehaviour).
 http://arma.sourceforge.net/

 Q-Chem begins on Thu Jul 21 03:13:29 2022  

 Host: nid00534
0

     Scratch files written to /global/cscratch1/sd/ymao90/r7.00_frame_0043_spade_B3LYP_dp20220721031327//
 Processing $rem in /global/homes/y/ymao90/my_qchem/qchem_embedding_5p4/config/preferences:
 Processing $rem in /global/homes/y/ymao90/.qchemrc:
 No nuclear gradient supported for projection-based embedding or EMFT. Set max ideriv = 0.

 Checking the input file for inconsistencies... 	...done.

--------------------------------------------------------------
User input:
--------------------------------------------------------------
$molecule
0 1
--
0 1
C    23.81400   17.59600   26.47100  
C    22.71000   18.65800   26.60400  
C    23.15200   19.97600   27.26000  
C    24.34100   20.59100   26.50400  
C    25.44300   19.55500   26.22900  
C    25.00000   18.18500   25.69000  
H    22.25400   20.60600   27.25700  
H    22.42400   18.84000   25.56100  
H    24.13000   17.40200   27.50400  
H    23.55100   16.57400   26.17400  
H    23.97700   20.92700   25.52500  
H    24.68100   21.51000   26.99800  
H    26.09800   19.98600   25.46200  
H    26.08300   19.37700   27.10200  
H    24.65500   18.41200   24.67400  
H    25.84800   17.49800   25.57400  
H    23.42000   19.71300   28.29100  
N    21.50700   18.22200   27.31100  
H    21.50200   18.35700   28.31500  
C    20.42900   17.66800   26.65500  
H    19.58500   17.55800   27.36100  
O    20.36900   17.45300   25.45800  
--
0 1
C    19.04500   18.41700   22.75400  
H    19.45200   19.33000   23.19600  
H    18.44000   18.53500   21.85100  
H    18.40800   17.97600   23.52500  
S    20.32500   17.23500   22.27400  
C    20.84500   18.20000   20.83700  
H    20.07900   18.29800   20.06400  
H    21.14000   19.18700   21.20100  
H    21.67800   17.71100   20.32500  
O    19.49700   16.17300   21.62000  
C    22.99400   21.58900   34.94500  
H    23.13600   21.84500   35.99800  
H    22.88900   20.51000   34.80500  
H    23.84400   21.92400   34.34500  
S    21.50200   22.32600   34.24000  
C    20.58500   20.78300   34.03000  
H    19.97100   20.93800   33.13900  
H    21.32800   20.01300   33.80700  
H    20.04100   20.58800   34.95800  
O    21.99000   22.70400   32.87600  
C    25.77300   14.34700   25.63400  
H    25.30100   15.26000   25.26200  
H    25.13700   13.50500   25.34700  
H    25.93500   14.42500   26.71200  
S    27.33700   14.38400   24.72900  
C    28.01400   13.04200   25.73200  
H    28.04300   13.31500   26.79000  
H    27.32400   12.22400   25.51200  
H    29.00100   12.80500   25.32600  
O    27.99200   15.61600   25.27300  
C    30.27400   18.14500   30.91500  
H    30.28400   17.21600   30.34000  
H    30.32300   17.78800   31.94700  
H    29.27500   18.57800   30.82300  
S    31.64200   19.25000   30.49800  
C    31.23300   19.09300   28.74500  
H    30.21500   19.48700   28.68300  
H    31.83800   19.73600   28.10100  
H    31.26300   18.05300   28.40900  
O    32.81700   18.35000   30.72400  
C    21.31800   22.75700   21.89100  
H    20.37700   22.49700   22.38300  
H    21.09000   23.52400   21.14600  
H    21.79900   21.85000   21.51600  
S    22.36500   23.45900   23.18600  
C    21.70800   22.52300   24.58400  
H    22.35500   22.59800   25.46200  
H    20.68600   22.82100   24.83000  
H    21.73500   21.51100   24.17200  
O    21.64200   24.73900   23.46800  
C    18.09700   14.25300   26.18700  
H    17.55300   15.19300   26.31400  
H    18.21100   13.65900   27.09800  
H    19.10400   14.35300   25.77500  
S    17.18200   13.17800   25.05900  
C    17.20300   14.29500   23.63900  
H    17.16700   15.33000   23.98900  
H    18.16200   14.16200   23.13200  
H    16.31500   13.98400   23.08400  
O    15.74400   13.28500   25.46200  
C    21.62300   14.34600   24.10500  
H    20.92100   14.48500   23.27900  
H    21.14500   14.95000   24.88100  
H    22.57000   14.85200   23.90000  
S    21.75000   12.63600   24.67400  
C    21.77900   11.91600   23.01700  
H    22.69700   12.06200   22.44100  
H    21.51100   10.87000   23.18500  
H    20.97300   12.44600   22.50200  
O    20.37300   12.38400   25.20400  
C    28.36700   14.82100   28.71900  
H    27.84300   13.88700   28.93400  
H    28.64300   14.91800   27.66600  
H    29.22900   14.95000   29.37900  
S    27.19500   16.14200   29.10100  
C    28.07600   17.35700   28.09400  
H    27.62400   18.26400   28.50300  
H    29.15600   17.25700   28.22900  
H    27.84400   17.27500   27.02900  
O    27.55700   16.69300   30.44500  
C    26.23300   22.21000   22.35700  
H    27.16600   22.25300   21.78900  
H    25.61000   23.09900   22.22600  
H    26.49600   22.09400   23.41100  
S    25.24500   20.82900   21.73800  
C    24.88400   21.58100   20.13500  
H    24.12300   22.36000   20.22400  
H    25.77000   22.02000   19.66900  
H    24.48100   20.80900   19.47400  
O    23.97000   20.84400   22.52100  
C    14.99800   15.15900   28.13300  
H    15.79800   15.78000   27.72300  
H    14.53900   14.55500   27.34600  
H    14.29200   15.78600   28.68300  
S    15.69200   14.10300   29.42400  
C    15.66900   15.31100   30.76800  
H    16.08100   16.28400   30.48700  
H    14.61300   15.42300   31.02800  
H    16.37400   15.00300   31.54400  
O    17.16400   13.99000   29.17500  
C    28.79000   20.34900   20.00100  
H    28.66300   21.16900   20.71200  
H    28.86100   20.69200   18.96600  
H    28.04400   19.56500   20.16000  
S    30.39400   19.56600   20.28100  
C    31.57400   20.89800   19.96600  
H    32.58500   20.48900   19.88800  
H    31.26100   21.25000   18.98000  
H    31.64600   21.70900   20.69400  
O    30.45300   18.85000   18.96800  
C    17.10800   20.38300   25.65100  
H    18.18300   20.51000   25.80000  
H    16.81200   20.56600   24.61500  
H    16.43200   20.96300   26.28500  
S    16.65600   18.66300   25.97000  
C    14.94800   18.88600   26.51600  
H    14.42600   17.94500   26.71000  
H    14.88400   19.58900   27.35000  
H    14.44200   19.40600   25.69900  
O    17.35000   18.35800   27.26100  
C    18.86500   17.32100   30.67200  
H    18.99000   16.24300   30.54500  
H    17.92000   17.64200   30.22500  
H    19.76500   17.81100   30.29400  
S    18.63000   17.52800   32.45100  
C    20.20600   16.83100   32.99300  
H    20.18600   15.76300   32.76000  
H    21.04500   17.23700   32.42300  
H    20.27600   16.93900   34.07800  
O    17.50100   16.65100   32.89700  
C    23.85500   14.43600   31.89700  
H    23.52900   14.87500   30.95100  
H    23.02700   14.39200   32.60900  
H    24.78400   14.96000   32.13900  
S    24.51000   12.77000   31.65600  
C    25.53800   12.93600   30.18000  
H    25.00200   13.58700   29.48400  
H    26.49300   13.39500   30.44600  
H    25.75300   11.89900   29.91000  
O    23.35400   11.87000   31.34500  
C    24.08600   20.38100   31.32300  
H    23.85400   21.07100   32.13800  
H    25.15200   20.13900   31.30600  
H    23.93100   20.79200   30.32200  
S    23.16900   18.83100   31.47400  
C    24.30100   17.93600   30.38600  
H    24.86300   18.67500   29.80800  
H    24.96700   17.28200   30.95400  
H    23.68600   17.35100   29.69700  
O    22.00200   19.02300   30.55600  
C    29.52900   18.56900   24.84200  
H    29.49500   17.48700   24.99100  
H    30.48400   18.80300   24.36500  
H    29.41200   19.15500   25.75700  
S    28.22000   18.98400   23.66600  
C    28.50300   17.58300   22.56100  
H    28.36100   16.71600   23.21100  
H    27.78000   17.61400   21.74100  
H    29.48700   17.78100   22.12800  
O    28.83500   20.17000   22.99000  
C    24.34600   26.42000   31.56900  
H    25.40700   26.21700   31.73700  
H    24.26000   27.16000   30.77000  
H    23.83800   26.68500   32.50000  
S    23.58000   24.92600   30.89900  
C    25.08600   23.98700   30.56200  
H    24.77600   23.06500   30.06200  
H    25.70800   24.70700   30.02600  
H    25.45400   23.78100   31.57100  
O    23.11600   25.45600   29.57800  
C    23.52600   14.86800   21.13300  
H    22.70900   15.56200   21.34700  
H    23.76200   14.71000   20.07700  
H    23.23200   13.87700   21.48700  
S    24.90100   15.55000   22.08700  
C    24.42800   17.28400   21.90800  
H    23.95400   17.62100   22.83400  
H    25.38000   17.75900   21.65700  
H    23.75900   17.32800   21.04500  
O    26.01400   15.31700   21.11300  
C    24.47000   26.22200   24.95300  
H    25.11600   27.04300   25.27500  
H    24.04400   26.43300   23.96900  
H    23.69400   26.20400   25.72200  
S    25.43300   24.69900   24.82600  
C    25.64500   24.53600   26.61300  
H    25.93200   25.55300   26.89300  
H    24.66200   24.30300   27.03000  
H    26.39000   23.74500   26.73300  
O    26.74500   25.18900   24.29500  
C    20.96500   22.89100   28.92400  
H    21.34500   22.58800   29.90300  
H    21.35600   22.30400   28.08900  
H    21.25600   23.91200   28.66400  
S    19.20700   22.56400   28.66400  
C    19.20200   20.80800   29.09000  
H    19.37600   20.61800   30.15200  
H    18.28800   20.32000   28.74400  
H    20.05500   20.35300   28.58000  
O    19.15100   22.49000   27.17000  
C    13.52400   19.56600   21.99200  
H    13.55300   18.76100   21.25400  
H    12.96300   19.27000   22.88100  
H    13.18800   20.52700   21.59400  
S    15.26600   19.77800   22.42600  
C    16.00000   20.69900   21.05600  
H    15.47200   21.65600   21.05600  
H    17.08300   20.74500   21.19700  
H    15.87000   20.28500   20.05400  
O    15.83200   18.39300   22.36500  
C    17.01800   25.10500   25.45700  
H    17.45600   25.12900   26.45800  
H    17.00200   26.16000   25.17200  
H    15.98200   24.76500   25.53300  
S    18.03500   24.03000   24.42000  
C    18.31200   25.34600   23.21300  
H    19.10400   24.86200   22.63700  
H    17.33100   25.53000   22.76900  
H    18.78000   26.15000   23.78700  
O    17.07800   23.07900   23.77100  
C    28.63600   23.66700   28.52700  
H    28.67600   23.90700   29.59200  
H    29.60200   23.94700   28.10000  
H    27.78400   24.25400   28.17500  
S    28.27600   21.91400   28.27500  
C    28.73500   22.01900   26.53000  
H    28.25600   22.89500   26.08500  
H    29.82200   22.01300   26.42000  
H    28.36300   21.14100   25.99500  
O    26.78800   21.74200   28.27500  
C    21.10300   13.29400   29.41700  
H    21.89300   12.79700   29.98600  
H    20.70300   14.27800   29.67500  
H    20.25500   12.63700   29.21000  
S    22.04500   13.61600   27.90800  
C    22.91500   12.03500   27.81900  
H    22.19800   11.21800   27.71000  
H    23.60100   12.24600   26.99500  
H    23.52800   12.01200   28.72400  
O    23.04400   14.64700   28.33300  
C    30.63700   25.98000   22.13700  
H    30.95800   26.13800   23.17000  
H    31.45200   25.58400   21.52600  
H    30.36400   26.93200   21.67500  
S    29.30300   24.76100   22.15500  
C    30.35700   23.42100   22.75400  
H    29.76700   22.50100   22.72100  
H    31.29000   23.34100   22.19100  
H    30.62000   23.56800   23.80500  
O    29.11600   24.41500   20.71000  
C    25.22700   9.75800    21.88500  
H    24.14100   9.68300    21.79200  
H    25.61400   9.41700    20.92100  
H    25.60100   9.15300    22.71400  
S    25.64800   11.47800   22.24500  
C    27.44300   11.26800   22.26300  
H    27.56300   10.44700   22.97400  
H    27.74400   11.04400   21.23700  
H    27.87300   12.19300   22.65700  
O    25.35900   11.62200   23.70700  
$end

$rem
JOBTYPE  SP
METHOD  B3LYP
BASIS  6-31+G(D)
SYMMETRY  FALSE
SYM_IGNORE  TRUE
MEM_TOTAL  12000
MEM_STATIC  4000
BASIS_LIN_DEP_THRESH  6
THRESH  14
SCF_CONVERGENCE  8
FD_MAT_VEC_PROD  FALSE
XC_GRID  000075000302
NL_GRID  1
MAX_SCF_CYCLES  200
ENV_METHOD  B3LYP
GEN_SCFMAN_EMBED  TRUE
SPADE_PARTITION  TRUE
EMBEDDING_EARLY_STOP  TRUE
$end

--------------------------------------------------------------
 ----------------------------------------------------------------
             Standard Nuclear Orientation (Angstroms)
    I     Atom           X                Y                Z
 ----------------------------------------------------------------
    1      C      23.8140000000    17.5960000000    26.4710000000
    2      C      22.7100000000    18.6580000000    26.6040000000
    3      C      23.1520000000    19.9760000000    27.2600000000
    4      C      24.3410000000    20.5910000000    26.5040000000
    5      C      25.4430000000    19.5550000000    26.2290000000
    6      C      25.0000000000    18.1850000000    25.6900000000
    7      H      22.2540000000    20.6060000000    27.2570000000
    8      H      22.4240000000    18.8400000000    25.5610000000
    9      H      24.1300000000    17.4020000000    27.5040000000
   10      H      23.5510000000    16.5740000000    26.1740000000
   11      H      23.9770000000    20.9270000000    25.5250000000
   12      H      24.6810000000    21.5100000000    26.9980000000
   13      H      26.0980000000    19.9860000000    25.4620000000
   14      H      26.0830000000    19.3770000000    27.1020000000
   15      H      24.6550000000    18.4120000000    24.6740000000
   16      H      25.8480000000    17.4980000000    25.5740000000
   17      H      23.4200000000    19.7130000000    28.2910000000
   18      N      21.5070000000    18.2220000000    27.3110000000
   19      H      21.5020000000    18.3570000000    28.3150000000
   20      C      20.4290000000    17.6680000000    26.6550000000
   21      H      19.5850000000    17.5580000000    27.3610000000
   22      O      20.3690000000    17.4530000000    25.4580000000
   23      C      19.0450000000    18.4170000000    22.7540000000
   24      H      19.4520000000    19.3300000000    23.1960000000
   25      H      18.4400000000    18.5350000000    21.8510000000
   26      H      18.4080000000    17.9760000000    23.5250000000
   27      S      20.3250000000    17.2350000000    22.2740000000
   28      C      20.8450000000    18.2000000000    20.8370000000
   29      H      20.0790000000    18.2980000000    20.0640000000
   30      H      21.1400000000    19.1870000000    21.2010000000
   31      H      21.6780000000    17.7110000000    20.3250000000
   32      O      19.4970000000    16.1730000000    21.6200000000
   33      C      22.9940000000    21.5890000000    34.9450000000
   34      H      23.1360000000    21.8450000000    35.9980000000
   35      H      22.8890000000    20.5100000000    34.8050000000
   36      H      23.8440000000    21.9240000000    34.3450000000
   37      S      21.5020000000    22.3260000000    34.2400000000
   38      C      20.5850000000    20.7830000000    34.0300000000
   39      H      19.9710000000    20.9380000000    33.1390000000
   40      H      21.3280000000    20.0130000000    33.8070000000
   41      H      20.0410000000    20.5880000000    34.9580000000
   42      O      21.9900000000    22.7040000000    32.8760000000
   43      C      25.7730000000    14.3470000000    25.6340000000
   44      H      25.3010000000    15.2600000000    25.2620000000
   45      H      25.1370000000    13.5050000000    25.3470000000
   46      H      25.9350000000    14.4250000000    26.7120000000
   47      S      27.3370000000    14.3840000000    24.7290000000
   48      C      28.0140000000    13.0420000000    25.7320000000
   49      H      28.0430000000    13.3150000000    26.7900000000
   50      H      27.3240000000    12.2240000000    25.5120000000
   51      H      29.0010000000    12.8050000000    25.3260000000
   52      O      27.9920000000    15.6160000000    25.2730000000
   53      C      30.2740000000    18.1450000000    30.9150000000
   54      H      30.2840000000    17.2160000000    30.3400000000
   55      H      30.3230000000    17.7880000000    31.9470000000
   56      H      29.2750000000    18.5780000000    30.8230000000
   57      S      31.6420000000    19.2500000000    30.4980000000
   58      C      31.2330000000    19.0930000000    28.7450000000
   59      H      30.2150000000    19.4870000000    28.6830000000
   60      H      31.8380000000    19.7360000000    28.1010000000
   61      H      31.2630000000    18.0530000000    28.4090000000
   62      O      32.8170000000    18.3500000000    30.7240000000
   63      C      21.3180000000    22.7570000000    21.8910000000
   64      H      20.3770000000    22.4970000000    22.3830000000
   65      H      21.0900000000    23.5240000000    21.1460000000
   66      H      21.7990000000    21.8500000000    21.5160000000
   67      S      22.3650000000    23.4590000000    23.1860000000
   68      C      21.7080000000    22.5230000000    24.5840000000
   69      H      22.3550000000    22.5980000000    25.4620000000
   70      H      20.6860000000    22.8210000000    24.8300000000
   71      H      21.7350000000    21.5110000000    24.1720000000
   72      O      21.6420000000    24.7390000000    23.4680000000
   73      C      18.0970000000    14.2530000000    26.1870000000
   74      H      17.5530000000    15.1930000000    26.3140000000
   75      H      18.2110000000    13.6590000000    27.0980000000
   76      H      19.1040000000    14.3530000000    25.7750000000
   77      S      17.1820000000    13.1780000000    25.0590000000
   78      C      17.2030000000    14.2950000000    23.6390000000
   79      H      17.1670000000    15.3300000000    23.9890000000
   80      H      18.1620000000    14.1620000000    23.1320000000
   81      H      16.3150000000    13.9840000000    23.0840000000
   82      O      15.7440000000    13.2850000000    25.4620000000
   83      C      21.6230000000    14.3460000000    24.1050000000
   84      H      20.9210000000    14.4850000000    23.2790000000
   85      H      21.1450000000    14.9500000000    24.8810000000
   86      H      22.5700000000    14.8520000000    23.9000000000
   87      S      21.7500000000    12.6360000000    24.6740000000
   88      C      21.7790000000    11.9160000000    23.0170000000
   89      H      22.6970000000    12.0620000000    22.4410000000
   90      H      21.5110000000    10.8700000000    23.1850000000
   91      H      20.9730000000    12.4460000000    22.5020000000
   92      O      20.3730000000    12.3840000000    25.2040000000
   93      C      28.3670000000    14.8210000000    28.7190000000
   94      H      27.8430000000    13.8870000000    28.9340000000
   95      H      28.6430000000    14.9180000000    27.6660000000
   96      H      29.2290000000    14.9500000000    29.3790000000
   97      S      27.1950000000    16.1420000000    29.1010000000
   98      C      28.0760000000    17.3570000000    28.0940000000
   99      H      27.6240000000    18.2640000000    28.5030000000
  100      H      29.1560000000    17.2570000000    28.2290000000
  101      H      27.8440000000    17.2750000000    27.0290000000
  102      O      27.5570000000    16.6930000000    30.4450000000
  103      C      26.2330000000    22.2100000000    22.3570000000
  104      H      27.1660000000    22.2530000000    21.7890000000
  105      H      25.6100000000    23.0990000000    22.2260000000
  106      H      26.4960000000    22.0940000000    23.4110000000
  107      S      25.2450000000    20.8290000000    21.7380000000
  108      C      24.8840000000    21.5810000000    20.1350000000
  109      H      24.1230000000    22.3600000000    20.2240000000
  110      H      25.7700000000    22.0200000000    19.6690000000
  111      H      24.4810000000    20.8090000000    19.4740000000
  112      O      23.9700000000    20.8440000000    22.5210000000
  113      C      14.9980000000    15.1590000000    28.1330000000
  114      H      15.7980000000    15.7800000000    27.7230000000
  115      H      14.5390000000    14.5550000000    27.3460000000
  116      H      14.2920000000    15.7860000000    28.6830000000
  117      S      15.6920000000    14.1030000000    29.4240000000
  118      C      15.6690000000    15.3110000000    30.7680000000
  119      H      16.0810000000    16.2840000000    30.4870000000
  120      H      14.6130000000    15.4230000000    31.0280000000
  121      H      16.3740000000    15.0030000000    31.5440000000
  122      O      17.1640000000    13.9900000000    29.1750000000
  123      C      28.7900000000    20.3490000000    20.0010000000
  124      H      28.6630000000    21.1690000000    20.7120000000
  125      H      28.8610000000    20.6920000000    18.9660000000
  126      H      28.0440000000    19.5650000000    20.1600000000
  127      S      30.3940000000    19.5660000000    20.2810000000
  128      C      31.5740000000    20.8980000000    19.9660000000
  129      H      32.5850000000    20.4890000000    19.8880000000
  130      H      31.2610000000    21.2500000000    18.9800000000
  131      H      31.6460000000    21.7090000000    20.6940000000
  132      O      30.4530000000    18.8500000000    18.9680000000
  133      C      17.1080000000    20.3830000000    25.6510000000
  134      H      18.1830000000    20.5100000000    25.8000000000
  135      H      16.8120000000    20.5660000000    24.6150000000
  136      H      16.4320000000    20.9630000000    26.2850000000
  137      S      16.6560000000    18.6630000000    25.9700000000
  138      C      14.9480000000    18.8860000000    26.5160000000
  139      H      14.4260000000    17.9450000000    26.7100000000
  140      H      14.8840000000    19.5890000000    27.3500000000
  141      H      14.4420000000    19.4060000000    25.6990000000
  142      O      17.3500000000    18.3580000000    27.2610000000
  143      C      18.8650000000    17.3210000000    30.6720000000
  144      H      18.9900000000    16.2430000000    30.5450000000
  145      H      17.9200000000    17.6420000000    30.2250000000
  146      H      19.7650000000    17.8110000000    30.2940000000
  147      S      18.6300000000    17.5280000000    32.4510000000
  148      C      20.2060000000    16.8310000000    32.9930000000
  149      H      20.1860000000    15.7630000000    32.7600000000
  150      H      21.0450000000    17.2370000000    32.4230000000
  151      H      20.2760000000    16.9390000000    34.0780000000
  152      O      17.5010000000    16.6510000000    32.8970000000
  153      C      23.8550000000    14.4360000000    31.8970000000
  154      H      23.5290000000    14.8750000000    30.9510000000
  155      H      23.0270000000    14.3920000000    32.6090000000
  156      H      24.7840000000    14.9600000000    32.1390000000
  157      S      24.5100000000    12.7700000000    31.6560000000
  158      C      25.5380000000    12.9360000000    30.1800000000
  159      H      25.0020000000    13.5870000000    29.4840000000
  160      H      26.4930000000    13.3950000000    30.4460000000
  161      H      25.7530000000    11.8990000000    29.9100000000
  162      O      23.3540000000    11.8700000000    31.3450000000
  163      C      24.0860000000    20.3810000000    31.3230000000
  164      H      23.8540000000    21.0710000000    32.1380000000
  165      H      25.1520000000    20.1390000000    31.3060000000
  166      H      23.9310000000    20.7920000000    30.3220000000
  167      S      23.1690000000    18.8310000000    31.4740000000
  168      C      24.3010000000    17.9360000000    30.3860000000
  169      H      24.8630000000    18.6750000000    29.8080000000
  170      H      24.9670000000    17.2820000000    30.9540000000
  171      H      23.6860000000    17.3510000000    29.6970000000
  172      O      22.0020000000    19.0230000000    30.5560000000
  173      C      29.5290000000    18.5690000000    24.8420000000
  174      H      29.4950000000    17.4870000000    24.9910000000
  175      H      30.4840000000    18.8030000000    24.3650000000
  176      H      29.4120000000    19.1550000000    25.7570000000
  177      S      28.2200000000    18.9840000000    23.6660000000
  178      C      28.5030000000    17.5830000000    22.5610000000
  179      H      28.3610000000    16.7160000000    23.2110000000
  180      H      27.7800000000    17.6140000000    21.7410000000
  181      H      29.4870000000    17.7810000000    22.1280000000
  182      O      28.8350000000    20.1700000000    22.9900000000
  183      C      24.3460000000    26.4200000000    31.5690000000
  184      H      25.4070000000    26.2170000000    31.7370000000
  185      H      24.2600000000    27.1600000000    30.7700000000
  186      H      23.8380000000    26.6850000000    32.5000000000
  187      S      23.5800000000    24.9260000000    30.8990000000
  188      C      25.0860000000    23.9870000000    30.5620000000
  189      H      24.7760000000    23.0650000000    30.0620000000
  190      H      25.7080000000    24.7070000000    30.0260000000
  191      H      25.4540000000    23.7810000000    31.5710000000
  192      O      23.1160000000    25.4560000000    29.5780000000
  193      C      23.5260000000    14.8680000000    21.1330000000
  194      H      22.7090000000    15.5620000000    21.3470000000
  195      H      23.7620000000    14.7100000000    20.0770000000
  196      H      23.2320000000    13.8770000000    21.4870000000
  197      S      24.9010000000    15.5500000000    22.0870000000
  198      C      24.4280000000    17.2840000000    21.9080000000
  199      H      23.9540000000    17.6210000000    22.8340000000
  200      H      25.3800000000    17.7590000000    21.6570000000
  201      H      23.7590000000    17.3280000000    21.0450000000
  202      O      26.0140000000    15.3170000000    21.1130000000
  203      C      24.4700000000    26.2220000000    24.9530000000
  204      H      25.1160000000    27.0430000000    25.2750000000
  205      H      24.0440000000    26.4330000000    23.9690000000
  206      H      23.6940000000    26.2040000000    25.7220000000
  207      S      25.4330000000    24.6990000000    24.8260000000
  208      C      25.6450000000    24.5360000000    26.6130000000
  209      H      25.9320000000    25.5530000000    26.8930000000
  210      H      24.6620000000    24.3030000000    27.0300000000
  211      H      26.3900000000    23.7450000000    26.7330000000
  212      O      26.7450000000    25.1890000000    24.2950000000
  213      C      20.9650000000    22.8910000000    28.9240000000
  214      H      21.3450000000    22.5880000000    29.9030000000
  215      H      21.3560000000    22.3040000000    28.0890000000
  216      H      21.2560000000    23.9120000000    28.6640000000
  217      S      19.2070000000    22.5640000000    28.6640000000
  218      C      19.2020000000    20.8080000000    29.0900000000
  219      H      19.3760000000    20.6180000000    30.1520000000
  220      H      18.2880000000    20.3200000000    28.7440000000
  221      H      20.0550000000    20.3530000000    28.5800000000
  222      O      19.1510000000    22.4900000000    27.1700000000
  223      C      13.5240000000    19.5660000000    21.9920000000
  224      H      13.5530000000    18.7610000000    21.2540000000
  225      H      12.9630000000    19.2700000000    22.8810000000
  226      H      13.1880000000    20.5270000000    21.5940000000
  227      S      15.2660000000    19.7780000000    22.4260000000
  228      C      16.0000000000    20.6990000000    21.0560000000
  229      H      15.4720000000    21.6560000000    21.0560000000
  230      H      17.0830000000    20.7450000000    21.1970000000
  231      H      15.8700000000    20.2850000000    20.0540000000
  232      O      15.8320000000    18.3930000000    22.3650000000
  233      C      17.0180000000    25.1050000000    25.4570000000
  234      H      17.4560000000    25.1290000000    26.4580000000
  235      H      17.0020000000    26.1600000000    25.1720000000
  236      H      15.9820000000    24.7650000000    25.5330000000
  237      S      18.0350000000    24.0300000000    24.4200000000
  238      C      18.3120000000    25.3460000000    23.2130000000
  239      H      19.1040000000    24.8620000000    22.6370000000
  240      H      17.3310000000    25.5300000000    22.7690000000
  241      H      18.7800000000    26.1500000000    23.7870000000
  242      O      17.0780000000    23.0790000000    23.7710000000
  243      C      28.6360000000    23.6670000000    28.5270000000
  244      H      28.6760000000    23.9070000000    29.5920000000
  245      H      29.6020000000    23.9470000000    28.1000000000
  246      H      27.7840000000    24.2540000000    28.1750000000
  247      S      28.2760000000    21.9140000000    28.2750000000
  248      C      28.7350000000    22.0190000000    26.5300000000
  249      H      28.2560000000    22.8950000000    26.0850000000
  250      H      29.8220000000    22.0130000000    26.4200000000
  251      H      28.3630000000    21.1410000000    25.9950000000
  252      O      26.7880000000    21.7420000000    28.2750000000
  253      C      21.1030000000    13.2940000000    29.4170000000
  254      H      21.8930000000    12.7970000000    29.9860000000
  255      H      20.7030000000    14.2780000000    29.6750000000
  256      H      20.2550000000    12.6370000000    29.2100000000
  257      S      22.0450000000    13.6160000000    27.9080000000
  258      C      22.9150000000    12.0350000000    27.8190000000
  259      H      22.1980000000    11.2180000000    27.7100000000
  260      H      23.6010000000    12.2460000000    26.9950000000
  261      H      23.5280000000    12.0120000000    28.7240000000
  262      O      23.0440000000    14.6470000000    28.3330000000
  263      C      30.6370000000    25.9800000000    22.1370000000
  264      H      30.9580000000    26.1380000000    23.1700000000
  265      H      31.4520000000    25.5840000000    21.5260000000
  266      H      30.3640000000    26.9320000000    21.6750000000
  267      S      29.3030000000    24.7610000000    22.1550000000
  268      C      30.3570000000    23.4210000000    22.7540000000
  269      H      29.7670000000    22.5010000000    22.7210000000
  270      H      31.2900000000    23.3410000000    22.1910000000
  271      H      30.6200000000    23.5680000000    23.8050000000
  272      O      29.1160000000    24.4150000000    20.7100000000
  273      C      25.2270000000     9.7580000000    21.8850000000
  274      H      24.1410000000     9.6830000000    21.7920000000
  275      H      25.6140000000     9.4170000000    20.9210000000
  276      H      25.6010000000     9.1530000000    22.7140000000
  277      S      25.6480000000    11.4780000000    22.2450000000
  278      C      27.4430000000    11.2680000000    22.2630000000
  279      H      27.5630000000    10.4470000000    22.9740000000
  280      H      27.7440000000    11.0440000000    21.2370000000
  281      H      27.8730000000    12.1930000000    22.6570000000
  282      O      25.3590000000    11.6220000000    23.7070000000
 ----------------------------------------------------------------
 Nuclear Repulsion Energy =       45375.82438895 hartrees
 There are      581 alpha and      581 beta electrons
 Requested basis set is 6-31+G(d)
 There are 929 shells and 2589 basis functions

 Total QAlloc Memory Limit  12000 MB
 Mega-Array Size      3911 MB
 MEM_STATIC part      4000 MB

 A cutoff of  1.0D-14 yielded 167254 shell pairs
 There are   1452416 function pairs
 Smallest overlap matrix eigenvalue = 4.05E-07
 Linear dependence detected in AO basis
 Tighter screening thresholds may be required for diffuse basis sets
 Use S2THRESH > 14 and THRESH = 14 in case of SCF convergence issues
 Number of orthogonalized atomic orbitals = 2586
 Maximum deviation from orthogonality = 9.212E-11

 Scale SEOQF with 1.000000e-03/1.000000e-03/1.000000e-03

 Standard Electronic Orientation quadrupole field applied
 Nucleus-field energy     =    -0.0000003390 hartrees
 Guess from superposition of atomic densities
 Warning:  Energy on first SCF cycle will be non-variational
 SAD guess density has 1162.000002 electrons

 -----------------------------------------------------------------------
  General SCF calculation program by
  Eric Jon Sundstrom, Paul Horn, Yuezhi Mao, Dmitri Zuev, Alec White,
  David Stuck, Shaama M.S., Shane Yost, Joonho Lee, David Small,
  Daniel Levine, Susi Lehtola, Hugh Burton, Evgeny Epifanovsky,
  Bang C. Huynh
 -----------------------------------------------------------------------
=================================================
        Doing projection-based embedding         
      F. Manby et al. JCTC, 8, 2564 (2012)       
=================================================

****************************************************
   Low-level SCF calculation for the whole system   
****************************************************
----------------------------------------------
 Summary of the low-level theory: 
 Exchange:     0.2000 Hartree-Fock + 0.0800 Slater + 0.7200 B88
 Correlation:  0.1900 VWN1RPA + 0.8100 LYP
 Using Euler-Maclaurin-Lebedev (75,302) quadrature formula
----------------------------------------------
 using 16 threads for integral computing
 -------------------------------------------------------
 OpenMP Integral computing Module                
 Release: version 1.0, May 2013, Q-Chem Inc. Pittsburgh 
 -------------------------------------------------------
 A restricted SCF calculation will be
 performed using DIIS
 SCF converges when DIIS error is below 1.0e-08
 ---------------------------------------
  Cycle       Energy         DIIS error
 ---------------------------------------
    1  -14806.0979865182      1.37e-02  
    2  -14782.9255831164      2.54e-03  
    3  -14769.4797540197      4.92e-03  
    4  -14786.5343350779      1.13e-03  
    5  -14787.5385943628      1.84e-04  
    6  -14787.5517630978      1.44e-04  
    7  -14787.5642570328      5.30e-05  
    8  -14787.5661939860      1.19e-05  
    9  -14787.5662874265      5.21e-06  
   10  -14787.5663043253      1.94e-06  
   11  -14787.5663067333      4.93e-07  
   12  -14787.5663068903      1.94e-07  
   13  -14787.5663069155      6.72e-08  
   14  -14787.5663069181      2.89e-08  
   15  -14787.5663069187      6.73e-09  Convergence criterion met
 ---------------------------------------
 SCF time:   CPU 252631.82s  wall 18187.00s 
 SCF   energy in the final basis set =   -14787.5663069187
 Total energy in the final basis set =   -14787.5663069187

****************************************************
             Start embedding calculation            
****************************************************
----------------------------------------------
 Summary of the high-level theory: 
 Exchange:     0.2000 Hartree-Fock + 0.0800 Slater + 0.7200 B88
 Correlation:  0.1900 VWN1RPA + 0.8100 LYP
 Using Euler-Maclaurin-Lebedev (75,302) quadrature formula
----------------------------------------------
Doing R-in-R Embedding Calculation
Number of fragments: 2
Embedded fragment(s): 1 
NOcc for each fragment
           35
          546
NBasis for each fragment
          197
         2392
Variational space of the embedded problem: 
NOcc (active)  = 35
NOcc (fixed)   = 546
NVir (total)   = 2005
Read converged orbitals from disk
=========================================================
       Doing SPADE partition for the orbital space       
     D. Claudino and N. Mayhall JCTC 15, 1053 (2019)     
=========================================================
SPADE singular values:
 1.0000 1.0000 1.0000 1.0000 1.0000 1.0000 1.0000 1.0000 1.0000 0.9999
 0.9998 0.9998 0.9997 0.9996 0.9995 0.9992 0.9991 0.9990 0.9986 0.9980
 0.9976 0.9964 0.9964 0.9951 0.9941 0.9939 0.9936 0.9929 0.9924 0.9918
 0.9906 0.9895 0.9872 0.9855 0.9797 0.2048 0.1862 0.1743 0.1605 0.1453
 0.1420 0.1350 0.1255 0.1194 0.1092 0.1065 0.0857 0.0753 0.0716 0.0704
 0.0601 0.0552 0.0530 0.0497 0.0455 0.0437 0.0427 0.0384 0.0373 0.0361
 0.0325 0.0319 0.0301 0.0284 0.0256 0.0254 0.0238 0.0231 0.0213 0.0193
 0.0185 0.0167 0.0158 0.0148 0.0143 0.0136 0.0128 0.0122 0.0117 0.0109
 0.0107 0.0099 0.0098 0.0089 0.0084 0.0078 0.0069 0.0068 0.0066 0.0065
 0.0063 0.0060 0.0057 0.0056 0.0051 0.0047 0.0045 0.0044 0.0042 0.0040
 0.0036 0.0036 0.0033 0.0033 0.0029 0.0028 0.0027 0.0026 0.0025 0.0024
 0.0023 0.0021 0.0021 0.0020 0.0020 0.0019 0.0018 0.0018 0.0017 0.0016
 0.0016 0.0015 0.0015 0.0014 0.0013 0.0013 0.0012 0.0012 0.0012 0.0011
 0.0011 0.0010 0.0010 0.0010 0.0009 0.0009 0.0008 0.0008 0.0008 0.0007
 0.0007 0.0007 0.0006 0.0006 0.0006 0.0005 0.0005 0.0005 0.0005 0.0005
 0.0004 0.0004 0.0004 0.0004 0.0004 0.0004 0.0003 0.0003 0.0003 0.0003
 0.0003 0.0003 0.0003 0.0003 0.0002 0.0002 0.0002 0.0002 0.0002 0.0002
 0.0002 0.0002 0.0002 0.0002 0.0002 0.0002 0.0002 0.0002 0.0001 0.0001
 0.0001 0.0001 0.0001 0.0001 0.0001 0.0001 0.0001 0.0001 0.0001 0.0001
 0.0001 0.0001 0.0001 0.0001 0.0001 0.0001 0.0001
Early stop requested; no embedded SCF will be performed

 546 environment occs will be part of frozen-core in future post-HF calculations

 --------------------------------------------------------------

                    Orbital Energies (a.u.)
 --------------------------------------------------------------

 Alpha MOs
 -- Occupied --
-89.0329 -89.0220 -89.0218 -89.0201 -89.0186 -89.0172 -89.0117 -89.0074
-89.0069 -89.0060 -88.9981 -88.9981 -88.9959 -88.9937 -88.9915 -88.9889
-88.9863 -88.9858 -88.9853 -88.9836 -88.9834 -88.9786 -88.9771 -88.9752
-88.9604 -88.9371 -19.1498 -19.1421 -19.1392 -19.1355 -19.1344 -19.1319
-19.1280 -19.1230 -19.1191 -19.1189 -19.1168 -19.1161 -19.1149 -19.1118
-19.1095 -19.1083 -19.1066 -19.1018 -19.1017 -19.0990 -19.0935 -19.0903
-19.0897 -19.0881 -19.0742 -19.0560 -10.2460 -10.2431 -10.2416 -10.2409
-10.2402 -10.2372 -10.2370 -10.2339 -10.2318 -10.2315 -10.2303 -10.2293
-10.2275 -10.2253 -10.2248 -10.2243 -10.2240 -10.2240 -10.2231 -10.2224
-10.2201 -10.2190 -10.2183 -10.2153 -10.2151 -10.2148 -10.2140 -10.2139
-10.2137 -10.2132 -10.2123 -10.2073 -10.2063 -10.2049 -10.2048 -10.2036
-10.2029 -10.2025 -10.1996 -10.1978 -10.1966 -10.1965 -10.1960 -10.1955
-10.1940 -10.1901 -10.1865 -10.1858 -10.1770 -10.1766 -10.1583 -10.1514
 -8.0780  -8.0681  -8.0678  -8.0657  -8.0645  -8.0641  -8.0573  -8.0525
 -8.0524  -8.0519  -8.0451  -8.0449  -8.0419  -8.0396  -8.0366  -8.0354
 -8.0321  -8.0313  -8.0313  -8.0300  -8.0287  -8.0247  -8.0234  -8.0208
 -8.0068  -7.9835  -6.0425  -6.0412  -6.0357  -6.0325  -6.0322  -6.0312
 -6.0307  -6.0302  -6.0288  -6.0285  -6.0284  -6.0275  -6.0272  -6.0255
 -6.0255  -6.0233  -6.0221  -6.0215  -6.0214  -6.0203  -6.0171  -6.0170
 -6.0163  -6.0155  -6.0155  -6.0151  -6.0150  -6.0099  -6.0098  -6.0095
 -6.0094  -6.0093  -6.0082  -6.0082  -6.0062  -6.0049  -6.0039  -6.0028
 -6.0021  -6.0016  -6.0008  -5.9998  -5.9998  -5.9994  -5.9988  -5.9968
 -5.9966  -5.9957  -5.9956  -5.9954  -5.9944  -5.9943  -5.9941  -5.9941
 -5.9932  -5.9931  -5.9924  -5.9917  -5.9893  -5.9891  -5.9889  -5.9887
 -5.9880  -5.9876  -5.9874  -5.9864  -5.9863  -5.9854  -5.9839  -5.9820
 -5.9805  -5.9780  -5.9713  -5.9699  -5.9641  -5.9479  -5.9465  -5.9409
 -1.0563  -1.0520  -1.0496  -1.0470  -1.0468  -1.0431  -1.0354  -1.0343
 -1.0287  -1.0281  -1.0266  -1.0251  -1.0234  -1.0167  -1.0160  -1.0147
 -1.0137  -1.0112  -1.0112  -1.0082  -1.0078  -1.0065  -1.0050  -1.0001
 -0.9842  -0.9658  -0.8354  -0.8241  -0.8240  -0.8230  -0.8210  -0.8195
 -0.8117  -0.8113  -0.8107  -0.8093  -0.8084  -0.8072  -0.8021  -0.7972
 -0.7950  -0.7933  -0.7908  -0.7883  -0.7882  -0.7830  -0.7797  -0.7787
 -0.7776  -0.7766  -0.7635  -0.7546  -0.7524  -0.7505  -0.7472  -0.7429
 -0.7409  -0.7405  -0.7386  -0.7375  -0.7347  -0.7326  -0.7312  -0.7296
 -0.7290  -0.7249  -0.7217  -0.7204  -0.7199  -0.7169  -0.7148  -0.7117
 -0.7090  -0.7080  -0.7073  -0.7055  -0.6889  -0.6676  -0.6452  -0.6361
 -0.6338  -0.6332  -0.6327  -0.6286  -0.6222  -0.6188  -0.6172  -0.6157
 -0.6138  -0.6133  -0.6113  -0.6077  -0.6062  -0.6035  -0.5998  -0.5985
 -0.5975  -0.5963  -0.5954  -0.5923  -0.5864  -0.5853  -0.5727  -0.5468
 -0.5142  -0.5115  -0.5085  -0.5076  -0.5033  -0.5013  -0.4987  -0.4971
 -0.4954  -0.4938  -0.4917  -0.4909  -0.4905  -0.4899  -0.4875  -0.4872
 -0.4861  -0.4854  -0.4834  -0.4828  -0.4822  -0.4813  -0.4808  -0.4803
 -0.4788  -0.4783  -0.4778  -0.4764  -0.4763  -0.4753  -0.4743  -0.4736
 -0.4727  -0.4719  -0.4715  -0.4705  -0.4703  -0.4703  -0.4695  -0.4686
 -0.4684  -0.4681  -0.4679  -0.4676  -0.4655  -0.4646  -0.4639  -0.4637
 -0.4633  -0.4626  -0.4623  -0.4614  -0.4606  -0.4603  -0.4600  -0.4597
 -0.4590  -0.4576  -0.4563  -0.4562  -0.4561  -0.4537  -0.4528  -0.4523
 -0.4515  -0.4511  -0.4497  -0.4489  -0.4477  -0.4459  -0.4454  -0.4452
 -0.4448  -0.4447  -0.4440  -0.4434  -0.4426  -0.4415  -0.4399  -0.4394
 -0.4369  -0.4369  -0.4362  -0.4356  -0.4348  -0.4332  -0.4325  -0.4321
 -0.4309  -0.4304  -0.4296  -0.4292  -0.4282  -0.4251  -0.4249  -0.4231
 -0.4226  -0.4221  -0.4208  -0.4204  -0.4195  -0.4182  -0.4177  -0.4174
 -0.4172  -0.4168  -0.4164  -0.4160  -0.4148  -0.4146  -0.4138  -0.4136
 -0.4127  -0.4115  -0.4097  -0.4095  -0.4076  -0.4075  -0.4069  -0.4067
 -0.4057  -0.4047  -0.4042  -0.4036  -0.4035  -0.4027  -0.4016  -0.4012
 -0.4009  -0.3999  -0.3974  -0.3964  -0.3958  -0.3956  -0.3948  -0.3948
 -0.3941  -0.3940  -0.3936  -0.3930  -0.3922  -0.3908  -0.3901  -0.3887
 -0.3883  -0.3877  -0.3873  -0.3863  -0.3854  -0.3840  -0.3832  -0.3813
 -0.3806  -0.3802  -0.3751  -0.3733  -0.3723  -0.3720  -0.3709  -0.3697
 -0.3688  -0.3676  -0.3640  -0.3631  -0.3626  -0.3624  -0.3591  -0.3559
 -0.3541  -0.3510  -0.3502  -0.3489  -0.3488  -0.3459  -0.3457  -0.3446
 -0.3436  -0.3424  -0.3371  -0.3305  -0.3215  -0.3109  -0.3076  -0.3017
 -0.3002  -0.2957  -0.2942  -0.2934  -0.2898  -0.2844  -0.2830  -0.2793
 -0.2778  -0.2771  -0.2762  -0.2741  -0.2727  -0.2712  -0.2694  -0.2692
 -0.2682  -0.2661  -0.2656  -0.2647  -0.2636  -0.2616  -0.2602  -0.2576
 -0.2542  -0.2526  -0.2521  -0.2506  -0.2502  -0.2489  -0.2487  -0.2437
 -0.2428  -0.2380  -0.2379  -0.2348  -0.2326  -0.2324  -0.2287  -0.2253
 -0.2244  -0.2242  -0.2225  -0.2189  -0.2184  -0.2180  -0.2150  -0.2131
 -0.2005  -0.1817 -12.1865 -12.1711 -16.3216 -11.4843 -10.6173 -10.5114
-10.6542 -10.1355 -10.0940  -0.6967  -0.7047  -0.7339  -0.6243  -0.9957
 -0.7291  -0.6627  -0.6140  -0.4582  -0.4215  -0.4262  -0.4545  -0.4457
 -0.3465  -0.5080  -0.3624  -0.4280  -0.4645  -0.4458  -0.3867  -0.4145
 -0.4141  -0.4662  -0.4817  -0.5513  -0.4970
 -- Virtual --
 -0.0359  -0.0326  -0.0287  -0.0272  -0.0225  -0.0220  -0.0205  -0.0197
 -0.0179  -0.0171  -0.0155  -0.0146  -0.0133  -0.0126  -0.0101  -0.0085
 -0.0073  -0.0065  -0.0055  -0.0053  -0.0046  -0.0031  -0.0023   0.0001
  0.0005   0.0009   0.0012   0.0022   0.0028   0.0034   0.0045   0.0049
  0.0065   0.0072   0.0081   0.0094   0.0102   0.0119   0.0126   0.0129
  0.0141   0.0150   0.0155   0.0164   0.0170   0.0172   0.0179   0.0184
  0.0188   0.0195   0.0196   0.0212   0.0217   0.0224   0.0227   0.0228
  0.0236   0.0243   0.0247   0.0257   0.0271   0.0277   0.0281   0.0286
  0.0290   0.0303   0.0305   0.0306   0.0311   0.0317   0.0324   0.0337
  0.0350   0.0351   0.0358   0.0362   0.0369   0.0377   0.0386   0.0391
  0.0399   0.0407   0.0414   0.0424   0.0427   0.0434   0.0443   0.0444
  0.0457   0.0459   0.0463   0.0466   0.0478   0.0487   0.0493   0.0496
  0.0497   0.0505   0.0513   0.0519   0.0537   0.0538   0.0541   0.0546
  0.0558   0.0561   0.0563   0.0572   0.0575   0.0581   0.0590   0.0595
  0.0603   0.0607   0.0612   0.0620   0.0625   0.0628   0.0629   0.0634
  0.0648   0.0651   0.0659   0.0668   0.0669   0.0676   0.0683   0.0685
  0.0694   0.0702   0.0718   0.0719   0.0724   0.0732   0.0738   0.0739
  0.0746   0.0756   0.0763   0.0766   0.0771   0.0779   0.0782   0.0785
  0.0805   0.0811   0.0822   0.0831   0.0832   0.0844   0.0853   0.0854
  0.0860   0.0866   0.0868   0.0878   0.0882   0.0884   0.0896   0.0901
  0.0907   0.0916   0.0921   0.0929   0.0932   0.0936   0.0947   0.0953
  0.0956   0.0964   0.0974   0.0978   0.0980   0.0981   0.0994   0.1000
  0.1006   0.1010   0.1021   0.1029   0.1038   0.1047   0.1049   0.1055
  0.1062   0.1068   0.1074   0.1086   0.1093   0.1097   0.1103   0.1118
  0.1122   0.1127   0.1130   0.1136   0.1143   0.1151   0.1154   0.1158
  0.1171   0.1179   0.1180   0.1188   0.1195   0.1202   0.1202   0.1208
  0.1213   0.1226   0.1232   0.1240   0.1243   0.1247   0.1258   0.1263
  0.1269   0.1276   0.1283   0.1289   0.1295   0.1304   0.1308   0.1318
  0.1322   0.1330   0.1330   0.1338   0.1341   0.1346   0.1352   0.1357
  0.1370   0.1375   0.1378   0.1385   0.1391   0.1403   0.1405   0.1414
  0.1424   0.1431   0.1433   0.1439   0.1446   0.1447   0.1452   0.1460
  0.1463   0.1470   0.1478   0.1487   0.1488   0.1496   0.1503   0.1507
  0.1516   0.1521   0.1526   0.1536   0.1539   0.1541   0.1545   0.1549
  0.1561   0.1577   0.1578   0.1583   0.1587   0.1591   0.1595   0.1611
  0.1619   0.1623   0.1632   0.1637   0.1643   0.1647   0.1653   0.1656
  0.1661   0.1667   0.1676   0.1685   0.1691   0.1696   0.1697   0.1700
  0.1709   0.1713   0.1714   0.1725   0.1731   0.1742   0.1745   0.1751
  0.1758   0.1760   0.1766   0.1778   0.1780   0.1783   0.1792   0.1798
  0.1810   0.1810   0.1814   0.1816   0.1828   0.1836   0.1850   0.1852
  0.1862   0.1870   0.1878   0.1880   0.1887   0.1894   0.1898   0.1909
  0.1917   0.1926   0.1930   0.1944   0.1950   0.1954   0.1956   0.1964
  0.1970   0.1974   0.1983   0.1988   0.1998   0.2003   0.2006   0.2012
  0.2026   0.2034   0.2039   0.2043   0.2049   0.2052   0.2059   0.2064
  0.2072   0.2077   0.2086   0.2091   0.2097   0.2104   0.2108   0.2118
  0.2123   0.2131   0.2139   0.2143   0.2148   0.2152   0.2163   0.2166
  0.2172   0.2182   0.2187   0.2201   0.2203   0.2209   0.2214   0.2218
  0.2225   0.2232   0.2236   0.2247   0.2258   0.2259   0.2270   0.2282
  0.2284   0.2288   0.2292   0.2303   0.2310   0.2313   0.2326   0.2333
  0.2336   0.2342   0.2348   0.2350   0.2362   0.2366   0.2371   0.2382
  0.2387   0.2397   0.2404   0.2414   0.2421   0.2425   0.2438   0.2444
  0.2457   0.2460   0.2464   0.2467   0.2477   0.2480   0.2491   0.2499
  0.2504   0.2512   0.2521   0.2522   0.2529   0.2533   0.2546   0.2550
  0.2560   0.2570   0.2575   0.2582   0.2589   0.2591   0.2599   0.2607
  0.2613   0.2618   0.2625   0.2630   0.2642   0.2654   0.2660   0.2668
  0.2675   0.2684   0.2688   0.2698   0.2702   0.2709   0.2710   0.2725
  0.2729   0.2742   0.2747   0.2749   0.2762   0.2767   0.2775   0.2782
  0.2793   0.2798   0.2806   0.2813   0.2813   0.2819   0.2835   0.2839
  0.2849   0.2854   0.2862   0.2868   0.2880   0.2885   0.2894   0.2899
  0.2905   0.2912   0.2925   0.2944   0.2952   0.2956   0.2966   0.2970
  0.2977   0.2983   0.2987   0.3002   0.3014   0.3019   0.3025   0.3027
  0.3036   0.3045   0.3049   0.3060   0.3073   0.3080   0.3086   0.3099
  0.3105   0.3116   0.3126   0.3137   0.3142   0.3148   0.3150   0.3154
  0.3165   0.3174   0.3180   0.3190   0.3196   0.3218   0.3220   0.3226
  0.3232   0.3243   0.3254   0.3258   0.3267   0.3276   0.3281   0.3292
  0.3295   0.3307   0.3312   0.3318   0.3328   0.3334   0.3341   0.3357
  0.3362   0.3378   0.3388   0.3404   0.3407   0.3410   0.3416   0.3437
  0.3447   0.3458   0.3464   0.3472   0.3480   0.3486   0.3494   0.3501
  0.3506   0.3516   0.3527   0.3535   0.3554   0.3558   0.3572   0.3581
  0.3596   0.3601   0.3608   0.3626   0.3640   0.3643   0.3649   0.3665
  0.3672   0.3682   0.3683   0.3697   0.3704   0.3708   0.3724   0.3743
  0.3749   0.3757   0.3763   0.3766   0.3775   0.3784   0.3802   0.3812
  0.3818   0.3830   0.3844   0.3846   0.3855   0.3866   0.3877   0.3886
  0.3889   0.3897   0.3912   0.3916   0.3921   0.3926   0.3940   0.3950
  0.3953   0.3959   0.3977   0.3991   0.3995   0.4004   0.4014   0.4018
  0.4028   0.4039   0.4052   0.4065   0.4078   0.4085   0.4093   0.4095
  0.4103   0.4112   0.4119   0.4139   0.4147   0.4169   0.4171   0.4181
  0.4184   0.4200   0.4214   0.4221   0.4226   0.4232   0.4239   0.4253
  0.4272   0.4280   0.4289   0.4298   0.4299   0.4322   0.4331   0.4336
  0.4347   0.4358   0.4364   0.4371   0.4384   0.4397   0.4406   0.4417
  0.4434   0.4451   0.4458   0.4482   0.4484   0.4498   0.4512   0.4518
  0.4526   0.4541   0.4564   0.4572   0.4584   0.4594   0.4602   0.4617
  0.4630   0.4632   0.4645   0.4653   0.4672   0.4684   0.4704   0.4709
  0.4722   0.4734   0.4740   0.4750   0.4764   0.4787   0.4790   0.4808
  0.4816   0.4834   0.4846   0.4860   0.4867   0.4895   0.4909   0.4927
  0.4935   0.4948   0.4955   0.4972   0.4998   0.5025   0.5035   0.5044
  0.5067   0.5073   0.5079   0.5127   0.5131   0.5136   0.5155   0.5182
  0.5196   0.5204   0.5221   0.5246   0.5264   0.5284   0.5316   0.5339
  0.5342   0.5377   0.5378   0.5411   0.5422   0.5431   0.5454   0.5475
  0.5487   0.5494   0.5511   0.5523   0.5543   0.5553   0.5560   0.5567
  0.5584   0.5601   0.5613   0.5627   0.5644   0.5655   0.5676   0.5681
  0.5698   0.5719   0.5730   0.5745   0.5766   0.5770   0.5793   0.5803
  0.5826   0.5833   0.5848   0.5868   0.5876   0.5885   0.5904   0.5923
  0.5930   0.5961   0.5963   0.5974   0.5996   0.6007   0.6015   0.6022
  0.6040   0.6045   0.6062   0.6065   0.6100   0.6110   0.6117   0.6122
  0.6141   0.6149   0.6161   0.6178   0.6195   0.6212   0.6216   0.6220
  0.6239   0.6245   0.6265   0.6276   0.6291   0.6303   0.6306   0.6328
  0.6334   0.6344   0.6361   0.6378   0.6386   0.6393   0.6407   0.6421
  0.6428   0.6433   0.6447   0.6458   0.6491   0.6500   0.6519   0.6525
  0.6529   0.6546   0.6546   0.6568   0.6582   0.6588   0.6610   0.6624
  0.6633   0.6646   0.6653   0.6664   0.6667   0.6671   0.6687   0.6708
  0.6712   0.6732   0.6740   0.6750   0.6768   0.6791   0.6798   0.6811
  0.6815   0.6834   0.6862   0.6867   0.6873   0.6894   0.6905   0.6908
  0.6928   0.6942   0.6950   0.6962   0.6963   0.6982   0.7004   0.7015
  0.7021   0.7049   0.7057   0.7069   0.7073   0.7084   0.7095   0.7104
  0.7132   0.7137   0.7150   0.7155   0.7181   0.7188   0.7201   0.7209
  0.7225   0.7233   0.7249   0.7267   0.7269   0.7293   0.7298   0.7308
  0.7323   0.7340   0.7353   0.7365   0.7376   0.7385   0.7404   0.7414
  0.7422   0.7429   0.7455   0.7459   0.7466   0.7483   0.7508   0.7520
  0.7531   0.7533   0.7536   0.7557   0.7568   0.7584   0.7591   0.7611
  0.7622   0.7648   0.7649   0.7667   0.7699   0.7705   0.7709   0.7720
  0.7749   0.7765   0.7776   0.7807   0.7814   0.7831   0.7833   0.7844
  0.7863   0.7878   0.7884   0.7895   0.7934   0.7941   0.7960   0.7966
  0.7981   0.7993   0.8007   0.8030   0.8053   0.8060   0.8068   0.8087
  0.8106   0.8131   0.8138   0.8150   0.8164   0.8169   0.8191   0.8208
  0.8222   0.8234   0.8240   0.8261   0.8284   0.8302   0.8307   0.8318
  0.8337   0.8346   0.8356   0.8370   0.8376   0.8397   0.8402   0.8425
  0.8433   0.8450   0.8467   0.8472   0.8491   0.8506   0.8530   0.8544
  0.8557   0.8569   0.8572   0.8585   0.8590   0.8597   0.8608   0.8632
  0.8645   0.8649   0.8668   0.8680   0.8686   0.8693   0.8704   0.8712
  0.8732   0.8740   0.8754   0.8766   0.8786   0.8794   0.8811   0.8823
  0.8832   0.8842   0.8858   0.8875   0.8890   0.8899   0.8902   0.8915
  0.8945   0.8955   0.8969   0.8983   0.8991   0.8999   0.9008   0.9027
  0.9034   0.9062   0.9068   0.9090   0.9101   0.9110   0.9122   0.9144
  0.9156   0.9175   0.9190   0.9196   0.9200   0.9216   0.9240   0.9254
  0.9256   0.9265   0.9306   0.9315   0.9319   0.9324   0.9342   0.9354
  0.9364   0.9383   0.9390   0.9405   0.9414   0.9423   0.9443   0.9458
  0.9471   0.9478   0.9493   0.9501   0.9505   0.9527   0.9534   0.9547
  0.9563   0.9578   0.9588   0.9592   0.9611   0.9621   0.9629   0.9643
  0.9650   0.9666   0.9678   0.9681   0.9685   0.9702   0.9716   0.9725
  0.9739   0.9743   0.9751   0.9771   0.9781   0.9796   0.9808   0.9815
  0.9829   0.9836   0.9844   0.9854   0.9866   0.9873   0.9886   0.9894
  0.9914   0.9919   0.9924   0.9949   0.9958   0.9966   0.9971   0.9982
  0.9995   0.9999   1.0006   1.0017   1.0031   1.0042   1.0051   1.0055
  1.0074   1.0082   1.0094   1.0102   1.0121   1.0129   1.0146   1.0161
  1.0162   1.0167   1.0174   1.0177   1.0190   1.0218   1.0219   1.0234
  1.0246   1.0257   1.0263   1.0294   1.0303   1.0307   1.0335   1.0339
  1.0358   1.0361   1.0369   1.0381   1.0388   1.0400   1.0410   1.0420
  1.0438   1.0442   1.0458   1.0503   1.0506   1.0516   1.0534   1.0549
  1.0565   1.0569   1.0583   1.0593   1.0609   1.0625   1.0643   1.0650
  1.0658   1.0665   1.0689   1.0699   1.0717   1.0728   1.0744   1.0756
  1.0761   1.0765   1.0786   1.0807   1.0819   1.0842   1.0849   1.0862
  1.0865   1.0884   1.0899   1.0918   1.0923   1.0938   1.0951   1.0953
  1.0985   1.0999   1.1007   1.1009   1.1031   1.1043   1.1057   1.1064
  1.1087   1.1092   1.1094   1.1126   1.1132   1.1149   1.1162   1.1167
  1.1187   1.1204   1.1211   1.1222   1.1245   1.1253   1.1261   1.1273
  1.1280   1.1291   1.1302   1.1321   1.1323   1.1327   1.1357   1.1362
  1.1381   1.1387   1.1404   1.1406   1.1426   1.1442   1.1458   1.1472
  1.1478   1.1504   1.1517   1.1523   1.1536   1.1564   1.1585   1.1604
  1.1612   1.1632   1.1641   1.1660   1.1675   1.1691   1.1707   1.1714
  1.1737   1.1752   1.1767   1.1786   1.1792   1.1807   1.1828   1.1853
  1.1870   1.1879   1.1886   1.1904   1.1923   1.1937   1.1949   1.1960
  1.1980   1.1994   1.2009   1.2033   1.2052   1.2063   1.2088   1.2097
  1.2120   1.2125   1.2136   1.2154   1.2191   1.2213   1.2233   1.2248
  1.2269   1.2278   1.2285   1.2312   1.2326   1.2333   1.2341   1.2373
  1.2377   1.2406   1.2430   1.2470   1.2488   1.2490   1.2511   1.2531
  1.2563   1.2577   1.2602   1.2630   1.2653   1.2684   1.2695   1.2704
  1.2714   1.2727   1.2736   1.2756   1.2768   1.2801   1.2823   1.2845
  1.2866   1.2909   1.2928   1.2964   1.2979   1.3002   1.3053   1.3065
  1.3082   1.3105   1.3125   1.3142   1.3170   1.3174   1.3189   1.3227
  1.3245   1.3263   1.3275   1.3300   1.3340   1.3350   1.3360   1.3371
  1.3389   1.3422   1.3447   1.3457   1.3493   1.3531   1.3552   1.3563
  1.3577   1.3595   1.3623   1.3634   1.3645   1.3656   1.3694   1.3710
  1.3716   1.3742   1.3764   1.3770   1.3795   1.3807   1.3816   1.3824
  1.3838   1.3877   1.3879   1.3924   1.3935   1.3946   1.3951   1.3983
  1.3993   1.4005   1.4021   1.4042   1.4053   1.4056   1.4088   1.4099
  1.4108   1.4133   1.4138   1.4160   1.4178   1.4194   1.4208   1.4216
  1.4227   1.4245   1.4261   1.4277   1.4287   1.4310   1.4323   1.4333
  1.4343   1.4348   1.4357   1.4366   1.4390   1.4404   1.4417   1.4446
  1.4465   1.4478   1.4488   1.4531   1.4540   1.4561   1.4572   1.4583
  1.4596   1.4613   1.4641   1.4658   1.4683   1.4696   1.4710   1.4729
  1.4738   1.4755   1.4766   1.4772   1.4797   1.4820   1.4856   1.4860
  1.4881   1.4897   1.4932   1.4954   1.4987   1.5005   1.5015   1.5031
  1.5065   1.5084   1.5107   1.5120   1.5149   1.5193   1.5216   1.5221
  1.5235   1.5255   1.5273   1.5290   1.5325   1.5369   1.5375   1.5384
  1.5407   1.5420   1.5447   1.5501   1.5508   1.5538   1.5563   1.5580
  1.5613   1.5652   1.5680   1.5709   1.5717   1.5734   1.5785   1.5796
  1.5840   1.5863   1.5916   1.5928   1.5958   1.6010   1.6034   1.6042
  1.6124   1.6135   1.6181   1.6209   1.6248   1.6297   1.6306   1.6337
  1.6391   1.6458   1.6472   1.6503   1.6538   1.6568   1.6583   1.6596
  1.6617   1.6638   1.6659   1.6692   1.6701   1.6710   1.6745   1.6747
  1.6765   1.6795   1.6811   1.6819   1.6838   1.6846   1.6868   1.6877
  1.6883   1.6898   1.6920   1.6924   1.6942   1.6957   1.6965   1.6974
  1.6992   1.6998   1.7022   1.7033   1.7058   1.7069   1.7082   1.7089
  1.7093   1.7120   1.7124   1.7139   1.7142   1.7157   1.7177   1.7192
  1.7193   1.7210   1.7228   1.7253   1.7265   1.7290   1.7295   1.7318
  1.7325   1.7355   1.7360   1.7363   1.7374   1.7386   1.7403   1.7415
  1.7423   1.7450   1.7470   1.7486   1.7501   1.7516   1.7526   1.7547
  1.7557   1.7591   1.7601   1.7602   1.7611   1.7619   1.7630   1.7653
  1.7668   1.7676   1.7694   1.7716   1.7743   1.7760   1.7779   1.7789
  1.7809   1.7817   1.7824   1.7848   1.7856   1.7871   1.7885   1.7909
  1.7929   1.7946   1.7959   1.7978   1.7985   1.8028   1.8058   1.8075
  1.8082   1.8101   1.8135   1.8167   1.8182   1.8225   1.8234   1.8270
  1.8277   1.8322   1.8358   1.8363   1.8387   1.8403   1.8429   1.8470
  1.8510   1.8533   1.8576   1.8606   1.8620   1.8647   1.8683   1.8687
  1.8702   1.8715   1.8767   1.8800   1.8804   1.8823   1.8835   1.8853
  1.8865   1.8890   1.8899   1.8906   1.8914   1.8923   1.8936   1.8949
  1.8954   1.8970   1.8984   1.8985   1.9001   1.9009   1.9022   1.9039
  1.9059   1.9065   1.9099   1.9115   1.9125   1.9142   1.9164   1.9174
  1.9191   1.9210   1.9231   1.9238   1.9259   1.9287   1.9296   1.9307
  1.9324   1.9332   1.9352   1.9368   1.9373   1.9380   1.9393   1.9430
  1.9467   1.9477   1.9502   1.9525   1.9538   1.9569   1.9592   1.9594
  1.9621   1.9646   1.9667   1.9695   1.9721   1.9764   1.9808   1.9851
  1.9873   1.9927   1.9961   2.0029   2.0064   2.0132   2.0208   2.0298
  2.0312   2.0333   2.0390   2.0442   2.0457   2.0521   2.0539   2.0562
  2.0592   2.0612   2.0632   2.0644   2.0656   2.0678   2.0690   2.0699
  2.0718   2.0724   2.0736   2.0751   2.0774   2.0784   2.0799   2.0818
  2.0844   2.0860   2.0878   2.0892   2.0907   2.0920   2.0936   2.0986
  2.0998   2.1001   2.1015   2.1027   2.1036   2.1055   2.1058   2.1071
  2.1099   2.1106   2.1115   2.1130   2.1148   2.1158   2.1167   2.1184
  2.1196   2.1239   2.1277   2.1288   2.1297   2.1308   2.1322   2.1379
  2.1399   2.1470   2.1507   2.1529   2.1538   2.1586   2.1682   2.1698
  2.1782   2.1834   2.1853   2.1875   2.1915   2.1929   2.1978   2.1995
  2.2004   2.2027   2.2046   2.2053   2.2074   2.2102   2.2134   2.2142
  2.2159   2.2166   2.2175   2.2190   2.2202   2.2221   2.2264   2.2277
  2.2285   2.2301   2.2310   2.2334   2.2343   2.2357   2.2368   2.2370
  2.2388   2.2394   2.2403   2.2412   2.2412   2.2427   2.2433   2.2437
  2.2448   2.2460   2.2478   2.2498   2.2505   2.2523   2.2543   2.2550
  2.2559   2.2562   2.2575   2.2600   2.2611   2.2621   2.2639   2.2642
  2.2652   2.2656   2.2667   2.2689   2.2692   2.2706   2.2710   2.2725
  2.2727   2.2736   2.2745   2.2760   2.2768   2.2785   2.2788   2.2793
  2.2801   2.2809   2.2834   2.2836   2.2842   2.2845   2.2860   2.2874
  2.2883   2.2888   2.2893   2.2906   2.2918   2.2936   2.2940   2.2942
  2.2956   2.2968   2.2975   2.2989   2.3006   2.3007   2.3015   2.3023
  2.3040   2.3046   2.3059   2.3062   2.3068   2.3078   2.3094   2.3098
  2.3109   2.3120   2.3138   2.3142   2.3148   2.3158   2.3166   2.3189
  2.3206   2.3224   2.3232   2.3242   2.3272   2.3276   2.3288   2.3306
  2.3312   2.3324   2.3338   2.3358   2.3370   2.3390   2.3395   2.3420
  2.3431   2.3445   2.3465   2.3477   2.3485   2.3507   2.3528   2.3562
  2.3565   2.3573   2.3590   2.3616   2.3627   2.3650   2.3655   2.3678
  2.3703   2.3738   2.3765   2.3789   2.3825   2.3839   2.3856   2.3864
  2.3891   2.3913   2.3932   2.3961   2.3989   2.4095   2.4104   2.4188
  2.4306   2.4399   2.4842   2.4930   2.5402   2.5635   2.6212   2.6958
  2.7464   2.7546   2.7973   2.8168   2.8196   2.8236   2.8292   2.8311
  2.8332   2.8373   2.8428   2.8438   2.8468   2.8482   2.8509   2.8547
  2.8560   2.8586   2.8593   2.8621   2.8655   2.8697   2.8714   2.8736
  2.8799   2.8810   2.8837   2.8859   2.8886   2.8890   2.8936   2.9073
  2.9104   2.9882   3.1002   3.2770   3.9449   3.9537   3.9548   3.9593
  3.9681   3.9702   3.9736   3.9774   3.9791   3.9821   3.9883   3.9921
  3.9947   3.9954   3.9978   3.9999   4.0012   4.0054   4.0085   4.0163
  4.0210   4.0226   4.0289   4.0347   4.0410   4.0443   4.1764   4.2122
  4.2212   4.2288   4.2319   4.2328   4.2369   4.2405   4.2460   4.2470
  4.2496   4.2514   4.2549   4.2564   4.2632   4.2652   4.2677   4.2704
  4.2805   4.2823   4.2855   4.2880   4.2903   4.2930   4.2941   4.2959
  4.2984   4.3001   4.3037   4.3045   4.3063   4.3104   4.3153   4.3172
  4.3202   4.3235   4.3268   4.3289   4.3320   4.3347   4.3376   4.3393
  4.3421   4.3439   4.3445   4.3477   4.3518   4.3542   4.3587   4.3613
  4.3637   4.3688   4.3699   4.3735   4.3829   4.3849   4.3862   4.3910
  4.3956   4.3988   4.4056   4.4078   4.4118   4.4189   4.4251   4.4289
  4.4297   4.4443   4.4487   4.4521   4.4644   4.4808   4.4925   4.5159
  4.5248   4.5312   4.5494   4.5568   4.5731   4.5951   4.6407   4.6495
  4.6934   4.7289   4.7584   4.7719   4.8944
 --------------------------------------------------------------

          Ground-State Mulliken Net Atomic Charges

     Atom                 Charge (a.u.)
  ----------------------------------------
      1 C                    -0.035795
      2 C                    -0.504480
      3 C                    -0.265000
      4 C                    -0.468116
      5 C                    -0.867412
      6 C                    -0.984835
      7 H                     0.207595
      8 H                     0.226159
      9 H                     0.222988
     10 H                     0.244833
     11 H                     0.241133
     12 H                     0.231809
     13 H                     0.195116
     14 H                     0.208249
     15 H                     0.201482
     16 H                     0.220233
     17 H                     0.217793
     18 N                     0.228723
     19 H                     0.465592
     20 C                     0.004340
     21 H                     0.221047
     22 O                    -0.302846
     23 C                    -0.905247
     24 H                     0.243383
     25 H                     0.255332
     26 H                     0.320203
     27 S                     0.845910
     28 C                    -0.898766
     29 H                     0.264822
     30 H                     0.241214
     31 H                     0.221057
     32 O                    -0.614481
     33 C                    -0.836448
     34 H                     0.244120
     35 H                     0.229125
     36 H                     0.264568
     37 S                     0.808841
     38 C                    -0.696578
     39 H                     0.279851
     40 H                     0.227372
     41 H                     0.247033
     42 O                    -0.777329
     43 C                    -0.778513
     44 H                     0.259298
     45 H                     0.302518
     46 H                     0.276465
     47 S                     0.750926
     48 C                    -0.894137
     49 H                     0.223208
     50 H                     0.281699
     51 H                     0.250394
     52 O                    -0.728339
     53 C                    -0.829073
     54 H                     0.246051
     55 H                     0.254616
     56 H                     0.261298
     57 S                     0.955528
     58 C                    -0.836116
     59 H                     0.235543
     60 H                     0.244991
     61 H                     0.258691
     62 O                    -0.727391
     63 C                    -1.069573
     64 H                     0.272146
     65 H                     0.263631
     66 H                     0.263704
     67 S                     0.898890
     68 C                    -0.655752
     69 H                     0.246620
     70 H                     0.313088
     71 H                     0.240312
     72 O                    -0.694110
     73 C                    -0.959904
     74 H                     0.245918
     75 H                     0.303503
     76 H                     0.258260
     77 S                     1.028508
     78 C                    -0.783243
     79 H                     0.254168
     80 H                     0.247873
     81 H                     0.241432
     82 O                    -0.733762
     83 C                    -1.041759
     84 H                     0.291985
     85 H                     0.327438
     86 H                     0.240066
     87 S                     0.956747
     88 C                    -1.024392
     89 H                     0.215316
     90 H                     0.251974
     91 H                     0.264449
     92 O                    -0.616176
     93 C                    -0.829414
     94 H                     0.227822
     95 H                     0.288445
     96 H                     0.276863
     97 S                     0.570512
     98 C                    -0.862563
     99 H                     0.251470
    100 H                     0.246228
    101 H                     0.310322
    102 O                    -0.606924
    103 C                    -0.581492
    104 H                     0.266526
    105 H                     0.268631
    106 H                     0.274123
    107 S                     0.309788
    108 C                    -0.858594
    109 H                     0.274452
    110 H                     0.269489
    111 H                     0.251665
    112 O                    -0.548527
    113 C                    -0.860394
    114 H                     0.278940
    115 H                     0.305420
    116 H                     0.214100
    117 S                     0.934736
    118 C                    -0.853547
    119 H                     0.250709
    120 H                     0.211280
    121 H                     0.296485
    122 O                    -0.741579
    123 C                    -0.843797
    124 H                     0.253968
    125 H                     0.250265
    126 H                     0.254132
    127 S                     1.068340
    128 C                    -0.893114
    129 H                     0.250516
    130 H                     0.252071
    131 H                     0.217761
    132 O                    -0.731118
    133 C                    -0.997222
    134 H                     0.304852
    135 H                     0.285462
    136 H                     0.238918
    137 S                     1.093750
    138 C                    -1.043552
    139 H                     0.259495
    140 H                     0.255422
    141 H                     0.228895
    142 O                    -0.665036
    143 C                    -0.954213
    144 H                     0.276832
    145 H                     0.274144
    146 H                     0.279662
    147 S                     0.826396
    148 C                    -0.813100
    149 H                     0.265295
    150 H                     0.245919
    151 H                     0.244375
    152 O                    -0.644602
    153 C                    -0.760597
    154 H                     0.311010
    155 H                     0.262655
    156 H                     0.239312
    157 S                     0.638090
    158 C                    -0.813234
    159 H                     0.311252
    160 H                     0.232028
    161 H                     0.264012
    162 O                    -0.672530
    163 C                    -0.845424
    164 H                     0.267726
    165 H                     0.268011
    166 H                     0.295874
    167 S                     0.927649
    168 C                    -1.215346
    169 H                     0.280218
    170 H                     0.281601
    171 H                     0.321381
    172 O                    -0.678297
    173 C                    -0.904985
    174 H                     0.297322
    175 H                     0.272540
    176 H                     0.227786
    177 S                     0.644024
    178 C                    -0.821570
    179 H                     0.286639
    180 H                     0.280393
    181 H                     0.273233
    182 O                    -0.588479
    183 C                    -0.976971
    184 H                     0.230600
    185 H                     0.286407
    186 H                     0.245610
    187 S                     0.962694
    188 C                    -0.803530
    189 H                     0.279187
    190 H                     0.240233
    191 H                     0.231737
    192 O                    -0.726543
    193 C                    -1.046600
    194 H                     0.240447
    195 H                     0.282042
    196 H                     0.243664
    197 S                     1.281505
    198 C                    -1.145816
    199 H                     0.280723
    200 H                     0.262581
    201 H                     0.246240
    202 O                    -0.677694
    203 C                    -0.961500
    204 H                     0.255644
    205 H                     0.274271
    206 H                     0.274074
    207 S                     0.881628
    208 C                    -0.849766
    209 H                     0.239493
    210 H                     0.278683
    211 H                     0.221555
    212 O                    -0.636290
    213 C                    -0.751507
    214 H                     0.263820
    215 H                     0.236829
    216 H                     0.312468
    217 S                     0.725866
    218 C                    -0.803933
    219 H                     0.248616
    220 H                     0.303391
    221 H                     0.268127
    222 O                    -0.761700
    223 C                    -0.872655
    224 H                     0.268882
    225 H                     0.250881
    226 H                     0.222845
    227 S                     0.935402
    228 C                    -0.858812
    229 H                     0.240039
    230 H                     0.266814
    231 H                     0.250337
    232 O                    -0.655522
    233 C                    -1.116519
    234 H                     0.259249
    235 H                     0.236091
    236 H                     0.261066
    237 S                     1.106663
    238 C                    -0.759824
    239 H                     0.260301
    240 H                     0.244555
    241 H                     0.245107
    242 O                    -0.699449
    243 C                    -0.927927
    244 H                     0.259137
    245 H                     0.244773
    246 H                     0.272570
    247 S                     0.808098
    248 C                    -0.836039
    249 H                     0.282616
    250 H                     0.246490
    251 H                     0.269732
    252 O                    -0.555795
    253 C                    -0.564378
    254 H                     0.291922
    255 H                     0.242691
    256 H                     0.279143
    257 S                     0.122309
    258 C                    -0.599113
    259 H                     0.267411
    260 H                     0.261075
    261 H                     0.272133
    262 O                    -0.529406
    263 C                    -0.935008
    264 H                     0.221759
    265 H                     0.245172
    266 H                     0.254850
    267 S                     1.113019
    268 C                    -0.863278
    269 H                     0.302407
    270 H                     0.231427
    271 H                     0.220484
    272 O                    -0.701449
    273 C                    -0.848146
    274 H                     0.255652
    275 H                     0.244166
    276 H                     0.254834
    277 S                     0.946441
    278 C                    -0.793163
    279 H                     0.246275
    280 H                     0.243496
    281 H                     0.274654
    282 O                    -0.748357
  ----------------------------------------
  Sum of atomic charges =     0.000000

 -----------------------------------------------------------------
                    Cartesian Multipole Moments
 -----------------------------------------------------------------
    Charge (ESU x 10^10)
                -0.0000
    Dipole Moment (Debye)
         X      11.0498      Y      10.0721      Z       5.2960
       Tot      15.8617
    Quadrupole Moments (Debye-Ang)
        XX    -466.4070     XY     354.3279     YY    -515.0601
        XZ     465.4259     YZ     457.7126     ZZ    -625.4337
    Octopole Moments (Debye-Ang^2)
       XXX  -51210.6081    XXY   -6244.3642    XYY  -10362.9761
       YYY  -39454.8651    XXZ   -7292.8451    XYZ   15014.0450
       YYZ   -8449.6806    XZZ   -4764.4746    YZZ     600.1582
       ZZZ  -59371.6360
    Hexadecapole Moments (Debye-Ang^3)
      XXXX ************   XXXY -905512.0524   XXYY -541365.4771
      XYYY -890581.2244   YYYY ************   XXXZ ************
      XXYZ   -9213.2132   XYYZ -124669.5902   YYYZ -911460.9063
      XXZZ -615748.0761   XYZZ  146905.1383   YYZZ -417782.1172
      XZZZ ************   YZZZ -696121.0995   ZZZZ ************
 -----------------------------------------------------------------
 Total job time:  18477.04s(wall), 255572.31s(cpu) 
 Thu Jul 21 08:21:26 2022

        *************************************************************
        *                                                           *
        *  Thank you very much for using Q-Chem.  Have a nice day.  *
        *                                                           *
        *************************************************************


 
User input: 2 of 2 
 
                  Welcome to Q-Chem
     A Quantum Leap Into The Future Of Chemistry


 Q-Chem 6.0 (devel), Q-Chem, Inc., Pleasanton, CA (2022)

 E. Epifanovsky,  A. T. B. Gilbert,  Xintian Feng,  Joonho Lee,  Yuezhi Mao,  
 N. Mardirossian,  P. Pokhilko,  A. White,  M. Wormit,  M. P. Coons,  
 A. L. Dempwolff,  Zhengting Gan,  D. Hait,  P. R. Horn,  L. D. Jacobson,  
 I. Kaliman,  J. Kussmann,  A. W. Lange,  Ka Un Lao,  D. S. Levine,  Jie Liu,  
 S. C. McKenzie,  A. F. Morrison,  K. Nanda,  F. Plasser,  D. R. Rehn,  
 M. L. Vidal,  Zhi-Qiang You,  Ying Zhu,  B. Alam,  B. Albrecht,  
 A. Aldossary,  E. Alguire,  J. H. Andersen,  V. Athavale,  D. Barton,  
 K. Begam,  A. Behn,  N. Bellonzi,  Y. A. Bernard,  E. J. Berquist,  
 H. Burton,  A. Carreras,  K. Carter-Fenk,  Romit Chakraborty,  
 Chandrima Chakravarty,  Junhan Chen,  A. D. Chien,  K. D. Closser,  
 V. Cofer-Shabica,  L. Cunha,  S. Dasgupta,  Jia Deng,  M. de Wergifosse,  
 M. Diedenhofen,  Hainam Do,  S. Ehlert,  Po-Tung Fang,  S. Fatehi,  
 Qingguo Feng,  T. Friedhoff,  B. Ganoe,  J. Gayvert,  Qinghui Ge,  
 G. Gidofalvi,  M. Goldey,  J. Gomes,  C. Gonzalez-Espinoza,  S. Gulania,  
 A. Gunina,  J. A. Gyamfi,  M. W. D. Hanson-Heine,  P. H. P. Harbach,  
 A. W. Hauser,  M. F. Herbst,  M. Hernandez Vera,  M. Hodecker,  
[...]
    3  -2.0577116  -1.3217266   1.9658498   2.0210326   0.0459257   3.2195869
          187         188         189         190         191         192
    1  -0.2135250   1.7627771   0.4859752   2.4325307   2.1045671  -0.9690653
    2   1.5667246   0.8766254  -0.3487643   2.7028517   0.7450489   2.9734851
    3   1.9860161   1.2744804   0.4411349   0.3686386   3.3562609  -0.9475761
          193         194         195         196         197         198
    1  -1.0353188  -1.8842530  -0.1416346  -1.0090751   0.1705191  -0.1948791
    2  -1.5462568  -0.1732447  -1.5209127  -2.9512826  -0.8604339   0.7953519
    3  -2.9732604  -2.2848583  -4.6188468  -2.0655592  -0.9746068  -1.7115104
          199         200         201         202         203         204
    1  -0.8436315   1.5948083  -1.1032756   2.4377305  -0.6008003   0.9919181
    2   0.7219089   0.8200095   0.3524955  -1.2945034   3.6990966   4.5859589
    3   0.4694472  -2.3461228  -3.7095715  -3.5780552  -0.2246423   0.4006346
          205         206         207         208         209         210
    1  -0.8970950  -1.6352683  -0.0635080   0.6200021   1.2946164  -1.2741099
    2   3.5722501   3.0790610   1.5239417   1.8249410   4.0140641   1.3423879
    3  -2.2291868   1.2423272  -0.3894355   1.5236908   1.5785069   1.4623843
          211         212         213         214         215         216
    1   1.6758602   2.5341343   0.3133036   0.1278164   0.9608925  -0.0966461
    2   0.6115948   2.9255472   1.7442293   0.9407049   0.2805443   3.4676479
    3   0.8606203  -1.1138201   1.0638215   2.4587027  -0.6922512   0.2805205
          217         218         219         220         221         222
    1  -1.8054457  -1.4104532  -1.2613568  -2.9506209   0.5101957  -1.3037073
    2   1.8905398  -0.2644211   0.2513114  -0.3091625  -0.7675773   1.3236332
    3   1.7192942   1.4088726   2.9794897   0.8440866  -0.0543974  -1.3171895
          223         224         225         226         227         228
    1  -3.5038411  -2.7306925  -3.8268933  -3.2482373  -2.1872988  -1.0811104
    2   0.1154763  -1.5207317  -0.3832669   2.0182137   0.9757324   1.3580360
    3  -1.3253500  -2.7251088   0.6036979  -1.8171894  -0.8644095  -2.7677040
          229         230         231         232         233         234
    1  -2.2985546   0.5498899  -1.4352054  -1.2562939  -2.3679506  -1.2053275
    2   2.8193119   1.1218688   0.0610962  -2.1683953   2.7329625   2.5177632
    3  -2.1109311  -2.2237341  -4.0184009  -1.5614109   0.8313009   2.2931115
          235         236         237         238         239         240
    1  -1.8255964  -3.9401064  -0.8174515  -1.0178741   0.0754866  -2.8631771
    2   4.1108056   1.5521719   1.7799713   3.0713209   1.7726545   2.7437575
    3  -0.1150794   0.5662761  -0.1465881  -1.9306785  -2.8421872  -2.3389678
          241         242         243         244         245         246
    1  -0.1630746  -2.9846780   2.0926302   1.8961655   3.6393599   0.4568992
    2   4.1495634   0.1697989   2.7878097   2.4236498   2.6194984   3.3915023
    3  -0.1687283  -1.7299088   1.3430367   3.1419754   0.3358189   0.6179115
          247         248         249         250         251         252
    1   2.1906045   2.2077677   1.1919574   4.1185818   1.1082794  -1.0454545
    2   0.6327990   1.0401059   2.5919788   1.0630719  -0.4726867   0.4228857
    3   1.4032373  -0.6863105  -0.8888964  -0.2217905  -0.8055570   1.0207029
          253         254         255         256         257         258
    1  -1.6170072  -0.1981964  -1.7849083  -2.5339959  -0.9637961   0.5380045
    2  -1.9499415  -2.8227995   0.1213512  -3.2375590  -1.5249948  -3.6674475
    3   2.2109800   2.6943928   2.1290483   1.2640028   0.1855733   0.4877402
          259         260         261         262         263         264
    1  -1.1546564   1.7471131   1.3583371   1.1582399   2.3656418   2.5228855
    2  -4.5943099  -2.7033032  -3.2335170   0.6234005   2.7320974   2.4667481
    3   0.4572277  -0.8218367   1.8035428   1.0784297  -0.6176617   1.4382039
          265         266         267         268         269         270
    1   3.4943435   1.0823564   0.8908837   2.7202507   1.4388128   4.0263564
    2   1.3518165   3.7502390   2.0567325   0.4177552  -0.4344324   0.6080893
    3  -1.8306218  -1.4898045  -0.3061259  -0.0273881  -0.4270893  -1.2755453
          271         272         273         274         275         276
    1   2.8965315   0.6862948   0.0187936  -1.8820604   0.8797333   0.9243753
    2   1.1987762   1.2141445  -3.4852435  -2.9768951  -3.0449526  -4.0788212
    3   1.7330889  -3.6670677  -1.5287257  -1.5718531  -3.0477239   0.4902608
          277         278         279         280         281         282
    1   0.5119294   2.7334926   2.3650241   2.3911628   3.0526374   0.1722784
    2  -1.8072711  -2.1104975  -3.6777645  -2.1299306  -0.5934994  -2.2759096
    3  -2.1892223  -1.3301439   0.4180647  -3.1433068  -0.8054720   1.2802718
 EField
            1           2           3           4           5           6
    1  -0.0041331  -0.0021474  -0.0023830   0.0014844  -0.0033908  -0.0018002
    2  -0.0008704   0.0000826  -0.0019941   0.0000722   0.0042069   0.0042256
    3   0.0062736   0.0053502   0.0022575   0.0011064   0.0014562   0.0023292
            7           8           9          10          11          12
    1   0.0006398   0.0008027  -0.0077802  -0.0047926   0.0011640   0.0087740
    2  -0.0068767   0.0024610  -0.0054780  -0.0016611  -0.0034714  -0.0032076
    3   0.0012812   0.0055656  -0.0009977   0.0144587  -0.0043924   0.0053086
           13          14          15          16          17          18
    1  -0.0079514  -0.0062271   0.0007705   0.0015105  -0.0110224  -0.0021174
    2  -0.0005897   0.0101294   0.0097893   0.0024245  -0.0028544  -0.0011873
    3   0.0012506   0.0004813   0.0057129   0.0012698  -0.0013157   0.0083686
           19          20          21          22          23          24
    1   0.0017771  -0.0061662  -0.0179445  -0.0016771  -0.0146229   0.0096042
    2   0.0017434   0.0009303   0.0049080   0.0023252   0.0069985   0.0365313
    3   0.0136907   0.0107155   0.0043907   0.0146229  -0.0032759   0.0050697
           25          26          27          28          29          30
    1  -0.0264299  -0.0263048   0.0387574   0.0007644  -0.0314519   0.0152536
    2   0.0062922  -0.0141231  -0.0070592   0.0050682  -0.0011009   0.0335858
    3  -0.0228335   0.0117058   0.0283210  -0.0077930  -0.0165533   0.0022364
           31          32          33          34          35          36
    1   0.0260061  -0.0633381   0.0062519   0.0054954   0.0076531   0.0208039
    2  -0.0126428  -0.0788799  -0.0041238   0.0060188  -0.0317258   0.0147461
    3  -0.0144378  -0.0520248   0.0011496   0.0306634   0.0036670  -0.0163402
           37          38          39          40          41          42
    1  -0.0271319  -0.0023946  -0.0240851   0.0106130  -0.0225993   0.0347035
    2   0.0357456  -0.0062951  -0.0014708  -0.0296605  -0.0126523   0.0317456
    3   0.0343959  -0.0045758  -0.0220104  -0.0110371   0.0209946  -0.0999433
           43          44          45          46          47          48
    1  -0.0106908  -0.0223139  -0.0142305   0.0006973  -0.0078939   0.0017549
    2   0.0014410   0.0256768  -0.0270873   0.0046345  -0.0179832  -0.0062847
    3   0.0035169   0.0007527  -0.0089986   0.0298935  -0.0513920   0.0034120
           49          50          51          52          53          54
    1   0.0009070  -0.0164053   0.0309264   0.0473116  -0.0104644   0.0039503
    2   0.0025609  -0.0329876  -0.0099646   0.0890314  -0.0077470  -0.0235335
    3   0.0239019   0.0013055  -0.0039429   0.0381409   0.0033618  -0.0174996
           55          56          57          58          59          60
    1   0.0083562  -0.0313475  -0.0051150  -0.0020571  -0.0330864   0.0246604
    2  -0.0053208   0.0105572   0.0471289  -0.0008131   0.0082402   0.0145341
    3   0.0321002  -0.0057767   0.0185028  -0.0058609  -0.0088299  -0.0161162
           61          62          63          64          65          66
    1   0.0077656   0.0879283  -0.0039501  -0.0290448   0.0005466   0.0138919
    2  -0.0283180  -0.0654793  -0.0044904  -0.0074728   0.0225781  -0.0244465
    3  -0.0064541   0.0188223  -0.0024688   0.0105061  -0.0214467  -0.0152753
           67          68          69          70          71          72
    1   0.0543047  -0.0051802   0.0182681  -0.0266205   0.0007424  -0.0522512
    2  -0.0036940  -0.0060847   0.0011181   0.0147698  -0.0390413   0.0937051
    3  -0.0054698   0.0063224   0.0239969   0.0078189   0.0074596   0.0229155
           73          74          75          76          77          78
    1   0.0037075  -0.0130552  -0.0038558   0.0263325   0.0283493  -0.0006104
    2   0.0006043   0.0249047  -0.0042787   0.0028273  -0.0480589   0.0024466
    3   0.0102790   0.0129493   0.0363153  -0.0055902  -0.0094004  -0.0038443
           79          80          81          82          83          84
    1  -0.0131883   0.0208659  -0.0240136  -0.1058359  -0.0022251  -0.0180424
    2   0.0278686  -0.0023258  -0.0018565   0.0042841   0.0067365  -0.0063637
    3   0.0048000  -0.0281024  -0.0226568   0.0285116  -0.0013068  -0.0310665
           85          86          87          88          89          90
    1  -0.0049053   0.0328811   0.0509656  -0.0050079   0.0297320  -0.0071564
    2   0.0037364   0.0068940  -0.0103451  -0.0027698  -0.0007437  -0.0324753
    3   0.0305002  -0.0060600   0.0315232  -0.0065012  -0.0087555  -0.0035555
           91          92          93          94          95          96
    1  -0.0270092  -0.0999452   0.0054605  -0.0052932   0.0103408   0.0241025
    2   0.0034001  -0.0201879  -0.0036223  -0.0314020   0.0024994   0.0021055
    3  -0.0198664   0.0426495  -0.0012180   0.0044549  -0.0286399   0.0199577
           97          98          99         100         101         102
    1  -0.0514417  -0.0001486  -0.0017024   0.0260347  -0.0081654   0.0245642
    2  -0.0098577   0.0063201   0.0356146   0.0020148  -0.0067045   0.0416904
    3  -0.0209315  -0.0076416   0.0069050   0.0091625  -0.0315345   0.0979062
          103         104         105         106         107         108
    1   0.0052066   0.0255936  -0.0101145   0.0047300   0.0368649  -0.0024861
    2   0.0098750   0.0076999   0.0302480  -0.0068216  -0.0470301   0.0053504
    3   0.0037367  -0.0146705   0.0007962   0.0289600  -0.0053573  -0.0076294
          109         110         111         112         113         114
    1  -0.0212808   0.0273251  -0.0103400  -0.0902676  -0.0002478   0.0255927
    2   0.0233398   0.0124197  -0.0214710  -0.0013414   0.0041999   0.0170129
    3   0.0079764  -0.0133384  -0.0203214   0.0600679  -0.0081299  -0.0083517
          115         116         117         118         119         120
    1  -0.0080588  -0.0267488  -0.0327520   0.0035482   0.0099489  -0.0267952
    2  -0.0174910   0.0237013  -0.0419941   0.0054315   0.0269226   0.0068344
    3  -0.0248589   0.0050451   0.0128706   0.0060199  -0.0158884   0.0253345
          121         122         123         124         125         126
    1   0.0110594   0.1077051  -0.0040286  -0.0085226  -0.0046198  -0.0207252
    2  -0.0118894  -0.0089025   0.0084754   0.0229126   0.0072354  -0.0184528
    3   0.0291923  -0.0171177  -0.0008154   0.0189132  -0.0307680  -0.0001259
          127         128         129         130         131         132
    1   0.0033053   0.0030393   0.0256084  -0.0021812  -0.0073254   0.0037636
    2  -0.0274169   0.0078904  -0.0196979   0.0161191   0.0255742  -0.0537941
    3   0.0498943  -0.0044248  -0.0063758  -0.0297631   0.0207952  -0.0968325
          133         134         135         136         137         138
    1  -0.0000922   0.0256764  -0.0032886  -0.0037717   0.0051231  -0.0060782
    2   0.0097413   0.0127250   0.0210281   0.0304670  -0.0318973   0.0037683
    3  -0.0019979   0.0146062  -0.0281402   0.0211468  -0.0450780   0.0028997
          139         140         141         142         143         144
    1  -0.0087349   0.0048296  -0.0231687   0.0560236   0.0034528  -0.0025904
    2  -0.0274311   0.0133970   0.0128892  -0.0249429  -0.0033952  -0.0311706
    3   0.0080349   0.0329716  -0.0256186   0.0976318  -0.0127726  -0.0176586
          145         146         147         148         149         150
    1  -0.0164861   0.0284055   0.0014356   0.0050275  -0.0033002   0.0225642
    2   0.0096043   0.0240071   0.0640943  -0.0060034  -0.0337893   0.0202442
    3  -0.0265336  -0.0149865   0.0103798  -0.0013592  -0.0039471  -0.0147518
          151         152         153         154         155         156
    1   0.0059102  -0.0843553  -0.0033804  -0.0177870  -0.0171721   0.0178401
    2   0.0046899  -0.0599878   0.0086186   0.0091373   0.0017458   0.0292973
    3   0.0290406   0.0343331  -0.0060103  -0.0313991   0.0245338   0.0233039
          157         158         159         160         161         162
    1   0.0360744   0.0004271  -0.0155792   0.0260340   0.0013795  -0.0842358
    2  -0.0121146   0.0040990   0.0119306   0.0145338  -0.0273747  -0.0686378
    3   0.0512383  -0.0079114  -0.0317749   0.0144884  -0.0184339  -0.0171462
          163         164         165         166         167         168
    1   0.0035519  -0.0136479   0.0328305  -0.0190883  -0.0014080   0.0016285
    2   0.0077389   0.0245850  -0.0033791   0.0107160  -0.0195225  -0.0052632
    3  -0.0026800   0.0130822   0.0071326  -0.0277585   0.0450341  -0.0100278
          169         170         171         172         173         174
    1   0.0134118   0.0240369  -0.0224624  -0.0871282   0.0070565  -0.0020787
    2   0.0148527  -0.0165034  -0.0156628   0.0118772  -0.0064645  -0.0316607
    3  -0.0203268   0.0115311  -0.0201440  -0.0752037   0.0023040   0.0166498
          175         176         177         178         179         180
    1   0.0255494  -0.0020083  -0.0519565   0.0030853   0.0023437  -0.0200166
    2   0.0119677   0.0114294  -0.0029885  -0.0076535  -0.0342782  -0.0072297
    3  -0.0165129   0.0265574   0.0238401  -0.0046534   0.0092115  -0.0218969
          181         182         183         184         185         186
    1   0.0316419   0.0444162   0.0022850   0.0320115  -0.0094018  -0.0130065
    2  -0.0065984   0.0858841   0.0056691   0.0014410   0.0213099   0.0144943
    3  -0.0107826  -0.0478175  -0.0006783   0.0111897  -0.0211217   0.0246439
          187         188         189         190         191         192
    1  -0.0372485   0.0018615   0.0033297   0.0241826   0.0220673  -0.0367471
    2  -0.0297331  -0.0022124  -0.0237798   0.0072915  -0.0142035   0.0395711
    3   0.0391146  -0.0017464  -0.0215502  -0.0244893   0.0250912  -0.0947614
          193         194         195         196         197         198
    1  -0.0071552  -0.0339247   0.0160530  -0.0070070   0.0013439   0.0013101
    2  -0.0033936   0.0071569   0.0087909  -0.0262770  -0.0174368   0.0070380
    3  -0.0046781  -0.0085146  -0.0303289   0.0134169   0.0509552  -0.0029362
          199         200         201         202         203         204
    1  -0.0096111   0.0229057  -0.0143088   0.0821905  -0.0056789   0.0276664
    2   0.0220174   0.0234453   0.0133472  -0.0193504   0.0091440   0.0217917
    3   0.0222269  -0.0033791  -0.0243444  -0.0722922  -0.0000104   0.0005921
          205         206         207         208         209         210
    1  -0.0178794  -0.0311959  -0.0316515  -0.0001887   0.0161166  -0.0243005
    2   0.0079489  -0.0076745  -0.0433385  -0.0009853   0.0232715  -0.0113760
    3  -0.0241008   0.0163809  -0.0204526   0.0051452   0.0203643   0.0224549
          211         212         213         214         215         216
    1   0.0110897   0.0947969   0.0107075   0.0119817   0.0212697   0.0039448
    2  -0.0220393   0.0353576  -0.0008170  -0.0099989  -0.0237235   0.0333227
    3   0.0162335  -0.0420917  -0.0018150   0.0290896  -0.0192435   0.0021077
          217         218         219         220         221         222
    1  -0.0338615   0.0039315   0.0049590  -0.0238266   0.0237892  -0.0047959
    2   0.0291864  -0.0143033  -0.0079975  -0.0169504  -0.0194344  -0.0050899
    3   0.0335688   0.0009449   0.0322043  -0.0122506  -0.0158432  -0.1072860
          223         224         225         226         227         228
    1  -0.0049035  -0.0080532  -0.0162563  -0.0224149   0.0062744   0.0012481
    2  -0.0030261  -0.0242559  -0.0090876   0.0244445   0.0326167   0.0048765
    3  -0.0053917  -0.0227286   0.0246821  -0.0147199   0.0519068  -0.0084122
          229         230         231         232         233         234
    1  -0.0005903   0.0268514  -0.0097767   0.0406847  -0.0048826   0.0106028
    2   0.0387863   0.0114353  -0.0229743  -0.1023402   0.0041597  -0.0072680
    3   0.0008424   0.0127905  -0.0285448  -0.0031159   0.0074552   0.0328839
          235         236         237         238         239         240
    1  -0.0012599  -0.0267209   0.0527642   0.0043826   0.0218230  -0.0222676
    2   0.0288883  -0.0177583  -0.0135475   0.0009818   0.0045268   0.0099658
    3  -0.0163949  -0.0013488   0.0268141  -0.0028914  -0.0334070  -0.0217048
          241         242         243         244         245         246
    1   0.0146854  -0.0687241  -0.0021136   0.0033709   0.0248260  -0.0194347
    2   0.0304371  -0.0704229   0.0100150   0.0022501   0.0122659   0.0168375
    3   0.0058501  -0.0445652   0.0026744   0.0338979  -0.0161556  -0.0181964
          247         248         249         250         251         252
    1   0.0367206  -0.0011820  -0.0083011   0.0321350  -0.0139949  -0.1108269
    2  -0.0343124   0.0001619   0.0250356   0.0053100  -0.0222459  -0.0161419
    3   0.0286068  -0.0100508  -0.0175494  -0.0066817  -0.0140061   0.0003394
          253         254         255         256         257         258
    1  -0.0015197   0.0074743  -0.0093220  -0.0261967  -0.0410746   0.0068898
    2  -0.0036856  -0.0095345   0.0259645  -0.0195352   0.0057737  -0.0028343
    3   0.0087018   0.0446608   0.0207481  -0.0026615  -0.0487522   0.0038828
          259         260         261         262         263         264
    1  -0.0144990   0.0183107   0.0110094   0.0687146   0.0062459   0.0139737
    2  -0.0269900  -0.0131208  -0.0143613   0.0798239   0.0035334   0.0101982
    3  -0.0063651  -0.0284003   0.0280057   0.0279045  -0.0020337   0.0294855
          265         266         267         268         269         270
    1   0.0242028  -0.0162643  -0.0448698   0.0023812  -0.0131579   0.0228541
    2  -0.0127954   0.0258345   0.0133838  -0.0073810  -0.0299788  -0.0028391
    3  -0.0178828  -0.0110916   0.0376323   0.0019767  -0.0028540  -0.0217228
          271         272         273         274         275         276
    1   0.0075328  -0.0159757  -0.0016077  -0.0320541   0.0162635   0.0064302
    2   0.0054281  -0.0239086  -0.0084446  -0.0047248  -0.0116558  -0.0210693
    3   0.0331568  -0.1061623   0.0003088   0.0042665  -0.0277938   0.0246646
          277         278         279         280         281         282
    1  -0.0165815   0.0061113   0.0162967   0.0217361   0.0145677  -0.0223864
    2   0.0368871  -0.0013361  -0.0237093  -0.0066272   0.0251079   0.0107230
    3  -0.0414149   0.0011104   0.0195697  -0.0271842   0.0054296   0.1066597
  --- DONE ESP SUMMARY ---
 Total job time:  29.35s(wall), 75.45s(cpu) 
 Thu Jul 21 08:21:56 2022

        *************************************************************
        *                                                           *
        *  Thank you very much for using Q-Chem.  Have a nice day.  *
        *                                                           *
        *************************************************************


