                  Welcome to Q-Chem
     A Quantum Leap Into The Future Of Chemistry


 Q-Chem 6.0 (devel), Q-Chem, Inc., Pleasanton, CA (2022)

 E. Epifanovsky,  A. T. B. Gilbert,  Xintian Feng,  Joonho Lee,  Yuezhi Mao,  
 N. Mardirossian,  P. Pokhilko,  A. White,  M. Wormit,  M. P. Coons,  
 A. L. Dempwolff,  Zhengting Gan,  D. Hait,  P. R. Horn,  L. D. Jacobson,  
 I. Kaliman,  J. Kussmann,  A. W. Lange,  Ka Un Lao,  D. S. Levine,  Jie Liu,  
 S. C. McKenzie,  A. F. Morrison,  K. Nanda,  F. Plasser,  D. R. Rehn,  
 M. L. Vidal,  Zhi-Qiang You,  Ying Zhu,  B. Alam,  B. Albrecht,  
 A. Aldossary,  E. Alguire,  J. H. Andersen,  V. Athavale,  D. Barton,  
 K. Begam,  A. Behn,  N. Bellonzi,  Y. A. Bernard,  E. J. Berquist,  
 H. Burton,  A. Carreras,  K. Carter-Fenk,  Romit Chakraborty,  
 Chandrima Chakravarty,  Junhan Chen,  A. D. Chien,  K. D. Closser,  
 V. Cofer-Shabica,  L. Cunha,  S. Dasgupta,  Jia Deng,  M. de Wergifosse,  
 M. Diedenhofen,  Hainam Do,  S. Ehlert,  Po-Tung Fang,  S. Fatehi,  
 Qingguo Feng,  T. Friedhoff,  B. Ganoe,  J. Gayvert,  Qinghui Ge,  
 G. Gidofalvi,  M. Goldey,  J. Gomes,  C. Gonzalez-Espinoza,  S. Gulania,  
 A. Gunina,  J. A. Gyamfi,  M. W. D. Hanson-Heine,  P. H. P. Harbach,  
 A. W. Hauser,  M. F. Herbst,  M. Hernandez Vera,  M. Hodecker,  
 Z. C. Holden,  S. Houck,  Xunkun Huang,  Kerwin Hui,  B. C. Huynh,  
 K. Ikeda,  M. Ivanov,  Hyunjun Ji,  Zuxin Jin,  Hanjie Jiang,  B. Kaduk,  
 S. Kaehler,  R. Kang,  K. Khistyaev,  Jaehoon Kim,  Yongbin Kim,  
 P. Klunzinger,  Z. Koczor-Benda,  Joong Hoon Koh,  D. Kosenkov,  
 Saikiran Kotaru,  L. Koulias,  T. Kowalczyk,  C. M. Krauter,  K. Kue,  
 A. Kunitsa,  T. Kus,  A. Landau,  K. V. Lawler,  D. Lefrancois,  S. Lehtola,  
 Rain Li,  Shaozhi Li,  Yi-Pei Li,  Jiashu Liang,  M. Liebenthal,  
 Hung-Hsuan Lin,  You-Sheng Lin,  Fenglai Liu,  Kuan-Yu Liu,  
 M. Loipersberger,  A. Luenser,  C. Malbon,  A. Manjanath,  P. Manohar,  
 E. Mansoor,  S. F. Manzer,  Shan-Ping Mao,  A. V. Marenich,  T. Markovich,  
 S. Mason,  F. Matz,  S. A. Maurer,  P. F. McLaughlin,  M. F. S. J. Menger,  
 J.-M. Mewes,  S. A. Mewes,  P. Morgante,  Mohammad Mostafanejad,  
 J. W. Mullinax,  K. J. Oosterbaan,  G. Paran,  V. Parravicini,  
 Alexander C. Paul,  Suranjan K. Paul,  F. Pavosevic,  Zheng Pei,  S. Prager,  
 E. I. Proynov,  E. Ramos,  B. Rana,  A. E. Rask,  A. Rettig,  R. M. Richard,  
 F. Rob,  E. Rossomme,  T. Scheele,  M. Scheurer,  M. Schneider,  
 P. E. Schneider,  N. Sergueev,  S. M. Sharada,  Hengyuan Shen,  
 W. Skomorowski,  D. W. Small,  C. J. Stein,  Yingli Su,  Yu-Chuan Su,  
 E. J. Sundstrom,  Zhen Tao,  J. Thirman,  Hung-Yi Tsai,  T. Tsuchimochi,  
 N. M. Tubman,  C. Utku,  S. P. Veccham,  O. Vydrov,  J. Wenzel,  
 Jonathan Wong,  J. Witte,  A. Yamada,  Chou-Hsun Yang,  Kun Yao,  
 S. Yeganeh,  S. R. Yost,  A. Zech,  F. Zeller,  Igor Ying Zhang,  
 Xing Zhang,  Yu Zhang,  D. Zuev,  A. Aspuru-Guzik,  A. T. Bell,  
 N. A. Besley,  K. B. Bravaya,  B. R. Brooks,  D. Casanova,  Jeng-Da Chai,  
 Hsing-Ta Chen,  S. Coriani,  C. J. Cramer,  A. E. DePrince, III,  
 R. A. DiStasio Jr.,  A. Dreuw,  B. D. Dunietz,  T. R. Furlani,  
 W. A. Goddard III,  S. Grimme,  S. Hammes-Schiffer,  T. Head-Gordon,  
 W. J. Hehre,  Chao-Ping Hsu,  T.-C. Jagau,  Yousung Jung,  A. Klamt,  
 Jing Kong,  D. S. Lambrecht,  Xiangyuan Li,  WanZhen Liang,  N. J. Mayhall,  
 C. W. McCurdy,  J. B. Neaton,  T. Neudecker,  C. Ochsenfeld,  
 J. A. Parkhill,  R. Peverati,  V. A. Rassolov,  Haisheng Ren,  Yihan Shao,  
 L. V. Slipchenko,  R. P. Steele,  J. E. Subotnik,  A. J. W. Thom,  
 A. Tkatchenko,  D. G. Truhlar,  T. Van Voorhis,  Fan Wang,  
 T. A. Wesolowski,  K. B. Whaley,  H. L. Woodcock III,  P. M. Zimmerman,  
 S. Faraji,  P. M. W. Gill,  M. Head-Gordon,  J. M. Herbert,  A. I. Krylov

 Contributors to earlier versions of Q-Chem not listed above: 
 R. D. Adamson,  B. Austin,  R. Baer,  J. Baker,  G. J. O. Beran,  
 K. Brandhorst,  S. T. Brown,  E. F. C. Byrd,  Arup K. Chakraborty,  
 G. K. L. Chan,  Chun-Min Chang,  Yunqing Chen,  C.-L. Cheng,  
 Siu Hung Chien,  D. M. Chipman,  D. L. Crittenden,  H. Dachsel,  
 R. J. Doerksen,  A. D. Dutoi,  R. G. Edgar,  J. Fosso-Tande,  
 L. Fusti-Molnar,  D. Ghosh,  A. Ghysels,  A. Golubeva-Zadorozhnaya,  
 J. Gonthier,  M. S. Gordon,  S. R. Gwaltney,  G. Hawkins,  J. E. Herr,  
 A. Heyden,  S. Hirata,  E. G. Hohenstein,  G. Kedziora,  F. J. Keil,  
 C. Kelley,  Jihan Kim,  R. A. King,  R. Z. Khaliullin,  P. P. Korambath,  
 W. Kurlancheek,  A. Laurent,  A. M. Lee,  M. S. Lee,  S. V. Levchenko,  
 Ching Yeh Lin,  D. Liotard,  E. Livshits,  R. C. Lochan,  I. Lotan,  
 L. A. Martinez-Martinez,  P. E. Maslen,  N. Nair,  D. P. O'Neill,  
 D. Neuhauser,  E. Neuscamman,  C. M. Oana,  R. Olivares-Amaya,  R. Olson,  
 T. M. Perrine,  B. Peters,  P. A. Pieniazek,  A. Prociuk,  Y. M. Rhee,  
 J. Ritchie,  M. A. Rohrdanz,  E. Rosta,  N. J. Russ,  H. F. Schaefer III,  
 M. W. Schmidt,  N. E. Schultz,  S. Sharma,  N. Shenvi,  C. D. Sherrill,  
 A. C. Simmonett,  A. Sodt,  T. Stein,  D. Stuck,  K. S. Thanthiriwatte,  
 V. Vanovschi,  L. Vogt,  Tao Wang,  A. Warshel,  M. A. Watson,  
 C. F. Williams,  Q. Wu,  X. Xu,  Jun Yang,  W. Zhang,  Yan Zhao

   Please cite Q-Chem as follows:
  "Software for the frontiers of quantum chemistry:
   An overview of developments in the Q-Chem 5 package"
   J. Chem. Phys. 155, 084801 (2021)
   https://doi.org/10.1063/5.0055522 (open access)

 Q-Chem 6.0.0 for Intel X86 EM64T Linux

 Parts of Q-Chem use Armadillo 9.900.5 (Nocturnal Misbehaviour).
 http://arma.sourceforge.net/

 Q-Chem begins on Thu Jul 21 03:13:29 2022  

 Host: nid00527
0

     Scratch files written to /global/cscratch1/sd/ymao90/r7.00_frame_0010_spade_B3LYP_dp20220721031313//
 Processing $rem in /global/homes/y/ymao90/my_qchem/qchem_embedding_5p4/config/preferences:
 Processing $rem in /global/homes/y/ymao90/.qchemrc:
 No nuclear gradient supported for projection-based embedding or EMFT. Set max ideriv = 0.

 Checking the input file for inconsistencies... 	...done.

--------------------------------------------------------------
User input:
--------------------------------------------------------------
$molecule
0 1
--
0 1
C    24.72100   18.89300   29.77200  
C    24.77900   17.46600   29.20300  
C    24.33600   17.40700   27.73200  
C    25.19200   18.31000   26.82800  
C    25.31600   19.76400   27.31100  
C    25.52800   19.80400   28.83300  
H    24.35200   16.35300   27.42900  
H    25.85100   17.24300   29.27600  
H    23.69500   19.27800   29.73600  
H    25.03000   18.97100   30.82200  
H    26.21600   17.91900   26.85900  
H    24.86900   18.16200   25.79000  
H    26.05000   20.21000   26.62800  
H    24.41400   20.25600   26.92700  
H    26.59400   19.60700   28.99800  
H    25.52900   20.85000   29.16200  
H    23.29700   17.75500   27.78500  
N    24.04000   16.45400   29.95500  
H    23.09900   16.18000   29.69900  
C    24.38600   15.96100   31.19600  
H    23.69800   15.21200   31.63000  
O    25.45500   16.28400   31.68300  
--
0 1
C    24.95400   23.22600   26.87100  
H    24.70700   24.01500   26.15700  
H    25.92700   22.77800   26.65600  
H    24.15800   22.47700   26.87200  
S    25.09700   24.22800   28.36800  
C    24.22000   25.72200   27.85200  
H    23.21900   25.38400   27.57400  
H    24.18500   26.34100   28.75200  
H    24.58800   26.16400   26.92300  
O    26.54700   24.59400   28.30800  
C    18.27600   18.96500   26.85700  
H    17.75900   19.65700   27.52700  
H    19.15900   19.48300   26.47400  
H    17.57000   18.66200   26.07900  
S    18.78600   17.46500   27.72700  
C    20.15500   18.31900   28.54000  
H    20.87900   18.40400   27.72500  
H    19.91200   19.32100   28.90200  
H    20.57300   17.73600   29.36400  
O    19.53000   16.54100   26.81400  
C    26.80700   12.68100   31.12800  
H    27.07000   13.65300   31.55500  
H    25.79100   12.36000   31.37000  
H    27.53200   11.96100   31.51600  
S    27.17400   12.81000   29.36400  
C    26.15400   14.22000   28.87900  
H    26.18100   14.31800   27.79000  
H    25.15500   14.11600   29.31000  
H    26.57200   15.07700   29.41200  
O    26.33100   11.72300   28.77200  
C    23.15300   11.76900   31.03800  
H    22.15700   12.19100   30.88300  
H    23.50500   12.25200   31.95300  
H    23.88800   11.96000   30.25200  
S    22.82300   10.00500   31.24800  
C    24.59100   9.63600    31.17700  
H    25.05800   9.94200    32.11700  
H    24.76100   8.56500    31.04300  
H    25.04700   10.12200   30.31100  
O    22.31300   9.56700    29.91100  
C    30.60900   17.01700   27.64300  
H    30.98400   17.89300   28.17800  
H    30.99700   16.04300   27.95500  
H    30.78300   17.18400   26.57700  
S    28.83400   16.97800   27.97600  
C    28.91300   16.90000   29.78000  
H    29.70800   16.17000   29.95500  
H    29.16300   17.86200   30.23400  
H    27.99000   16.50400   30.21100  
O    28.29300   15.70500   27.40300  
C    25.92900   20.33000   34.74900  
H    25.39900   19.56600   34.17500  
H    26.01800   21.26900   34.19700  
H    26.90200   19.92500   35.04200  
S    25.06700   20.79000   36.26900  
C    24.55200   19.21400   36.98800  
H    24.29700   18.54100   36.16500  
H    25.38000   18.86800   37.61100  
H    23.71100   19.41400   37.65600  
O    23.79600   21.27200   35.64200  
C    19.54200   20.04600   32.65400  
H    19.23600   19.53200   31.74000  
H    18.66000   19.96300   33.29500  
H    19.82300   21.09600   32.54100  
S    20.95300   19.21600   33.41800  
C    22.09600   19.21600   32.01800  
H    21.54700   19.20100   31.07300  
H    22.73900   20.10000   32.00400  
H    22.75300   18.34400   32.07600  
O    20.34500   17.85200   33.52400  
C    21.02500   12.36700   28.07400  
H    20.68100   13.01700   28.88200  
H    20.41000   12.15900   27.19500  
H    21.00500   11.42100   28.62200  
S    22.67400   12.81200   27.48500  
C    22.04600   14.33500   26.74200  
H    22.90400   14.44800   26.07400  
H    21.08200   14.17200   26.25300  
H    22.02400   15.11300   27.50900  
O    22.92600   11.90300   26.32300  
C    24.94100   23.21700   32.01000  
H    24.66400   24.22800   32.32000  
H    24.46900   23.01400   31.04500  
H    24.70800   22.57900   32.86700  
S    26.73100   23.38000   31.82500  
C    27.01900   21.62500   31.50600  
H    26.01900   21.18900   31.57100  
H    27.40100   21.58600   30.48300  
H    27.63900   21.17100   32.28400  
O    27.08000   23.62000   33.26100  
C    30.47400   12.99700   26.89500  
H    31.40400   12.45500   26.70400  
H    30.53800   13.97000   26.40200  
H    30.23900   13.02400   27.96200  
S    29.07300   12.13800   26.14500  
C    29.05400   10.67400   27.20400  
H    30.06700   10.26400   27.23200  
H    28.82600   11.02500   28.21300  
H    28.26300   10.05100   26.77800  
O    29.57400   11.63300   24.82700  
C    25.17900   11.59200   35.20000  
H    25.21500   12.28100   34.35200  
H    24.66300   12.04900   36.04800  
H    26.13700   11.12000   35.43600  
S    24.16200   10.15200   34.80400  
C    22.48900   10.83300   34.74300  
H    22.39400   11.39200   33.80900  
H    21.84800   9.95700    34.61400  
H    22.19800   11.37800   35.64400  
O    24.07900   9.30800    36.03800  
C    32.39400   14.24600   31.05300  
H    32.13000   14.30400   29.99300  
H    33.22500   14.93700   31.21300  
H    32.55700   13.21200   31.36700  
S    30.94300   14.82000   31.96300  
C    31.48500   14.24300   33.58800  
H    31.91700   13.24000   33.56200  
H    32.11900   14.97800   34.09100  
H    30.66900   14.20900   34.31500  
O    29.81100   13.88800   31.66200  
C    21.59100   24.07900   31.29000  
H    21.28100   23.18200   31.83300  
H    22.47400   24.53300   31.74700  
H    20.75700   24.78300   31.22700  
S    22.01500   23.48400   29.63800  
C    20.31600   23.12600   29.13700  
H    19.88700   24.12300   29.00700  
H    20.34700   22.55200   28.20800  
H    19.70800   22.56400   29.85100  
O    22.61600   22.12700   29.83400  
C    21.87300   14.51500   35.83400  
H    21.18200   14.40800   34.99300  
H    22.09300   13.58300   36.36100  
H    21.51000   15.21000   36.59500  
S    23.44700   14.99900   35.09100  
C    22.93900   16.57900   34.37600  
H    23.70600   17.08800   33.78600  
H    22.16500   16.22600   33.69000  
H    22.52100   17.24800   35.13200  
O    23.66700   14.06800   33.94000  
C    20.30600   22.89000   23.60500  
H    20.48400   22.33300   22.68200  
H    20.36000   22.18400   24.43700  
H    19.34900   23.41600   23.55000  
S    21.51800   24.20700   23.85400  
C    22.93300   23.10100   23.66100  
H    22.92400   22.58000   22.70000  
H    23.89600   23.53400   23.94500  
H    22.85900   22.35300   24.45500  
O    21.22700   24.30300   25.31900  
C    28.57200   24.85800   24.37200  
H    29.06300   25.72000   23.91400  
H    28.05500   25.19900   25.27300  
H    29.35900   24.12100   24.55600  
S    27.54100   24.08400   23.10500  
C    26.36400   25.44600   22.95200  
H    25.79600   25.55600   23.87900  
H    26.84500   26.40400   22.73500  
H    25.73200   25.18200   22.10000  
O    26.81400   23.01100   23.85300  
C    28.32200   17.85400   33.44900  
H    27.33500   17.85600   32.98000  
H    28.62300   18.87700   33.68900  
H    29.05900   17.25600   32.90600  
S    28.31300   17.07100   35.07800  
C    27.46800   15.54500   34.60700  
H    27.41800   14.93100   35.51000  
H    26.52800   15.92000   34.19500  
H    28.18300   15.08700   33.91900  
O    27.23800   17.88300   35.73000  
C    23.28600   19.67700   23.28400  
H    23.83900   20.59800   23.48300  
H    23.97500   18.84000   23.14000  
H    22.66400   19.79400   22.39300  
S    22.16300   19.34800   24.66100  
C    21.92300   17.59100   24.31000  
H    21.63100   17.56100   23.25700  
H    22.86100   17.03300   24.36300  
H    21.23200   17.07200   24.98000  
O    20.85800   20.01200   24.35000  
C    27.49700   19.26500   23.55200  
H    27.73600   20.17100   22.98900  
H    26.99900   18.56000   22.88100  
H    26.82600   19.60700   24.34500  
S    28.98000   18.56000   24.30700  
C    28.99400   19.91400   25.50500  
H    28.65200   20.79400   24.95500  
H    28.28400   19.64300   26.29000  
H    30.00000   20.00800   25.92200  
O    30.16100   19.02500   23.51400  
C    27.56300   14.98300   23.79900  
H    28.36700   14.50700   24.36600  
H    27.33300   14.61000   22.79800  
H    27.91800   16.01700   23.77600  
S    26.03800   15.16500   24.75100  
C    25.49200   13.44700   24.63900  
H    25.29700   13.17200   23.59900  
H    26.24800   12.81300   25.11000  
H    24.50500   13.40700   25.10700  
O    24.95600   15.86300   23.98800  
C    20.03600   13.23100   32.03900  
H    19.71500   12.82100   31.07900  
H    20.76600   12.59300   32.54500  
H    19.10500   13.22200   32.61000  
S    20.57000   14.94300   31.81600  
C    18.97600   15.61700   31.29400  
H    18.32300   15.91800   32.11700  
H    19.32100   16.56000   30.86200  
H    18.51100   15.01700   30.50800  
O    21.33200   14.92200   30.52800  
C    22.64500   14.26800   22.12500  
H    21.62300   14.05100   21.80300  
H    23.04200   13.58400   22.88000  
H    22.60200   15.27900   22.53900  
S    23.74200   14.16900   20.69200  
C    22.97500   15.66800   20.03500  
H    23.38900   16.05200   19.09900  
H    21.93000   15.42400   19.82800  
H    23.08200   16.44200   20.79900  
O    23.22900   12.95900   19.97500  
C    29.37800   23.64800   27.05800  
H    29.71000   24.66900   27.26200  
H    29.97100   23.06400   26.34800  
H    28.32200   23.53300   26.80400  
S    29.35300   22.73400   28.61600  
C    31.15500   22.79800   28.74000  
H    31.65900   22.26400   27.93000  
H    31.31500   23.87800   28.79200  
H    31.44900   22.43600   29.72800  
O    28.93200   21.32900   28.31800  
$end

$rem
JOBTYPE  SP
METHOD  B3LYP
BASIS  6-31+G(D)
SYMMETRY  FALSE
SYM_IGNORE  TRUE
MEM_TOTAL  12000
MEM_STATIC  4000
BASIS_LIN_DEP_THRESH  6
THRESH  14
SCF_CONVERGENCE  8
FD_MAT_VEC_PROD  FALSE
XC_GRID  000075000302
NL_GRID  1
MAX_SCF_CYCLES  200
ENV_METHOD  B3LYP
GEN_SCFMAN_EMBED  TRUE
SPADE_PARTITION  TRUE
EMBEDDING_EARLY_STOP  TRUE
$end

--------------------------------------------------------------
 ----------------------------------------------------------------
             Standard Nuclear Orientation (Angstroms)
    I     Atom           X                Y                Z
 ----------------------------------------------------------------
    1      C      24.7210000000    18.8930000000    29.7720000000
    2      C      24.7790000000    17.4660000000    29.2030000000
    3      C      24.3360000000    17.4070000000    27.7320000000
    4      C      25.1920000000    18.3100000000    26.8280000000
    5      C      25.3160000000    19.7640000000    27.3110000000
    6      C      25.5280000000    19.8040000000    28.8330000000
    7      H      24.3520000000    16.3530000000    27.4290000000
    8      H      25.8510000000    17.2430000000    29.2760000000
    9      H      23.6950000000    19.2780000000    29.7360000000
   10      H      25.0300000000    18.9710000000    30.8220000000
   11      H      26.2160000000    17.9190000000    26.8590000000
   12      H      24.8690000000    18.1620000000    25.7900000000
   13      H      26.0500000000    20.2100000000    26.6280000000
   14      H      24.4140000000    20.2560000000    26.9270000000
   15      H      26.5940000000    19.6070000000    28.9980000000
   16      H      25.5290000000    20.8500000000    29.1620000000
   17      H      23.2970000000    17.7550000000    27.7850000000
   18      N      24.0400000000    16.4540000000    29.9550000000
   19      H      23.0990000000    16.1800000000    29.6990000000
   20      C      24.3860000000    15.9610000000    31.1960000000
   21      H      23.6980000000    15.2120000000    31.6300000000
   22      O      25.4550000000    16.2840000000    31.6830000000
   23      C      24.9540000000    23.2260000000    26.8710000000
   24      H      24.7070000000    24.0150000000    26.1570000000
   25      H      25.9270000000    22.7780000000    26.6560000000
   26      H      24.1580000000    22.4770000000    26.8720000000
   27      S      25.0970000000    24.2280000000    28.3680000000
   28      C      24.2200000000    25.7220000000    27.8520000000
   29      H      23.2190000000    25.3840000000    27.5740000000
   30      H      24.1850000000    26.3410000000    28.7520000000
   31      H      24.5880000000    26.1640000000    26.9230000000
   32      O      26.5470000000    24.5940000000    28.3080000000
   33      C      18.2760000000    18.9650000000    26.8570000000
   34      H      17.7590000000    19.6570000000    27.5270000000
   35      H      19.1590000000    19.4830000000    26.4740000000
   36      H      17.5700000000    18.6620000000    26.0790000000
   37      S      18.7860000000    17.4650000000    27.7270000000
   38      C      20.1550000000    18.3190000000    28.5400000000
   39      H      20.8790000000    18.4040000000    27.7250000000
   40      H      19.9120000000    19.3210000000    28.9020000000
   41      H      20.5730000000    17.7360000000    29.3640000000
   42      O      19.5300000000    16.5410000000    26.8140000000
   43      C      26.8070000000    12.6810000000    31.1280000000
   44      H      27.0700000000    13.6530000000    31.5550000000
   45      H      25.7910000000    12.3600000000    31.3700000000
   46      H      27.5320000000    11.9610000000    31.5160000000
   47      S      27.1740000000    12.8100000000    29.3640000000
   48      C      26.1540000000    14.2200000000    28.8790000000
   49      H      26.1810000000    14.3180000000    27.7900000000
   50      H      25.1550000000    14.1160000000    29.3100000000
   51      H      26.5720000000    15.0770000000    29.4120000000
   52      O      26.3310000000    11.7230000000    28.7720000000
   53      C      23.1530000000    11.7690000000    31.0380000000
   54      H      22.1570000000    12.1910000000    30.8830000000
   55      H      23.5050000000    12.2520000000    31.9530000000
   56      H      23.8880000000    11.9600000000    30.2520000000
   57      S      22.8230000000    10.0050000000    31.2480000000
   58      C      24.5910000000     9.6360000000    31.1770000000
   59      H      25.0580000000     9.9420000000    32.1170000000
   60      H      24.7610000000     8.5650000000    31.0430000000
   61      H      25.0470000000    10.1220000000    30.3110000000
   62      O      22.3130000000     9.5670000000    29.9110000000
   63      C      30.6090000000    17.0170000000    27.6430000000
   64      H      30.9840000000    17.8930000000    28.1780000000
   65      H      30.9970000000    16.0430000000    27.9550000000
   66      H      30.7830000000    17.1840000000    26.5770000000
   67      S      28.8340000000    16.9780000000    27.9760000000
   68      C      28.9130000000    16.9000000000    29.7800000000
   69      H      29.7080000000    16.1700000000    29.9550000000
   70      H      29.1630000000    17.8620000000    30.2340000000
   71      H      27.9900000000    16.5040000000    30.2110000000
   72      O      28.2930000000    15.7050000000    27.4030000000
   73      C      25.9290000000    20.3300000000    34.7490000000
   74      H      25.3990000000    19.5660000000    34.1750000000
   75      H      26.0180000000    21.2690000000    34.1970000000
   76      H      26.9020000000    19.9250000000    35.0420000000
   77      S      25.0670000000    20.7900000000    36.2690000000
   78      C      24.5520000000    19.2140000000    36.9880000000
   79      H      24.2970000000    18.5410000000    36.1650000000
   80      H      25.3800000000    18.8680000000    37.6110000000
   81      H      23.7110000000    19.4140000000    37.6560000000
   82      O      23.7960000000    21.2720000000    35.6420000000
   83      C      19.5420000000    20.0460000000    32.6540000000
   84      H      19.2360000000    19.5320000000    31.7400000000
   85      H      18.6600000000    19.9630000000    33.2950000000
   86      H      19.8230000000    21.0960000000    32.5410000000
   87      S      20.9530000000    19.2160000000    33.4180000000
   88      C      22.0960000000    19.2160000000    32.0180000000
   89      H      21.5470000000    19.2010000000    31.0730000000
   90      H      22.7390000000    20.1000000000    32.0040000000
   91      H      22.7530000000    18.3440000000    32.0760000000
   92      O      20.3450000000    17.8520000000    33.5240000000
   93      C      21.0250000000    12.3670000000    28.0740000000
   94      H      20.6810000000    13.0170000000    28.8820000000
   95      H      20.4100000000    12.1590000000    27.1950000000
   96      H      21.0050000000    11.4210000000    28.6220000000
   97      S      22.6740000000    12.8120000000    27.4850000000
   98      C      22.0460000000    14.3350000000    26.7420000000
   99      H      22.9040000000    14.4480000000    26.0740000000
  100      H      21.0820000000    14.1720000000    26.2530000000
  101      H      22.0240000000    15.1130000000    27.5090000000
  102      O      22.9260000000    11.9030000000    26.3230000000
  103      C      24.9410000000    23.2170000000    32.0100000000
  104      H      24.6640000000    24.2280000000    32.3200000000
  105      H      24.4690000000    23.0140000000    31.0450000000
  106      H      24.7080000000    22.5790000000    32.8670000000
  107      S      26.7310000000    23.3800000000    31.8250000000
  108      C      27.0190000000    21.6250000000    31.5060000000
  109      H      26.0190000000    21.1890000000    31.5710000000
  110      H      27.4010000000    21.5860000000    30.4830000000
  111      H      27.6390000000    21.1710000000    32.2840000000
  112      O      27.0800000000    23.6200000000    33.2610000000
  113      C      30.4740000000    12.9970000000    26.8950000000
  114      H      31.4040000000    12.4550000000    26.7040000000
  115      H      30.5380000000    13.9700000000    26.4020000000
  116      H      30.2390000000    13.0240000000    27.9620000000
  117      S      29.0730000000    12.1380000000    26.1450000000
  118      C      29.0540000000    10.6740000000    27.2040000000
  119      H      30.0670000000    10.2640000000    27.2320000000
  120      H      28.8260000000    11.0250000000    28.2130000000
  121      H      28.2630000000    10.0510000000    26.7780000000
  122      O      29.5740000000    11.6330000000    24.8270000000
  123      C      25.1790000000    11.5920000000    35.2000000000
  124      H      25.2150000000    12.2810000000    34.3520000000
  125      H      24.6630000000    12.0490000000    36.0480000000
  126      H      26.1370000000    11.1200000000    35.4360000000
  127      S      24.1620000000    10.1520000000    34.8040000000
  128      C      22.4890000000    10.8330000000    34.7430000000
  129      H      22.3940000000    11.3920000000    33.8090000000
  130      H      21.8480000000     9.9570000000    34.6140000000
  131      H      22.1980000000    11.3780000000    35.6440000000
  132      O      24.0790000000     9.3080000000    36.0380000000
  133      C      32.3940000000    14.2460000000    31.0530000000
  134      H      32.1300000000    14.3040000000    29.9930000000
  135      H      33.2250000000    14.9370000000    31.2130000000
  136      H      32.5570000000    13.2120000000    31.3670000000
  137      S      30.9430000000    14.8200000000    31.9630000000
  138      C      31.4850000000    14.2430000000    33.5880000000
  139      H      31.9170000000    13.2400000000    33.5620000000
  140      H      32.1190000000    14.9780000000    34.0910000000
  141      H      30.6690000000    14.2090000000    34.3150000000
  142      O      29.8110000000    13.8880000000    31.6620000000
  143      C      21.5910000000    24.0790000000    31.2900000000
  144      H      21.2810000000    23.1820000000    31.8330000000
  145      H      22.4740000000    24.5330000000    31.7470000000
  146      H      20.7570000000    24.7830000000    31.2270000000
  147      S      22.0150000000    23.4840000000    29.6380000000
  148      C      20.3160000000    23.1260000000    29.1370000000
  149      H      19.8870000000    24.1230000000    29.0070000000
  150      H      20.3470000000    22.5520000000    28.2080000000
  151      H      19.7080000000    22.5640000000    29.8510000000
  152      O      22.6160000000    22.1270000000    29.8340000000
  153      C      21.8730000000    14.5150000000    35.8340000000
  154      H      21.1820000000    14.4080000000    34.9930000000
  155      H      22.0930000000    13.5830000000    36.3610000000
  156      H      21.5100000000    15.2100000000    36.5950000000
  157      S      23.4470000000    14.9990000000    35.0910000000
  158      C      22.9390000000    16.5790000000    34.3760000000
  159      H      23.7060000000    17.0880000000    33.7860000000
  160      H      22.1650000000    16.2260000000    33.6900000000
  161      H      22.5210000000    17.2480000000    35.1320000000
  162      O      23.6670000000    14.0680000000    33.9400000000
  163      C      20.3060000000    22.8900000000    23.6050000000
  164      H      20.4840000000    22.3330000000    22.6820000000
  165      H      20.3600000000    22.1840000000    24.4370000000
  166      H      19.3490000000    23.4160000000    23.5500000000
  167      S      21.5180000000    24.2070000000    23.8540000000
  168      C      22.9330000000    23.1010000000    23.6610000000
  169      H      22.9240000000    22.5800000000    22.7000000000
  170      H      23.8960000000    23.5340000000    23.9450000000
  171      H      22.8590000000    22.3530000000    24.4550000000
  172      O      21.2270000000    24.3030000000    25.3190000000
  173      C      28.5720000000    24.8580000000    24.3720000000
  174      H      29.0630000000    25.7200000000    23.9140000000
  175      H      28.0550000000    25.1990000000    25.2730000000
  176      H      29.3590000000    24.1210000000    24.5560000000
  177      S      27.5410000000    24.0840000000    23.1050000000
  178      C      26.3640000000    25.4460000000    22.9520000000
  179      H      25.7960000000    25.5560000000    23.8790000000
  180      H      26.8450000000    26.4040000000    22.7350000000
  181      H      25.7320000000    25.1820000000    22.1000000000
  182      O      26.8140000000    23.0110000000    23.8530000000
  183      C      28.3220000000    17.8540000000    33.4490000000
  184      H      27.3350000000    17.8560000000    32.9800000000
  185      H      28.6230000000    18.8770000000    33.6890000000
  186      H      29.0590000000    17.2560000000    32.9060000000
  187      S      28.3130000000    17.0710000000    35.0780000000
  188      C      27.4680000000    15.5450000000    34.6070000000
  189      H      27.4180000000    14.9310000000    35.5100000000
  190      H      26.5280000000    15.9200000000    34.1950000000
  191      H      28.1830000000    15.0870000000    33.9190000000
  192      O      27.2380000000    17.8830000000    35.7300000000
  193      C      23.2860000000    19.6770000000    23.2840000000
  194      H      23.8390000000    20.5980000000    23.4830000000
  195      H      23.9750000000    18.8400000000    23.1400000000
  196      H      22.6640000000    19.7940000000    22.3930000000
  197      S      22.1630000000    19.3480000000    24.6610000000
  198      C      21.9230000000    17.5910000000    24.3100000000
  199      H      21.6310000000    17.5610000000    23.2570000000
  200      H      22.8610000000    17.0330000000    24.3630000000
  201      H      21.2320000000    17.0720000000    24.9800000000
  202      O      20.8580000000    20.0120000000    24.3500000000
  203      C      27.4970000000    19.2650000000    23.5520000000
  204      H      27.7360000000    20.1710000000    22.9890000000
  205      H      26.9990000000    18.5600000000    22.8810000000
  206      H      26.8260000000    19.6070000000    24.3450000000
  207      S      28.9800000000    18.5600000000    24.3070000000
  208      C      28.9940000000    19.9140000000    25.5050000000
  209      H      28.6520000000    20.7940000000    24.9550000000
  210      H      28.2840000000    19.6430000000    26.2900000000
  211      H      30.0000000000    20.0080000000    25.9220000000
  212      O      30.1610000000    19.0250000000    23.5140000000
  213      C      27.5630000000    14.9830000000    23.7990000000
  214      H      28.3670000000    14.5070000000    24.3660000000
  215      H      27.3330000000    14.6100000000    22.7980000000
  216      H      27.9180000000    16.0170000000    23.7760000000
  217      S      26.0380000000    15.1650000000    24.7510000000
  218      C      25.4920000000    13.4470000000    24.6390000000
  219      H      25.2970000000    13.1720000000    23.5990000000
  220      H      26.2480000000    12.8130000000    25.1100000000
  221      H      24.5050000000    13.4070000000    25.1070000000
  222      O      24.9560000000    15.8630000000    23.9880000000
  223      C      20.0360000000    13.2310000000    32.0390000000
  224      H      19.7150000000    12.8210000000    31.0790000000
  225      H      20.7660000000    12.5930000000    32.5450000000
  226      H      19.1050000000    13.2220000000    32.6100000000
  227      S      20.5700000000    14.9430000000    31.8160000000
  228      C      18.9760000000    15.6170000000    31.2940000000
  229      H      18.3230000000    15.9180000000    32.1170000000
  230      H      19.3210000000    16.5600000000    30.8620000000
  231      H      18.5110000000    15.0170000000    30.5080000000
  232      O      21.3320000000    14.9220000000    30.5280000000
  233      C      22.6450000000    14.2680000000    22.1250000000
  234      H      21.6230000000    14.0510000000    21.8030000000
  235      H      23.0420000000    13.5840000000    22.8800000000
  236      H      22.6020000000    15.2790000000    22.5390000000
  237      S      23.7420000000    14.1690000000    20.6920000000
  238      C      22.9750000000    15.6680000000    20.0350000000
  239      H      23.3890000000    16.0520000000    19.0990000000
  240      H      21.9300000000    15.4240000000    19.8280000000
  241      H      23.0820000000    16.4420000000    20.7990000000
  242      O      23.2290000000    12.9590000000    19.9750000000
  243      C      29.3780000000    23.6480000000    27.0580000000
  244      H      29.7100000000    24.6690000000    27.2620000000
  245      H      29.9710000000    23.0640000000    26.3480000000
  246      H      28.3220000000    23.5330000000    26.8040000000
  247      S      29.3530000000    22.7340000000    28.6160000000
  248      C      31.1550000000    22.7980000000    28.7400000000
  249      H      31.6590000000    22.2640000000    27.9300000000
  250      H      31.3150000000    23.8780000000    28.7920000000
  251      H      31.4490000000    22.4360000000    29.7280000000
  252      O      28.9320000000    21.3290000000    28.3180000000
 ----------------------------------------------------------------
 Nuclear Repulsion Energy =       37805.15831312 hartrees
 There are      518 alpha and      518 beta electrons
 Requested basis set is 6-31+G(d)
 There are 830 shells and 2313 basis functions

 Total QAlloc Memory Limit  12000 MB
 Mega-Array Size      3911 MB
 MEM_STATIC part      4000 MB

 A cutoff of  1.0D-14 yielded 145394 shell pairs
 There are   1247455 function pairs
 Smallest overlap matrix eigenvalue = 4.40E-07
 Linear dependence detected in AO basis
 Tighter screening thresholds may be required for diffuse basis sets
 Use S2THRESH > 14 and THRESH = 14 in case of SCF convergence issues
 Number of orthogonalized atomic orbitals = 2310
 Maximum deviation from orthogonality = 1.000E-10

 Scale SEOQF with 1.000000e-03/1.000000e-03/1.000000e-03

 Standard Electronic Orientation quadrupole field applied
 Nucleus-field energy     =    -0.0000004749 hartrees
 Guess from superposition of atomic densities
 Warning:  Energy on first SCF cycle will be non-variational
 SAD guess density has 1036.000002 electrons

 -----------------------------------------------------------------------
  General SCF calculation program by
  Eric Jon Sundstrom, Paul Horn, Yuezhi Mao, Dmitri Zuev, Alec White,
  David Stuck, Shaama M.S., Shane Yost, Joonho Lee, David Small,
  Daniel Levine, Susi Lehtola, Hugh Burton, Evgeny Epifanovsky,
  Bang C. Huynh
 -----------------------------------------------------------------------
=================================================
        Doing projection-based embedding         
      F. Manby et al. JCTC, 8, 2564 (2012)       
=================================================

****************************************************
   Low-level SCF calculation for the whole system   
****************************************************
----------------------------------------------
 Summary of the low-level theory: 
 Exchange:     0.2000 Hartree-Fock + 0.0800 Slater + 0.7200 B88
 Correlation:  0.1900 VWN1RPA + 0.8100 LYP
 Using Euler-Maclaurin-Lebedev (75,302) quadrature formula
----------------------------------------------
 using 16 threads for integral computing
 -------------------------------------------------------
 OpenMP Integral computing Module                
 Release: version 1.0, May 2013, Q-Chem Inc. Pittsburgh 
 -------------------------------------------------------
 A restricted SCF calculation will be
 performed using DIIS
 SCF converges when DIIS error is below 1.0e-08
 ---------------------------------------
  Cycle       Energy         DIIS error
 ---------------------------------------
    1  -13144.5561607348      1.45e-02  
    2  -13123.8202108267      2.68e-03  
    3  -13111.3264492617      5.25e-03  
    4  -13126.9907193974      1.23e-03  
    5  -13127.9408056972      2.01e-04  
    6  -13127.9510401025      1.72e-04  
    7  -13127.9657411784      6.20e-05  
    8  -13127.9678756437      1.34e-05  
    9  -13127.9679639922      6.36e-06  
   10  -13127.9679843787      2.24e-06  
   11  -13127.9679869691      5.57e-07  
   12  -13127.9679871233      2.30e-07  
   13  -13127.9679871532      5.67e-08  
   14  -13127.9679871546      2.78e-08  
   15  -13127.9679871550      9.22e-09  Convergence criterion met
 ---------------------------------------
 SCF time:   CPU 200700.52s  wall 14132.00s 
 SCF   energy in the final basis set =   -13127.9679871550
 Total energy in the final basis set =   -13127.9679871550

****************************************************
             Start embedding calculation            
****************************************************
----------------------------------------------
 Summary of the high-level theory: 
 Exchange:     0.2000 Hartree-Fock + 0.0800 Slater + 0.7200 B88
 Correlation:  0.1900 VWN1RPA + 0.8100 LYP
 Using Euler-Maclaurin-Lebedev (75,302) quadrature formula
----------------------------------------------
Doing R-in-R Embedding Calculation
Number of fragments: 2
Embedded fragment(s): 1 
NOcc for each fragment
           35
          483
NBasis for each fragment
          197
         2116
Variational space of the embedded problem: 
NOcc (active)  = 35
NOcc (fixed)   = 483
NVir (total)   = 1792
Read converged orbitals from disk
=========================================================
       Doing SPADE partition for the orbital space       
     D. Claudino and N. Mayhall JCTC 15, 1053 (2019)     
=========================================================
SPADE singular values:
 1.0000 1.0000 1.0000 1.0000 1.0000 1.0000 1.0000 1.0000 1.0000 0.9999
 0.9997 0.9997 0.9996 0.9995 0.9994 0.9993 0.9990 0.9987 0.9980 0.9974
 0.9970 0.9964 0.9962 0.9956 0.9952 0.9946 0.9940 0.9936 0.9926 0.9918
 0.9909 0.9891 0.9883 0.9845 0.9774 0.2265 0.1918 0.1735 0.1631 0.1549
 0.1418 0.1370 0.1350 0.1227 0.1136 0.1067 0.0977 0.0874 0.0828 0.0683
 0.0640 0.0588 0.0541 0.0506 0.0464 0.0424 0.0405 0.0377 0.0362 0.0327
 0.0317 0.0279 0.0271 0.0262 0.0259 0.0247 0.0231 0.0213 0.0203 0.0200
 0.0193 0.0176 0.0164 0.0162 0.0151 0.0141 0.0133 0.0131 0.0128 0.0121
 0.0115 0.0108 0.0104 0.0100 0.0089 0.0088 0.0084 0.0079 0.0077 0.0072
 0.0067 0.0063 0.0061 0.0058 0.0056 0.0053 0.0052 0.0047 0.0045 0.0040
 0.0038 0.0037 0.0036 0.0034 0.0033 0.0032 0.0028 0.0028 0.0027 0.0026
 0.0024 0.0023 0.0022 0.0021 0.0020 0.0019 0.0019 0.0018 0.0018 0.0017
 0.0016 0.0015 0.0015 0.0015 0.0014 0.0013 0.0013 0.0012 0.0012 0.0011
 0.0011 0.0011 0.0010 0.0010 0.0010 0.0009 0.0009 0.0008 0.0008 0.0008
 0.0007 0.0007 0.0007 0.0007 0.0006 0.0006 0.0006 0.0006 0.0005 0.0005
 0.0005 0.0004 0.0004 0.0004 0.0004 0.0004 0.0004 0.0003 0.0003 0.0003
 0.0003 0.0003 0.0003 0.0003 0.0003 0.0003 0.0002 0.0002 0.0002 0.0002
 0.0002 0.0002 0.0002 0.0002 0.0002 0.0002 0.0002 0.0002 0.0002 0.0001
 0.0001 0.0001 0.0001 0.0001 0.0001 0.0001 0.0001 0.0001 0.0001 0.0001
 0.0001 0.0001 0.0001 0.0001 0.0001 0.0001 0.0001
Early stop requested; no embedded SCF will be performed

 483 environment occs will be part of frozen-core in future post-HF calculations

 --------------------------------------------------------------

                    Orbital Energies (a.u.)
 --------------------------------------------------------------

 Alpha MOs
 -- Occupied --
-89.0334 -89.0268 -89.0251 -89.0210 -89.0153 -89.0125 -89.0117 -89.0098
-89.0092 -89.0083 -89.0078 -89.0056 -89.0050 -88.9945 -88.9895 -88.9865
-88.9832 -88.9822 -88.9813 -88.9803 -88.9779 -88.9764 -88.9658 -19.1469
-19.1427 -19.1395 -19.1377 -19.1361 -19.1328 -19.1307 -19.1296 -19.1271
-19.1269 -19.1216 -19.1214 -19.1199 -19.1098 -19.1048 -19.1039 -19.0995
-19.0950 -19.0948 -19.0916 -19.0904 -19.0867 -19.0834 -10.2524 -10.2463
-10.2456 -10.2429 -10.2400 -10.2394 -10.2382 -10.2371 -10.2365 -10.2335
-10.2328 -10.2309 -10.2307 -10.2306 -10.2303 -10.2293 -10.2290 -10.2269
-10.2267 -10.2263 -10.2263 -10.2262 -10.2226 -10.2225 -10.2144 -10.2138
-10.2099 -10.2097 -10.2078 -10.2065 -10.2058 -10.2051 -10.2039 -10.2034
-10.2020 -10.2009 -10.2001 -10.1971 -10.1960 -10.1939 -10.1913 -10.1884
-10.1872 -10.1862 -10.1859 -10.1765  -8.0791  -8.0728  -8.0708  -8.0659
 -8.0610  -8.0582  -8.0574  -8.0564  -8.0550  -8.0549  -8.0530  -8.0514
 -8.0505  -8.0405  -8.0361  -8.0328  -8.0298  -8.0279  -8.0269  -8.0258
 -8.0238  -8.0227  -8.0112  -6.0434  -6.0423  -6.0370  -6.0366  -6.0360
 -6.0352  -6.0340  -6.0304  -6.0302  -6.0291  -6.0283  -6.0255  -6.0242
 -6.0233  -6.0224  -6.0220  -6.0213  -6.0206  -6.0206  -6.0193  -6.0193
 -6.0193  -6.0182  -6.0180  -6.0179  -6.0176  -6.0164  -6.0159  -6.0157
 -6.0150  -6.0146  -6.0143  -6.0140  -6.0136  -6.0125  -6.0122  -6.0101
 -6.0087  -6.0078  -6.0048  -6.0034  -6.0003  -5.9995  -5.9984  -5.9971
 -5.9959  -5.9941  -5.9933  -5.9930  -5.9921  -5.9913  -5.9909  -5.9904
 -5.9902  -5.9901  -5.9889  -5.9881  -5.9871  -5.9870  -5.9869  -5.9859
 -5.9857  -5.9844  -5.9830  -5.9814  -5.9800  -5.9754  -5.9743  -5.9689
 -1.0552  -1.0508  -1.0493  -1.0478  -1.0426  -1.0398  -1.0368  -1.0367
 -1.0348  -1.0346  -1.0342  -1.0333  -1.0329  -1.0166  -1.0143  -1.0126
 -1.0111  -1.0053  -1.0032  -1.0021  -1.0000  -0.9994  -0.9906  -0.8334
 -0.8278  -0.8274  -0.8208  -0.8198  -0.8177  -0.8172  -0.8163  -0.8130
 -0.8127  -0.8109  -0.8075  -0.8047  -0.7973  -0.7935  -0.7931  -0.7863
 -0.7832  -0.7829  -0.7827  -0.7772  -0.7756  -0.7704  -0.7613  -0.7566
 -0.7519  -0.7483  -0.7472  -0.7453  -0.7427  -0.7413  -0.7405  -0.7375
 -0.7370  -0.7306  -0.7302  -0.7264  -0.7205  -0.7186  -0.7125  -0.7117
 -0.7113  -0.7071  -0.7039  -0.6997  -0.6935  -0.6456  -0.6396  -0.6368
 -0.6333  -0.6305  -0.6264  -0.6255  -0.6235  -0.6224  -0.6208  -0.6171
 -0.6158  -0.6144  -0.6087  -0.6019  -0.6012  -0.5975  -0.5935  -0.5933
 -0.5897  -0.5887  -0.5873  -0.5771  -0.5201  -0.5052  -0.5047  -0.5039
 -0.5024  -0.5002  -0.4992  -0.4980  -0.4971  -0.4965  -0.4957  -0.4954
 -0.4941  -0.4910  -0.4897  -0.4889  -0.4885  -0.4873  -0.4871  -0.4863
 -0.4857  -0.4831  -0.4829  -0.4829  -0.4821  -0.4817  -0.4810  -0.4795
 -0.4781  -0.4778  -0.4770  -0.4763  -0.4754  -0.4748  -0.4745  -0.4741
 -0.4717  -0.4716  -0.4683  -0.4678  -0.4671  -0.4664  -0.4662  -0.4658
 -0.4642  -0.4638  -0.4620  -0.4614  -0.4603  -0.4594  -0.4589  -0.4578
 -0.4563  -0.4562  -0.4556  -0.4553  -0.4548  -0.4547  -0.4522  -0.4518
 -0.4512  -0.4507  -0.4502  -0.4489  -0.4483  -0.4477  -0.4475  -0.4467
 -0.4462  -0.4446  -0.4443  -0.4437  -0.4436  -0.4432  -0.4425  -0.4406
 -0.4401  -0.4388  -0.4383  -0.4374  -0.4369  -0.4360  -0.4355  -0.4339
 -0.4308  -0.4297  -0.4273  -0.4266  -0.4260  -0.4254  -0.4251  -0.4241
 -0.4233  -0.4232  -0.4209  -0.4203  -0.4189  -0.4186  -0.4175  -0.4167
 -0.4145  -0.4135  -0.4131  -0.4124  -0.4120  -0.4114  -0.4113  -0.4110
 -0.4100  -0.4095  -0.4073  -0.4059  -0.4054  -0.4039  -0.4025  -0.4021
 -0.4003  -0.3996  -0.3985  -0.3975  -0.3973  -0.3953  -0.3927  -0.3920
 -0.3917  -0.3913  -0.3911  -0.3892  -0.3885  -0.3883  -0.3883  -0.3877
 -0.3871  -0.3871  -0.3843  -0.3819  -0.3809  -0.3794  -0.3782  -0.3755
 -0.3745  -0.3743  -0.3738  -0.3730  -0.3714  -0.3711  -0.3707  -0.3678
 -0.3666  -0.3620  -0.3566  -0.3542  -0.3539  -0.3493  -0.3476  -0.3469
 -0.3428  -0.3414  -0.3396  -0.3376  -0.3314  -0.3080  -0.3035  -0.3013
 -0.3003  -0.3000  -0.2930  -0.2911  -0.2910  -0.2896  -0.2884  -0.2837
 -0.2803  -0.2797  -0.2719  -0.2697  -0.2688  -0.2679  -0.2659  -0.2645
 -0.2623  -0.2589  -0.2553  -0.2541  -0.2533  -0.2532  -0.2527  -0.2521
 -0.2521  -0.2512  -0.2496  -0.2484  -0.2477  -0.2465  -0.2445  -0.2433
 -0.2415  -0.2353  -0.2294  -0.2268  -0.2263  -0.2215  -0.2196  -0.2187
 -0.2175  -0.2154  -0.2092 -12.0969 -12.3488 -14.9818 -12.7345 -10.1943
-10.0767 -10.2927 -10.1351 -11.3378  -0.7476  -0.7186  -0.8108  -0.6110
 -0.7445  -0.6037  -0.7138  -0.8330  -0.4292  -0.4911  -0.4226  -0.5082
 -0.4210  -0.4798  -0.5043  -0.4515  -0.3960  -0.4064  -0.4459  -0.4987
 -0.4420  -0.4389  -0.5047  -0.4390  -0.5510  -0.5607
 -- Virtual --
 -0.0374  -0.0333  -0.0323  -0.0310  -0.0247  -0.0238  -0.0228  -0.0218
 -0.0209  -0.0176  -0.0163  -0.0158  -0.0154  -0.0137  -0.0112  -0.0109
 -0.0092  -0.0080  -0.0072  -0.0064  -0.0047  -0.0045  -0.0040  -0.0031
 -0.0016  -0.0006   0.0009   0.0016   0.0029   0.0038   0.0042   0.0052
  0.0061   0.0067   0.0079   0.0087   0.0089   0.0099   0.0110   0.0122
  0.0124   0.0133   0.0136   0.0145   0.0149   0.0156   0.0174   0.0176
  0.0186   0.0188   0.0194   0.0203   0.0209   0.0219   0.0229   0.0240
  0.0242   0.0245   0.0262   0.0268   0.0270   0.0275   0.0278   0.0283
  0.0291   0.0296   0.0311   0.0314   0.0327   0.0332   0.0343   0.0347
  0.0356   0.0366   0.0367   0.0377   0.0381   0.0397   0.0400   0.0409
  0.0419   0.0429   0.0434   0.0437   0.0444   0.0456   0.0458   0.0466
  0.0473   0.0482   0.0493   0.0499   0.0502   0.0521   0.0526   0.0533
  0.0542   0.0550   0.0556   0.0564   0.0571   0.0573   0.0578   0.0582
  0.0593   0.0595   0.0610   0.0612   0.0618   0.0623   0.0641   0.0643
  0.0646   0.0654   0.0660   0.0672   0.0674   0.0680   0.0686   0.0700
  0.0706   0.0717   0.0720   0.0728   0.0738   0.0749   0.0760   0.0774
  0.0778   0.0784   0.0790   0.0802   0.0808   0.0810   0.0816   0.0823
  0.0832   0.0845   0.0848   0.0854   0.0858   0.0863   0.0876   0.0884
  0.0891   0.0893   0.0897   0.0909   0.0910   0.0926   0.0931   0.0933
  0.0945   0.0950   0.0957   0.0967   0.0978   0.0979   0.0991   0.1000
  0.1007   0.1014   0.1028   0.1034   0.1036   0.1040   0.1052   0.1058
  0.1061   0.1068   0.1082   0.1086   0.1091   0.1096   0.1106   0.1114
  0.1123   0.1126   0.1132   0.1136   0.1145   0.1147   0.1157   0.1168
  0.1177   0.1193   0.1197   0.1206   0.1213   0.1217   0.1226   0.1229
  0.1235   0.1240   0.1243   0.1248   0.1260   0.1269   0.1272   0.1276
  0.1283   0.1291   0.1296   0.1303   0.1310   0.1317   0.1326   0.1328
  0.1334   0.1344   0.1351   0.1358   0.1364   0.1374   0.1383   0.1383
  0.1397   0.1398   0.1409   0.1416   0.1429   0.1434   0.1445   0.1449
  0.1454   0.1460   0.1465   0.1471   0.1479   0.1486   0.1499   0.1504
  0.1507   0.1519   0.1525   0.1534   0.1536   0.1540   0.1551   0.1558
  0.1574   0.1576   0.1578   0.1584   0.1591   0.1596   0.1602   0.1612
  0.1615   0.1625   0.1627   0.1640   0.1648   0.1650   0.1657   0.1662
  0.1672   0.1677   0.1690   0.1696   0.1708   0.1712   0.1727   0.1730
  0.1733   0.1740   0.1744   0.1754   0.1763   0.1766   0.1770   0.1783
  0.1795   0.1798   0.1799   0.1804   0.1814   0.1818   0.1827   0.1836
  0.1839   0.1847   0.1851   0.1857   0.1863   0.1876   0.1879   0.1889
  0.1898   0.1906   0.1911   0.1915   0.1919   0.1929   0.1939   0.1941
  0.1948   0.1948   0.1964   0.1965   0.1968   0.1988   0.1994   0.1998
  0.2001   0.2004   0.2019   0.2020   0.2027   0.2033   0.2042   0.2049
  0.2060   0.2063   0.2069   0.2081   0.2087   0.2092   0.2096   0.2102
  0.2103   0.2114   0.2119   0.2130   0.2134   0.2145   0.2150   0.2157
  0.2170   0.2172   0.2179   0.2188   0.2192   0.2199   0.2209   0.2221
  0.2228   0.2229   0.2237   0.2242   0.2252   0.2252   0.2263   0.2270
  0.2274   0.2292   0.2296   0.2301   0.2312   0.2323   0.2330   0.2337
  0.2350   0.2353   0.2359   0.2364   0.2370   0.2376   0.2385   0.2392
  0.2399   0.2408   0.2421   0.2430   0.2438   0.2452   0.2458   0.2467
  0.2469   0.2474   0.2476   0.2496   0.2504   0.2516   0.2520   0.2537
  0.2542   0.2551   0.2560   0.2569   0.2575   0.2580   0.2582   0.2592
  0.2598   0.2600   0.2610   0.2618   0.2634   0.2638   0.2645   0.2654
  0.2664   0.2674   0.2679   0.2689   0.2698   0.2701   0.2708   0.2711
  0.2712   0.2727   0.2740   0.2751   0.2769   0.2769   0.2777   0.2787
  0.2788   0.2791   0.2800   0.2814   0.2823   0.2832   0.2842   0.2854
  0.2857   0.2870   0.2873   0.2888   0.2896   0.2903   0.2911   0.2926
  0.2942   0.2946   0.2960   0.2964   0.2979   0.2988   0.2992   0.3003
  0.3024   0.3034   0.3038   0.3041   0.3050   0.3069   0.3076   0.3079
  0.3084   0.3113   0.3118   0.3132   0.3140   0.3146   0.3164   0.3171
  0.3180   0.3192   0.3204   0.3211   0.3228   0.3236   0.3241   0.3253
  0.3259   0.3279   0.3288   0.3303   0.3309   0.3314   0.3324   0.3333
  0.3347   0.3358   0.3362   0.3373   0.3386   0.3401   0.3409   0.3422
  0.3425   0.3430   0.3441   0.3460   0.3463   0.3475   0.3479   0.3493
  0.3502   0.3507   0.3519   0.3521   0.3534   0.3545   0.3556   0.3564
  0.3573   0.3583   0.3604   0.3616   0.3620   0.3626   0.3644   0.3649
  0.3669   0.3678   0.3686   0.3693   0.3697   0.3707   0.3720   0.3727
  0.3739   0.3755   0.3762   0.3769   0.3776   0.3783   0.3798   0.3802
  0.3811   0.3816   0.3831   0.3835   0.3851   0.3862   0.3872   0.3879
  0.3883   0.3905   0.3911   0.3916   0.3928   0.3935   0.3944   0.3961
  0.3969   0.3977   0.3991   0.4002   0.4005   0.4018   0.4035   0.4038
  0.4052   0.4061   0.4080   0.4092   0.4105   0.4113   0.4118   0.4135
  0.4143   0.4147   0.4152   0.4165   0.4189   0.4192   0.4196   0.4211
  0.4223   0.4229   0.4236   0.4273   0.4284   0.4292   0.4307   0.4322
  0.4333   0.4349   0.4352   0.4370   0.4378   0.4385   0.4400   0.4406
  0.4413   0.4435   0.4444   0.4449   0.4459   0.4468   0.4482   0.4494
  0.4508   0.4519   0.4549   0.4577   0.4584   0.4598   0.4633   0.4643
  0.4644   0.4655   0.4678   0.4691   0.4705   0.4721   0.4724   0.4737
  0.4757   0.4774   0.4789   0.4798   0.4818   0.4826   0.4848   0.4863
  0.4874   0.4897   0.4913   0.4933   0.4949   0.4976   0.5001   0.5014
  0.5021   0.5039   0.5045   0.5058   0.5065   0.5080   0.5100   0.5122
  0.5148   0.5171   0.5191   0.5196   0.5199   0.5212   0.5245   0.5264
  0.5271   0.5304   0.5305   0.5320   0.5333   0.5360   0.5372   0.5379
  0.5416   0.5429   0.5441   0.5462   0.5470   0.5497   0.5509   0.5523
  0.5548   0.5554   0.5567   0.5617   0.5621   0.5640   0.5650   0.5664
  0.5679   0.5710   0.5726   0.5733   0.5744   0.5764   0.5778   0.5802
  0.5804   0.5808   0.5855   0.5866   0.5891   0.5911   0.5931   0.5943
  0.5945   0.5969   0.5981   0.5984   0.5997   0.6005   0.6009   0.6039
  0.6048   0.6080   0.6091   0.6106   0.6111   0.6149   0.6155   0.6170
  0.6199   0.6206   0.6228   0.6238   0.6253   0.6268   0.6299   0.6307
  0.6318   0.6340   0.6347   0.6354   0.6362   0.6375   0.6392   0.6403
  0.6412   0.6423   0.6435   0.6446   0.6453   0.6474   0.6487   0.6493
  0.6505   0.6527   0.6534   0.6550   0.6556   0.6567   0.6582   0.6600
  0.6608   0.6629   0.6631   0.6656   0.6664   0.6667   0.6694   0.6701
  0.6720   0.6728   0.6747   0.6762   0.6762   0.6798   0.6807   0.6815
  0.6830   0.6871   0.6875   0.6875   0.6890   0.6915   0.6928   0.6942
  0.6952   0.6963   0.6979   0.6992   0.7005   0.7026   0.7052   0.7067
  0.7075   0.7085   0.7112   0.7135   0.7143   0.7156   0.7177   0.7181
  0.7205   0.7224   0.7238   0.7261   0.7268   0.7272   0.7294   0.7311
  0.7323   0.7339   0.7366   0.7369   0.7385   0.7404   0.7412   0.7419
  0.7437   0.7464   0.7467   0.7493   0.7500   0.7527   0.7553   0.7567
  0.7586   0.7593   0.7612   0.7621   0.7637   0.7658   0.7668   0.7697
  0.7713   0.7732   0.7740   0.7751   0.7760   0.7766   0.7784   0.7809
  0.7830   0.7839   0.7864   0.7867   0.7887   0.7905   0.7923   0.7936
  0.7965   0.7972   0.7990   0.7993   0.8008   0.8017   0.8041   0.8066
  0.8088   0.8107   0.8118   0.8136   0.8152   0.8172   0.8178   0.8197
  0.8220   0.8227   0.8250   0.8273   0.8281   0.8288   0.8305   0.8333
  0.8347   0.8369   0.8372   0.8401   0.8410   0.8424   0.8441   0.8458
  0.8468   0.8488   0.8518   0.8533   0.8549   0.8561   0.8583   0.8592
  0.8609   0.8621   0.8646   0.8652   0.8664   0.8673   0.8689   0.8702
  0.8726   0.8741   0.8746   0.8763   0.8774   0.8790   0.8818   0.8836
  0.8850   0.8857   0.8880   0.8898   0.8914   0.8925   0.8938   0.8957
  0.8967   0.8975   0.8987   0.8999   0.9017   0.9021   0.9043   0.9065
  0.9075   0.9079   0.9089   0.9110   0.9122   0.9142   0.9154   0.9168
  0.9173   0.9184   0.9205   0.9221   0.9230   0.9249   0.9275   0.9284
  0.9294   0.9307   0.9340   0.9349   0.9357   0.9369   0.9379   0.9403
  0.9410   0.9423   0.9430   0.9445   0.9453   0.9464   0.9474   0.9498
  0.9505   0.9516   0.9539   0.9554   0.9563   0.9581   0.9585   0.9592
  0.9597   0.9600   0.9609   0.9619   0.9640   0.9646   0.9648   0.9677
  0.9694   0.9702   0.9718   0.9718   0.9728   0.9766   0.9768   0.9774
  0.9784   0.9799   0.9813   0.9825   0.9835   0.9847   0.9854   0.9866
  0.9872   0.9888   0.9900   0.9910   0.9925   0.9934   0.9947   0.9955
  0.9972   0.9991   1.0005   1.0015   1.0035   1.0056   1.0060   1.0077
  1.0083   1.0093   1.0112   1.0114   1.0137   1.0156   1.0163   1.0185
  1.0192   1.0205   1.0206   1.0218   1.0239   1.0242   1.0250   1.0268
  1.0270   1.0300   1.0309   1.0327   1.0335   1.0350   1.0360   1.0391
  1.0392   1.0405   1.0413   1.0440   1.0445   1.0456   1.0466   1.0474
  1.0496   1.0525   1.0547   1.0555   1.0576   1.0584   1.0588   1.0604
  1.0633   1.0641   1.0653   1.0668   1.0677   1.0691   1.0699   1.0741
  1.0757   1.0767   1.0775   1.0782   1.0785   1.0799   1.0816   1.0851
  1.0857   1.0869   1.0898   1.0903   1.0906   1.0924   1.0940   1.0968
  1.0989   1.1007   1.1009   1.1026   1.1062   1.1077   1.1083   1.1102
  1.1106   1.1111   1.1128   1.1143   1.1148   1.1165   1.1168   1.1190
  1.1199   1.1230   1.1238   1.1246   1.1269   1.1286   1.1295   1.1308
  1.1331   1.1343   1.1365   1.1379   1.1386   1.1407   1.1411   1.1421
  1.1454   1.1463   1.1469   1.1493   1.1512   1.1529   1.1543   1.1558
  1.1577   1.1585   1.1597   1.1599   1.1612   1.1647   1.1663   1.1681
  1.1696   1.1710   1.1719   1.1725   1.1744   1.1758   1.1800   1.1809
  1.1816   1.1831   1.1842   1.1853   1.1856   1.1874   1.1897   1.1923
  1.1930   1.1953   1.1974   1.1989   1.1998   1.2015   1.2041   1.2069
  1.2081   1.2092   1.2117   1.2155   1.2186   1.2207   1.2220   1.2232
  1.2248   1.2260   1.2264   1.2301   1.2373   1.2385   1.2411   1.2458
  1.2480   1.2491   1.2516   1.2534   1.2555   1.2576   1.2599   1.2614
  1.2642   1.2654   1.2678   1.2712   1.2749   1.2777   1.2789   1.2800
  1.2815   1.2830   1.2925   1.2942   1.2964   1.2987   1.3002   1.3012
  1.3028   1.3067   1.3109   1.3133   1.3140   1.3175   1.3185   1.3215
  1.3230   1.3265   1.3288   1.3302   1.3325   1.3337   1.3353   1.3396
  1.3416   1.3422   1.3436   1.3463   1.3498   1.3520   1.3540   1.3549
  1.3564   1.3597   1.3623   1.3644   1.3661   1.3668   1.3685   1.3728
  1.3750   1.3759   1.3766   1.3786   1.3787   1.3815   1.3827   1.3851
  1.3859   1.3888   1.3909   1.3922   1.3943   1.3960   1.3986   1.3997
  1.3999   1.4026   1.4041   1.4057   1.4085   1.4098   1.4125   1.4136
  1.4145   1.4168   1.4175   1.4181   1.4207   1.4225   1.4237   1.4255
  1.4259   1.4279   1.4287   1.4310   1.4322   1.4333   1.4355   1.4363
  1.4372   1.4388   1.4428   1.4436   1.4462   1.4487   1.4510   1.4526
  1.4535   1.4565   1.4579   1.4604   1.4626   1.4655   1.4662   1.4684
  1.4711   1.4713   1.4721   1.4754   1.4781   1.4801   1.4807   1.4833
  1.4855   1.4879   1.4921   1.4951   1.4963   1.4963   1.5000   1.5014
  1.5069   1.5097   1.5117   1.5127   1.5154   1.5186   1.5204   1.5236
  1.5263   1.5290   1.5324   1.5357   1.5369   1.5371   1.5415   1.5471
  1.5518   1.5522   1.5553   1.5560   1.5593   1.5625   1.5656   1.5687
  1.5697   1.5744   1.5771   1.5798   1.5885   1.5916   1.5960   1.5995
  1.6030   1.6042   1.6106   1.6193   1.6223   1.6248   1.6293   1.6384
  1.6405   1.6420   1.6439   1.6450   1.6502   1.6524   1.6550   1.6559
  1.6562   1.6597   1.6611   1.6651   1.6669   1.6684   1.6704   1.6719
  1.6757   1.6764   1.6772   1.6781   1.6813   1.6822   1.6848   1.6858
  1.6876   1.6886   1.6899   1.6910   1.6949   1.6953   1.6964   1.6978
  1.6993   1.7013   1.7029   1.7044   1.7061   1.7075   1.7109   1.7114
  1.7126   1.7151   1.7155   1.7167   1.7177   1.7183   1.7210   1.7225
  1.7244   1.7256   1.7262   1.7276   1.7289   1.7311   1.7333   1.7349
  1.7366   1.7380   1.7411   1.7419   1.7425   1.7472   1.7481   1.7496
  1.7509   1.7515   1.7536   1.7566   1.7597   1.7600   1.7612   1.7639
  1.7666   1.7684   1.7691   1.7728   1.7757   1.7783   1.7797   1.7814
  1.7834   1.7858   1.7877   1.7893   1.7897   1.7914   1.7940   1.7942
  1.7984   1.8008   1.8046   1.8051   1.8077   1.8106   1.8158   1.8168
  1.8194   1.8236   1.8255   1.8271   1.8326   1.8374   1.8390   1.8411
  1.8440   1.8454   1.8483   1.8505   1.8527   1.8571   1.8573   1.8614
  1.8641   1.8648   1.8667   1.8678   1.8690   1.8715   1.8732   1.8745
  1.8775   1.8786   1.8805   1.8819   1.8827   1.8833   1.8847   1.8851
  1.8896   1.8908   1.8922   1.8940   1.8952   1.8978   1.8990   1.9012
  1.9023   1.9036   1.9052   1.9069   1.9084   1.9095   1.9099   1.9114
  1.9130   1.9153   1.9162   1.9196   1.9207   1.9209   1.9233   1.9238
  1.9247   1.9251   1.9293   1.9299   1.9334   1.9370   1.9381   1.9394
  1.9419   1.9449   1.9464   1.9500   1.9517   1.9550   1.9575   1.9637
  1.9647   1.9662   1.9736   1.9807   1.9825   1.9925   1.9956   2.0079
  2.0123   2.0178   2.0253   2.0305   2.0400   2.0433   2.0453   2.0464
  2.0497   2.0518   2.0539   2.0584   2.0615   2.0627   2.0637   2.0649
  2.0658   2.0674   2.0682   2.0707   2.0756   2.0759   2.0788   2.0791
  2.0807   2.0816   2.0845   2.0881   2.0893   2.0917   2.0933   2.0944
  2.0946   2.0968   2.0988   2.0991   2.1006   2.1030   2.1036   2.1058
  2.1062   2.1081   2.1109   2.1122   2.1144   2.1165   2.1186   2.1204
  2.1217   2.1241   2.1278   2.1298   2.1318   2.1378   2.1446   2.1509
  2.1548   2.1600   2.1620   2.1728   2.1763   2.1787   2.1791   2.1814
  2.1830   2.1866   2.1875   2.1904   2.1947   2.1958   2.2001   2.2018
  2.2036   2.2056   2.2068   2.2091   2.2115   2.2126   2.2142   2.2150
  2.2175   2.2178   2.2195   2.2211   2.2227   2.2240   2.2262   2.2276
  2.2289   2.2308   2.2323   2.2328   2.2342   2.2357   2.2382   2.2391
  2.2410   2.2428   2.2432   2.2441   2.2467   2.2475   2.2484   2.2493
  2.2511   2.2519   2.2522   2.2528   2.2534   2.2542   2.2567   2.2575
  2.2586   2.2609   2.2619   2.2642   2.2651   2.2665   2.2677   2.2688
  2.2696   2.2701   2.2702   2.2714   2.2726   2.2734   2.2741   2.2751
  2.2775   2.2782   2.2793   2.2807   2.2812   2.2820   2.2836   2.2845
  2.2860   2.2866   2.2875   2.2891   2.2918   2.2946   2.2952   2.2963
  2.2975   2.2989   2.2992   2.3002   2.3009   2.3020   2.3053   2.3059
  2.3080   2.3108   2.3112   2.3131   2.3143   2.3154   2.3160   2.3180
  2.3192   2.3204   2.3210   2.3231   2.3259   2.3270   2.3281   2.3298
  2.3306   2.3343   2.3375   2.3393   2.3413   2.3434   2.3448   2.3461
  2.3488   2.3492   2.3504   2.3515   2.3525   2.3539   2.3553   2.3570
  2.3588   2.3595   2.3621   2.3633   2.3666   2.3672   2.3696   2.3710
  2.3749   2.3777   2.3814   2.3833   2.3871   2.4002   2.4040   2.4175
  2.4209   2.4246   2.4286   2.4394   2.4762   2.4852   2.5406   2.5441
  2.5735   2.6574   2.7306   2.7343   2.7787   2.8212   2.8219   2.8294
  2.8313   2.8322   2.8335   2.8359   2.8386   2.8408   2.8463   2.8487
  2.8524   2.8547   2.8558   2.8580   2.8600   2.8635   2.8672   2.8753
  2.8763   2.8768   2.8797   2.8812   2.8861   2.8884   2.9002   2.9214
  2.9551   3.1014   3.2413   3.9509   3.9525   3.9590   3.9649   3.9664
  3.9690   3.9724   3.9760   3.9781   3.9790   3.9810   3.9849   3.9862
  3.9878   3.9919   3.9976   4.0023   4.0067   4.0083   4.0166   4.0270
  4.0378   4.0410   4.1887   4.1973   4.2173   4.2236   4.2266   4.2285
  4.2341   4.2429   4.2474   4.2489   4.2529   4.2546   4.2561   4.2584
  4.2609   4.2634   4.2666   4.2692   4.2715   4.2748   4.2786   4.2814
  4.2846   4.2857   4.2903   4.2933   4.2943   4.2981   4.3020   4.3075
  4.3114   4.3117   4.3127   4.3164   4.3188   4.3212   4.3230   4.3276
  4.3322   4.3398   4.3429   4.3440   4.3482   4.3520   4.3567   4.3593
  4.3613   4.3645   4.3676   4.3701   4.3737   4.3799   4.3829   4.3909
  4.3925   4.4016   4.4084   4.4160   4.4186   4.4267   4.4336   4.4460
  4.4554   4.4643   4.4848   4.5048   4.5106   4.5303   4.5588   4.5648
  4.5787   4.6198   4.6401   4.6650   4.7198   4.7478   4.7696   4.9612
 --------------------------------------------------------------

          Ground-State Mulliken Net Atomic Charges

     Atom                 Charge (a.u.)
  ----------------------------------------
      1 C                     0.279715
      2 C                    -0.855725
      3 C                     0.109784
      4 C                    -1.093067
      5 C                    -0.429158
      6 C                    -0.804013
      7 H                     0.234656
      8 H                     0.215201
      9 H                     0.238669
     10 H                     0.219662
     11 H                     0.237835
     12 H                     0.229494
     13 H                     0.211614
     14 H                     0.201992
     15 H                     0.262040
     16 H                     0.225033
     17 H                     0.212340
     18 N                     0.422667
     19 H                     0.474378
     20 C                    -0.532129
     21 H                     0.242835
     22 O                    -0.159227
     23 C                    -1.082267
     24 H                     0.233578
     25 H                     0.294735
     26 H                     0.259475
     27 S                     1.214504
     28 C                    -0.991644
     29 H                     0.292950
     30 H                     0.251103
     31 H                     0.249028
     32 O                    -0.662959
     33 C                    -0.817319
     34 H                     0.238458
     35 H                     0.288150
     36 H                     0.253947
     37 S                     0.864326
     38 C                    -0.925850
     39 H                     0.275820
     40 H                     0.231300
     41 H                     0.254816
     42 O                    -0.671103
     43 C                    -1.472693
     44 H                     0.281867
     45 H                     0.271974
     46 H                     0.263579
     47 S                     1.557122
     48 C                    -1.202457
     49 H                     0.307453
     50 H                     0.289678
     51 H                     0.246755
     52 O                    -0.591755
     53 C                    -1.402823
     54 H                     0.254432
     55 H                     0.280964
     56 H                     0.318210
     57 S                     1.025827
     58 C                    -0.839242
     59 H                     0.224092
     60 H                     0.254268
     61 H                     0.320232
     62 O                    -0.674090
     63 C                    -0.921450
     64 H                     0.251018
     65 H                     0.250724
     66 H                     0.279323
     67 S                     0.275560
     68 C                    -0.515699
     69 H                     0.226874
     70 H                     0.262612
     71 H                     0.304276
     72 O                    -0.375653
     73 C                    -0.833698
     74 H                     0.244466
     75 H                     0.266014
     76 H                     0.259130
     77 S                     0.873999
     78 C                    -0.829419
     79 H                     0.248365
     80 H                     0.257394
     81 H                     0.251165
     82 O                    -0.737567
     83 C                    -0.920395
     84 H                     0.252385
     85 H                     0.269822
     86 H                     0.218339
     87 S                     0.960007
     88 C                    -0.886971
     89 H                     0.266625
     90 H                     0.301248
     91 H                     0.289555
     92 O                    -0.678611
     93 C                    -1.115260
     94 H                     0.246640
     95 H                     0.251264
     96 H                     0.293039
     97 S                     1.492900
     98 C                    -0.943983
     99 H                     0.224185
    100 H                     0.266468
    101 H                     0.254349
    102 O                    -0.656579
    103 C                    -1.028598
    104 H                     0.240209
    105 H                     0.260590
    106 H                     0.297594
    107 S                     1.118992
    108 C                    -0.961260
    109 H                     0.270744
    110 H                     0.280451
    111 H                     0.268046
    112 O                    -0.698848
    113 C                    -0.759429
    114 H                     0.251138
    115 H                     0.249275
    116 H                     0.237812
    117 S                     0.644000
    118 C                    -0.771492
    119 H                     0.238220
    120 H                     0.237241
    121 H                     0.276434
    122 O                    -0.656925
    123 C                    -0.808359
    124 H                     0.285755
    125 H                     0.234335
    126 H                     0.247260
    127 S                     0.918207
    128 C                    -0.886860
    129 H                     0.236246
    130 H                     0.274135
    131 H                     0.231717
    132 O                    -0.717772
    133 C                    -0.827414
    134 H                     0.254754
    135 H                     0.249396
    136 H                     0.248358
    137 S                     0.870615
    138 C                    -0.861655
    139 H                     0.247642
    140 H                     0.248843
    141 H                     0.264695
    142 O                    -0.668413
    143 C                    -0.689696
    144 H                     0.263327
    145 H                     0.253497
    146 H                     0.238485
    147 S                     0.569656
    148 C                    -0.808682
    149 H                     0.241884
    150 H                     0.278477
    151 H                     0.249846
    152 O                    -0.611692
    153 C                    -0.744124
    154 H                     0.261622
    155 H                     0.242095
    156 H                     0.251232
    157 S                     0.475887
    158 C                    -0.904824
    159 H                     0.281967
    160 H                     0.306866
    161 H                     0.265723
    162 O                    -0.609151
    163 C                    -0.799083
    164 H                     0.230574
    165 H                     0.317680
    166 H                     0.230945
    167 S                     0.868174
    168 C                    -0.914197
    169 H                     0.247448
    170 H                     0.272725
    171 H                     0.270757
    172 O                    -0.729360
    173 C                    -0.848127
    174 H                     0.234094
    175 H                     0.277980
    176 H                     0.243821
    177 S                     0.909602
    178 C                    -0.835687
    179 H                     0.256721
    180 H                     0.243585
    181 H                     0.251265
    182 O                    -0.704608
    183 C                    -0.853002
    184 H                     0.303131
    185 H                     0.252317
    186 H                     0.222376
    187 S                     0.764698
    188 C                    -0.713682
    189 H                     0.253960
    190 H                     0.278413
    191 H                     0.240406
    192 O                    -0.737426
    193 C                    -0.963387
    194 H                     0.262978
    195 H                     0.283239
    196 H                     0.268621
    197 S                     0.713912
    198 C                    -0.843615
    199 H                     0.240907
    200 H                     0.316574
    201 H                     0.320550
    202 O                    -0.655952
    203 C                    -1.137720
    204 H                     0.295674
    205 H                     0.252344
    206 H                     0.271248
    207 S                     1.366487
    208 C                    -1.166537
    209 H                     0.272279
    210 H                     0.288274
    211 H                     0.261025
    212 O                    -0.698367
    213 C                    -0.740325
    214 H                     0.280054
    215 H                     0.256056
    216 H                     0.233742
    217 S                     0.399360
    218 C                    -0.784757
    219 H                     0.264511
    220 H                     0.266068
    221 H                     0.270557
    222 O                    -0.547466
    223 C                    -0.931213
    224 H                     0.284402
    225 H                     0.265804
    226 H                     0.251247
    227 S                     0.792181
    228 C                    -0.817504
    229 H                     0.264547
    230 H                     0.245031
    231 H                     0.265122
    232 O                    -0.656918
    233 C                    -0.843995
    234 H                     0.257815
    235 H                     0.261476
    236 H                     0.231918
    237 S                     0.960584
    238 C                    -0.838477
    239 H                     0.236235
    240 H                     0.249736
    241 H                     0.217812
    242 O                    -0.690355
    243 C                    -0.793337
    244 H                     0.250418
    245 H                     0.253484
    246 H                     0.297925
    247 S                     0.615647
    248 C                    -0.818372
    249 H                     0.247881
    250 H                     0.230855
    251 H                     0.246879
    252 O                    -0.598233
  ----------------------------------------
  Sum of atomic charges =     0.000000

 -----------------------------------------------------------------
                    Cartesian Multipole Moments
 -----------------------------------------------------------------
    Charge (ESU x 10^10)
                -0.0000
    Dipole Moment (Debye)
         X       1.7691      Y      25.1040      Z       7.4825
       Tot      26.2550
    Quadrupole Moments (Debye-Ang)
        XX    -602.3591     XY     614.5165     YY     -54.7816
        XZ     250.7418     YZ     702.3954     ZZ    -487.5300
    Octopole Moments (Debye-Ang^2)
       XXX  -48199.5466    XXY    3001.5870    XYY   -2055.0110
       YYY  -23980.4733    XXZ  -11513.5751    XYZ   17150.9963
       YYZ   -5221.4923    XZZ  -10095.9450    YZZ    4394.5251
       ZZZ  -61117.5571
    Hexadecapole Moments (Debye-Ang^3)
      XXXX ************   XXXY -530420.3613   XXYY -301699.9867
      XYYY -615346.4610   YYYY ************   XXXZ ************
      XXYZ   81764.0301   XYYZ -156380.0546   YYYZ -817962.9490
      XXZZ -766820.7366   XYZZ   94480.1004   YYZZ -544300.7497
      XZZZ ************   YZZZ -772742.9716   ZZZZ ************
 -----------------------------------------------------------------
 Total job time:  14377.87s(wall), 203001.00s(cpu) 
 Thu Jul 21 07:13:07 2022

        *************************************************************
        *                                                           *
        *  Thank you very much for using Q-Chem.  Have a nice day.  *
        *                                                           *
        *************************************************************


 
User input: 2 of 2 
 
                  Welcome to Q-Chem
     A Quantum Leap Into The Future Of Chemistry


 Q-Chem 6.0 (devel), Q-Chem, Inc., Pleasanton, CA (2022)

 E. Epifanovsky,  A. T. B. Gilbert,  Xintian Feng,  Joonho Lee,  Yuezhi Mao,  
 N. Mardirossian,  P. Pokhilko,  A. White,  M. Wormit,  M. P. Coons,  
 A. L. Dempwolff,  Zhengting Gan,  D. Hait,  P. R. Horn,  L. D. Jacobson,  
 I. Kaliman,  J. Kussmann,  A. W. Lange,  Ka Un Lao,  D. S. Levine,  Jie Liu,  
 S. C. McKenzie,  A. F. Morrison,  K. Nanda,  F. Plasser,  D. R. Rehn,  
 M. L. Vidal,  Zhi-Qiang You,  Ying Zhu,  B. Alam,  B. Albrecht,  
 A. Aldossary,  E. Alguire,  J. H. Andersen,  V. Athavale,  D. Barton,  
 K. Begam,  A. Behn,  N. Bellonzi,  Y. A. Bernard,  E. J. Berquist,  
 H. Burton,  A. Carreras,  K. Carter-Fenk,  Romit Chakraborty,  
 Chandrima Chakravarty,  Junhan Chen,  A. D. Chien,  K. D. Closser,  
 V. Cofer-Shabica,  L. Cunha,  S. Dasgupta,  Jia Deng,  M. de Wergifosse,  
 M. Diedenhofen,  Hainam Do,  S. Ehlert,  Po-Tung Fang,  S. Fatehi,  
 Qingguo Feng,  T. Friedhoff,  B. Ganoe,  J. Gayvert,  Qinghui Ge,  
 G. Gidofalvi,  M. Goldey,  J. Gomes,  C. Gonzalez-Espinoza,  S. Gulania,  
 A. Gunina,  J. A. Gyamfi,  M. W. D. Hanson-Heine,  P. H. P. Harbach,  
 A. W. Hauser,  M. F. Herbst,  M. Hernandez Vera,  M. Hodecker,  
 Z. C. Holden,  S. Houck,  Xunkun Huang,  Kerwin Hui,  B. C. Huynh,  
 K. Ikeda,  M. Ivanov,  Hyunjun Ji,  Zuxin Jin,  Hanjie Jiang,  B. Kaduk,  
 S. Kaehler,  R. Kang,  K. Khistyaev,  Jaehoon Kim,  Yongbin Kim,  
 P. Klunzinger,  Z. Koczor-Benda,  Joong Hoon Koh,  D. Kosenkov,  
 Saikiran Kotaru,  L. Koulias,  T. Kowalczyk,  C. M. Krauter,  K. Kue,  
 A. Kunitsa,  T. Kus,  A. Landau,  K. V. Lawler,  D. Lefrancois,  S. Lehtola,  
 Rain Li,  Shaozhi Li,  Yi-Pei Li,  Jiashu Liang,  M. Liebenthal,  
 Hung-Hsuan Lin,  You-Sheng Lin,  Fenglai Liu,  Kuan-Yu Liu,  
 M. Loipersberger,  A. Luenser,  C. Malbon,  A. Manjanath,  P. Manohar,  
 E. Mansoor,  S. F. Manzer,  Shan-Ping Mao,  A. V. Marenich,  T. Markovich,  
 S. Mason,  F. Matz,  S. A. Maurer,  P. F. McLaughlin,  M. F. S. J. Menger,  
 J.-M. Mewes,  S. A. Mewes,  P. Morgante,  Mohammad Mostafanejad,  
 J. W. Mullinax,  K. J. Oosterbaan,  G. Paran,  V. Parravicini,  
 Alexander C. Paul,  Suranjan K. Paul,  F. Pavosevic,  Zheng Pei,  S. Prager,  
 E. I. Proynov,  E. Ramos,  B. Rana,  A. E. Rask,  A. Rettig,  R. M. Richard,  
 F. Rob,  E. Rossomme,  T. Scheele,  M. Scheurer,  M. Schneider,  
 P. E. Schneider,  N. Sergueev,  S. M. Sharada,  Hengyuan Shen,  
 W. Skomorowski,  D. W. Small,  C. J. Stein,  Yingli Su,  Yu-Chuan Su,  
 E. J. Sundstrom,  Zhen Tao,  J. Thirman,  Hung-Yi Tsai,  T. Tsuchimochi,  
 N. M. Tubman,  C. Utku,  S. P. Veccham,  O. Vydrov,  J. Wenzel,  
 Jonathan Wong,  J. Witte,  A. Yamada,  Chou-Hsun Yang,  Kun Yao,  
 S. Yeganeh,  S. R. Yost,  A. Zech,  F. Zeller,  Igor Ying Zhang,  
 Xing Zhang,  Yu Zhang,  D. Zuev,  A. Aspuru-Guzik,  A. T. Bell,  
 N. A. Besley,  K. B. Bravaya,  B. R. Brooks,  D. Casanova,  Jeng-Da Chai,  
 Hsing-Ta Chen,  S. Coriani,  C. J. Cramer,  A. E. DePrince, III,  
 R. A. DiStasio Jr.,  A. Dreuw,  B. D. Dunietz,  T. R. Furlani,  
 W. A. Goddard III,  S. Grimme,  S. Hammes-Schiffer,  T. Head-Gordon,  
 W. J. Hehre,  Chao-Ping Hsu,  T.-C. Jagau,  Yousung Jung,  A. Klamt,  
 Jing Kong,  D. S. Lambrecht,  Xiangyuan Li,  WanZhen Liang,  N. J. Mayhall,  
 C. W. McCurdy,  J. B. Neaton,  T. Neudecker,  C. Ochsenfeld,  
 J. A. Parkhill,  R. Peverati,  V. A. Rassolov,  Haisheng Ren,  Yihan Shao,  
 L. V. Slipchenko,  R. P. Steele,  J. E. Subotnik,  A. J. W. Thom,  
 A. Tkatchenko,  D. G. Truhlar,  T. Van Voorhis,  Fan Wang,  
 T. A. Wesolowski,  K. B. Whaley,  H. L. Woodcock III,  P. M. Zimmerman,  
 S. Faraji,  P. M. W. Gill,  M. Head-Gordon,  J. M. Herbert,  A. I. Krylov

 Contributors to earlier versions of Q-Chem not listed above: 
 R. D. Adamson,  B. Austin,  R. Baer,  J. Baker,  G. J. O. Beran,  
 K. Brandhorst,  S. T. Brown,  E. F. C. Byrd,  Arup K. Chakraborty,  
 G. K. L. Chan,  Chun-Min Chang,  Yunqing Chen,  C.-L. Cheng,  
 Siu Hung Chien,  D. M. Chipman,  D. L. Crittenden,  H. Dachsel,  
 R. J. Doerksen,  A. D. Dutoi,  R. G. Edgar,  J. Fosso-Tande,  
 L. Fusti-Molnar,  D. Ghosh,  A. Ghysels,  A. Golubeva-Zadorozhnaya,  
 J. Gonthier,  M. S. Gordon,  S. R. Gwaltney,  G. Hawkins,  J. E. Herr,  
 A. Heyden,  S. Hirata,  E. G. Hohenstein,  G. Kedziora,  F. J. Keil,  
 C. Kelley,  Jihan Kim,  R. A. King,  R. Z. Khaliullin,  P. P. Korambath,  
 W. Kurlancheek,  A. Laurent,  A. M. Lee,  M. S. Lee,  S. V. Levchenko,  
 Ching Yeh Lin,  D. Liotard,  E. Livshits,  R. C. Lochan,  I. Lotan,  
 L. A. Martinez-Martinez,  P. E. Maslen,  N. Nair,  D. P. O'Neill,  
 D. Neuhauser,  E. Neuscamman,  C. M. Oana,  R. Olivares-Amaya,  R. Olson,  
 T. M. Perrine,  B. Peters,  P. A. Pieniazek,  A. Prociuk,  Y. M. Rhee,  
 J. Ritchie,  M. A. Rohrdanz,  E. Rosta,  N. J. Russ,  H. F. Schaefer III,  
 M. W. Schmidt,  N. E. Schultz,  S. Sharma,  N. Shenvi,  C. D. Sherrill,  
 A. C. Simmonett,  A. Sodt,  T. Stein,  D. Stuck,  K. S. Thanthiriwatte,  
 V. Vanovschi,  L. Vogt,  Tao Wang,  A. Warshel,  M. A. Watson,  
 C. F. Williams,  Q. Wu,  X. Xu,  Jun Yang,  W. Zhang,  Yan Zhao

   Please cite Q-Chem as follows:
  "Software for the frontiers of quantum chemistry:
   An overview of developments in the Q-Chem 5 package"
   J. Chem. Phys. 155, 084801 (2021)
   https://doi.org/10.1063/5.0055522 (open access)

 Q-Chem 6.0.0 for Intel X86 EM64T Linux

 Parts of Q-Chem use Armadillo 9.900.5 (Nocturnal Misbehaviour).
 http://arma.sourceforge.net/

 Q-Chem begins on Thu Jul 21 07:13:07 2022  

 Host: nid00527
0

     Scratch files written to /global/cscratch1/sd/ymao90/r7.00_frame_0010_spade_B3LYP_dp20220721031313//
 Processing $rem in /global/homes/y/ymao90/my_qchem/qchem_embedding_5p4/config/preferences:
 Processing $rem in /global/homes/y/ymao90/.qchemrc:

 Checking the input file for inconsistencies... 	...done.

--------------------------------------------------------------
User input:
--------------------------------------------------------------

$molecule
0 1
@C    24.72100   18.89300   29.77200  
@C    24.77900   17.46600   29.20300  
@C    24.33600   17.40700   27.73200  
@C    25.19200   18.31000   26.82800  
@C    25.31600   19.76400   27.31100  
@C    25.52800   19.80400   28.83300  
@H    24.35200   16.35300   27.42900  
@H    25.85100   17.24300   29.27600  
@H    23.69500   19.27800   29.73600  
@H    25.03000   18.97100   30.82200  
@H    26.21600   17.91900   26.85900  
@H    24.86900   18.16200   25.79000  
@H    26.05000   20.21000   26.62800  
@H    24.41400   20.25600   26.92700  
@H    26.59400   19.60700   28.99800  
@H    25.52900   20.85000   29.16200  
@H    23.29700   17.75500   27.78500  
@N    24.04000   16.45400   29.95500  
@H    23.09900   16.18000   29.69900  
@C    24.38600   15.96100   31.19600  
@H    23.69800   15.21200   31.63000  
@O    25.45500   16.28400   31.68300  
C    24.95400   23.22600   26.87100  
H    24.70700   24.01500   26.15700  
H    25.92700   22.77800   26.65600  
H    24.15800   22.47700   26.87200  
S    25.09700   24.22800   28.36800  
C    24.22000   25.72200   27.85200  
H    23.21900   25.38400   27.57400  
H    24.18500   26.34100   28.75200  
H    24.58800   26.16400   26.92300  
O    26.54700   24.59400   28.30800  
C    18.27600   18.96500   26.85700  
H    17.75900   19.65700   27.52700  
H    19.15900   19.48300   26.47400  
H    17.57000   18.66200   26.07900  
S    18.78600   17.46500   27.72700  
C    20.15500   18.31900   28.54000  
H    20.87900   18.40400   27.72500  
H    19.91200   19.32100   28.90200  
H    20.57300   17.73600   29.36400  
O    19.53000   16.54100   26.81400  
C    26.80700   12.68100   31.12800  
H    27.07000   13.65300   31.55500  
H    25.79100   12.36000   31.37000  
H    27.53200   11.96100   31.51600  
S    27.17400   12.81000   29.36400  
C    26.15400   14.22000   28.87900  
H    26.18100   14.31800   27.79000  
H    25.15500   14.11600   29.31000  
H    26.57200   15.07700   29.41200  
O    26.33100   11.72300   28.77200  
[...]
    3  -1.1549665  -3.3648117   2.1019819   0.4869426   3.8181026   2.2527709
          127         128         129         130         131         132
    1   0.2952200  -2.1339236  -1.7780487  -2.8440487  -2.0563314  -0.0835454
    2  -1.9919580  -1.2863155  -0.6903563  -3.0943802  -0.5128189  -3.0771311
    3   0.8456537   1.6225677   0.2031576   1.2170963   3.3506866   3.3173933
          133         134         135         136         137         138
    1   3.4264615   2.5778576   4.1560146   3.0198903   2.2895109   2.3630543
    2  -0.9882254  -0.7579716   0.6752623  -2.9511800   0.2915680  -1.0510023
    3  -0.2134969  -1.7901751   0.4153930   0.6379267   0.9276828   2.4716771
          139         140         141         142         143         144
    1   2.7176325   3.2012020   0.6789045   0.2507820  -1.6080126  -2.1067037
    2  -2.8310681   0.7031422  -1.0922520  -2.2811190   2.4825260   0.5616678
    3   1.7275529   2.5983945   3.2373989   0.5674462   2.1383716   2.6418605
          145         146         147         148         149         150
    1   0.1439043  -2.8677130  -1.2417693  -3.0561696  -3.1528930  -2.3421902
    2   3.1399528   3.3576363   2.3357003   1.2820959   3.2557297   0.2949446
    3   2.3704259   1.2925673   0.0245024  -0.2611286  -0.2776328  -1.7159263
          151         152         153         154         155         156
    1  -3.5141032  -0.1223338  -2.1934207  -3.1943999  -1.1685360  -2.1588476
    2   0.3924301  -0.8824918  -0.8618043  -1.0285180  -2.2724604   0.5978587
    3   1.2557958   0.5063170   2.9435215   1.1770781   3.5422125   3.8454821
          157         158         159         160         161         162
    1   0.0697364  -0.6301663   1.0333000  -1.9319515  -1.4330233   0.2425573
    2  -0.1543205   0.9598079   1.1417223  -0.1874850   1.4024111  -1.8058086
    3   2.7659582   1.4300446   0.2770533   0.3557188   3.3181147   0.0196746
          163         164         165         166         167         168
    1  -2.5860354  -1.6382550  -2.2928362  -3.7732076  -1.0074707   0.3657944
    2   0.4088379  -0.1403308  -0.1624957   1.6656738   2.2896060   0.7995726
    3  -1.7901279  -3.5309906   0.0250040  -1.5049244  -2.1212911  -1.9717803
          169         170         171         172         173         174
    1  -0.1439825   1.2484157  -0.2187248  -1.7856841   2.0162038   2.4086144
    2   0.1895361   1.8974491  -0.1625371   2.1466311   2.3382387   3.4276435
    3  -3.7825484  -1.3064163  -0.1615687   1.1767339  -0.4440424  -1.5095726
          175         176         177         178         179         180
    1   0.5623267   3.2564488   1.2893922  -0.4669472  -1.1003903   0.8369307
    2   2.9752153   0.6324043   1.4333526   2.7708204   2.7609677   3.7908509
    3   0.7141191  -0.7740340  -2.4942614  -1.7957553   0.0358205  -1.8279427
          181         182         183         184         185         186
    1  -1.2246298  -0.3720122   1.5272608  -0.5862280   2.3105552   2.7492355
    2   1.5903589  -0.4176291   0.9915993   0.5717629   2.5762128  -0.1142126
    3  -3.3275934  -0.8004051   0.0959393  -0.3023282   1.1100632  -0.0841093
          187         188         189         190         191         192
    1   2.2403893   0.5009575   0.7861226  -0.9605128   1.8924469  -0.1946912
    2  -0.2331045  -1.6466256  -2.1851247  -0.3254089  -1.8649769   1.1389381
    3   2.0896197   1.5525917   3.4788674   0.6730201   0.5846559   3.1457813
          193         194         195         196         197         198
    1   0.3945635   1.0186354   1.1530071  -1.2569735  -0.3567290  -1.3422694
    2   0.6515515   1.9044097  -0.7158826   0.6921634   0.3068950  -1.1885323
    3  -2.7862229  -1.8756919  -2.5945293  -4.1770049  -0.6170138  -1.6294143
          199         200         201         202         203         204
    1  -1.9867095   0.3275049  -2.4035351  -3.3034829  -0.2648226   0.7666236
    2  -0.6956609  -1.1966703  -1.4064821   1.2721299   0.7223248   2.0023458
    3  -3.6422828  -1.2924738  -0.5901193  -1.7458385  -2.4943227  -3.3313665
          205         206         207         208         209         210
    1  -0.4625420  -1.0781083   1.2260595   1.5284484   0.8989731  -0.1542388
    2  -0.6008326   1.1100317  -0.5158699   1.4157730   2.4816724   0.4701627
    3  -3.5032644  -0.5111845  -1.3578086  -0.2296224  -1.6883487   0.7329246
          211         212         213         214         215         216
    1   3.7033822   3.5848674   2.0499102   2.8968697   1.1566095   2.1158710
    2   1.0756637   0.7561133  -0.8713604  -1.4569124  -1.4706580   0.8815196
    3   0.0298629  -2.9008144  -2.6813148  -1.4476941  -4.1295712  -2.4414240
          217         218         219         220         221         222
    1   0.6360145  -0.1853725  -0.2125366   1.1385513  -1.7009954  -1.3920914
    2  -0.4794695  -2.6317844  -2.6590371  -3.1647833  -1.9430917   0.7488764
    3  -0.8133190  -1.6198280  -3.3657496  -0.9412303  -0.9149916  -2.5270573
          223         224         225         226         227         228
    1  -2.5158043  -3.0570413  -1.1430142  -3.9499909  -1.7342629  -3.6054857
    2  -2.3236016  -2.5644906  -2.6352267  -1.6811551  -0.3798634  -0.0491884
    3   1.0745525  -0.9631191   1.8717092   2.0143612   1.4717891   0.3455681
          229         230         231         232         233         234
    1  -4.0548449  -2.3732557  -3.8514138  -0.1571239  -1.7392753  -3.4002450
    2   0.2363612   1.5227317  -1.4836250  -0.3951749  -0.9882861  -1.3362247
    3   2.0315519  -0.2705752  -1.0448571  -1.4031033  -0.8067529  -1.6801194
          235         236         237         238         239         240
    1  -0.7043492  -1.5280339   0.5377476  -0.9483285   0.2290651  -2.9180728
    2  -2.4931105   0.8525553  -0.5734934   0.8934159   0.9511541  -0.1041911
    3  -0.2460153  -0.8917892  -1.9351254  -2.7473053  -3.8733282  -2.6921957
          241         242         243         244         245         246
    1  -0.5542378  -0.9761643   1.8189215   2.2917581   3.0105767  -0.1673384
    2   1.7574843  -2.8842359   2.2990513   3.8859543   0.6966967   1.6392561
    3  -1.3832178  -2.9336007  -1.3103077  -0.2471902  -2.2148085  -1.3264280
          247         248         249         250         251         252
    1   1.6405551   3.4691590   3.7260233   2.9752663   3.1802159   0.9243386
    2   1.8044162   1.2053044   0.1212076   3.2853381   0.4720230  -1.1015413
    3   0.7805798   0.4449260  -1.2592156   0.5009711   2.2418268  -0.1535781
 EField
            1           2           3           4           5           6
    1  -0.0028357  -0.0043439  -0.0006128  -0.0007673  -0.0005541  -0.0004138
    2   0.0023966  -0.0012946  -0.0023876  -0.0041812  -0.0017869   0.0016405
    3  -0.0065028  -0.0054305  -0.0029059  -0.0005169   0.0018860  -0.0030641
            7           8           9          10          11          12
    1   0.0001404  -0.0089207  -0.0007469  -0.0023684  -0.0017604   0.0010100
    2   0.0001443   0.0023999   0.0058090   0.0023765  -0.0060764  -0.0094552
    3  -0.0030582  -0.0091613  -0.0067700  -0.0091005  -0.0004872   0.0001389
           13          14          15          16          17          18
    1  -0.0001011  -0.0011927   0.0035046  -0.0030511   0.0020042  -0.0116455
    2  -0.0009347  -0.0062252   0.0054360  -0.0020578  -0.0029947  -0.0063870
    3   0.0054442   0.0032977  -0.0065275  -0.0034328  -0.0009480  -0.0034749
           19          20          21          22          23          24
    1  -0.0163754  -0.0129759  -0.0134900  -0.0113755   0.0001447  -0.0023810
    2  -0.0141176  -0.0090304  -0.0111431  -0.0065964  -0.0045081   0.0086690
    3   0.0062108  -0.0044235  -0.0020024  -0.0057021  -0.0091731  -0.0360727
           25          26          27          28          29          30
    1   0.0261020  -0.0234915  -0.0249948  -0.0055947  -0.0372223  -0.0003372
    2  -0.0102428  -0.0216290  -0.0242079   0.0026313  -0.0040316   0.0274721
    3  -0.0066970   0.0047790   0.0470250  -0.0040545  -0.0041373   0.0174180
           31          32          33          34          35          36
    1   0.0237235   0.1061515   0.0012311  -0.0170643   0.0225842  -0.0148007
    2   0.0193564   0.0265828   0.0065261   0.0178754   0.0124916  -0.0038923
    3  -0.0191432  -0.0016096  -0.0073493   0.0220941  -0.0254263  -0.0282750
           37          38          39          40          41          42
    1  -0.0400597   0.0105223   0.0280830  -0.0065490   0.0173809   0.0540104
    2  -0.0179818   0.0009238  -0.0002426   0.0287930  -0.0249084  -0.0717670
    3   0.0384955   0.0010174  -0.0177115   0.0097770   0.0181130  -0.0631071
           43          44          45          46          47          48
    1  -0.0020132   0.0051336  -0.0305029   0.0196062   0.0496815  -0.0078787
    2  -0.0019275   0.0176273  -0.0075473  -0.0228212   0.0060072   0.0068548
    3   0.0064613   0.0197987  -0.0019550   0.0132696  -0.0124766  -0.0040847
           49          50          51          52          53          54
    1   0.0012197  -0.0348898   0.0091609  -0.0632616   0.0000652  -0.0192943
    2   0.0070554  -0.0141112   0.0297327  -0.0792598   0.0109243   0.0240642
    3  -0.0285271   0.0004180  -0.0062699  -0.0466980  -0.0032959  -0.0194392
           55          56          57          58          59          60
    1   0.0102227   0.0083579  -0.0208109   0.0098264   0.0166126   0.0001960
    2   0.0180028   0.0048558  -0.0106657  -0.0011722   0.0064364  -0.0324843
    3   0.0278990  -0.0312825   0.0463688  -0.0048756   0.0248758  -0.0028599
           61          62          63          64          65          66
    1   0.0113610  -0.0381444   0.0058439   0.0209255   0.0194441   0.0033365
    2   0.0154187  -0.0340261  -0.0009669   0.0225041  -0.0247575   0.0010821
    3  -0.0280971  -0.0984699  -0.0029470   0.0165325   0.0062401  -0.0318135
           67          68          69          70          71          72
    1  -0.0280421   0.0036630   0.0203238   0.0084969  -0.0205715  -0.0444435
    2   0.0594572  -0.0036211  -0.0217911   0.0320500  -0.0072440  -0.0892215
    3  -0.0220875   0.0046852   0.0155232   0.0065133   0.0015602  -0.0465580
           73          74          75          76          77          78
    1   0.0083217  -0.0210785   0.0054768   0.0276761   0.0304998   0.0000771
    2  -0.0008421  -0.0163515   0.0287201  -0.0121411   0.0308184  -0.0063630
    3  -0.0044403  -0.0111586  -0.0119403   0.0055661   0.0324854   0.0029750
           79          80          81          82          83          84
    1  -0.0066783   0.0256314  -0.0286890  -0.0941489  -0.0055166  -0.0012522
    2  -0.0215213  -0.0220508   0.0088377   0.0379446   0.0028114  -0.0143040
    3  -0.0155254   0.0130650   0.0141208  -0.0453023  -0.0035903  -0.0307600
           85          86          87          88          89          90
    1  -0.0186298  -0.0008007   0.0200239   0.0042148  -0.0129034   0.0140203
    2  -0.0025770   0.0335867   0.0296251  -0.0000368  -0.0037028   0.0293732
    3   0.0265484  -0.0113883   0.0463087  -0.0115623  -0.0305227  -0.0016208
           91          92          93          94          95          96
    1   0.0098829  -0.0458128  -0.0064728  -0.0124564  -0.0215300   0.0167517
    2  -0.0266377  -0.0995115  -0.0049854   0.0397844   0.0046861  -0.0365530
    3  -0.0010500   0.0102089   0.0044747   0.0098254  -0.0240661   0.0078978
           97          98          99         100         101         102
    1   0.0343998  -0.0005128   0.0114627  -0.0234857  -0.0057647   0.0207347
    2   0.0141541   0.0052207   0.0272097   0.0018736   0.0280994  -0.0684023
    3   0.0440560  -0.0003742  -0.0310733  -0.0150153   0.0223329  -0.0821388
          103         104         105         106         107         108
    1  -0.0065811  -0.0114978  -0.0190742  -0.0080865   0.0144126  -0.0011329
    2  -0.0001608   0.0294119  -0.0182791  -0.0203326   0.0335579  -0.0051593
    3  -0.0011215   0.0116990  -0.0237024   0.0207630  -0.0434093  -0.0040065
          109         110         111         112         113         114
    1  -0.0231835   0.0152748   0.0229366   0.0262413   0.0045608   0.0250535
    2  -0.0212528  -0.0148960  -0.0044632   0.0211443   0.0007216  -0.0200544
    3  -0.0053136  -0.0297576   0.0176363   0.1048331   0.0007024  -0.0090222
          115         116         117         118         119         120
    1  -0.0003526  -0.0014961  -0.0491187  -0.0009607   0.0255460  -0.0178933
    2   0.0299618   0.0124064   0.0295496  -0.0049826  -0.0225027  -0.0012954
    3  -0.0076094   0.0320226   0.0054216   0.0048945  -0.0078795   0.0293204
          121         122         123         124         125         126
    1  -0.0193023   0.0345984   0.0002969  -0.0012201  -0.0024756   0.0296619
    2  -0.0245121  -0.0372663   0.0061318   0.0234574   0.0169173  -0.0040382
    3  -0.0039733  -0.0985171   0.0010080  -0.0212066   0.0297687   0.0131981
          127         128         129         130         131         132
    1   0.0133852  -0.0069251  -0.0066615  -0.0188065  -0.0062449  -0.0070883
    2  -0.0227569   0.0022405   0.0266336  -0.0259074   0.0138458  -0.0658187
    3  -0.0524884  -0.0028295  -0.0212806   0.0011445   0.0255586   0.0894247
          133         134         135         136         137         138
    1   0.0053620  -0.0045208   0.0305677   0.0134882  -0.0038964   0.0037889
    2  -0.0049410  -0.0055267   0.0146353  -0.0309841   0.0561591  -0.0040955
    3  -0.0047367  -0.0318532   0.0076115   0.0010491  -0.0018878   0.0097106
          139         140         141         142         143         144
    1   0.0149387   0.0326042  -0.0324568  -0.0830246  -0.0015149  -0.0053012
    2  -0.0289831   0.0185144  -0.0066298  -0.0689557  -0.0002838  -0.0233594
    3  -0.0016437   0.0093458   0.0111177  -0.0222792   0.0081344   0.0210135
          145         146         147         148         149         150
    1   0.0208150  -0.0228798   0.0206406  -0.0070925  -0.0239873   0.0012385
    2   0.0120400   0.0236687   0.0396437  -0.0015640   0.0243708  -0.0095609
    3   0.0168395   0.0035804  -0.0339591  -0.0040704  -0.0160980  -0.0313041
          151         152         153         154         155         156
    1  -0.0111858   0.0450849  -0.0084232  -0.0262587  -0.0020004  -0.0131972
    2  -0.0175757  -0.0996554  -0.0025790  -0.0077272  -0.0301995   0.0248111
    3   0.0259463   0.0114796  -0.0000803  -0.0190910   0.0103786   0.0180898
          157         158         159         160         161         162
    1   0.0410191  -0.0136689   0.0196669  -0.0317121  -0.0191235   0.0154538
    2   0.0089688   0.0036313   0.0054928   0.0054513   0.0181927  -0.0684021
    3   0.0459507  -0.0089618  -0.0101648  -0.0246075   0.0189044  -0.0862931
          163         164         165         166         167         168
    1  -0.0053918  -0.0016073   0.0035669  -0.0316071  -0.0045987   0.0065713
    2  -0.0114011  -0.0213599  -0.0188276   0.0067991   0.0363013  -0.0072549
    3   0.0010739  -0.0273679   0.0231666   0.0013243  -0.0355485   0.0040516
          169         170         171         172         173         174
    1   0.0046623   0.0294299  -0.0138515  -0.0257656   0.0052056   0.0181524
    2  -0.0104793   0.0187683  -0.0236616   0.0070401   0.0029740   0.0279675
    3  -0.0287092  -0.0060468   0.0223548   0.1066509   0.0055117  -0.0119788
          175         176         177         178         179         180
    1  -0.0187702   0.0202512   0.0302883  -0.0059391  -0.0191228   0.0154432
    2   0.0010676  -0.0168381  -0.0071560   0.0048699  -0.0014854   0.0277148
    3   0.0251123   0.0126718  -0.0468385   0.0001764   0.0253114  -0.0082744
          181         182         183         184         185         186
    1  -0.0254390  -0.0521092   0.0035284  -0.0207326   0.0159863   0.0275837
    2  -0.0031483  -0.0811374   0.0045661   0.0035873   0.0325249  -0.0024989
    3  -0.0207548   0.0535512  -0.0031570  -0.0072740  -0.0025581  -0.0301100
          187         188         189         190         191         192
    1   0.0498106  -0.0014976  -0.0116759  -0.0269195   0.0096045  -0.0773347
    2  -0.0077684  -0.0055911  -0.0210969  -0.0090374  -0.0296567   0.0612531
    3   0.0198999   0.0024615   0.0266373  -0.0040460  -0.0275344   0.0515333
          193         194         195         196         197         198
    1   0.0045051   0.0183579   0.0220161  -0.0181219   0.0301533   0.0005618
    2  -0.0003556   0.0220715  -0.0242415   0.0037235   0.0043483  -0.0136332
    3  -0.0065570   0.0035047  -0.0021187  -0.0265748   0.0550337  -0.0010384
          199         200         201         202         203         204
    1  -0.0201986   0.0352968  -0.0273309  -0.0951204  -0.0070940   0.0142502
    2  -0.0075478  -0.0154019  -0.0069400   0.0476116   0.0049253   0.0241622
    3  -0.0274273   0.0052023   0.0198069  -0.0208589  -0.0052959  -0.0168240
          205         206         207         208         209         210
    1  -0.0166675  -0.0257331  -0.0069722  -0.0032940  -0.0041227  -0.0185607
    2  -0.0211226   0.0045405  -0.0449046   0.0044749   0.0292954   0.0045508
    3  -0.0168182   0.0209487   0.0225991   0.0073859  -0.0092078   0.0318950
          211         212         213         214         215         216
    1   0.0247296   0.0880017   0.0058155   0.0156200   0.0004362   0.0134787
    2   0.0053361   0.0333086   0.0021590  -0.0271424  -0.0138939   0.0296790
    3   0.0100827  -0.0574113  -0.0054813   0.0131615  -0.0289561  -0.0130411
          217         218         219         220         221         222
    1   0.0137701  -0.0056575   0.0019305   0.0123704  -0.0232104  -0.0809068
    2   0.0097759  -0.0086128  -0.0083595  -0.0261764  -0.0142380   0.0504534
    3   0.0618765   0.0011173  -0.0312177   0.0147372   0.0207359  -0.0508455
          223         224         225         226         227         228
    1  -0.0027684   0.0017729   0.0221443  -0.0258682   0.0222337  -0.0043706
    2  -0.0077816  -0.0121738  -0.0122861  -0.0006298   0.0251332   0.0054795
    3  -0.0023848  -0.0323751   0.0098818   0.0235692   0.0493429  -0.0046930
          229         230         231         232         233         234
    1  -0.0183594   0.0041484  -0.0119218   0.0651473  -0.0051194  -0.0264695
    2   0.0032920   0.0270193  -0.0173122   0.0028029   0.0006591  -0.0192666
    3   0.0250994  -0.0168736  -0.0226574  -0.0963349   0.0085506  -0.0093508
          235         236         237         238         239         240
    1  -0.0001578   0.0080489   0.0544151  -0.0044606   0.0177238  -0.0326755
    2  -0.0197982   0.0251215   0.0074860   0.0043394   0.0051334  -0.0048866
    3   0.0238058   0.0201129   0.0160842  -0.0037273  -0.0272904  -0.0042694
          241         242         243         244         245         246
    1   0.0003030  -0.0346239  -0.0063235   0.0031599   0.0184079  -0.0295532
    2   0.0250422  -0.0914092  -0.0008481   0.0308195  -0.0126072   0.0137906
    3   0.0196598  -0.0516302  -0.0061631  -0.0020325  -0.0211443  -0.0159915
          247         248         249         250         251         252
    1  -0.0230058   0.0041726   0.0157200   0.0204929   0.0118077  -0.0337540
    2   0.0366170  -0.0009335  -0.0127363   0.0314608  -0.0164961  -0.1021179
    3   0.0434024   0.0022543  -0.0233034  -0.0038983   0.0258275  -0.0199300
  --- DONE ESP SUMMARY ---
 Total job time:  28.80s(wall), 62.12s(cpu) 
 Thu Jul 21 07:13:36 2022

        *************************************************************
        *                                                           *
        *  Thank you very much for using Q-Chem.  Have a nice day.  *
        *                                                           *
        *************************************************************


