                  Welcome to Q-Chem
     A Quantum Leap Into The Future Of Chemistry


 Q-Chem 6.0 (devel), Q-Chem, Inc., Pleasanton, CA (2022)

 E. Epifanovsky,  A. T. B. Gilbert,  Xintian Feng,  Joonho Lee,  Yuezhi Mao,  
 N. Mardirossian,  P. Pokhilko,  A. White,  M. Wormit,  M. P. Coons,  
 A. L. Dempwolff,  Zhengting Gan,  D. Hait,  P. R. Horn,  L. D. Jacobson,  
 I. Kaliman,  J. Kussmann,  A. W. Lange,  Ka Un Lao,  D. S. Levine,  Jie Liu,  
 S. C. McKenzie,  A. F. Morrison,  K. Nanda,  F. Plasser,  D. R. Rehn,  
 M. L. Vidal,  Zhi-Qiang You,  Ying Zhu,  B. Alam,  B. Albrecht,  
 A. Aldossary,  E. Alguire,  J. H. Andersen,  V. Athavale,  D. Barton,  
 K. Begam,  A. Behn,  N. Bellonzi,  Y. A. Bernard,  E. J. Berquist,  
 H. Burton,  A. Carreras,  K. Carter-Fenk,  Romit Chakraborty,  
 Chandrima Chakravarty,  Junhan Chen,  A. D. Chien,  K. D. Closser,  
 V. Cofer-Shabica,  L. Cunha,  S. Dasgupta,  Jia Deng,  M. de Wergifosse,  
 M. Diedenhofen,  Hainam Do,  S. Ehlert,  Po-Tung Fang,  S. Fatehi,  
 Qingguo Feng,  T. Friedhoff,  B. Ganoe,  J. Gayvert,  Qinghui Ge,  
 G. Gidofalvi,  M. Goldey,  J. Gomes,  C. Gonzalez-Espinoza,  S. Gulania,  
 A. Gunina,  J. A. Gyamfi,  M. W. D. Hanson-Heine,  P. H. P. Harbach,  
 A. W. Hauser,  M. F. Herbst,  M. Hernandez Vera,  M. Hodecker,  
 Z. C. Holden,  S. Houck,  Xunkun Huang,  Kerwin Hui,  B. C. Huynh,  
 K. Ikeda,  M. Ivanov,  Hyunjun Ji,  Zuxin Jin,  Hanjie Jiang,  B. Kaduk,  
 S. Kaehler,  R. Kang,  K. Khistyaev,  Jaehoon Kim,  Yongbin Kim,  
 P. Klunzinger,  Z. Koczor-Benda,  Joong Hoon Koh,  D. Kosenkov,  
 Saikiran Kotaru,  L. Koulias,  T. Kowalczyk,  C. M. Krauter,  K. Kue,  
 A. Kunitsa,  T. Kus,  A. Landau,  K. V. Lawler,  D. Lefrancois,  S. Lehtola,  
 Rain Li,  Shaozhi Li,  Yi-Pei Li,  Jiashu Liang,  M. Liebenthal,  
 Hung-Hsuan Lin,  You-Sheng Lin,  Fenglai Liu,  Kuan-Yu Liu,  
 M. Loipersberger,  A. Luenser,  C. Malbon,  A. Manjanath,  P. Manohar,  
 E. Mansoor,  S. F. Manzer,  Shan-Ping Mao,  A. V. Marenich,  T. Markovich,  
 S. Mason,  F. Matz,  S. A. Maurer,  P. F. McLaughlin,  M. F. S. J. Menger,  
 J.-M. Mewes,  S. A. Mewes,  P. Morgante,  Mohammad Mostafanejad,  
 J. W. Mullinax,  K. J. Oosterbaan,  G. Paran,  V. Parravicini,  
 Alexander C. Paul,  Suranjan K. Paul,  F. Pavosevic,  Zheng Pei,  S. Prager,  
 E. I. Proynov,  E. Ramos,  B. Rana,  A. E. Rask,  A. Rettig,  R. M. Richard,  
 F. Rob,  E. Rossomme,  T. Scheele,  M. Scheurer,  M. Schneider,  
 P. E. Schneider,  N. Sergueev,  S. M. Sharada,  Hengyuan Shen,  
 W. Skomorowski,  D. W. Small,  C. J. Stein,  Yingli Su,  Yu-Chuan Su,  
 E. J. Sundstrom,  Zhen Tao,  J. Thirman,  Hung-Yi Tsai,  T. Tsuchimochi,  
 N. M. Tubman,  C. Utku,  S. P. Veccham,  O. Vydrov,  J. Wenzel,  
 Jonathan Wong,  J. Witte,  A. Yamada,  Chou-Hsun Yang,  Kun Yao,  
 S. Yeganeh,  S. R. Yost,  A. Zech,  F. Zeller,  Igor Ying Zhang,  
 Xing Zhang,  Yu Zhang,  D. Zuev,  A. Aspuru-Guzik,  A. T. Bell,  
 N. A. Besley,  K. B. Bravaya,  B. R. Brooks,  D. Casanova,  Jeng-Da Chai,  
 Hsing-Ta Chen,  S. Coriani,  C. J. Cramer,  A. E. DePrince, III,  
 R. A. DiStasio Jr.,  A. Dreuw,  B. D. Dunietz,  T. R. Furlani,  
 W. A. Goddard III,  S. Grimme,  S. Hammes-Schiffer,  T. Head-Gordon,  
 W. J. Hehre,  Chao-Ping Hsu,  T.-C. Jagau,  Yousung Jung,  A. Klamt,  
 Jing Kong,  D. S. Lambrecht,  Xiangyuan Li,  WanZhen Liang,  N. J. Mayhall,  
 C. W. McCurdy,  J. B. Neaton,  T. Neudecker,  C. Ochsenfeld,  
 J. A. Parkhill,  R. Peverati,  V. A. Rassolov,  Haisheng Ren,  Yihan Shao,  
 L. V. Slipchenko,  R. P. Steele,  J. E. Subotnik,  A. J. W. Thom,  
 A. Tkatchenko,  D. G. Truhlar,  T. Van Voorhis,  Fan Wang,  
 T. A. Wesolowski,  K. B. Whaley,  H. L. Woodcock III,  P. M. Zimmerman,  
 S. Faraji,  P. M. W. Gill,  M. Head-Gordon,  J. M. Herbert,  A. I. Krylov

 Contributors to earlier versions of Q-Chem not listed above: 
 R. D. Adamson,  B. Austin,  R. Baer,  J. Baker,  G. J. O. Beran,  
 K. Brandhorst,  S. T. Brown,  E. F. C. Byrd,  Arup K. Chakraborty,  
 G. K. L. Chan,  Chun-Min Chang,  Yunqing Chen,  C.-L. Cheng,  
 Siu Hung Chien,  D. M. Chipman,  D. L. Crittenden,  H. Dachsel,  
 R. J. Doerksen,  A. D. Dutoi,  R. G. Edgar,  J. Fosso-Tande,  
 L. Fusti-Molnar,  D. Ghosh,  A. Ghysels,  A. Golubeva-Zadorozhnaya,  
 J. Gonthier,  M. S. Gordon,  S. R. Gwaltney,  G. Hawkins,  J. E. Herr,  
 A. Heyden,  S. Hirata,  E. G. Hohenstein,  G. Kedziora,  F. J. Keil,  
 C. Kelley,  Jihan Kim,  R. A. King,  R. Z. Khaliullin,  P. P. Korambath,  
 W. Kurlancheek,  A. Laurent,  A. M. Lee,  M. S. Lee,  S. V. Levchenko,  
 Ching Yeh Lin,  D. Liotard,  E. Livshits,  R. C. Lochan,  I. Lotan,  
 L. A. Martinez-Martinez,  P. E. Maslen,  N. Nair,  D. P. O'Neill,  
 D. Neuhauser,  E. Neuscamman,  C. M. Oana,  R. Olivares-Amaya,  R. Olson,  
 T. M. Perrine,  B. Peters,  P. A. Pieniazek,  A. Prociuk,  Y. M. Rhee,  
 J. Ritchie,  M. A. Rohrdanz,  E. Rosta,  N. J. Russ,  H. F. Schaefer III,  
 M. W. Schmidt,  N. E. Schultz,  S. Sharma,  N. Shenvi,  C. D. Sherrill,  
 A. C. Simmonett,  A. Sodt,  T. Stein,  D. Stuck,  K. S. Thanthiriwatte,  
 V. Vanovschi,  L. Vogt,  Tao Wang,  A. Warshel,  M. A. Watson,  
 C. F. Williams,  Q. Wu,  X. Xu,  Jun Yang,  W. Zhang,  Yan Zhao

   Please cite Q-Chem as follows:
  "Software for the frontiers of quantum chemistry:
   An overview of developments in the Q-Chem 5 package"
   J. Chem. Phys. 155, 084801 (2021)
   https://doi.org/10.1063/5.0055522 (open access)

 Q-Chem 6.0.0 for Intel X86 EM64T Linux

 Parts of Q-Chem use Armadillo 9.900.5 (Nocturnal Misbehaviour).
 http://arma.sourceforge.net/

 Q-Chem begins on Thu Jul 21 03:14:44 2022  

 Host: nid00561
0

     Scratch files written to /global/cscratch1/sd/ymao90/r7.00_frame_0061_spade_B3LYP_dp20220721031327//
 Processing $rem in /global/homes/y/ymao90/my_qchem/qchem_embedding_5p4/config/preferences:
 Processing $rem in /global/homes/y/ymao90/.qchemrc:
 No nuclear gradient supported for projection-based embedding or EMFT. Set max ideriv = 0.

 Checking the input file for inconsistencies... 	...done.

--------------------------------------------------------------
User input:
--------------------------------------------------------------
$molecule
0 1
--
0 1
C    25.72300   24.51800   26.16600  
C    26.78300   23.76000   26.98100  
C    27.19600   22.61400   26.04400  
C    27.66300   23.10300   24.66400  
C    26.61300   23.93100   23.90500  
C    26.09000   25.08100   24.78200  
H    28.05800   22.13300   26.52300  
H    27.65800   24.33100   27.31400  
H    24.85800   23.85600   26.03400  
H    25.40500   25.36200   26.79100  
H    28.61200   23.64300   24.76500  
H    27.80000   22.24000   24.00100  
H    27.08700   24.26800   22.97500  
H    25.79000   23.25900   23.63500  
H    26.84600   25.86500   24.90800  
H    25.22800   25.62400   24.37500  
H    26.47800   21.78500   26.01600  
N    26.28200   23.20400   28.23700  
H    25.78100   22.32500   28.20600  
C    26.12500   23.93000   29.39900  
H    25.47100   23.49500   30.17700  
O    26.61000   25.02600   29.61500  
--
0 1
C    27.19600   28.33200   28.24000  
H    27.07000   27.28700   28.53400  
H    28.18000   28.66200   28.58200  
H    26.38900   28.86600   28.74700  
S    26.82400   28.45100   26.47500  
C    26.93700   30.23600   26.22300  
H    26.32200   30.40100   25.33500  
H    26.64000   30.73300   27.15000  
H    27.95200   30.52300   25.93700  
O    25.39100   28.03900   26.34300  
C    21.68700   24.32000   36.74900  
H    20.67900   24.63100   37.03700  
H    21.70700   23.23400   36.63600  
H    22.37100   24.62600   37.54500  
S    22.23400   25.09800   35.21200  
C    21.09500   24.22400   34.11500  
H    21.61900   23.30400   33.84200  
H    20.20900   23.96200   34.69900  
H    20.82800   24.88100   33.28300  
O    23.53600   24.40600   34.95400  
C    29.81600   25.55200   30.03600  
H    29.25700   25.48900   29.09900  
H    30.21100   24.54700   30.20000  
H    29.26900   25.89200   30.92000  
S    31.24800   26.63800   29.84500  
C    31.88300   26.57800   31.53500  
H    31.08900   26.73800   32.26900  
H    32.38700   25.62600   31.71700  
H    32.58200   27.41900   31.55600  
O    30.57600   27.96800   29.70700  
C    33.10000   23.15800   30.44800  
H    32.27000   23.50600   31.06800  
H    33.88700   23.04100   31.19800  
H    33.20900   23.90900   29.66100  
S    32.60400   21.54600   29.80200  
C    31.15600   22.18100   28.92700  
H    30.64700   21.42700   28.32100  
H    30.41000   22.44900   29.67900  
H    31.45500   22.99200   28.25800  
O    31.87900   20.76300   30.85200  
C    31.28900   22.21000   24.93100  
H    32.18000   21.75600   25.37100  
H    30.89600   23.11700   25.39800  
H    30.44200   21.51900   24.94100  
S    31.64900   22.42800   23.17300  
C    32.53800   23.95100   23.56700  
H    32.83400   24.40400   22.61800  
H    31.85000   24.65400   24.04400  
H    33.35100   23.69100   24.25000  
O    30.30900   22.93000   22.73400  
C    23.23500   21.57100   31.92200  
H    23.78800   21.30900   32.82800  
H    23.36600   22.61400   31.62100  
H    22.17100   21.35400   32.04500  
S    24.02400   20.52800   30.67500  
C    23.58500   18.90200   31.33000  
H    23.51900   19.00200   32.41700  
H    22.64600   18.53400   30.91000  
H    24.38600   18.17800   31.16000  
O    25.43900   20.70800   31.12900  
C    34.16900   18.01200   28.44800  
H    35.21500   17.87700   28.73500  
H    33.69800   18.63500   29.21300  
H    33.65600   17.05300   28.33500  
S    34.16900   18.80500   26.82400  
C    32.39000   19.10700   26.91700  
H    32.10500   19.84300   27.67300  
H    32.14600   19.43100   25.90200  
H    31.96500   18.12900   27.15400  
O    34.25000   17.67500   25.84600  
C    28.39200   17.35200   27.25800  
H    27.47200   17.45500   26.67700  
H    29.15100   16.91000   26.60700  
H    28.12200   16.65100   28.05200  
S    28.96300   18.83800   28.11300  
C    27.44900   19.18300   29.03700  
H    27.11900   18.41300   29.73800  
H    27.66600   20.07800   29.62600  
H    26.72200   19.39400   28.24800  
O    29.01100   19.74800   26.92500  
C    24.30300   21.55300   17.20700  
H    25.23400   21.04500   16.94200  
H    23.67800   21.60900   16.31200  
H    24.48800   22.55700   17.59600  
S    23.37400   20.62900   18.45100  
C    24.37600   21.24300   19.82400  
H    24.29900   22.33100   19.88500  
H    24.07400   20.62000   20.67000  
H    25.38800   21.02600   19.47200  
O    23.88200   19.23400   18.25700  
C    27.98300   33.21000   29.85400  
H    27.28500   33.96400   30.22700  
H    28.99600   33.56000   30.06500  
H    27.84300   33.00000   28.79100  
S    27.70900   31.72200   30.84300  
C    29.10700   30.76100   30.21900  
H    28.95400   29.75200   30.61100  
H    29.01400   30.79100   29.13100  
H    30.07200   31.18600   30.50800  
O    26.55400   31.15300   30.07900  
C    29.36600   21.67900   32.72600  
H    29.68200   22.57900   33.25900  
H    30.02500   20.80900   32.65400  
H    29.20000   22.08500   31.72500  
S    27.85900   20.98100   33.43800  
C    26.82700   22.46100   33.33600  
H    27.29500   23.23800   33.94600  
H    26.67200   22.72000   32.28600  
H    25.85900   22.26700   33.80400  
O    28.23200   21.00000   34.88800  
C    21.48500   22.62700   22.27900  
H    20.73800   22.23000   21.58700  
H    21.10700   23.58900   22.63400  
H    22.50000   22.75100   21.89100  
S    21.69600   21.39800   23.58700  
C    22.97600   22.36700   24.41500  
H    22.45600   23.21200   24.87300  
H    23.40200   21.77800   25.23200  
H    23.79800   22.60100   23.73300  
O    22.51500   20.31500   22.95600  
C    21.02800   27.80500   24.74400  
H    21.83900   27.61300   24.03700  
H    20.18900   28.06700   24.09500  
H    21.21600   28.65500   25.40500  
S    20.66400   26.35400   25.75700  
C    22.37400   26.10800   26.28700  
H    22.77300   27.05900   26.64900  
H    22.46500   25.43900   27.14600  
H    22.95600   25.74800   25.43500  
O    20.64100   25.17900   24.82900  
C    22.56200   32.11900   22.32800  
H    23.05700   32.50200   23.22400  
H    23.25500   32.05000   21.48700  
H    21.60000   32.56000   22.05300  
S    22.09800   30.44800   22.83600  
C    23.79800   29.88000   23.06200  
H    24.28000   29.76300   22.08800  
H    24.37000   30.53000   23.73000  
H    23.70700   28.87900   23.49200  
O    21.75100   29.83200   21.51700  
C    31.84100   27.95500   25.61200  
H    32.32200   28.93300   25.68400  
H    32.40600   27.28700   26.26800  
H    31.89200   27.54000   24.60200  
S    30.07400   27.92400   25.99200  
C    29.87200   26.15200   25.70600  
H    28.80700   25.90900   25.67900  
H    30.44400   26.04100   24.78100  
H    30.37200   25.51400   26.44000  
O    29.52400   28.43400   24.69600  
C    32.09200   21.19700   17.72200  
H    31.92100   22.25200   17.95100  
H    33.01900   21.06600   17.15900  
H    31.31200   20.87100   17.02900  
S    31.96700   20.12100   19.16900  
C    30.39400   20.72300   19.82500  
H    29.53800   20.45100   19.20300  
H    30.28000   20.31200   20.83200  
H    30.52500   21.80800   19.82500  
O    32.91200   20.83500   20.08400  
C    27.65000   28.75700   19.80200  
H    28.23800   29.47600   19.22600  
H    28.04200   27.78100   19.50300  
H    26.60400   28.90900   19.52400  
S    27.89200   29.15800   21.54700  
C    26.70100   27.91800   22.10400  
H    26.36500   28.05800   23.13500  
H    25.81900   27.94400   21.46000  
H    27.19200   26.97800   21.84100  
O    27.09400   30.42300   21.61100  
C    21.07600   30.99800   27.61800  
H    20.03900   31.21400   27.88900  
H    21.40900   31.78100   26.93300  
H    21.11400   30.05100   27.07400  
S    22.15300   30.80200   29.05500  
C    23.60300   30.52700   28.01200  
H    24.40200   30.23000   28.69500  
H    23.46100   29.79200   27.21500  
H    23.88000   31.50100   27.60000  
O    21.72400   29.41200   29.40700  
C    26.39300   24.63300   18.42400  
H    26.79200   25.64700   18.33400  
H    25.69900   24.44600   17.60000  
H    25.86800   24.56500   19.38000  
S    27.69100   23.37900   18.34000  
C    28.23700   23.85100   16.68300  
H    28.86800   23.06800   16.25700  
H    27.30100   24.01700   16.14200  
H    28.72900   24.82700   16.71600  
O    27.01700   22.08700   17.99800  
C    23.27400   26.23500   29.81200  
H    23.70500   25.50600   29.12200  
H    23.40900   27.28800   29.55000  
H    23.69100   26.08000   30.81000  
S    21.50700   26.13300   30.17400  
C    21.63500   27.28500   31.56100  
H    22.34800   28.10300   31.42300  
H    20.68900   27.83100   31.57000  
H    21.89000   26.72200   32.46200  
O    21.50700   24.77300   30.79800  
C    29.56200   17.54400   23.72900  
H    30.28500   16.88300   23.24300  
H    29.96200   18.18900   24.51600  
H    28.81200   16.87500   24.15800  
S    28.76000   18.64000   22.53800  
C    27.64500   19.39600   23.74200  
H    27.23600   20.36500   23.44600  
H    26.80800   18.70800   23.88900  
H    28.22300   19.57100   24.65300  
O    27.99100   17.66100   21.70800  
C    21.64300   22.23400   28.22000  
H    21.18900   21.50500   28.89600  
H    22.57500   21.76700   27.89100  
H    21.79200   23.16500   28.77200  
S    20.43300   22.56900   26.92000  
C    19.21500   23.34500   28.00700  
H    18.96700   22.72200   28.87000  
H    19.63300   24.28000   28.38900  
H    18.36900   23.60800   27.36700  
O    19.78300   21.23700   26.71400  
C    23.86300   27.69200   19.18900  
H    23.72800   28.02100   18.15500  
H    23.66000   28.42800   19.97100  
H    24.78500   27.10500   19.20100  
S    22.54700   26.46700   19.37100  
C    22.72300   26.23100   21.15400  
H    22.43400   27.13400   21.69800  
H    22.15700   25.46600   21.69100  
H    23.75000   26.00100   21.45000  
O    23.28600   25.32800   18.73900  
C    31.30400   24.70900   20.25300  
H    31.82300   23.91600   20.79900  
H    30.73400   25.29300   20.98000  
H    30.68700   24.25300   19.47500  
S    32.47600   25.87900   19.53000  
C    33.38700   24.65100   18.56700  
H    32.78700   24.34400   17.70600  
H    34.29500   25.17700   18.26100  
H    33.72100   23.80000   19.16500  
O    33.34100   26.33800   20.66300  
C    25.92300   25.63400   33.25400  
H    25.94400   25.12600   32.28600  
H    26.00900   24.94700   34.10000  
H    25.05000   26.29100   33.23900  
S    27.38400   26.68600   33.39900  
C    27.05600   27.62800   31.89200  
H    26.39100   28.41800   32.24800  
H    28.01000   28.03600   31.55000  
H    26.63500   26.95400   31.14100  
O    28.48400   25.67600   33.28700  
C    24.48500   18.02900   27.99000  
H    24.71000   18.32200   29.01900  
H    23.75500   17.22400   27.87300  
H    25.41500   17.68900   27.52800  
S    23.77000   19.48300   27.19100  
C    24.20800   18.90200   25.53800  
H    25.23200   19.15700   25.25300  
H    24.00700   17.82800   25.56300  
H    23.52900   19.46100   24.88900  
O    24.78500   20.55700   27.43100  
C    34.66900   23.26300   27.02900  
H    34.73500   23.12700   28.11200  
H    34.00000   22.52700   26.57500  
H    35.62300   23.05300   26.54000  
S    34.06100   24.95800   26.88300  
C    35.08200   25.85900   28.07000  
H    34.86800   26.93100   28.04500  
H    34.79700   25.46000   29.04700  
H    36.13400   25.72500   27.80600  
O    32.70000   25.01500   27.50500  
$end

$rem
JOBTYPE  SP
METHOD  B3LYP
BASIS  6-31+G(D)
SYMMETRY  FALSE
SYM_IGNORE  TRUE
MEM_TOTAL  12000
MEM_STATIC  4000
BASIS_LIN_DEP_THRESH  6
THRESH  14
SCF_CONVERGENCE  8
FD_MAT_VEC_PROD  FALSE
XC_GRID  000075000302
NL_GRID  1
MAX_SCF_CYCLES  200
ENV_METHOD  B3LYP
GEN_SCFMAN_EMBED  TRUE
SPADE_PARTITION  TRUE
EMBEDDING_EARLY_STOP  TRUE
$end

--------------------------------------------------------------
 ----------------------------------------------------------------
             Standard Nuclear Orientation (Angstroms)
    I     Atom           X                Y                Z
 ----------------------------------------------------------------
    1      C      25.7230000000    24.5180000000    26.1660000000
    2      C      26.7830000000    23.7600000000    26.9810000000
    3      C      27.1960000000    22.6140000000    26.0440000000
    4      C      27.6630000000    23.1030000000    24.6640000000
    5      C      26.6130000000    23.9310000000    23.9050000000
    6      C      26.0900000000    25.0810000000    24.7820000000
    7      H      28.0580000000    22.1330000000    26.5230000000
    8      H      27.6580000000    24.3310000000    27.3140000000
    9      H      24.8580000000    23.8560000000    26.0340000000
   10      H      25.4050000000    25.3620000000    26.7910000000
   11      H      28.6120000000    23.6430000000    24.7650000000
   12      H      27.8000000000    22.2400000000    24.0010000000
   13      H      27.0870000000    24.2680000000    22.9750000000
   14      H      25.7900000000    23.2590000000    23.6350000000
   15      H      26.8460000000    25.8650000000    24.9080000000
   16      H      25.2280000000    25.6240000000    24.3750000000
   17      H      26.4780000000    21.7850000000    26.0160000000
   18      N      26.2820000000    23.2040000000    28.2370000000
   19      H      25.7810000000    22.3250000000    28.2060000000
   20      C      26.1250000000    23.9300000000    29.3990000000
   21      H      25.4710000000    23.4950000000    30.1770000000
   22      O      26.6100000000    25.0260000000    29.6150000000
   23      C      27.1960000000    28.3320000000    28.2400000000
   24      H      27.0700000000    27.2870000000    28.5340000000
   25      H      28.1800000000    28.6620000000    28.5820000000
   26      H      26.3890000000    28.8660000000    28.7470000000
   27      S      26.8240000000    28.4510000000    26.4750000000
   28      C      26.9370000000    30.2360000000    26.2230000000
   29      H      26.3220000000    30.4010000000    25.3350000000
   30      H      26.6400000000    30.7330000000    27.1500000000
   31      H      27.9520000000    30.5230000000    25.9370000000
   32      O      25.3910000000    28.0390000000    26.3430000000
   33      C      21.6870000000    24.3200000000    36.7490000000
   34      H      20.6790000000    24.6310000000    37.0370000000
   35      H      21.7070000000    23.2340000000    36.6360000000
   36      H      22.3710000000    24.6260000000    37.5450000000
   37      S      22.2340000000    25.0980000000    35.2120000000
   38      C      21.0950000000    24.2240000000    34.1150000000
   39      H      21.6190000000    23.3040000000    33.8420000000
   40      H      20.2090000000    23.9620000000    34.6990000000
   41      H      20.8280000000    24.8810000000    33.2830000000
   42      O      23.5360000000    24.4060000000    34.9540000000
   43      C      29.8160000000    25.5520000000    30.0360000000
   44      H      29.2570000000    25.4890000000    29.0990000000
   45      H      30.2110000000    24.5470000000    30.2000000000
   46      H      29.2690000000    25.8920000000    30.9200000000
   47      S      31.2480000000    26.6380000000    29.8450000000
   48      C      31.8830000000    26.5780000000    31.5350000000
   49      H      31.0890000000    26.7380000000    32.2690000000
   50      H      32.3870000000    25.6260000000    31.7170000000
   51      H      32.5820000000    27.4190000000    31.5560000000
   52      O      30.5760000000    27.9680000000    29.7070000000
   53      C      33.1000000000    23.1580000000    30.4480000000
   54      H      32.2700000000    23.5060000000    31.0680000000
   55      H      33.8870000000    23.0410000000    31.1980000000
   56      H      33.2090000000    23.9090000000    29.6610000000
   57      S      32.6040000000    21.5460000000    29.8020000000
   58      C      31.1560000000    22.1810000000    28.9270000000
   59      H      30.6470000000    21.4270000000    28.3210000000
   60      H      30.4100000000    22.4490000000    29.6790000000
   61      H      31.4550000000    22.9920000000    28.2580000000
   62      O      31.8790000000    20.7630000000    30.8520000000
   63      C      31.2890000000    22.2100000000    24.9310000000
   64      H      32.1800000000    21.7560000000    25.3710000000
   65      H      30.8960000000    23.1170000000    25.3980000000
   66      H      30.4420000000    21.5190000000    24.9410000000
   67      S      31.6490000000    22.4280000000    23.1730000000
   68      C      32.5380000000    23.9510000000    23.5670000000
   69      H      32.8340000000    24.4040000000    22.6180000000
   70      H      31.8500000000    24.6540000000    24.0440000000
   71      H      33.3510000000    23.6910000000    24.2500000000
   72      O      30.3090000000    22.9300000000    22.7340000000
   73      C      23.2350000000    21.5710000000    31.9220000000
   74      H      23.7880000000    21.3090000000    32.8280000000
   75      H      23.3660000000    22.6140000000    31.6210000000
   76      H      22.1710000000    21.3540000000    32.0450000000
   77      S      24.0240000000    20.5280000000    30.6750000000
   78      C      23.5850000000    18.9020000000    31.3300000000
   79      H      23.5190000000    19.0020000000    32.4170000000
   80      H      22.6460000000    18.5340000000    30.9100000000
   81      H      24.3860000000    18.1780000000    31.1600000000
   82      O      25.4390000000    20.7080000000    31.1290000000
   83      C      34.1690000000    18.0120000000    28.4480000000
   84      H      35.2150000000    17.8770000000    28.7350000000
   85      H      33.6980000000    18.6350000000    29.2130000000
   86      H      33.6560000000    17.0530000000    28.3350000000
   87      S      34.1690000000    18.8050000000    26.8240000000
   88      C      32.3900000000    19.1070000000    26.9170000000
   89      H      32.1050000000    19.8430000000    27.6730000000
   90      H      32.1460000000    19.4310000000    25.9020000000
   91      H      31.9650000000    18.1290000000    27.1540000000
   92      O      34.2500000000    17.6750000000    25.8460000000
   93      C      28.3920000000    17.3520000000    27.2580000000
   94      H      27.4720000000    17.4550000000    26.6770000000
   95      H      29.1510000000    16.9100000000    26.6070000000
   96      H      28.1220000000    16.6510000000    28.0520000000
   97      S      28.9630000000    18.8380000000    28.1130000000
   98      C      27.4490000000    19.1830000000    29.0370000000
   99      H      27.1190000000    18.4130000000    29.7380000000
  100      H      27.6660000000    20.0780000000    29.6260000000
  101      H      26.7220000000    19.3940000000    28.2480000000
  102      O      29.0110000000    19.7480000000    26.9250000000
  103      C      24.3030000000    21.5530000000    17.2070000000
  104      H      25.2340000000    21.0450000000    16.9420000000
  105      H      23.6780000000    21.6090000000    16.3120000000
  106      H      24.4880000000    22.5570000000    17.5960000000
  107      S      23.3740000000    20.6290000000    18.4510000000
  108      C      24.3760000000    21.2430000000    19.8240000000
  109      H      24.2990000000    22.3310000000    19.8850000000
  110      H      24.0740000000    20.6200000000    20.6700000000
  111      H      25.3880000000    21.0260000000    19.4720000000
  112      O      23.8820000000    19.2340000000    18.2570000000
  113      C      27.9830000000    33.2100000000    29.8540000000
  114      H      27.2850000000    33.9640000000    30.2270000000
  115      H      28.9960000000    33.5600000000    30.0650000000
  116      H      27.8430000000    33.0000000000    28.7910000000
  117      S      27.7090000000    31.7220000000    30.8430000000
  118      C      29.1070000000    30.7610000000    30.2190000000
  119      H      28.9540000000    29.7520000000    30.6110000000
  120      H      29.0140000000    30.7910000000    29.1310000000
  121      H      30.0720000000    31.1860000000    30.5080000000
  122      O      26.5540000000    31.1530000000    30.0790000000
  123      C      29.3660000000    21.6790000000    32.7260000000
  124      H      29.6820000000    22.5790000000    33.2590000000
  125      H      30.0250000000    20.8090000000    32.6540000000
  126      H      29.2000000000    22.0850000000    31.7250000000
  127      S      27.8590000000    20.9810000000    33.4380000000
  128      C      26.8270000000    22.4610000000    33.3360000000
  129      H      27.2950000000    23.2380000000    33.9460000000
  130      H      26.6720000000    22.7200000000    32.2860000000
  131      H      25.8590000000    22.2670000000    33.8040000000
  132      O      28.2320000000    21.0000000000    34.8880000000
  133      C      21.4850000000    22.6270000000    22.2790000000
  134      H      20.7380000000    22.2300000000    21.5870000000
  135      H      21.1070000000    23.5890000000    22.6340000000
  136      H      22.5000000000    22.7510000000    21.8910000000
  137      S      21.6960000000    21.3980000000    23.5870000000
  138      C      22.9760000000    22.3670000000    24.4150000000
  139      H      22.4560000000    23.2120000000    24.8730000000
  140      H      23.4020000000    21.7780000000    25.2320000000
  141      H      23.7980000000    22.6010000000    23.7330000000
  142      O      22.5150000000    20.3150000000    22.9560000000
  143      C      21.0280000000    27.8050000000    24.7440000000
  144      H      21.8390000000    27.6130000000    24.0370000000
  145      H      20.1890000000    28.0670000000    24.0950000000
  146      H      21.2160000000    28.6550000000    25.4050000000
  147      S      20.6640000000    26.3540000000    25.7570000000
  148      C      22.3740000000    26.1080000000    26.2870000000
  149      H      22.7730000000    27.0590000000    26.6490000000
  150      H      22.4650000000    25.4390000000    27.1460000000
  151      H      22.9560000000    25.7480000000    25.4350000000
  152      O      20.6410000000    25.1790000000    24.8290000000
  153      C      22.5620000000    32.1190000000    22.3280000000
  154      H      23.0570000000    32.5020000000    23.2240000000
  155      H      23.2550000000    32.0500000000    21.4870000000
  156      H      21.6000000000    32.5600000000    22.0530000000
  157      S      22.0980000000    30.4480000000    22.8360000000
  158      C      23.7980000000    29.8800000000    23.0620000000
  159      H      24.2800000000    29.7630000000    22.0880000000
  160      H      24.3700000000    30.5300000000    23.7300000000
  161      H      23.7070000000    28.8790000000    23.4920000000
  162      O      21.7510000000    29.8320000000    21.5170000000
  163      C      31.8410000000    27.9550000000    25.6120000000
  164      H      32.3220000000    28.9330000000    25.6840000000
  165      H      32.4060000000    27.2870000000    26.2680000000
  166      H      31.8920000000    27.5400000000    24.6020000000
  167      S      30.0740000000    27.9240000000    25.9920000000
  168      C      29.8720000000    26.1520000000    25.7060000000
  169      H      28.8070000000    25.9090000000    25.6790000000
  170      H      30.4440000000    26.0410000000    24.7810000000
  171      H      30.3720000000    25.5140000000    26.4400000000
  172      O      29.5240000000    28.4340000000    24.6960000000
  173      C      32.0920000000    21.1970000000    17.7220000000
  174      H      31.9210000000    22.2520000000    17.9510000000
  175      H      33.0190000000    21.0660000000    17.1590000000
  176      H      31.3120000000    20.8710000000    17.0290000000
  177      S      31.9670000000    20.1210000000    19.1690000000
  178      C      30.3940000000    20.7230000000    19.8250000000
  179      H      29.5380000000    20.4510000000    19.2030000000
  180      H      30.2800000000    20.3120000000    20.8320000000
  181      H      30.5250000000    21.8080000000    19.8250000000
  182      O      32.9120000000    20.8350000000    20.0840000000
  183      C      27.6500000000    28.7570000000    19.8020000000
  184      H      28.2380000000    29.4760000000    19.2260000000
  185      H      28.0420000000    27.7810000000    19.5030000000
  186      H      26.6040000000    28.9090000000    19.5240000000
  187      S      27.8920000000    29.1580000000    21.5470000000
  188      C      26.7010000000    27.9180000000    22.1040000000
  189      H      26.3650000000    28.0580000000    23.1350000000
  190      H      25.8190000000    27.9440000000    21.4600000000
  191      H      27.1920000000    26.9780000000    21.8410000000
  192      O      27.0940000000    30.4230000000    21.6110000000
  193      C      21.0760000000    30.9980000000    27.6180000000
  194      H      20.0390000000    31.2140000000    27.8890000000
  195      H      21.4090000000    31.7810000000    26.9330000000
  196      H      21.1140000000    30.0510000000    27.0740000000
  197      S      22.1530000000    30.8020000000    29.0550000000
  198      C      23.6030000000    30.5270000000    28.0120000000
  199      H      24.4020000000    30.2300000000    28.6950000000
  200      H      23.4610000000    29.7920000000    27.2150000000
  201      H      23.8800000000    31.5010000000    27.6000000000
  202      O      21.7240000000    29.4120000000    29.4070000000
  203      C      26.3930000000    24.6330000000    18.4240000000
  204      H      26.7920000000    25.6470000000    18.3340000000
  205      H      25.6990000000    24.4460000000    17.6000000000
  206      H      25.8680000000    24.5650000000    19.3800000000
  207      S      27.6910000000    23.3790000000    18.3400000000
  208      C      28.2370000000    23.8510000000    16.6830000000
  209      H      28.8680000000    23.0680000000    16.2570000000
  210      H      27.3010000000    24.0170000000    16.1420000000
  211      H      28.7290000000    24.8270000000    16.7160000000
  212      O      27.0170000000    22.0870000000    17.9980000000
  213      C      23.2740000000    26.2350000000    29.8120000000
  214      H      23.7050000000    25.5060000000    29.1220000000
  215      H      23.4090000000    27.2880000000    29.5500000000
  216      H      23.6910000000    26.0800000000    30.8100000000
  217      S      21.5070000000    26.1330000000    30.1740000000
  218      C      21.6350000000    27.2850000000    31.5610000000
  219      H      22.3480000000    28.1030000000    31.4230000000
  220      H      20.6890000000    27.8310000000    31.5700000000
  221      H      21.8900000000    26.7220000000    32.4620000000
  222      O      21.5070000000    24.7730000000    30.7980000000
  223      C      29.5620000000    17.5440000000    23.7290000000
  224      H      30.2850000000    16.8830000000    23.2430000000
  225      H      29.9620000000    18.1890000000    24.5160000000
  226      H      28.8120000000    16.8750000000    24.1580000000
  227      S      28.7600000000    18.6400000000    22.5380000000
  228      C      27.6450000000    19.3960000000    23.7420000000
  229      H      27.2360000000    20.3650000000    23.4460000000
  230      H      26.8080000000    18.7080000000    23.8890000000
  231      H      28.2230000000    19.5710000000    24.6530000000
  232      O      27.9910000000    17.6610000000    21.7080000000
  233      C      21.6430000000    22.2340000000    28.2200000000
  234      H      21.1890000000    21.5050000000    28.8960000000
  235      H      22.5750000000    21.7670000000    27.8910000000
  236      H      21.7920000000    23.1650000000    28.7720000000
  237      S      20.4330000000    22.5690000000    26.9200000000
  238      C      19.2150000000    23.3450000000    28.0070000000
  239      H      18.9670000000    22.7220000000    28.8700000000
  240      H      19.6330000000    24.2800000000    28.3890000000
  241      H      18.3690000000    23.6080000000    27.3670000000
  242      O      19.7830000000    21.2370000000    26.7140000000
  243      C      23.8630000000    27.6920000000    19.1890000000
  244      H      23.7280000000    28.0210000000    18.1550000000
  245      H      23.6600000000    28.4280000000    19.9710000000
  246      H      24.7850000000    27.1050000000    19.2010000000
  247      S      22.5470000000    26.4670000000    19.3710000000
  248      C      22.7230000000    26.2310000000    21.1540000000
  249      H      22.4340000000    27.1340000000    21.6980000000
  250      H      22.1570000000    25.4660000000    21.6910000000
  251      H      23.7500000000    26.0010000000    21.4500000000
  252      O      23.2860000000    25.3280000000    18.7390000000
  253      C      31.3040000000    24.7090000000    20.2530000000
  254      H      31.8230000000    23.9160000000    20.7990000000
  255      H      30.7340000000    25.2930000000    20.9800000000
  256      H      30.6870000000    24.2530000000    19.4750000000
  257      S      32.4760000000    25.8790000000    19.5300000000
  258      C      33.3870000000    24.6510000000    18.5670000000
  259      H      32.7870000000    24.3440000000    17.7060000000
  260      H      34.2950000000    25.1770000000    18.2610000000
  261      H      33.7210000000    23.8000000000    19.1650000000
  262      O      33.3410000000    26.3380000000    20.6630000000
  263      C      25.9230000000    25.6340000000    33.2540000000
  264      H      25.9440000000    25.1260000000    32.2860000000
  265      H      26.0090000000    24.9470000000    34.1000000000
  266      H      25.0500000000    26.2910000000    33.2390000000
  267      S      27.3840000000    26.6860000000    33.3990000000
  268      C      27.0560000000    27.6280000000    31.8920000000
  269      H      26.3910000000    28.4180000000    32.2480000000
  270      H      28.0100000000    28.0360000000    31.5500000000
  271      H      26.6350000000    26.9540000000    31.1410000000
  272      O      28.4840000000    25.6760000000    33.2870000000
  273      C      24.4850000000    18.0290000000    27.9900000000
  274      H      24.7100000000    18.3220000000    29.0190000000
  275      H      23.7550000000    17.2240000000    27.8730000000
  276      H      25.4150000000    17.6890000000    27.5280000000
  277      S      23.7700000000    19.4830000000    27.1910000000
  278      C      24.2080000000    18.9020000000    25.5380000000
  279      H      25.2320000000    19.1570000000    25.2530000000
  280      H      24.0070000000    17.8280000000    25.5630000000
  281      H      23.5290000000    19.4610000000    24.8890000000
  282      O      24.7850000000    20.5570000000    27.4310000000
  283      C      34.6690000000    23.2630000000    27.0290000000
  284      H      34.7350000000    23.1270000000    28.1120000000
  285      H      34.0000000000    22.5270000000    26.5750000000
  286      H      35.6230000000    23.0530000000    26.5400000000
  287      S      34.0610000000    24.9580000000    26.8830000000
  288      C      35.0820000000    25.8590000000    28.0700000000
  289      H      34.8680000000    26.9310000000    28.0450000000
  290      H      34.7970000000    25.4600000000    29.0470000000
  291      H      36.1340000000    25.7250000000    27.8060000000
  292      O      32.7000000000    25.0150000000    27.5050000000
 ----------------------------------------------------------------
 Nuclear Repulsion Energy =       47894.88109303 hartrees
 There are      602 alpha and      602 beta electrons
 Requested basis set is 6-31+G(d)
 There are 962 shells and 2681 basis functions

 Total QAlloc Memory Limit  12000 MB
 Mega-Array Size      3911 MB
 MEM_STATIC part      4000 MB

 A cutoff of  1.0D-14 yielded 177637 shell pairs
 There are   1531791 function pairs
 Smallest overlap matrix eigenvalue = 4.58E-07
 Linear dependence detected in AO basis
 Tighter screening thresholds may be required for diffuse basis sets
 Use S2THRESH > 14 and THRESH = 14 in case of SCF convergence issues
 Number of orthogonalized atomic orbitals = 2679
 Maximum deviation from orthogonality = 1.027E-10

 Scale SEOQF with 1.000000e-03/1.000000e-03/1.000000e-03

 Standard Electronic Orientation quadrupole field applied
 Nucleus-field energy     =    -0.0000000748 hartrees
 Guess from superposition of atomic densities
 Warning:  Energy on first SCF cycle will be non-variational
 SAD guess density has 1204.000002 electrons

 -----------------------------------------------------------------------
  General SCF calculation program by
  Eric Jon Sundstrom, Paul Horn, Yuezhi Mao, Dmitri Zuev, Alec White,
  David Stuck, Shaama M.S., Shane Yost, Joonho Lee, David Small,
  Daniel Levine, Susi Lehtola, Hugh Burton, Evgeny Epifanovsky,
  Bang C. Huynh
 -----------------------------------------------------------------------
=================================================
        Doing projection-based embedding         
      F. Manby et al. JCTC, 8, 2564 (2012)       
=================================================

****************************************************
   Low-level SCF calculation for the whole system   
****************************************************
----------------------------------------------
 Summary of the low-level theory: 
 Exchange:     0.2000 Hartree-Fock + 0.0800 Slater + 0.7200 B88
 Correlation:  0.1900 VWN1RPA + 0.8100 LYP
 Using Euler-Maclaurin-Lebedev (75,302) quadrature formula
----------------------------------------------
 using 16 threads for integral computing
 -------------------------------------------------------
 OpenMP Integral computing Module                
 Release: version 1.0, May 2013, Q-Chem Inc. Pittsburgh 
 -------------------------------------------------------
 A restricted SCF calculation will be
 performed using DIIS
 SCF converges when DIIS error is below 1.0e-08
 ---------------------------------------
  Cycle       Energy         DIIS error
 ---------------------------------------
    1  -15359.9389032496      1.35e-02  
    2  -15335.8108858157      2.52e-03  
    3  -15314.8389856734      5.18e-03  
    4  -15331.2979598556      2.23e-03  
    5  -15340.1185287796      8.36e-04  
    6  -15340.6614918102      2.99e-04  
    7  -15340.7012769737      1.80e-04  
    8  -15340.7268577891      3.77e-05  
    9  -15340.7276847286      2.31e-05  
   10  -15340.7280440236      8.80e-06  
   11  -15340.7281016374      2.32e-06  
   12  -15340.7281053474      9.61e-07  
   13  -15340.7281059748      4.03e-07  
   14  -15340.7281060893      1.06e-07  
   15  -15340.7281060979      3.49e-08  
   16  -15340.7281060989      1.49e-08  
   17  -15340.7281060989      5.31e-09  Convergence criterion met
 ---------------------------------------
 SCF time:   CPU 300048.66s  wall 21809.00s 
 SCF   energy in the final basis set =   -15340.7281060989
 Total energy in the final basis set =   -15340.7281060989

****************************************************
             Start embedding calculation            
****************************************************
----------------------------------------------
 Summary of the high-level theory: 
 Exchange:     0.2000 Hartree-Fock + 0.0800 Slater + 0.7200 B88
 Correlation:  0.1900 VWN1RPA + 0.8100 LYP
 Using Euler-Maclaurin-Lebedev (75,302) quadrature formula
----------------------------------------------
Doing R-in-R Embedding Calculation
Number of fragments: 2
Embedded fragment(s): 1 
NOcc for each fragment
           35
          567
NBasis for each fragment
          197
         2484
Variational space of the embedded problem: 
NOcc (active)  = 35
NOcc (fixed)   = 567
NVir (total)   = 2077
Read converged orbitals from disk
=========================================================
       Doing SPADE partition for the orbital space       
     D. Claudino and N. Mayhall JCTC 15, 1053 (2019)     
=========================================================
SPADE singular values:
 1.0000 1.0000 1.0000 1.0000 1.0000 1.0000 1.0000 1.0000 1.0000 0.9999
 0.9999 0.9998 0.9997 0.9996 0.9995 0.9993 0.9993 0.9992 0.9984 0.9982
 0.9980 0.9972 0.9970 0.9963 0.9957 0.9952 0.9942 0.9935 0.9929 0.9925
 0.9916 0.9901 0.9884 0.9862 0.9802 0.2094 0.1728 0.1593 0.1514 0.1487
 0.1401 0.1317 0.1186 0.1131 0.1070 0.1008 0.0899 0.0732 0.0660 0.0608
 0.0545 0.0513 0.0473 0.0446 0.0419 0.0401 0.0380 0.0364 0.0337 0.0305
 0.0297 0.0289 0.0256 0.0241 0.0235 0.0228 0.0211 0.0189 0.0176 0.0169
 0.0158 0.0148 0.0140 0.0136 0.0132 0.0124 0.0110 0.0106 0.0096 0.0091
 0.0091 0.0084 0.0079 0.0075 0.0071 0.0067 0.0064 0.0062 0.0062 0.0058
 0.0055 0.0053 0.0052 0.0049 0.0047 0.0045 0.0040 0.0038 0.0038 0.0035
 0.0034 0.0030 0.0030 0.0029 0.0029 0.0026 0.0025 0.0025 0.0023 0.0022
 0.0021 0.0020 0.0019 0.0019 0.0019 0.0018 0.0017 0.0017 0.0016 0.0015
 0.0015 0.0014 0.0013 0.0013 0.0012 0.0012 0.0011 0.0010 0.0010 0.0010
 0.0010 0.0009 0.0009 0.0008 0.0008 0.0008 0.0008 0.0008 0.0007 0.0007
 0.0007 0.0006 0.0006 0.0006 0.0006 0.0005 0.0005 0.0005 0.0005 0.0004
 0.0004 0.0004 0.0004 0.0003 0.0003 0.0003 0.0003 0.0003 0.0003 0.0003
 0.0003 0.0003 0.0002 0.0002 0.0002 0.0002 0.0002 0.0002 0.0002 0.0002
 0.0002 0.0002 0.0002 0.0002 0.0002 0.0002 0.0002 0.0001 0.0001 0.0001
 0.0001 0.0001 0.0001 0.0001 0.0001 0.0001 0.0001 0.0001 0.0001 0.0001
 0.0001 0.0001 0.0001 0.0001 0.0001 0.0001 0.0000
Early stop requested; no embedded SCF will be performed

 567 environment occs will be part of frozen-core in future post-HF calculations

 --------------------------------------------------------------

                    Orbital Energies (a.u.)
 --------------------------------------------------------------

 Alpha MOs
 -- Occupied --
-89.0350 -89.0224 -89.0183 -89.0159 -89.0155 -89.0153 -89.0137 -89.0127
-89.0109 -89.0056 -89.0056 -89.0051 -89.0044 -89.0037 -89.0019 -89.0018
-89.0009 -88.9990 -88.9985 -88.9942 -88.9927 -88.9862 -88.9859 -88.9853
-88.9809 -88.9647 -88.9479 -19.1551 -19.1328 -19.1317 -19.1298 -19.1286
-19.1283 -19.1281 -19.1220 -19.1217 -19.1202 -19.1193 -19.1188 -19.1183
-19.1173 -19.1169 -19.1145 -19.1133 -19.1128 -19.1108 -19.1107 -19.1081
-19.0983 -19.0970 -19.0961 -19.0940 -19.0732 -19.0618 -10.2582 -10.2578
-10.2363 -10.2357 -10.2357 -10.2354 -10.2336 -10.2325 -10.2320 -10.2293
-10.2284 -10.2270 -10.2264 -10.2249 -10.2244 -10.2231 -10.2230 -10.2227
-10.2222 -10.2208 -10.2207 -10.2199 -10.2197 -10.2196 -10.2191 -10.2190
-10.2187 -10.2187 -10.2183 -10.2176 -10.2166 -10.2165 -10.2165 -10.2158
-10.2157 -10.2155 -10.2154 -10.2151 -10.2143 -10.2114 -10.2104 -10.2052
-10.2048 -10.2021 -10.2009 -10.2009 -10.2007 -10.2003 -10.2000 -10.1976
-10.1827 -10.1787 -10.1642 -10.1635  -8.0811  -8.0684  -8.0637  -8.0626
 -8.0620  -8.0615  -8.0590  -8.0582  -8.0565  -8.0521  -8.0513  -8.0505
 -8.0501  -8.0495  -8.0481  -8.0476  -8.0461  -8.0454  -8.0445  -8.0397
 -8.0389  -8.0318  -8.0317  -8.0314  -8.0266  -8.0106  -7.9945  -6.0456
 -6.0444  -6.0380  -6.0327  -6.0313  -6.0280  -6.0269  -6.0268  -6.0262
 -6.0261  -6.0261  -6.0256  -6.0250  -6.0244  -6.0234  -6.0227  -6.0221
 -6.0213  -6.0213  -6.0209  -6.0202  -6.0197  -6.0195  -6.0190  -6.0167
 -6.0163  -6.0156  -6.0156  -6.0152  -6.0147  -6.0143  -6.0143  -6.0139
 -6.0138  -6.0136  -6.0133  -6.0126  -6.0122  -6.0119  -6.0112  -6.0105
 -6.0103  -6.0097  -6.0096  -6.0092  -6.0090  -6.0089  -6.0085  -6.0080
 -6.0077  -6.0076  -6.0069  -6.0059  -6.0054  -6.0043  -6.0038  -6.0032
 -6.0029  -6.0027  -6.0020  -6.0017  -5.9967  -5.9964  -5.9963  -5.9960
 -5.9957  -5.9950  -5.9948  -5.9946  -5.9909  -5.9897  -5.9892  -5.9891
 -5.9889  -5.9841  -5.9747  -5.9738  -5.9682  -5.9587  -5.9576  -5.9521
 -1.0639  -1.0460  -1.0450  -1.0409  -1.0407  -1.0390  -1.0386  -1.0360
 -1.0333  -1.0324  -1.0284  -1.0277  -1.0270  -1.0268  -1.0266  -1.0254
 -1.0254  -1.0246  -1.0242  -1.0230  -1.0154  -1.0132  -1.0071  -1.0063
 -1.0046  -0.9858  -0.9712  -0.8388  -0.8192  -0.8181  -0.8170  -0.8166
 -0.8129  -0.8095  -0.8086  -0.8079  -0.8069  -0.8062  -0.8054  -0.8050
 -0.8044  -0.8043  -0.8041  -0.8010  -0.7999  -0.7980  -0.7975  -0.7973
 -0.7890  -0.7873  -0.7857  -0.7845  -0.7720  -0.7600  -0.7518  -0.7438
 -0.7434  -0.7428  -0.7417  -0.7406  -0.7386  -0.7363  -0.7354  -0.7336
 -0.7331  -0.7316  -0.7314  -0.7311  -0.7305  -0.7279  -0.7267  -0.7257
 -0.7247  -0.7247  -0.7216  -0.7162  -0.7153  -0.7141  -0.7099  -0.6945
 -0.6755  -0.6504  -0.6345  -0.6327  -0.6309  -0.6288  -0.6266  -0.6258
 -0.6246  -0.6216  -0.6205  -0.6187  -0.6181  -0.6181  -0.6164  -0.6159
 -0.6141  -0.6134  -0.6123  -0.6100  -0.6061  -0.6046  -0.6009  -0.5993
 -0.5966  -0.5950  -0.5774  -0.5597  -0.5284  -0.5055  -0.5033  -0.5003
 -0.4988  -0.4962  -0.4956  -0.4949  -0.4947  -0.4936  -0.4933  -0.4913
 -0.4902  -0.4895  -0.4889  -0.4886  -0.4872  -0.4860  -0.4854  -0.4853
 -0.4849  -0.4836  -0.4835  -0.4832  -0.4822  -0.4817  -0.4814  -0.4812
 -0.4800  -0.4792  -0.4779  -0.4775  -0.4772  -0.4766  -0.4758  -0.4756
 -0.4752  -0.4737  -0.4736  -0.4733  -0.4730  -0.4727  -0.4722  -0.4718
 -0.4715  -0.4706  -0.4698  -0.4696  -0.4694  -0.4687  -0.4682  -0.4676
 -0.4671  -0.4669  -0.4668  -0.4659  -0.4650  -0.4649  -0.4641  -0.4636
 -0.4632  -0.4623  -0.4614  -0.4602  -0.4594  -0.4584  -0.4569  -0.4550
 -0.4543  -0.4536  -0.4527  -0.4514  -0.4503  -0.4493  -0.4484  -0.4480
 -0.4473  -0.4470  -0.4453  -0.4442  -0.4438  -0.4427  -0.4421  -0.4413
 -0.4410  -0.4406  -0.4397  -0.4389  -0.4386  -0.4349  -0.4342  -0.4324
 -0.4321  -0.4314  -0.4312  -0.4305  -0.4301  -0.4296  -0.4292  -0.4291
 -0.4273  -0.4272  -0.4269  -0.4261  -0.4254  -0.4238  -0.4232  -0.4218
 -0.4208  -0.4200  -0.4177  -0.4175  -0.4168  -0.4162  -0.4161  -0.4158
 -0.4156  -0.4147  -0.4143  -0.4142  -0.4137  -0.4124  -0.4118  -0.4114
 -0.4111  -0.4098  -0.4092  -0.4091  -0.4086  -0.4079  -0.4074  -0.4064
 -0.4062  -0.4060  -0.4040  -0.4032  -0.4021  -0.4004  -0.3996  -0.3990
 -0.3988  -0.3987  -0.3974  -0.3951  -0.3950  -0.3947  -0.3943  -0.3927
 -0.3923  -0.3915  -0.3914  -0.3906  -0.3904  -0.3897  -0.3865  -0.3856
 -0.3845  -0.3816  -0.3806  -0.3798  -0.3781  -0.3772  -0.3767  -0.3750
 -0.3726  -0.3721  -0.3711  -0.3708  -0.3700  -0.3687  -0.3677  -0.3673
 -0.3666  -0.3665  -0.3653  -0.3650  -0.3629  -0.3620  -0.3596  -0.3584
 -0.3573  -0.3537  -0.3531  -0.3499  -0.3466  -0.3442  -0.3432  -0.3270
 -0.3200  -0.3099  -0.2923  -0.2908  -0.2901  -0.2890  -0.2886  -0.2871
 -0.2853  -0.2837  -0.2812  -0.2810  -0.2803  -0.2798  -0.2764  -0.2752
 -0.2751  -0.2737  -0.2730  -0.2725  -0.2715  -0.2698  -0.2689  -0.2663
 -0.2651  -0.2596  -0.2596  -0.2583  -0.2569  -0.2564  -0.2558  -0.2549
 -0.2518  -0.2513  -0.2492  -0.2480  -0.2476  -0.2455  -0.2454  -0.2453
 -0.2437  -0.2420  -0.2406  -0.2394  -0.2381  -0.2329  -0.2316  -0.2296
 -0.2287  -0.2248  -0.2220  -0.2213  -0.2194  -0.2034  -0.1896 -14.1086
-10.2813 -10.3857 -10.2425 -17.4999 -10.7382 -10.2225 -10.3013 -10.4447
 -0.7478  -0.7083  -0.5545  -0.8105  -0.6551  -0.9405  -0.7052  -0.7337
 -0.4292  -0.4522  -0.4462  -0.4188  -0.4154  -0.5099  -0.4546  -0.4323
 -0.4292  -0.3781  -0.4504  -0.4579  -0.3732  -0.4382  -0.4842  -0.4784
 -0.5401  -0.4793
 -- Virtual --
 -0.0355  -0.0312  -0.0271  -0.0264  -0.0252  -0.0241  -0.0224  -0.0218
 -0.0211  -0.0170  -0.0167  -0.0165  -0.0156  -0.0146  -0.0138  -0.0124
 -0.0121  -0.0112  -0.0094  -0.0084  -0.0080  -0.0074  -0.0069  -0.0064
 -0.0046  -0.0041  -0.0037  -0.0032  -0.0022  -0.0017   0.0001   0.0005
  0.0013   0.0018   0.0024   0.0029   0.0034   0.0039   0.0049   0.0059
  0.0073   0.0075   0.0078   0.0085   0.0097   0.0099   0.0105   0.0111
  0.0120   0.0123   0.0135   0.0143   0.0147   0.0158   0.0161   0.0165
  0.0175   0.0189   0.0194   0.0201   0.0209   0.0220   0.0229   0.0231
  0.0240   0.0256   0.0259   0.0262   0.0272   0.0275   0.0288   0.0292
  0.0297   0.0300   0.0306   0.0313   0.0314   0.0319   0.0330   0.0334
  0.0340   0.0353   0.0355   0.0357   0.0374   0.0378   0.0380   0.0393
  0.0396   0.0400   0.0404   0.0412   0.0423   0.0427   0.0431   0.0433
  0.0446   0.0448   0.0453   0.0457   0.0467   0.0470   0.0475   0.0481
  0.0487   0.0495   0.0500   0.0506   0.0512   0.0521   0.0522   0.0530
  0.0534   0.0545   0.0556   0.0560   0.0565   0.0568   0.0572   0.0583
  0.0587   0.0592   0.0597   0.0601   0.0611   0.0619   0.0625   0.0629
  0.0639   0.0640   0.0647   0.0660   0.0662   0.0668   0.0676   0.0688
  0.0690   0.0693   0.0698   0.0706   0.0714   0.0721   0.0732   0.0737
  0.0745   0.0754   0.0763   0.0772   0.0776   0.0790   0.0795   0.0800
  0.0807   0.0811   0.0814   0.0820   0.0835   0.0837   0.0847   0.0853
  0.0859   0.0864   0.0869   0.0880   0.0882   0.0889   0.0894   0.0899
  0.0907   0.0917   0.0918   0.0924   0.0934   0.0934   0.0943   0.0946
  0.0960   0.0962   0.0967   0.0972   0.0977   0.0987   0.0997   0.1007
  0.1015   0.1019   0.1025   0.1027   0.1031   0.1041   0.1046   0.1051
  0.1060   0.1068   0.1074   0.1078   0.1088   0.1092   0.1098   0.1106
  0.1111   0.1116   0.1120   0.1124   0.1138   0.1140   0.1145   0.1161
  0.1164   0.1172   0.1174   0.1183   0.1191   0.1199   0.1203   0.1204
  0.1212   0.1213   0.1225   0.1229   0.1232   0.1235   0.1244   0.1246
  0.1253   0.1262   0.1271   0.1275   0.1283   0.1284   0.1287   0.1303
  0.1307   0.1317   0.1322   0.1325   0.1329   0.1335   0.1342   0.1346
  0.1351   0.1359   0.1365   0.1369   0.1374   0.1378   0.1384   0.1390
  0.1399   0.1403   0.1409   0.1415   0.1420   0.1428   0.1434   0.1442
  0.1447   0.1447   0.1452   0.1459   0.1462   0.1469   0.1477   0.1484
  0.1486   0.1492   0.1496   0.1500   0.1506   0.1520   0.1524   0.1532
  0.1535   0.1539   0.1542   0.1546   0.1555   0.1560   0.1571   0.1577
  0.1581   0.1590   0.1594   0.1611   0.1612   0.1621   0.1625   0.1636
  0.1639   0.1640   0.1643   0.1660   0.1664   0.1667   0.1670   0.1676
  0.1682   0.1693   0.1699   0.1702   0.1708   0.1714   0.1716   0.1727
  0.1732   0.1735   0.1742   0.1745   0.1757   0.1762   0.1768   0.1773
  0.1780   0.1785   0.1790   0.1796   0.1799   0.1806   0.1816   0.1820
  0.1825   0.1835   0.1838   0.1845   0.1847   0.1858   0.1865   0.1871
  0.1875   0.1882   0.1886   0.1888   0.1892   0.1903   0.1907   0.1916
  0.1922   0.1929   0.1933   0.1945   0.1951   0.1959   0.1963   0.1967
  0.1978   0.1980   0.1984   0.1995   0.1998   0.2001   0.2009   0.2015
  0.2022   0.2029   0.2036   0.2042   0.2046   0.2055   0.2062   0.2067
  0.2072   0.2076   0.2082   0.2085   0.2088   0.2094   0.2100   0.2112
  0.2118   0.2121   0.2124   0.2130   0.2136   0.2145   0.2151   0.2155
  0.2159   0.2164   0.2170   0.2178   0.2180   0.2192   0.2200   0.2205
  0.2212   0.2217   0.2223   0.2228   0.2232   0.2237   0.2244   0.2251
  0.2255   0.2263   0.2270   0.2273   0.2285   0.2293   0.2301   0.2303
  0.2315   0.2321   0.2324   0.2334   0.2341   0.2346   0.2350   0.2351
  0.2365   0.2369   0.2379   0.2385   0.2388   0.2397   0.2404   0.2408
  0.2412   0.2420   0.2423   0.2430   0.2442   0.2451   0.2460   0.2463
  0.2467   0.2480   0.2488   0.2498   0.2503   0.2507   0.2507   0.2514
  0.2525   0.2528   0.2542   0.2545   0.2552   0.2563   0.2575   0.2577
  0.2579   0.2587   0.2597   0.2601   0.2604   0.2612   0.2618   0.2626
  0.2632   0.2643   0.2648   0.2662   0.2667   0.2674   0.2681   0.2682
  0.2691   0.2700   0.2708   0.2718   0.2726   0.2739   0.2744   0.2749
  0.2752   0.2757   0.2769   0.2778   0.2787   0.2797   0.2799   0.2800
  0.2804   0.2819   0.2827   0.2837   0.2842   0.2849   0.2857   0.2872
  0.2879   0.2882   0.2896   0.2899   0.2904   0.2912   0.2919   0.2933
  0.2938   0.2945   0.2952   0.2959   0.2969   0.2974   0.2988   0.2993
  0.3002   0.3010   0.3015   0.3032   0.3035   0.3040   0.3044   0.3056
  0.3064   0.3081   0.3087   0.3098   0.3109   0.3117   0.3120   0.3126
  0.3135   0.3136   0.3151   0.3165   0.3170   0.3175   0.3180   0.3188
  0.3195   0.3204   0.3214   0.3220   0.3225   0.3233   0.3246   0.3253
  0.3260   0.3282   0.3284   0.3292   0.3295   0.3304   0.3309   0.3328
  0.3336   0.3357   0.3359   0.3366   0.3384   0.3392   0.3401   0.3406
  0.3409   0.3419   0.3424   0.3432   0.3446   0.3451   0.3463   0.3471
  0.3482   0.3492   0.3495   0.3506   0.3513   0.3523   0.3529   0.3534
  0.3542   0.3560   0.3561   0.3573   0.3584   0.3590   0.3601   0.3605
  0.3622   0.3626   0.3628   0.3645   0.3649   0.3651   0.3664   0.3673
  0.3677   0.3686   0.3702   0.3714   0.3723   0.3727   0.3730   0.3739
  0.3745   0.3758   0.3774   0.3779   0.3785   0.3788   0.3809   0.3814
  0.3819   0.3827   0.3836   0.3840   0.3845   0.3856   0.3863   0.3880
  0.3884   0.3893   0.3897   0.3916   0.3917   0.3934   0.3939   0.3944
  0.3958   0.3964   0.3973   0.3982   0.3990   0.3995   0.4010   0.4018
  0.4021   0.4032   0.4046   0.4050   0.4062   0.4069   0.4081   0.4083
  0.4092   0.4102   0.4106   0.4149   0.4153   0.4160   0.4163   0.4176
  0.4180   0.4188   0.4195   0.4200   0.4204   0.4209   0.4217   0.4231
  0.4244   0.4258   0.4271   0.4278   0.4284   0.4287   0.4310   0.4311
  0.4328   0.4339   0.4348   0.4357   0.4361   0.4388   0.4399   0.4411
  0.4416   0.4435   0.4445   0.4451   0.4461   0.4470   0.4478   0.4494
  0.4497   0.4507   0.4526   0.4531   0.4549   0.4555   0.4562   0.4572
  0.4590   0.4605   0.4606   0.4615   0.4630   0.4641   0.4658   0.4668
  0.4683   0.4696   0.4714   0.4726   0.4727   0.4738   0.4755   0.4766
  0.4782   0.4810   0.4823   0.4836   0.4855   0.4860   0.4878   0.4885
  0.4901   0.4912   0.4926   0.4928   0.4948   0.4971   0.4977   0.5000
  0.5012   0.5030   0.5042   0.5053   0.5065   0.5094   0.5096   0.5111
  0.5124   0.5144   0.5157   0.5164   0.5172   0.5192   0.5206   0.5234
  0.5246   0.5252   0.5276   0.5285   0.5294   0.5308   0.5319   0.5334
  0.5347   0.5363   0.5372   0.5403   0.5414   0.5442   0.5452   0.5477
  0.5485   0.5493   0.5506   0.5544   0.5561   0.5571   0.5597   0.5606
  0.5618   0.5626   0.5638   0.5643   0.5653   0.5679   0.5698   0.5713
  0.5727   0.5729   0.5749   0.5756   0.5761   0.5775   0.5794   0.5815
  0.5820   0.5834   0.5850   0.5873   0.5898   0.5904   0.5928   0.5936
  0.5952   0.5967   0.5973   0.5984   0.6003   0.6005   0.6018   0.6030
  0.6054   0.6063   0.6076   0.6090   0.6106   0.6120   0.6127   0.6140
  0.6156   0.6164   0.6189   0.6193   0.6206   0.6218   0.6231   0.6235
  0.6245   0.6250   0.6263   0.6274   0.6285   0.6296   0.6321   0.6333
  0.6342   0.6351   0.6360   0.6361   0.6368   0.6385   0.6389   0.6401
  0.6418   0.6422   0.6437   0.6440   0.6453   0.6469   0.6477   0.6488
  0.6499   0.6512   0.6524   0.6528   0.6547   0.6558   0.6571   0.6576
  0.6588   0.6598   0.6605   0.6618   0.6632   0.6646   0.6651   0.6665
  0.6673   0.6685   0.6709   0.6716   0.6721   0.6729   0.6738   0.6746
  0.6751   0.6765   0.6784   0.6792   0.6803   0.6818   0.6828   0.6839
  0.6849   0.6857   0.6867   0.6878   0.6889   0.6907   0.6919   0.6924
  0.6932   0.6944   0.6963   0.6969   0.6981   0.6995   0.7016   0.7026
  0.7034   0.7043   0.7060   0.7065   0.7083   0.7084   0.7094   0.7111
  0.7120   0.7132   0.7145   0.7154   0.7169   0.7183   0.7195   0.7199
  0.7217   0.7229   0.7238   0.7254   0.7263   0.7283   0.7301   0.7328
  0.7334   0.7340   0.7352   0.7361   0.7380   0.7395   0.7408   0.7426
  0.7431   0.7458   0.7470   0.7490   0.7502   0.7522   0.7532   0.7540
  0.7562   0.7566   0.7614   0.7618   0.7637   0.7654   0.7673   0.7680
  0.7685   0.7706   0.7735   0.7755   0.7763   0.7777   0.7798   0.7805
  0.7823   0.7831   0.7849   0.7863   0.7877   0.7904   0.7912   0.7922
  0.7944   0.7956   0.7979   0.7996   0.7998   0.8013   0.8017   0.8052
  0.8069   0.8081   0.8103   0.8116   0.8127   0.8136   0.8151   0.8168
  0.8177   0.8191   0.8219   0.8233   0.8243   0.8257   0.8263   0.8278
  0.8283   0.8319   0.8320   0.8337   0.8353   0.8366   0.8371   0.8379
  0.8397   0.8411   0.8433   0.8440   0.8457   0.8480   0.8495   0.8504
  0.8514   0.8527   0.8533   0.8557   0.8575   0.8578   0.8599   0.8601
  0.8616   0.8633   0.8646   0.8651   0.8658   0.8663   0.8676   0.8695
  0.8705   0.8723   0.8730   0.8751   0.8761   0.8771   0.8789   0.8808
  0.8819   0.8829   0.8834   0.8844   0.8869   0.8899   0.8908   0.8915
  0.8924   0.8937   0.8944   0.8955   0.8962   0.8976   0.8988   0.8999
  0.9014   0.9032   0.9032   0.9036   0.9057   0.9069   0.9076   0.9083
  0.9100   0.9110   0.9121   0.9129   0.9147   0.9149   0.9155   0.9169
  0.9178   0.9184   0.9206   0.9212   0.9219   0.9245   0.9251   0.9263
  0.9270   0.9278   0.9284   0.9299   0.9310   0.9328   0.9332   0.9339
  0.9355   0.9368   0.9378   0.9390   0.9413   0.9426   0.9437   0.9439
  0.9455   0.9474   0.9487   0.9495   0.9507   0.9510   0.9518   0.9531
  0.9548   0.9561   0.9571   0.9574   0.9589   0.9602   0.9618   0.9636
  0.9645   0.9649   0.9657   0.9677   0.9686   0.9694   0.9706   0.9712
  0.9723   0.9730   0.9750   0.9767   0.9770   0.9784   0.9787   0.9797
  0.9804   0.9816   0.9831   0.9843   0.9845   0.9860   0.9868   0.9885
  0.9899   0.9910   0.9918   0.9925   0.9931   0.9944   0.9955   0.9979
  0.9980   0.9985   0.9993   1.0002   1.0015   1.0030   1.0041   1.0052
  1.0065   1.0068   1.0077   1.0092   1.0106   1.0122   1.0130   1.0145
  1.0146   1.0157   1.0166   1.0185   1.0191   1.0201   1.0223   1.0224
  1.0232   1.0258   1.0276   1.0277   1.0288   1.0302   1.0320   1.0334
  1.0346   1.0358   1.0363   1.0376   1.0393   1.0405   1.0418   1.0433
  1.0435   1.0462   1.0473   1.0483   1.0492   1.0507   1.0516   1.0529
  1.0549   1.0559   1.0563   1.0589   1.0605   1.0615   1.0625   1.0637
  1.0646   1.0660   1.0678   1.0683   1.0697   1.0714   1.0726   1.0747
  1.0773   1.0785   1.0792   1.0804   1.0816   1.0827   1.0844   1.0851
  1.0858   1.0890   1.0904   1.0913   1.0948   1.0952   1.0959   1.0974
  1.0977   1.1007   1.1013   1.1027   1.1055   1.1067   1.1070   1.1084
  1.1095   1.1104   1.1123   1.1135   1.1140   1.1152   1.1161   1.1175
  1.1197   1.1209   1.1214   1.1236   1.1243   1.1259   1.1267   1.1285
  1.1291   1.1299   1.1316   1.1329   1.1334   1.1354   1.1360   1.1379
  1.1389   1.1393   1.1408   1.1426   1.1437   1.1440   1.1466   1.1469
  1.1487   1.1497   1.1507   1.1523   1.1541   1.1543   1.1555   1.1578
  1.1600   1.1600   1.1626   1.1630   1.1651   1.1664   1.1679   1.1689
  1.1692   1.1706   1.1720   1.1748   1.1761   1.1775   1.1778   1.1796
  1.1816   1.1830   1.1836   1.1839   1.1862   1.1881   1.1896   1.1903
  1.1920   1.1926   1.1938   1.1971   1.1984   1.1991   1.2013   1.2022
  1.2025   1.2066   1.2082   1.2102   1.2116   1.2148   1.2163   1.2186
  1.2202   1.2207   1.2236   1.2250   1.2267   1.2280   1.2297   1.2302
  1.2320   1.2352   1.2361   1.2380   1.2406   1.2426   1.2440   1.2488
  1.2490   1.2521   1.2542   1.2555   1.2566   1.2584   1.2604   1.2638
  1.2653   1.2668   1.2701   1.2708   1.2728   1.2738   1.2772   1.2789
  1.2817   1.2829   1.2857   1.2891   1.2922   1.2938   1.2939   1.2967
  1.3006   1.3031   1.3050   1.3068   1.3081   1.3097   1.3121   1.3167
  1.3180   1.3203   1.3210   1.3228   1.3237   1.3254   1.3272   1.3295
  1.3306   1.3331   1.3348   1.3360   1.3375   1.3388   1.3400   1.3421
  1.3446   1.3452   1.3478   1.3494   1.3506   1.3515   1.3535   1.3559
  1.3571   1.3579   1.3593   1.3636   1.3648   1.3663   1.3678   1.3690
  1.3708   1.3712   1.3734   1.3755   1.3763   1.3789   1.3796   1.3813
  1.3832   1.3852   1.3881   1.3896   1.3907   1.3912   1.3928   1.3956
  1.3962   1.3986   1.3995   1.4001   1.4007   1.4024   1.4040   1.4056
  1.4066   1.4087   1.4106   1.4112   1.4119   1.4141   1.4149   1.4171
  1.4185   1.4190   1.4203   1.4208   1.4224   1.4252   1.4267   1.4275
  1.4293   1.4302   1.4308   1.4338   1.4341   1.4354   1.4363   1.4389
  1.4392   1.4402   1.4433   1.4453   1.4466   1.4482   1.4509   1.4515
  1.4531   1.4543   1.4574   1.4583   1.4589   1.4636   1.4644   1.4651
  1.4662   1.4682   1.4704   1.4733   1.4735   1.4751   1.4777   1.4794
  1.4819   1.4846   1.4864   1.4871   1.4876   1.4901   1.4912   1.4959
  1.4970   1.4993   1.5012   1.5024   1.5046   1.5055   1.5084   1.5108
  1.5121   1.5134   1.5143   1.5170   1.5177   1.5194   1.5224   1.5236
  1.5257   1.5282   1.5290   1.5341   1.5360   1.5400   1.5429   1.5456
  1.5483   1.5495   1.5513   1.5540   1.5555   1.5591   1.5607   1.5624
  1.5639   1.5665   1.5711   1.5746   1.5791   1.5821   1.5851   1.5871
  1.5964   1.5986   1.6004   1.6064   1.6096   1.6141   1.6206   1.6232
  1.6269   1.6358   1.6386   1.6420   1.6494   1.6503   1.6538   1.6563
  1.6572   1.6590   1.6599   1.6612   1.6633   1.6637   1.6663   1.6679
  1.6691   1.6718   1.6745   1.6753   1.6763   1.6774   1.6784   1.6801
  1.6806   1.6819   1.6826   1.6836   1.6860   1.6871   1.6877   1.6897
  1.6907   1.6915   1.6920   1.6939   1.6951   1.6958   1.6979   1.6988
  1.7008   1.7011   1.7026   1.7041   1.7044   1.7051   1.7056   1.7078
  1.7102   1.7121   1.7124   1.7134   1.7143   1.7158   1.7163   1.7174
  1.7184   1.7194   1.7211   1.7213   1.7230   1.7259   1.7268   1.7284
  1.7301   1.7318   1.7328   1.7331   1.7351   1.7358   1.7377   1.7390
  1.7395   1.7399   1.7416   1.7427   1.7435   1.7457   1.7459   1.7464
  1.7469   1.7485   1.7494   1.7505   1.7520   1.7529   1.7556   1.7577
  1.7581   1.7595   1.7625   1.7637   1.7648   1.7670   1.7681   1.7686
  1.7710   1.7726   1.7740   1.7761   1.7783   1.7794   1.7814   1.7822
  1.7830   1.7850   1.7879   1.7885   1.7930   1.7961   1.7981   1.7989
  1.8016   1.8055   1.8087   1.8108   1.8116   1.8138   1.8142   1.8206
  1.8239   1.8259   1.8309   1.8328   1.8345   1.8357   1.8376   1.8407
  1.8425   1.8449   1.8480   1.8483   1.8492   1.8534   1.8566   1.8596
  1.8616   1.8641   1.8660   1.8665   1.8707   1.8727   1.8730   1.8745
  1.8758   1.8789   1.8805   1.8824   1.8851   1.8861   1.8890   1.8896
  1.8903   1.8922   1.8944   1.8952   1.8964   1.8969   1.8988   1.8989
  1.9012   1.9029   1.9033   1.9045   1.9049   1.9064   1.9071   1.9077
  1.9097   1.9103   1.9114   1.9132   1.9147   1.9172   1.9176   1.9189
  1.9196   1.9200   1.9217   1.9234   1.9263   1.9267   1.9300   1.9311
  1.9320   1.9356   1.9366   1.9388   1.9423   1.9433   1.9459   1.9484
  1.9488   1.9503   1.9511   1.9542   1.9572   1.9598   1.9629   1.9647
  1.9662   1.9700   1.9731   1.9770   1.9853   1.9878   1.9962   2.0019
  2.0107   2.0225   2.0264   2.0279   2.0395   2.0402   2.0418   2.0435
  2.0494   2.0533   2.0540   2.0551   2.0559   2.0568   2.0581   2.0598
  2.0604   2.0637   2.0661   2.0676   2.0677   2.0687   2.0691   2.0700
  2.0706   2.0720   2.0731   2.0768   2.0777   2.0792   2.0795   2.0811
  2.0823   2.0833   2.0836   2.0860   2.0875   2.0882   2.0896   2.0900
  2.0921   2.0936   2.0949   2.0960   2.0985   2.1012   2.1026   2.1039
  2.1050   2.1073   2.1105   2.1116   2.1127   2.1145   2.1186   2.1202
  2.1222   2.1253   2.1266   2.1287   2.1311   2.1321   2.1351   2.1403
  2.1419   2.1526   2.1552   2.1574   2.1608   2.1626   2.1767   2.1805
  2.1857   2.1870   2.1903   2.1914   2.1942   2.1961   2.1975   2.1980
  2.2013   2.2036   2.2060   2.2073   2.2082   2.2108   2.2124   2.2161
  2.2164   2.2184   2.2200   2.2210   2.2231   2.2238   2.2266   2.2290
  2.2293   2.2298   2.2301   2.2305   2.2308   2.2320   2.2348   2.2370
  2.2376   2.2386   2.2407   2.2419   2.2439   2.2442   2.2449   2.2470
  2.2476   2.2483   2.2489   2.2498   2.2500   2.2513   2.2521   2.2535
  2.2540   2.2554   2.2569   2.2575   2.2583   2.2591   2.2595   2.2600
  2.2604   2.2614   2.2626   2.2627   2.2636   2.2640   2.2647   2.2662
  2.2677   2.2685   2.2704   2.2712   2.2722   2.2725   2.2746   2.2754
  2.2760   2.2765   2.2770   2.2778   2.2792   2.2798   2.2803   2.2818
  2.2827   2.2838   2.2844   2.2858   2.2869   2.2884   2.2895   2.2905
  2.2915   2.2922   2.2943   2.2954   2.2959   2.2980   2.3001   2.3007
  2.3012   2.3034   2.3055   2.3065   2.3077   2.3081   2.3098   2.3108
  2.3112   2.3129   2.3139   2.3164   2.3181   2.3187   2.3191   2.3205
  2.3207   2.3217   2.3225   2.3236   2.3249   2.3264   2.3276   2.3287
  2.3303   2.3310   2.3320   2.3339   2.3347   2.3366   2.3378   2.3390
  2.3406   2.3419   2.3434   2.3443   2.3464   2.3474   2.3484   2.3493
  2.3513   2.3543   2.3567   2.3595   2.3604   2.3610   2.3638   2.3661
  2.3670   2.3707   2.3718   2.3724   2.3728   2.3744   2.3763   2.3829
  2.3859   2.3863   2.3893   2.3919   2.3949   2.3998   2.4006   2.4038
  2.4136   2.4169   2.4219   2.4247   2.4620   2.4869   2.5126   2.5299
  2.5447   2.5941   2.6647   2.7219   2.7454   2.7740   2.8183   2.8193
  2.8233   2.8299   2.8309   2.8322   2.8372   2.8402   2.8417   2.8436
  2.8440   2.8447   2.8457   2.8470   2.8482   2.8505   2.8514   2.8598
  2.8617   2.8628   2.8673   2.8708   2.8719   2.8731   2.8737   2.8821
  2.8908   2.8915   2.8919   2.8943   2.9248   2.9485   3.0929   3.2438
  3.9454   3.9570   3.9599   3.9620   3.9636   3.9650   3.9681   3.9685
  3.9714   3.9758   3.9771   3.9785   3.9810   3.9872   3.9894   3.9924
  3.9954   4.0017   4.0037   4.0064   4.0101   4.0110   4.0119   4.0156
  4.0180   4.0313   4.0463   4.2135   4.2269   4.2323   4.2357   4.2364
  4.2392   4.2405   4.2428   4.2460   4.2483   4.2512   4.2518   4.2546
  4.2608   4.2664   4.2687   4.2696   4.2720   4.2744   4.2760   4.2773
  4.2801   4.2812   4.2844   4.2862   4.2894   4.2901   4.2934   4.2944
  4.2979   4.3007   4.3026   4.3049   4.3050   4.3064   4.3078   4.3123
  4.3131   4.3154   4.3192   4.3201   4.3219   4.3240   4.3271   4.3299
  4.3320   4.3343   4.3375   4.3398   4.3441   4.3456   4.3492   4.3552
  4.3553   4.3568   4.3620   4.3694   4.3699   4.3752   4.3759   4.3841
  4.3888   4.3915   4.3960   4.4058   4.4065   4.4159   4.4168   4.4178
  4.4200   4.4315   4.4358   4.4415   4.4617   4.4720   4.4911   4.5006
  4.5099   4.5173   4.5408   4.5485   4.5589   4.5840   4.6290   4.6593
  4.6719   4.7210   4.7634   4.7853   4.9554
 --------------------------------------------------------------

          Ground-State Mulliken Net Atomic Charges

     Atom                 Charge (a.u.)
  ----------------------------------------
      1 C                    -0.289528
      2 C                    -1.038883
      3 C                     0.014229
      4 C                    -0.201092
      5 C                    -0.994732
      6 C                    -0.091719
      7 H                     0.253204
      8 H                     0.202639
      9 H                     0.223760
     10 H                     0.247977
     11 H                     0.225717
     12 H                     0.196557
     13 H                     0.204333
     14 H                     0.192086
     15 H                     0.212772
     16 H                     0.201269
     17 H                     0.256088
     18 N                     0.134789
     19 H                     0.515574
     20 C                    -0.179976
     21 H                     0.164474
     22 O                    -0.211097
     23 C                    -0.666948
     24 H                     0.315965
     25 H                     0.285192
     26 H                     0.286217
     27 S                     0.493768
     28 C                    -1.048735
     29 H                     0.250777
     30 H                     0.263717
     31 H                     0.283817
     32 O                    -0.483011
     33 C                    -0.880861
     34 H                     0.230200
     35 H                     0.255696
     36 H                     0.253127
     37 S                     1.027877
     38 C                    -0.855905
     39 H                     0.269231
     40 H                     0.229787
     41 H                     0.268654
     42 O                    -0.742369
     43 C                    -0.663947
     44 H                     0.273999
     45 H                     0.222001
     46 H                     0.305353
     47 S                     0.465831
     48 C                    -0.794605
     49 H                     0.291496
     50 H                     0.224939
     51 H                     0.245957
     52 O                    -0.579589
     53 C                    -0.960444
     54 H                     0.266901
     55 H                     0.260158
     56 H                     0.268149
     57 S                     0.849347
     58 C                    -0.984359
     59 H                     0.295726
     60 H                     0.274570
     61 H                     0.285780
     62 O                    -0.611883
     63 C                    -1.087011
     64 H                     0.204096
     65 H                     0.288781
     66 H                     0.293524
     67 S                     1.105968
     68 C                    -0.868959
     69 H                     0.284018
     70 H                     0.257736
     71 H                     0.216433
     72 O                    -0.610750
     73 C                    -0.684269
     74 H                     0.267720
     75 H                     0.298699
     76 H                     0.243685
     77 S                     0.374051
     78 C                    -0.849930
     79 H                     0.257276
     80 H                     0.251514
     81 H                     0.265764
     82 O                    -0.552773
     83 C                    -0.860130
     84 H                     0.245113
     85 H                     0.260252
     86 H                     0.263894
     87 S                     0.935537
     88 C                    -0.918992
     89 H                     0.234014
     90 H                     0.251510
     91 H                     0.247134
     92 O                    -0.700641
     93 C                    -0.932794
     94 H                     0.259606
     95 H                     0.265954
     96 H                     0.235896
     97 S                     0.351868
     98 C                    -0.430248
     99 H                     0.255282
    100 H                     0.299350
    101 H                     0.288423
    102 O                    -0.562384
    103 C                    -0.866134
    104 H                     0.299297
    105 H                     0.218919
    106 H                     0.222094
    107 S                     0.914288
    108 C                    -0.811706
    109 H                     0.218594
    110 H                     0.284234
    111 H                     0.301465
    112 O                    -0.756727
    113 C                    -0.818805
    114 H                     0.248227
    115 H                     0.228785
    116 H                     0.260305
    117 S                     0.848322
    118 C                    -0.740058
    119 H                     0.277958
    120 H                     0.252052
    121 H                     0.236516
    122 O                    -0.762350
    123 C                    -0.850755
    124 H                     0.273560
    125 H                     0.273033
    126 H                     0.209825
    127 S                     0.940260
    128 C                    -0.785797
    129 H                     0.266853
    130 H                     0.241897
    131 H                     0.258133
    132 O                    -0.738667
    133 C                    -0.879410
    134 H                     0.254418
    135 H                     0.271002
    136 H                     0.240519
    137 S                     0.995639
    138 C                    -1.225152
    139 H                     0.284618
    140 H                     0.265506
    141 H                     0.246354
    142 O                    -0.623309
    143 C                    -0.938594
    144 H                     0.245751
    145 H                     0.279407
    146 H                     0.231855
    147 S                     1.017229
    148 C                    -0.927546
    149 H                     0.266493
    150 H                     0.251507
    151 H                     0.287197
    152 O                    -0.695583
    153 C                    -0.809966
    154 H                     0.217037
    155 H                     0.274503
    156 H                     0.247247
    157 S                     0.934365
    158 C                    -0.885567
    159 H                     0.292014
    160 H                     0.232951
    161 H                     0.260949
    162 O                    -0.736070
    163 C                    -1.152084
    164 H                     0.252810
    165 H                     0.245003
    166 H                     0.260501
    167 S                     1.038683
    168 C                    -0.810615
    169 H                     0.275093
    170 H                     0.224701
    171 H                     0.281013
    172 O                    -0.620871
    173 C                    -0.883730
    174 H                     0.232314
    175 H                     0.256652
    176 H                     0.236144
    177 S                     0.872748
    178 C                    -0.730379
    179 H                     0.271504
    180 H                     0.259381
    181 H                     0.243843
    182 O                    -0.747141
    183 C                    -0.886572
    184 H                     0.257381
    185 H                     0.218105
    186 H                     0.259160
    187 S                     1.098932
    188 C                    -0.996206
    189 H                     0.290216
    190 H                     0.253750
    191 H                     0.237867
    192 O                    -0.703322
    193 C                    -0.835775
    194 H                     0.249238
    195 H                     0.231262
    196 H                     0.241911
    197 S                     0.936816
    198 C                    -0.872714
    199 H                     0.291696
    200 H                     0.285844
    201 H                     0.231606
    202 O                    -0.790751
    203 C                    -0.853191
    204 H                     0.221266
    205 H                     0.280254
    206 H                     0.282745
    207 S                     0.859475
    208 C                    -0.846060
    209 H                     0.256771
    210 H                     0.246475
    211 H                     0.228809
    212 O                    -0.694114
    213 C                    -0.986417
    214 H                     0.260889
    215 H                     0.277990
    216 H                     0.259304
    217 S                     0.910457
    218 C                    -0.900676
    219 H                     0.295584
    220 H                     0.265612
    221 H                     0.241489
    222 O                    -0.670362
    223 C                    -0.934486
    224 H                     0.260733
    225 H                     0.232647
    226 H                     0.253309
    227 S                     0.982864
    228 C                    -0.973933
    229 H                     0.255161
    230 H                     0.256127
    231 H                     0.283200
    232 O                    -0.664291
    233 C                    -0.842622
    234 H                     0.257575
    235 H                     0.264782
    236 H                     0.264399
    237 S                     0.893519
    238 C                    -0.887636
    239 H                     0.256166
    240 H                     0.241462
    241 H                     0.257846
    242 O                    -0.695994
    243 C                    -0.858271
    244 H                     0.255743
    245 H                     0.255768
    246 H                     0.255618
    247 S                     0.885265
    248 C                    -0.812683
    249 H                     0.261966
    250 H                     0.269794
    251 H                     0.248404
    252 O                    -0.738141
    253 C                    -1.066635
    254 H                     0.263020
    255 H                     0.274326
    256 H                     0.225580
    257 S                     0.938699
    258 C                    -0.849743
    259 H                     0.221820
    260 H                     0.251872
    261 H                     0.287025
    262 O                    -0.673198
    263 C                    -0.898829
    264 H                     0.281908
    265 H                     0.276803
    266 H                     0.231275
    267 S                     0.716156
    268 C                    -0.854716
    269 H                     0.249474
    270 H                     0.250035
    271 H                     0.304292
    272 O                    -0.645343
    273 C                    -0.982654
    274 H                     0.245397
    275 H                     0.255833
    276 H                     0.262449
    277 S                     1.170009
    278 C                    -0.791980
    279 H                     0.268577
    280 H                     0.234356
    281 H                     0.301315
    282 O                    -0.830774
    283 C                    -0.643618
    284 H                     0.242936
    285 H                     0.271268
    286 H                     0.266868
    287 S                     0.444542
    288 C                    -0.781772
    289 H                     0.273401
    290 H                     0.258363
    291 H                     0.244328
    292 O                    -0.590484
  ----------------------------------------
  Sum of atomic charges =     0.000000

 -----------------------------------------------------------------
                    Cartesian Multipole Moments
 -----------------------------------------------------------------
    Charge (ESU x 10^10)
                 0.0000
    Dipole Moment (Debye)
         X       4.1636      Y      21.7143      Z      11.0555
       Tot      24.7199
    Quadrupole Moments (Debye-Ang)
        XX    -683.4512     XY     663.5383     YY     111.5275
        XZ     316.6261     YZ     781.2511     ZZ    -456.1856
    Octopole Moments (Debye-Ang^2)
       XXX  -63603.7624    XXY   -1343.7199    XYY    4024.9633
[...]
          205         206         207         208         209         210
    1  -1.7315535  -1.1025108   0.8081610   0.8945699   1.6866534  -1.1468920
    2   0.5122502   0.3769087   0.2482625   0.5140700  -1.2294623   0.6716560
    3  -3.6818080   0.0195835  -1.3565633  -3.6488852  -3.7311748  -4.2019785
          211         212         213         214         215         216
    1   1.4882550  -0.5986832   0.3676144   0.5307276   0.0119539   0.6603497
    2   2.2383095  -2.4886773   0.5428001  -0.8940091   2.3631089   0.2980722
    3  -2.8805373  -2.4308712   0.6096660  -0.3984174   0.4562976   2.6297677
          217         218         219         220         221         222
    1  -2.3241841  -1.6949161  -0.1778677  -3.5957656  -1.1168421  -1.9711683
    2   0.9753290   1.8603447   2.8276178   2.3005355   0.6780790  -1.8307679
    3   0.5541633   2.5586432   2.0937815   2.0153257   3.4556025   2.0402811
          223         224         225         226         227         228
    1   1.3128030   2.2710087   1.7977708  -0.6081947   0.7348663  -0.8947379
    2  -3.1308953  -3.7836711  -1.5814572  -4.1348889  -1.3156533  -0.9213410
    3  -0.0148574  -1.2560575   0.7667015   0.3884445  -1.2051799  -0.1509960
          229         230         231         232         233         234
    1  -1.1172571  -2.0267797   0.5218921  -1.0987131  -0.9663453  -2.5487449
    2   0.6552997  -2.7703775  -0.8083573  -3.5418690  -0.9712328  -2.4564953
    3  -1.0900091  -0.3305850   0.8569217  -2.5102089   1.3947389   2.3724309
          235         236         237         238         239         240
    1   0.0407801  -0.9668254  -2.0306262  -3.6709544  -3.5381156  -2.5961617
    2  -1.2096931   0.6385757  -0.2035757   0.1026397  -1.4401874   1.4724127
    3   0.2805685   1.7767449  -0.2264683   1.2261677   2.5082023   1.4688379
          241         242         243         244         245         246
    1  -4.6953046  -3.4911762   0.0084062  -0.6447845  -0.7622571   1.3706583
    2   0.3767738  -3.2005091   2.0681928   2.2033330   2.8059512   0.5635866
    3  -0.4514250  -0.2894158  -2.2960716  -4.0735204  -1.0021897  -2.1383769
          247         248         249         250         251         252
    1  -2.3174152  -1.3506039  -1.8925129  -2.4055485   0.8051478  -0.4540205
    2   0.9510314   0.1837198   1.7105351  -0.9265478  -0.1965446  -1.2559003
    3  -1.9790293  -0.2882803  -0.1505161  -0.2775673  -0.2087155  -2.9898130
          253         254         255         256         257         258
    1   0.2700416   1.9447955  -0.4120700  -0.3309783   1.0883847   2.4123286
    2   0.0658733  -0.9725630   1.6013275  -0.3369039   1.4316972  -0.2612290
    3  -1.2403721  -0.7105120  -0.1575030  -2.8245244  -2.2669221  -2.5819789
          259         260         261         262         263         264
    1   0.8223461   3.6330582   2.9939130   3.1291968  -1.1169955  -0.6062088
    2  -0.2792061   1.0352643  -1.4074933   1.9572180  -0.0414770  -0.7808425
    3  -3.8319461  -2.5451719  -0.9978099   0.2956146   2.0535620   0.0280271
          265         266         267         268         269         270
    1  -0.2718896  -2.0550834   0.1531928  -0.1840503  -1.3615654   1.6864266
    2  -0.8983383   1.7075915   1.5650764   1.8326048   2.9758554   2.1375153
    3   3.7547421   2.0300694   2.8489799   0.9501617   2.2344010   1.0923311
          271         272         273         274         275         276
    1  -0.8676833   2.2968571  -0.6294191  -0.3236231  -2.1857765   0.7879560
    2   0.0512807  -0.7398039  -3.6633928  -2.7985925  -4.4411956  -3.7527257
    3  -0.1396674   2.3487212   0.9055067   2.3755651   0.4059171  -0.2509827
          277         278         279         280         281         282
    1  -1.9797504  -0.7043726   0.9692656  -1.3265311  -1.8160184   0.7754483
    2  -2.0902013  -2.6287754  -1.6942492  -4.4763520  -1.6386614   0.4908646
    3   0.0929199  -1.6074221  -1.4720444  -1.0210922  -1.8768400   0.3213332
          283         284         285         286         287         288
    1   3.2634194   3.3289010   1.8102218   4.5254621   3.0036895   3.5065955
    2  -1.2250968  -0.9813936  -1.8975889  -0.8937951   0.7534019   1.5688762
    3   0.0145964   2.1551642  -0.8260190  -0.8784495  -0.7398916   1.2092756
          289         290         291         292
    1   2.5980539   2.7550076   4.6925965   0.2561697
    2   3.2650442   0.4684612   0.8090617   0.5689347
    3   0.6799106   2.9061175   0.2327818   0.8612369
 EField
            1           2           3           4           5           6
    1  -0.0010352  -0.0046133  -0.0035978   0.0025967   0.0034197  -0.0004001
    2  -0.0035021  -0.0104392  -0.0094749  -0.0036590  -0.0038731  -0.0000812
    3  -0.0012221  -0.0023639   0.0022382  -0.0031544   0.0006221   0.0012639
            7           8           9          10          11          12
    1  -0.0038277  -0.0062930   0.0038327  -0.0008076  -0.0005629   0.0070116
    2  -0.0148175  -0.0105798  -0.0068343   0.0046563  -0.0071264   0.0063473
    3   0.0009605  -0.0045216   0.0017325  -0.0070542  -0.0122992  -0.0013442
           13          14          15          16          17          18
    1   0.0058800   0.0068898  -0.0072726   0.0045495  -0.0059937  -0.0059084
    2  -0.0059158  -0.0014557   0.0013939   0.0014594  -0.0081748  -0.0157142
    3   0.0022796   0.0021669  -0.0026376   0.0057308   0.0117464  -0.0040784
           19          20          21          22          23          24
    1  -0.0104516  -0.0020169   0.0012932  -0.0026272  -0.0003894  -0.0007351
    2  -0.0233658  -0.0134566  -0.0147903  -0.0132047   0.0041577  -0.0200516
    3  -0.0074939  -0.0040581  -0.0041640  -0.0046683   0.0081337  -0.0034676
           25          26          27          28          29          30
    1   0.0317689  -0.0186362   0.0495036   0.0008510  -0.0207478  -0.0148959
    2   0.0131438   0.0250608  -0.0299332   0.0084143   0.0135312   0.0222010
    3   0.0020286   0.0189720  -0.0375417  -0.0013914  -0.0224106   0.0209807
           31          32          33          34          35          36
    1   0.0320570  -0.1027474  -0.0016752  -0.0311407   0.0059300   0.0216553
    2   0.0033908  -0.0351365  -0.0047146   0.0096700  -0.0328717   0.0049635
    3  -0.0102130  -0.0148603   0.0067767   0.0095221  -0.0029239   0.0223057
           37          38          39          40          41          42
    1  -0.0077826  -0.0042265   0.0159205  -0.0313700  -0.0059990   0.0960903
    2   0.0526777  -0.0053627  -0.0221802  -0.0099658   0.0040371  -0.0504764
    3  -0.0011489  -0.0063847  -0.0157296   0.0100792  -0.0326766  -0.0186733
           43          44          45          46          47          48
    1  -0.0002753  -0.0106464   0.0089216  -0.0147855   0.0416670   0.0002469
    2  -0.0057715   0.0040889  -0.0348375   0.0031974  -0.0234956   0.0013102
    3   0.0048519  -0.0256515   0.0105532   0.0250907  -0.0399609   0.0087641
           49          50          51          52          53          54
    1  -0.0224209   0.0180754   0.0235086  -0.0453102  -0.0016449  -0.0280190
    2   0.0029624  -0.0254068   0.0224843   0.0980893   0.0070192   0.0051734
    3   0.0232002   0.0108674   0.0089672  -0.0135068   0.0053958   0.0179402
           55          56          57          58          59          60
    1   0.0320821   0.0073761   0.0357591  -0.0087699  -0.0109849  -0.0161249
    2  -0.0029959   0.0194624  -0.0234330   0.0031584  -0.0272629   0.0086458
    3   0.0130353  -0.0232493  -0.0364364  -0.0076796  -0.0201480   0.0223433
           61          62          63          64          65          66
    1   0.0015443  -0.0540084  -0.0070329   0.0187657  -0.0052951  -0.0229238
    2   0.0292969  -0.0604160  -0.0034274  -0.0132576   0.0271555  -0.0248275
    3  -0.0195643   0.0754810   0.0037229   0.0247138   0.0102622   0.0083448
           67          68          69          70          71          72
    1   0.0287129   0.0009439   0.0219540  -0.0215806   0.0304348  -0.1004148
    2  -0.0375269   0.0081869   0.0186728   0.0144115   0.0020155   0.0349225
    3  -0.0187180  -0.0026160  -0.0202206   0.0120778   0.0120951  -0.0318710
           73          74          75          76          77          78
    1  -0.0010194   0.0165608   0.0035285  -0.0327178  -0.0171664  -0.0007758
    2   0.0039054   0.0019498   0.0289081  -0.0032544   0.0125326  -0.0051724
    3   0.0054744   0.0261728  -0.0063470   0.0023550  -0.0580431   0.0044707
           79          80          81          82          83          84
    1  -0.0038195  -0.0283246   0.0246300   0.1026451   0.0002474   0.0286112
    2  -0.0007488  -0.0116649  -0.0157618   0.0154609  -0.0046269  -0.0122853
    3   0.0311830  -0.0114351  -0.0082488   0.0288398   0.0062838   0.0109163
           85          86          87          88          89          90
    1  -0.0163970  -0.0111675   0.0275448  -0.0077614  -0.0109876  -0.0217218
    2   0.0157098  -0.0291467   0.0450757  -0.0001129   0.0189545   0.0059358
    3   0.0238638  -0.0027107  -0.0006878  -0.0013718   0.0169917  -0.0252121
           91          92          93          94          95          96
    1  -0.0196099   0.0081808  -0.0042138  -0.0228940   0.0234614  -0.0038261
    2  -0.0258623  -0.0824827  -0.0065816   0.0186717  -0.0082172  -0.0313216
    3   0.0001094  -0.0741114  -0.0021750  -0.0200043  -0.0144241   0.0198124
           97          98          99         100         101         102
    1   0.0426215  -0.0128175  -0.0078408  -0.0097965  -0.0296073   0.0020110
    2  -0.0121895   0.0097750  -0.0222047   0.0280307   0.0226302   0.0664885
    3   0.0338722  -0.0007391   0.0187332   0.0150796  -0.0146852  -0.0875368
          103         104         105         106         107         108
    1   0.0072441   0.0263581  -0.0172863   0.0079074  -0.0505022   0.0080589
    2   0.0021703  -0.0151249   0.0037750   0.0280126   0.0149611  -0.0031326
    3  -0.0047266   0.0039011  -0.0277624   0.0048797   0.0030392   0.0036316
          109         110         111         112         113         114
    1  -0.0081531  -0.0039118   0.0332037   0.0363020   0.0017303  -0.0217265
    2   0.0312972  -0.0092597  -0.0098008  -0.1034971   0.0060525   0.0237787
    3   0.0121208   0.0331851  -0.0010189  -0.0141613  -0.0034516   0.0040063
          115         116         117         118         119         120
    1   0.0319432  -0.0075922   0.0034742   0.0059558   0.0103391   0.0014433
    2   0.0184585  -0.0076704   0.0105685  -0.0050556  -0.0285674  -0.0065212
    3   0.0001226  -0.0287427   0.0517892  -0.0042555   0.0028733  -0.0318059
          121         122         123         124         125         126
    1   0.0314353  -0.0858197   0.0053062   0.0132568   0.0332162  -0.0072423
    2   0.0067727  -0.0389293   0.0009369   0.0138260  -0.0122289   0.0008067
    3   0.0104529  -0.0548149  -0.0029701   0.0318056  -0.0015815  -0.0357803
          127         128         129         130         131         132
    1  -0.0198568  -0.0040677   0.0208417  -0.0093989  -0.0284254   0.0273917
    2  -0.0420763   0.0054900   0.0183849   0.0066824  -0.0100420  -0.0001343
    3  -0.0277145  -0.0002383   0.0123813  -0.0306462   0.0115553   0.1070528
          133         134         135         136         137         138
    1   0.0003237  -0.0129366  -0.0121113   0.0229751  -0.0455545   0.0052216
    2   0.0051793  -0.0118859   0.0264546   0.0005375  -0.0071687   0.0038673
    3  -0.0047897  -0.0279424   0.0196006  -0.0250359   0.0342831   0.0061028
          139         140         141         142         143         144
    1  -0.0063893   0.0167838   0.0217948   0.0584519   0.0008355   0.0272906
    2   0.0324249  -0.0156199   0.0074443  -0.0811961   0.0048569  -0.0107194
    3   0.0104786   0.0251346  -0.0192945  -0.0451586  -0.0063287  -0.0139418
          145         146         147         148         149         150
    1  -0.0300728   0.0092908  -0.0327519   0.0107215   0.0231571  -0.0019300
    2   0.0044539   0.0257391   0.0074138   0.0012808   0.0259884  -0.0265328
    3  -0.0155534   0.0139803   0.0395778   0.0012482   0.0070684   0.0169691
          151         152         153         154         155         156
    1   0.0126861  -0.0023061   0.0019366   0.0129484   0.0177527  -0.0202862
    2  -0.0121092  -0.0889400   0.0037611   0.0323499  -0.0011795   0.0257480
    3  -0.0245306  -0.0655513  -0.0034448   0.0195851  -0.0263640  -0.0093559
          157         158         159         160         161         162
    1  -0.0262091   0.0083635   0.0143845   0.0219225   0.0076185  -0.0279358
    2   0.0006369  -0.0041087   0.0059831   0.0146975  -0.0281701  -0.0440898
    3   0.0421356  -0.0019711  -0.0276151   0.0165666   0.0168978  -0.0977649
          163         164         165         166         167         168
    1   0.0091546   0.0050916   0.0130019   0.0060177  -0.0144476   0.0012876
    2  -0.0042922   0.0322005  -0.0226815  -0.0017084   0.0183563  -0.0102383
    3  -0.0039504  -0.0032653   0.0210913  -0.0339408   0.0494452  -0.0035768
          169         170         171         172         173         174
    1  -0.0276164  -0.0023351   0.0177594  -0.0402137  -0.0022356  -0.0007241
    2  -0.0066588  -0.0136362  -0.0173477   0.0369884   0.0032281   0.0262531
    3  -0.0132445  -0.0358083   0.0238407  -0.0953034  -0.0058862   0.0142111
          175         176         177         178         179         180
    1   0.0321404  -0.0267497   0.0007983  -0.0088613  -0.0303342  -0.0056529
    2  -0.0050702  -0.0065025  -0.0520461   0.0045663  -0.0091277  -0.0060747
    3  -0.0061993  -0.0253655  -0.0099136   0.0037478  -0.0154557   0.0285399
          181         182         183         184         185         186
    1  -0.0037388   0.0709009  -0.0015173   0.0155406   0.0083369  -0.0294858
    2   0.0301896   0.0505683   0.0003666   0.0246712  -0.0325796   0.0049656
    3   0.0138545   0.0678474  -0.0075277  -0.0154663  -0.0073073  -0.0044997
          187         188         189         190         191         192
    1   0.0503881  -0.0056020   0.0020871  -0.0259594   0.0101776  -0.0562911
    2  -0.0080342  -0.0052696  -0.0019739   0.0074476  -0.0389043   0.0941942
    3   0.0198458   0.0008383   0.0308032  -0.0177150   0.0105697   0.0049244
          193         194         195         196         197         198
    1  -0.0054414  -0.0293147   0.0091061  -0.0022506   0.0050828   0.0086157
    2  -0.0003767   0.0032306   0.0265935  -0.0287273   0.0409654  -0.0023022
    3  -0.0079975   0.0117044  -0.0209401  -0.0086017   0.0286651  -0.0041224
          199         200         201         202         203         204
    1   0.0267278  -0.0024773   0.0151653  -0.0344014  -0.0100159   0.0122091
    2  -0.0079604  -0.0253871   0.0277769  -0.1004096   0.0026322   0.0301365
    3   0.0144182  -0.0183576  -0.0161690   0.0260560  -0.0008486  -0.0040513
          205         206         207         208         209         210
    1  -0.0271430  -0.0211712   0.0397381  -0.0010792   0.0136077  -0.0220241
    2  -0.0033735  -0.0044923   0.0054900   0.0026218  -0.0227363  -0.0058708
    3  -0.0166637   0.0225362   0.0394865  -0.0061409  -0.0132865  -0.0258522
          211         212         213         214         215         216
    1   0.0215827  -0.0485789   0.0033600   0.0019252   0.0129603   0.0145913
    2   0.0276362  -0.0963328   0.0032039  -0.0224384   0.0286683  -0.0107109
    3  -0.0033136  -0.0245085   0.0005493  -0.0233571  -0.0178965   0.0250178
          217         218         219         220         221         222
    1  -0.0321328  -0.0004094   0.0197570  -0.0310134   0.0005632  -0.0009488
    2   0.0163691   0.0081790   0.0205400   0.0132597  -0.0171420  -0.1014219
    3  -0.0418657   0.0066631  -0.0123199   0.0116220   0.0251643   0.0437424
          223         224         225         226         227         228
    1   0.0011255   0.0244008   0.0205431  -0.0272662   0.0357445  -0.0058659
    2  -0.0034223  -0.0110081   0.0110400  -0.0171288   0.0369151   0.0045845
    3   0.0055018  -0.0153416   0.0260461   0.0089265  -0.0222570   0.0090990
          229         230         231         232         233         234
    1  -0.0099396  -0.0220602   0.0071192  -0.0561719   0.0062386  -0.0166791
    2   0.0281622  -0.0205867   0.0067877  -0.0716393  -0.0029133  -0.0208350
    3  -0.0154854   0.0038284   0.0360917  -0.0634853   0.0071143   0.0175170
          235         236         237         238         239         240
    1   0.0324019   0.0139698   0.0196338  -0.0032784  -0.0095186   0.0083591
    2  -0.0046223   0.0213667   0.0318091   0.0035712  -0.0243355   0.0293377
    3  -0.0142905   0.0241272  -0.0402706   0.0047942   0.0180922   0.0156677
          241         242         243         244         245         246
    1  -0.0284538  -0.0477154   0.0031754  -0.0003225   0.0049895   0.0248936
    2   0.0013030  -0.0981167   0.0028343   0.0216792   0.0340774  -0.0155849
    3  -0.0139091  -0.0169033   0.0006960  -0.0262215   0.0147256   0.0077551
          247         248         249         250         251         252
    1  -0.0486909   0.0019695  -0.0097518  -0.0260485   0.0344491   0.0525444
    2   0.0183001  -0.0002784   0.0332657  -0.0287977  -0.0062074  -0.0835078
    3  -0.0168285   0.0120073   0.0083784  -0.0021389   0.0000175  -0.0484037
          253         254         255         256         257         258
    1  -0.0035548   0.0117978  -0.0240277  -0.0253506  -0.0291760   0.0070765
    2  -0.0063773  -0.0220225   0.0073670  -0.0126575   0.0347862  -0.0056667
    3   0.0070918   0.0110779   0.0212651  -0.0172322  -0.0356702  -0.0001820
          259         260         261         262         263         264
    1  -0.0124538   0.0269871   0.0056642   0.0629152  -0.0076176   0.0015202
    2  -0.0093158   0.0118871  -0.0276067   0.0381602  -0.0080987  -0.0250771
    3  -0.0275773  -0.0157359   0.0194112   0.0821387   0.0050035  -0.0151722
          265         266         267         268         269         270
    1  -0.0175482  -0.0355221  -0.0078723   0.0001515  -0.0227224   0.0270992
    2  -0.0202939   0.0092943   0.0364311   0.0045151   0.0309667   0.0181061
    3   0.0241043   0.0156440   0.0508516  -0.0030461   0.0014410  -0.0107666
          271         272         273         274         275         276
    1  -0.0116589   0.0813951   0.0046049   0.0034336  -0.0201674   0.0252258
    2  -0.0010459  -0.0749976  -0.0021908   0.0016938  -0.0259747  -0.0017878
    3  -0.0158787   0.0018234   0.0031596   0.0262702   0.0077931  -0.0154932
          277         278         279         280         281         282
    1  -0.0510984  -0.0004711   0.0297990  -0.0053682  -0.0150021   0.0810695
    2   0.0042185   0.0035567   0.0109329  -0.0295692   0.0022644   0.0893376
    3   0.0048396  -0.0111516   0.0028588  -0.0185201  -0.0359239   0.0197177
          283         284         285         286         287         288
    1   0.0036236   0.0071908  -0.0272006   0.0334869   0.0098257   0.0046391
    2  -0.0101672  -0.0215121  -0.0154664   0.0020045   0.0241139   0.0023221
    3   0.0043668   0.0279418  -0.0080795  -0.0115444  -0.0618961   0.0071787
          289         290         291         292
    1  -0.0112513   0.0002550   0.0348214  -0.0992359
    2   0.0285679  -0.0067592  -0.0044803   0.0078038
    3  -0.0039298   0.0320750  -0.0001931   0.0427115
  --- DONE ESP SUMMARY ---
 Total job time:  32.41s(wall), 80.50s(cpu) 
 Thu Jul 21 09:22:56 2022

        *************************************************************
        *                                                           *
        *  Thank you very much for using Q-Chem.  Have a nice day.  *
        *                                                           *
        *************************************************************


