                  Welcome to Q-Chem
     A Quantum Leap Into The Future Of Chemistry


 Q-Chem 6.0 (devel), Q-Chem, Inc., Pleasanton, CA (2022)

 E. Epifanovsky,  A. T. B. Gilbert,  Xintian Feng,  Joonho Lee,  Yuezhi Mao,  
 N. Mardirossian,  P. Pokhilko,  A. White,  M. Wormit,  M. P. Coons,  
 A. L. Dempwolff,  Zhengting Gan,  D. Hait,  P. R. Horn,  L. D. Jacobson,  
 I. Kaliman,  J. Kussmann,  A. W. Lange,  Ka Un Lao,  D. S. Levine,  Jie Liu,  
 S. C. McKenzie,  A. F. Morrison,  K. Nanda,  F. Plasser,  D. R. Rehn,  
 M. L. Vidal,  Zhi-Qiang You,  Ying Zhu,  B. Alam,  B. Albrecht,  
 A. Aldossary,  E. Alguire,  J. H. Andersen,  V. Athavale,  D. Barton,  
 K. Begam,  A. Behn,  N. Bellonzi,  Y. A. Bernard,  E. J. Berquist,  
 H. Burton,  A. Carreras,  K. Carter-Fenk,  Romit Chakraborty,  
 Chandrima Chakravarty,  Junhan Chen,  A. D. Chien,  K. D. Closser,  
 V. Cofer-Shabica,  L. Cunha,  S. Dasgupta,  Jia Deng,  M. de Wergifosse,  
 M. Diedenhofen,  Hainam Do,  S. Ehlert,  Po-Tung Fang,  S. Fatehi,  
 Qingguo Feng,  T. Friedhoff,  B. Ganoe,  J. Gayvert,  Qinghui Ge,  
 G. Gidofalvi,  M. Goldey,  J. Gomes,  C. Gonzalez-Espinoza,  S. Gulania,  
 A. Gunina,  J. A. Gyamfi,  M. W. D. Hanson-Heine,  P. H. P. Harbach,  
 A. W. Hauser,  M. F. Herbst,  M. Hernandez Vera,  M. Hodecker,  
 Z. C. Holden,  S. Houck,  Xunkun Huang,  Kerwin Hui,  B. C. Huynh,  
 K. Ikeda,  M. Ivanov,  Hyunjun Ji,  Zuxin Jin,  Hanjie Jiang,  B. Kaduk,  
 S. Kaehler,  R. Kang,  K. Khistyaev,  Jaehoon Kim,  Yongbin Kim,  
 P. Klunzinger,  Z. Koczor-Benda,  Joong Hoon Koh,  D. Kosenkov,  
 Saikiran Kotaru,  L. Koulias,  T. Kowalczyk,  C. M. Krauter,  K. Kue,  
 A. Kunitsa,  T. Kus,  A. Landau,  K. V. Lawler,  D. Lefrancois,  S. Lehtola,  
 Rain Li,  Shaozhi Li,  Yi-Pei Li,  Jiashu Liang,  M. Liebenthal,  
 Hung-Hsuan Lin,  You-Sheng Lin,  Fenglai Liu,  Kuan-Yu Liu,  
 M. Loipersberger,  A. Luenser,  C. Malbon,  A. Manjanath,  P. Manohar,  
 E. Mansoor,  S. F. Manzer,  Shan-Ping Mao,  A. V. Marenich,  T. Markovich,  
 S. Mason,  F. Matz,  S. A. Maurer,  P. F. McLaughlin,  M. F. S. J. Menger,  
 J.-M. Mewes,  S. A. Mewes,  P. Morgante,  Mohammad Mostafanejad,  
 J. W. Mullinax,  K. J. Oosterbaan,  G. Paran,  V. Parravicini,  
 Alexander C. Paul,  Suranjan K. Paul,  F. Pavosevic,  Zheng Pei,  S. Prager,  
 E. I. Proynov,  E. Ramos,  B. Rana,  A. E. Rask,  A. Rettig,  R. M. Richard,  
 F. Rob,  E. Rossomme,  T. Scheele,  M. Scheurer,  M. Schneider,  
 P. E. Schneider,  N. Sergueev,  S. M. Sharada,  Hengyuan Shen,  
 W. Skomorowski,  D. W. Small,  C. J. Stein,  Yingli Su,  Yu-Chuan Su,  
 E. J. Sundstrom,  Zhen Tao,  J. Thirman,  Hung-Yi Tsai,  T. Tsuchimochi,  
 N. M. Tubman,  C. Utku,  S. P. Veccham,  O. Vydrov,  J. Wenzel,  
 Jonathan Wong,  J. Witte,  A. Yamada,  Chou-Hsun Yang,  Kun Yao,  
 S. Yeganeh,  S. R. Yost,  A. Zech,  F. Zeller,  Igor Ying Zhang,  
 Xing Zhang,  Yu Zhang,  D. Zuev,  A. Aspuru-Guzik,  A. T. Bell,  
 N. A. Besley,  K. B. Bravaya,  B. R. Brooks,  D. Casanova,  Jeng-Da Chai,  
 Hsing-Ta Chen,  S. Coriani,  C. J. Cramer,  A. E. DePrince, III,  
 R. A. DiStasio Jr.,  A. Dreuw,  B. D. Dunietz,  T. R. Furlani,  
 W. A. Goddard III,  S. Grimme,  S. Hammes-Schiffer,  T. Head-Gordon,  
 W. J. Hehre,  Chao-Ping Hsu,  T.-C. Jagau,  Yousung Jung,  A. Klamt,  
 Jing Kong,  D. S. Lambrecht,  Xiangyuan Li,  WanZhen Liang,  N. J. Mayhall,  
 C. W. McCurdy,  J. B. Neaton,  T. Neudecker,  C. Ochsenfeld,  
 J. A. Parkhill,  R. Peverati,  V. A. Rassolov,  Haisheng Ren,  Yihan Shao,  
 L. V. Slipchenko,  R. P. Steele,  J. E. Subotnik,  A. J. W. Thom,  
 A. Tkatchenko,  D. G. Truhlar,  T. Van Voorhis,  Fan Wang,  
 T. A. Wesolowski,  K. B. Whaley,  H. L. Woodcock III,  P. M. Zimmerman,  
 S. Faraji,  P. M. W. Gill,  M. Head-Gordon,  J. M. Herbert,  A. I. Krylov

 Contributors to earlier versions of Q-Chem not listed above: 
 R. D. Adamson,  B. Austin,  R. Baer,  J. Baker,  G. J. O. Beran,  
 K. Brandhorst,  S. T. Brown,  E. F. C. Byrd,  Arup K. Chakraborty,  
 G. K. L. Chan,  Chun-Min Chang,  Yunqing Chen,  C.-L. Cheng,  
 Siu Hung Chien,  D. M. Chipman,  D. L. Crittenden,  H. Dachsel,  
 R. J. Doerksen,  A. D. Dutoi,  R. G. Edgar,  J. Fosso-Tande,  
 L. Fusti-Molnar,  D. Ghosh,  A. Ghysels,  A. Golubeva-Zadorozhnaya,  
 J. Gonthier,  M. S. Gordon,  S. R. Gwaltney,  G. Hawkins,  J. E. Herr,  
 A. Heyden,  S. Hirata,  E. G. Hohenstein,  G. Kedziora,  F. J. Keil,  
 C. Kelley,  Jihan Kim,  R. A. King,  R. Z. Khaliullin,  P. P. Korambath,  
 W. Kurlancheek,  A. Laurent,  A. M. Lee,  M. S. Lee,  S. V. Levchenko,  
 Ching Yeh Lin,  D. Liotard,  E. Livshits,  R. C. Lochan,  I. Lotan,  
 L. A. Martinez-Martinez,  P. E. Maslen,  N. Nair,  D. P. O'Neill,  
 D. Neuhauser,  E. Neuscamman,  C. M. Oana,  R. Olivares-Amaya,  R. Olson,  
 T. M. Perrine,  B. Peters,  P. A. Pieniazek,  A. Prociuk,  Y. M. Rhee,  
 J. Ritchie,  M. A. Rohrdanz,  E. Rosta,  N. J. Russ,  H. F. Schaefer III,  
 M. W. Schmidt,  N. E. Schultz,  S. Sharma,  N. Shenvi,  C. D. Sherrill,  
 A. C. Simmonett,  A. Sodt,  T. Stein,  D. Stuck,  K. S. Thanthiriwatte,  
 V. Vanovschi,  L. Vogt,  Tao Wang,  A. Warshel,  M. A. Watson,  
 C. F. Williams,  Q. Wu,  X. Xu,  Jun Yang,  W. Zhang,  Yan Zhao

   Please cite Q-Chem as follows:
  "Software for the frontiers of quantum chemistry:
   An overview of developments in the Q-Chem 5 package"
   J. Chem. Phys. 155, 084801 (2021)
   https://doi.org/10.1063/5.0055522 (open access)

 Q-Chem 6.0.0 for Intel X86 EM64T Linux

 Parts of Q-Chem use Armadillo 9.900.5 (Nocturnal Misbehaviour).
 http://arma.sourceforge.net/

 Q-Chem begins on Thu Jul 21 03:38:39 2022  

 Host: nid00509
0

     Scratch files written to /global/cscratch1/sd/ymao90/r7.00_frame_0017_spade_B3LYP_dp20220721031337//
 Processing $rem in /global/homes/y/ymao90/my_qchem/qchem_embedding_5p4/config/preferences:
 Processing $rem in /global/homes/y/ymao90/.qchemrc:
 No nuclear gradient supported for projection-based embedding or EMFT. Set max ideriv = 0.

 Checking the input file for inconsistencies... 	...done.

--------------------------------------------------------------
User input:
--------------------------------------------------------------
$molecule
0 1
--
0 1
C    20.30600   16.69100   28.62600  
C    21.35600   15.64900   29.04500  
C    21.79300   15.88100   30.50100  
C    20.72200   16.24000   31.54400  
C    19.67700   17.25500   31.05200  
C    19.17300   16.89500   29.64400  
H    22.25100   14.95600   30.87000  
H    20.80100   14.70400   29.10600  
H    20.75900   17.65800   28.37700  
H    19.88100   16.31400   27.68700  
H    20.17100   15.38500   31.95500  
H    21.19200   16.67000   32.43700  
H    18.89300   17.33000   31.81500  
H    20.15500   18.23800   30.95800  
H    18.47500   16.05800   29.77000  
H    18.53600   17.75000   29.38700  
H    22.55400   16.66800   30.56700  
N    22.44200   15.61500   28.06800  
H    22.71500   16.48200   27.62100  
C    23.07400   14.48900   27.58400  
H    23.84900   14.72200   26.83200  
O    22.72600   13.36100   27.88700  
--
0 1
C    20.76900   22.20200   28.60600  
H    19.97900   21.71400   28.02800  
H    20.87500   21.70300   29.57200  
H    20.44000   23.22800   28.79000  
S    22.33000   22.27500   27.69900  
C    22.56700   20.48400   27.73400  
H    22.17000   20.05500   28.65700  
H    22.03100   20.09400   26.86500  
H    23.63600   20.28300   27.62600  
O    23.26700   22.89200   28.69000  
C    17.46900   20.73900   24.49700  
H    17.51600   21.56200   23.78000  
H    17.15600   19.87000   23.91200  
H    16.74400   20.93900   25.29100  
S    19.14900   20.51200   25.12100  
C    18.62300   19.41100   26.45500  
H    19.27700   19.47600   27.32700  
H    17.60600   19.57500   26.82100  
H    18.66200   18.41900   25.99800  
O    19.41300   21.86000   25.71500  
C    26.29100   6.80500    28.88100  
H    27.21800   7.38400    28.90700  
H    25.89500   6.87600    29.89700  
H    26.61300   5.78100    28.67500  
S    25.21000   7.24500    27.50100  
C    24.91400   8.85100    28.27500  
H    23.97500   9.21700    27.85300  
H    25.04600   8.95300    29.35600  
H    25.52800   9.60800    27.78000  
O    23.95500   6.51200    27.86000  
C    25.88700   19.06200   32.70400  
H    26.37200   19.30100   33.65400  
H    24.85100   19.40000   32.62400  
H    26.05900   18.03100   32.38300  
S    26.79500   19.86900   31.36700  
C    25.60700   19.49600   30.05700  
H    25.28800   18.46800   30.24700  
H    24.74400   20.15600   30.16900  
H    25.95000   19.63700   29.02900  
O    27.95700   18.98400   31.04000  
C    18.56300   14.00100   35.09900  
H    18.82300   14.90300   34.53900  
H    17.89100   13.48800   34.40600  
H    17.93800   14.31500   35.93900  
S    19.98100   12.93500   35.44000  
C    19.14900   11.41100   35.94000  
H    18.55500   11.01500   35.11200  
H    19.86200   10.59400   36.07600  
H    18.55300   11.56100   36.84400  
O    20.66200   13.40400   36.68800  
C    22.95700   7.94600    32.62300  
H    23.56900   7.76300    31.73600  
H    23.60900   7.95500    33.50100  
H    22.23700   7.13900    32.78100  
S    22.13500   9.55400    32.63600  
C    23.41100   10.83100   32.71600  
H    23.60000   10.97900   33.78300  
H    24.28200   10.44100   32.18300  
H    23.06300   11.68900   32.13700  
O    21.41400   9.57600    33.94800  
C    21.65500   21.80400   34.04900  
H    20.72400   21.60600   34.58600  
H    22.48200   21.46100   34.67600  
H    21.69800   22.86900   33.80800  
S    21.77400   20.92800   32.47200  
C    21.93000   19.33000   33.30000  
H    22.73000   18.79100   32.78600  
H    22.24900   19.41100   34.34200  
H    20.93600   18.87700   33.31600  
O    23.17800   21.02400   31.96200  
C    14.92500   14.82700   34.59900  
H    14.92600   14.65600   35.67900  
H    15.91200   15.10700   34.22200  
H    14.11300   15.46700   34.24500  
S    14.64600   13.21700   33.82800  
C    13.12900   13.02200   34.79100  
H    12.39000   13.67300   34.31700  
H    12.79600   11.98600   34.69100  
H    13.26500   13.20500   35.85900  
O    15.65500   12.28500   34.42400  
C    15.13400   21.04300   28.33600  
H    15.91000   21.00200   27.56700  
H    14.27000   20.40100   28.14600  
H    14.70900   22.04700   28.27300  
S    15.91000   20.75400   29.94200  
C    17.33400   21.85600   29.78300  
H    17.82200   21.62800   28.83200  
H    16.96800   22.88500   29.79400  
H    17.99400   21.63000   30.62500  
O    16.57700   19.41600   29.86700  
C    27.27000   12.23500   22.52000  
H    27.92400   11.39400   22.76500  
H    26.44900   11.86900   21.89800  
H    27.91500   12.92300   21.96700  
S    26.62200   12.98200   24.03200  
C    28.05800   12.46100   24.99800  
H    27.77500   12.61900   26.04200  
H    28.21800   11.38000   25.00100  
H    28.89800   13.09700   24.70600  
O    25.57300   11.95500   24.32800  
C    11.78800   15.81700   29.18800  
H    11.50000   16.33200   28.26800  
H    10.84900   15.58600   29.69700  
H    12.50200   16.33600   29.83200  
S    12.53300   14.34500   28.45100  
C    13.14000   13.84200   30.07700  
H    12.30700   13.57900   30.73500  
H    13.78400   12.96000   30.05600  
H    13.71000   14.64200   30.55700  
O    13.76700   14.89200   27.80300  
C    25.18700   12.91100   30.02000  
H    24.88700   11.96900   30.48700  
H    26.03800   13.33100   30.56300  
H    24.40200   13.67000   29.96400  
S    25.86300   12.56400   28.38100  
C    27.24000   11.61400   29.06400  
H    27.75600   11.07100   28.26800  
H    27.91600   12.32100   29.55200  
H    26.78600   10.88800   29.74400  
O    26.59400   13.80800   27.98200  
C    24.04500   16.32900   33.59900  
H    23.24700   16.82400   34.15900  
H    25.04400   16.36800   34.04000  
H    24.27000   16.75000   32.61600  
S    23.58600   14.58200   33.54900  
C    24.04200   14.32600   35.27900  
H    23.95500   15.28500   35.79500  
H    23.48800   13.48700   35.70900  
H    25.11300   14.10700   35.26300  
O    24.64300   13.95100   32.69900  
C    21.74800   24.76600   30.94200  
H    22.34100   24.88500   31.85300  
H    22.11100   23.80700   30.56300  
H    21.82500   25.62900   30.27600  
S    19.98000   24.56700   31.25500  
C    19.59700   26.21200   31.89900  
H    20.03600   26.93400   31.20700  
H    18.51700   26.28100   32.05400  
H    20.06700   26.29100   32.88300  
O    19.84400   23.76300   32.51100  
C    18.22100   20.12300   33.13300  
H    19.14100   19.54500   33.01200  
H    17.67100   19.94900   32.20400  
H    18.47200   21.17300   33.29900  
S    17.33100   19.43800   34.54900  
C    17.59400   17.72000   34.05300  
H    17.08200   17.05900   34.75700  
H    17.11400   17.55400   33.08500  
H    18.67300   17.54800   34.03000  
O    15.88200   19.71200   34.28900  
C    19.75500   16.29300   37.49400  
H    19.43500   15.25000   37.42300  
H    19.70600   16.54400   38.55700  
H    19.04500   16.90800   36.93600  
S    21.33800   16.38700   36.62800  
C    21.70800   18.09000   37.10500  
H    22.43500   18.34300   36.32900  
H    20.75000   18.56200   36.86800  
H    22.01000   18.13500   38.15400  
O    20.87200   16.64700   35.22900  
C    16.95700   12.84800   27.32000  
H    16.82800   11.77700   27.49600  
H    16.31700   13.18800   26.50100  
H    18.03700   13.00800   27.27400  
S    16.34300   13.82100   28.71300  
C    16.61500   15.38400   27.84800  
H    16.46400   16.20200   28.55700  
H    17.62200   15.38600   27.42300  
H    15.94200   15.52900   26.99900  
O    17.51000   13.56000   29.61400  
C    14.33500   17.96300   32.08100  
H    14.32900   17.62300   31.04200  
H    14.78300   18.94700   32.24200  
H    14.90200   17.15000   32.54400  
S    12.64400   17.92700   32.71700  
C    13.02700   18.26600   34.45000  
H    12.20500   18.05500   35.13900  
H    13.88200   17.62600   34.68100  
H    13.13800   19.35100   34.52400  
O    12.37300   16.45600   32.64800  
C    27.31600   17.24200   35.74900  
H    27.67500   17.75900   34.85600  
H    28.17300   16.88500   36.32400  
H    26.57800   16.48000   35.48300  
S    26.39100   18.36300   36.82300  
C    26.30100   17.18600   38.19100  
H    27.31600   16.90100   38.48000  
H    25.63600   17.67900   38.90500  
H    25.86800   16.20900   37.96000  
O    24.96500   18.38700   36.36600  
C    21.37500   16.45500   24.90300  
H    21.38000   15.78400   25.76600  
H    20.58800   17.20900   24.98700  
H    21.36400   15.92900   23.94500  
S    22.93700   17.35300   25.03100  
C    23.99500   16.05700   24.34800  
H    25.02900   16.41100   24.33100  
H    23.75000   15.08600   24.78500  
H    23.78800   16.11200   23.27600  
O    23.34800   17.67200   26.43400  
C    27.31800   21.32200   25.04200  
H    27.24800   20.72200   25.95300  
H    28.35000   21.66300   24.93000  
H    26.50700   22.04700   24.93600  
S    27.23200   20.17100   23.65200  
C    26.84800   21.40600   22.39100  
H    27.60900   22.18800   22.45400  
H    26.75500   20.88100   21.43600  
H    25.95800   21.93800   22.73700  
O    25.93100   19.46600   23.88100  
C    27.68500   16.84100   28.69300  
H    28.36300   17.08700   29.51400  
H    26.65600   16.70900   29.03800  
H    27.95800   15.88600   28.23600  
S    27.68500   18.01100   27.31600  
C    26.52500   16.98900   26.38000  
H    26.20100   17.48800   25.46300  
H    26.93200   15.99300   26.19000  
H    25.67800   16.80600   27.04600  
O    29.02100   18.04000   26.64200  
C    20.25300   11.52800   28.47400  
H    21.26700   11.31300   28.81800  
H    20.18900   10.87400   27.60000  
H    20.08700   12.59400   28.30000  
S    19.23400   10.90400   29.83000  
C    19.82100   12.17200   30.97600  
H    19.41300   13.16300   30.76100  
H    19.53000   11.82100   31.96900  
H    20.91400   12.16300   31.01000  
O    20.03300   9.70800    30.24700  
C    22.26900   11.57500   23.89500  
H    22.07100   10.97500   23.00300  
H    21.52000   12.34800   24.08700  
H    23.23700   12.08200   23.87600  
S    22.13300   10.51500   25.35100  
C    23.35800   9.29300    24.83000  
H    23.42100   8.48000    25.55700  
H    23.06200   8.92600    23.84300  
H    24.30100   9.84200    24.76600  
O    20.79100   9.86000    25.23600  
C    16.23800   17.25200   22.13300  
H    15.58600   16.59000   21.55700  
H    15.83400   17.65400   23.06600  
H    16.58000   18.14900   21.61100  
S    17.74200   16.35100   22.57000  
C    16.93200   15.07700   23.56400  
H    17.73000   14.38800   23.85200  
H    16.57400   15.65700   24.41800  
H    16.11200   14.64500   22.98400  
O    18.44300   17.20000   23.58400  
$end

$rem
JOBTYPE  SP
METHOD  B3LYP
BASIS  6-31+G(D)
SYMMETRY  FALSE
SYM_IGNORE  TRUE
MEM_TOTAL  12000
MEM_STATIC  4000
BASIS_LIN_DEP_THRESH  6
THRESH  14
SCF_CONVERGENCE  8
FD_MAT_VEC_PROD  FALSE
XC_GRID  000075000302
NL_GRID  1
MAX_SCF_CYCLES  200
ENV_METHOD  B3LYP
GEN_SCFMAN_EMBED  TRUE
SPADE_PARTITION  TRUE
EMBEDDING_EARLY_STOP  TRUE
$end

--------------------------------------------------------------
 ----------------------------------------------------------------
             Standard Nuclear Orientation (Angstroms)
    I     Atom           X                Y                Z
 ----------------------------------------------------------------
    1      C      20.3060000000    16.6910000000    28.6260000000
    2      C      21.3560000000    15.6490000000    29.0450000000
    3      C      21.7930000000    15.8810000000    30.5010000000
    4      C      20.7220000000    16.2400000000    31.5440000000
    5      C      19.6770000000    17.2550000000    31.0520000000
    6      C      19.1730000000    16.8950000000    29.6440000000
    7      H      22.2510000000    14.9560000000    30.8700000000
    8      H      20.8010000000    14.7040000000    29.1060000000
    9      H      20.7590000000    17.6580000000    28.3770000000
   10      H      19.8810000000    16.3140000000    27.6870000000
   11      H      20.1710000000    15.3850000000    31.9550000000
   12      H      21.1920000000    16.6700000000    32.4370000000
   13      H      18.8930000000    17.3300000000    31.8150000000
   14      H      20.1550000000    18.2380000000    30.9580000000
   15      H      18.4750000000    16.0580000000    29.7700000000
   16      H      18.5360000000    17.7500000000    29.3870000000
   17      H      22.5540000000    16.6680000000    30.5670000000
   18      N      22.4420000000    15.6150000000    28.0680000000
   19      H      22.7150000000    16.4820000000    27.6210000000
   20      C      23.0740000000    14.4890000000    27.5840000000
   21      H      23.8490000000    14.7220000000    26.8320000000
   22      O      22.7260000000    13.3610000000    27.8870000000
   23      C      20.7690000000    22.2020000000    28.6060000000
   24      H      19.9790000000    21.7140000000    28.0280000000
   25      H      20.8750000000    21.7030000000    29.5720000000
   26      H      20.4400000000    23.2280000000    28.7900000000
   27      S      22.3300000000    22.2750000000    27.6990000000
   28      C      22.5670000000    20.4840000000    27.7340000000
   29      H      22.1700000000    20.0550000000    28.6570000000
   30      H      22.0310000000    20.0940000000    26.8650000000
   31      H      23.6360000000    20.2830000000    27.6260000000
   32      O      23.2670000000    22.8920000000    28.6900000000
   33      C      17.4690000000    20.7390000000    24.4970000000
   34      H      17.5160000000    21.5620000000    23.7800000000
   35      H      17.1560000000    19.8700000000    23.9120000000
   36      H      16.7440000000    20.9390000000    25.2910000000
   37      S      19.1490000000    20.5120000000    25.1210000000
   38      C      18.6230000000    19.4110000000    26.4550000000
   39      H      19.2770000000    19.4760000000    27.3270000000
   40      H      17.6060000000    19.5750000000    26.8210000000
   41      H      18.6620000000    18.4190000000    25.9980000000
   42      O      19.4130000000    21.8600000000    25.7150000000
   43      C      26.2910000000     6.8050000000    28.8810000000
   44      H      27.2180000000     7.3840000000    28.9070000000
   45      H      25.8950000000     6.8760000000    29.8970000000
   46      H      26.6130000000     5.7810000000    28.6750000000
   47      S      25.2100000000     7.2450000000    27.5010000000
   48      C      24.9140000000     8.8510000000    28.2750000000
   49      H      23.9750000000     9.2170000000    27.8530000000
   50      H      25.0460000000     8.9530000000    29.3560000000
   51      H      25.5280000000     9.6080000000    27.7800000000
   52      O      23.9550000000     6.5120000000    27.8600000000
   53      C      25.8870000000    19.0620000000    32.7040000000
   54      H      26.3720000000    19.3010000000    33.6540000000
   55      H      24.8510000000    19.4000000000    32.6240000000
   56      H      26.0590000000    18.0310000000    32.3830000000
   57      S      26.7950000000    19.8690000000    31.3670000000
   58      C      25.6070000000    19.4960000000    30.0570000000
   59      H      25.2880000000    18.4680000000    30.2470000000
   60      H      24.7440000000    20.1560000000    30.1690000000
   61      H      25.9500000000    19.6370000000    29.0290000000
   62      O      27.9570000000    18.9840000000    31.0400000000
   63      C      18.5630000000    14.0010000000    35.0990000000
   64      H      18.8230000000    14.9030000000    34.5390000000
   65      H      17.8910000000    13.4880000000    34.4060000000
   66      H      17.9380000000    14.3150000000    35.9390000000
   67      S      19.9810000000    12.9350000000    35.4400000000
   68      C      19.1490000000    11.4110000000    35.9400000000
   69      H      18.5550000000    11.0150000000    35.1120000000
   70      H      19.8620000000    10.5940000000    36.0760000000
   71      H      18.5530000000    11.5610000000    36.8440000000
   72      O      20.6620000000    13.4040000000    36.6880000000
   73      C      22.9570000000     7.9460000000    32.6230000000
   74      H      23.5690000000     7.7630000000    31.7360000000
   75      H      23.6090000000     7.9550000000    33.5010000000
   76      H      22.2370000000     7.1390000000    32.7810000000
   77      S      22.1350000000     9.5540000000    32.6360000000
   78      C      23.4110000000    10.8310000000    32.7160000000
   79      H      23.6000000000    10.9790000000    33.7830000000
   80      H      24.2820000000    10.4410000000    32.1830000000
   81      H      23.0630000000    11.6890000000    32.1370000000
   82      O      21.4140000000     9.5760000000    33.9480000000
   83      C      21.6550000000    21.8040000000    34.0490000000
   84      H      20.7240000000    21.6060000000    34.5860000000
   85      H      22.4820000000    21.4610000000    34.6760000000
   86      H      21.6980000000    22.8690000000    33.8080000000
   87      S      21.7740000000    20.9280000000    32.4720000000
   88      C      21.9300000000    19.3300000000    33.3000000000
   89      H      22.7300000000    18.7910000000    32.7860000000
   90      H      22.2490000000    19.4110000000    34.3420000000
   91      H      20.9360000000    18.8770000000    33.3160000000
   92      O      23.1780000000    21.0240000000    31.9620000000
   93      C      14.9250000000    14.8270000000    34.5990000000
   94      H      14.9260000000    14.6560000000    35.6790000000
   95      H      15.9120000000    15.1070000000    34.2220000000
   96      H      14.1130000000    15.4670000000    34.2450000000
   97      S      14.6460000000    13.2170000000    33.8280000000
   98      C      13.1290000000    13.0220000000    34.7910000000
   99      H      12.3900000000    13.6730000000    34.3170000000
  100      H      12.7960000000    11.9860000000    34.6910000000
  101      H      13.2650000000    13.2050000000    35.8590000000
  102      O      15.6550000000    12.2850000000    34.4240000000
  103      C      15.1340000000    21.0430000000    28.3360000000
  104      H      15.9100000000    21.0020000000    27.5670000000
  105      H      14.2700000000    20.4010000000    28.1460000000
  106      H      14.7090000000    22.0470000000    28.2730000000
  107      S      15.9100000000    20.7540000000    29.9420000000
  108      C      17.3340000000    21.8560000000    29.7830000000
  109      H      17.8220000000    21.6280000000    28.8320000000
  110      H      16.9680000000    22.8850000000    29.7940000000
  111      H      17.9940000000    21.6300000000    30.6250000000
  112      O      16.5770000000    19.4160000000    29.8670000000
  113      C      27.2700000000    12.2350000000    22.5200000000
  114      H      27.9240000000    11.3940000000    22.7650000000
  115      H      26.4490000000    11.8690000000    21.8980000000
  116      H      27.9150000000    12.9230000000    21.9670000000
  117      S      26.6220000000    12.9820000000    24.0320000000
  118      C      28.0580000000    12.4610000000    24.9980000000
  119      H      27.7750000000    12.6190000000    26.0420000000
  120      H      28.2180000000    11.3800000000    25.0010000000
  121      H      28.8980000000    13.0970000000    24.7060000000
  122      O      25.5730000000    11.9550000000    24.3280000000
  123      C      11.7880000000    15.8170000000    29.1880000000
  124      H      11.5000000000    16.3320000000    28.2680000000
  125      H      10.8490000000    15.5860000000    29.6970000000
  126      H      12.5020000000    16.3360000000    29.8320000000
  127      S      12.5330000000    14.3450000000    28.4510000000
  128      C      13.1400000000    13.8420000000    30.0770000000
  129      H      12.3070000000    13.5790000000    30.7350000000
  130      H      13.7840000000    12.9600000000    30.0560000000
  131      H      13.7100000000    14.6420000000    30.5570000000
  132      O      13.7670000000    14.8920000000    27.8030000000
  133      C      25.1870000000    12.9110000000    30.0200000000
  134      H      24.8870000000    11.9690000000    30.4870000000
  135      H      26.0380000000    13.3310000000    30.5630000000
  136      H      24.4020000000    13.6700000000    29.9640000000
  137      S      25.8630000000    12.5640000000    28.3810000000
  138      C      27.2400000000    11.6140000000    29.0640000000
  139      H      27.7560000000    11.0710000000    28.2680000000
  140      H      27.9160000000    12.3210000000    29.5520000000
  141      H      26.7860000000    10.8880000000    29.7440000000
  142      O      26.5940000000    13.8080000000    27.9820000000
  143      C      24.0450000000    16.3290000000    33.5990000000
  144      H      23.2470000000    16.8240000000    34.1590000000
  145      H      25.0440000000    16.3680000000    34.0400000000
  146      H      24.2700000000    16.7500000000    32.6160000000
  147      S      23.5860000000    14.5820000000    33.5490000000
  148      C      24.0420000000    14.3260000000    35.2790000000
  149      H      23.9550000000    15.2850000000    35.7950000000
  150      H      23.4880000000    13.4870000000    35.7090000000
  151      H      25.1130000000    14.1070000000    35.2630000000
  152      O      24.6430000000    13.9510000000    32.6990000000
  153      C      21.7480000000    24.7660000000    30.9420000000
  154      H      22.3410000000    24.8850000000    31.8530000000
  155      H      22.1110000000    23.8070000000    30.5630000000
  156      H      21.8250000000    25.6290000000    30.2760000000
  157      S      19.9800000000    24.5670000000    31.2550000000
  158      C      19.5970000000    26.2120000000    31.8990000000
  159      H      20.0360000000    26.9340000000    31.2070000000
  160      H      18.5170000000    26.2810000000    32.0540000000
  161      H      20.0670000000    26.2910000000    32.8830000000
  162      O      19.8440000000    23.7630000000    32.5110000000
  163      C      18.2210000000    20.1230000000    33.1330000000
  164      H      19.1410000000    19.5450000000    33.0120000000
  165      H      17.6710000000    19.9490000000    32.2040000000
  166      H      18.4720000000    21.1730000000    33.2990000000
  167      S      17.3310000000    19.4380000000    34.5490000000
  168      C      17.5940000000    17.7200000000    34.0530000000
  169      H      17.0820000000    17.0590000000    34.7570000000
  170      H      17.1140000000    17.5540000000    33.0850000000
  171      H      18.6730000000    17.5480000000    34.0300000000
  172      O      15.8820000000    19.7120000000    34.2890000000
  173      C      19.7550000000    16.2930000000    37.4940000000
  174      H      19.4350000000    15.2500000000    37.4230000000
  175      H      19.7060000000    16.5440000000    38.5570000000
  176      H      19.0450000000    16.9080000000    36.9360000000
  177      S      21.3380000000    16.3870000000    36.6280000000
  178      C      21.7080000000    18.0900000000    37.1050000000
  179      H      22.4350000000    18.3430000000    36.3290000000
  180      H      20.7500000000    18.5620000000    36.8680000000
  181      H      22.0100000000    18.1350000000    38.1540000000
  182      O      20.8720000000    16.6470000000    35.2290000000
  183      C      16.9570000000    12.8480000000    27.3200000000
  184      H      16.8280000000    11.7770000000    27.4960000000
  185      H      16.3170000000    13.1880000000    26.5010000000
  186      H      18.0370000000    13.0080000000    27.2740000000
  187      S      16.3430000000    13.8210000000    28.7130000000
  188      C      16.6150000000    15.3840000000    27.8480000000
  189      H      16.4640000000    16.2020000000    28.5570000000
  190      H      17.6220000000    15.3860000000    27.4230000000
  191      H      15.9420000000    15.5290000000    26.9990000000
  192      O      17.5100000000    13.5600000000    29.6140000000
  193      C      14.3350000000    17.9630000000    32.0810000000
  194      H      14.3290000000    17.6230000000    31.0420000000
  195      H      14.7830000000    18.9470000000    32.2420000000
  196      H      14.9020000000    17.1500000000    32.5440000000
  197      S      12.6440000000    17.9270000000    32.7170000000
  198      C      13.0270000000    18.2660000000    34.4500000000
  199      H      12.2050000000    18.0550000000    35.1390000000
  200      H      13.8820000000    17.6260000000    34.6810000000
  201      H      13.1380000000    19.3510000000    34.5240000000
  202      O      12.3730000000    16.4560000000    32.6480000000
  203      C      27.3160000000    17.2420000000    35.7490000000
  204      H      27.6750000000    17.7590000000    34.8560000000
  205      H      28.1730000000    16.8850000000    36.3240000000
  206      H      26.5780000000    16.4800000000    35.4830000000
  207      S      26.3910000000    18.3630000000    36.8230000000
  208      C      26.3010000000    17.1860000000    38.1910000000
  209      H      27.3160000000    16.9010000000    38.4800000000
  210      H      25.6360000000    17.6790000000    38.9050000000
  211      H      25.8680000000    16.2090000000    37.9600000000
  212      O      24.9650000000    18.3870000000    36.3660000000
  213      C      21.3750000000    16.4550000000    24.9030000000
  214      H      21.3800000000    15.7840000000    25.7660000000
  215      H      20.5880000000    17.2090000000    24.9870000000
  216      H      21.3640000000    15.9290000000    23.9450000000
  217      S      22.9370000000    17.3530000000    25.0310000000
  218      C      23.9950000000    16.0570000000    24.3480000000
  219      H      25.0290000000    16.4110000000    24.3310000000
  220      H      23.7500000000    15.0860000000    24.7850000000
  221      H      23.7880000000    16.1120000000    23.2760000000
  222      O      23.3480000000    17.6720000000    26.4340000000
  223      C      27.3180000000    21.3220000000    25.0420000000
  224      H      27.2480000000    20.7220000000    25.9530000000
  225      H      28.3500000000    21.6630000000    24.9300000000
  226      H      26.5070000000    22.0470000000    24.9360000000
  227      S      27.2320000000    20.1710000000    23.6520000000
  228      C      26.8480000000    21.4060000000    22.3910000000
  229      H      27.6090000000    22.1880000000    22.4540000000
  230      H      26.7550000000    20.8810000000    21.4360000000
  231      H      25.9580000000    21.9380000000    22.7370000000
  232      O      25.9310000000    19.4660000000    23.8810000000
  233      C      27.6850000000    16.8410000000    28.6930000000
  234      H      28.3630000000    17.0870000000    29.5140000000
  235      H      26.6560000000    16.7090000000    29.0380000000
  236      H      27.9580000000    15.8860000000    28.2360000000
  237      S      27.6850000000    18.0110000000    27.3160000000
  238      C      26.5250000000    16.9890000000    26.3800000000
  239      H      26.2010000000    17.4880000000    25.4630000000
  240      H      26.9320000000    15.9930000000    26.1900000000
  241      H      25.6780000000    16.8060000000    27.0460000000
  242      O      29.0210000000    18.0400000000    26.6420000000
  243      C      20.2530000000    11.5280000000    28.4740000000
  244      H      21.2670000000    11.3130000000    28.8180000000
  245      H      20.1890000000    10.8740000000    27.6000000000
  246      H      20.0870000000    12.5940000000    28.3000000000
  247      S      19.2340000000    10.9040000000    29.8300000000
  248      C      19.8210000000    12.1720000000    30.9760000000
  249      H      19.4130000000    13.1630000000    30.7610000000
  250      H      19.5300000000    11.8210000000    31.9690000000
  251      H      20.9140000000    12.1630000000    31.0100000000
  252      O      20.0330000000     9.7080000000    30.2470000000
  253      C      22.2690000000    11.5750000000    23.8950000000
  254      H      22.0710000000    10.9750000000    23.0030000000
  255      H      21.5200000000    12.3480000000    24.0870000000
  256      H      23.2370000000    12.0820000000    23.8760000000
  257      S      22.1330000000    10.5150000000    25.3510000000
  258      C      23.3580000000     9.2930000000    24.8300000000
  259      H      23.4210000000     8.4800000000    25.5570000000
  260      H      23.0620000000     8.9260000000    23.8430000000
  261      H      24.3010000000     9.8420000000    24.7660000000
  262      O      20.7910000000     9.8600000000    25.2360000000
  263      C      16.2380000000    17.2520000000    22.1330000000
  264      H      15.5860000000    16.5900000000    21.5570000000
  265      H      15.8340000000    17.6540000000    23.0660000000
  266      H      16.5800000000    18.1490000000    21.6110000000
  267      S      17.7420000000    16.3510000000    22.5700000000
  268      C      16.9320000000    15.0770000000    23.5640000000
  269      H      17.7300000000    14.3880000000    23.8520000000
  270      H      16.5740000000    15.6570000000    24.4180000000
  271      H      16.1120000000    14.6450000000    22.9840000000
  272      O      18.4430000000    17.2000000000    23.5840000000
 ----------------------------------------------------------------
 Nuclear Repulsion Energy =       41946.72372271 hartrees
 There are      560 alpha and      560 beta electrons
 Requested basis set is 6-31+G(d)
 There are 896 shells and 2497 basis functions

 Total QAlloc Memory Limit  12000 MB
 Mega-Array Size      3911 MB
 MEM_STATIC part      4000 MB

 A cutoff of  1.0D-14 yielded 155021 shell pairs
 There are   1341369 function pairs
 Smallest overlap matrix eigenvalue = 5.06E-07
 Linear dependence detected in AO basis
 Tighter screening thresholds may be required for diffuse basis sets
 Use S2THRESH > 14 and THRESH = 14 in case of SCF convergence issues
 Number of orthogonalized atomic orbitals = 2495
 Maximum deviation from orthogonality = 9.901E-11

 Scale SEOQF with 1.000000e-03/1.000000e-03/1.000000e-03

 Standard Electronic Orientation quadrupole field applied
 Nucleus-field energy     =    -0.0000006814 hartrees
 Guess from superposition of atomic densities
 Warning:  Energy on first SCF cycle will be non-variational
 SAD guess density has 1120.000002 electrons

 -----------------------------------------------------------------------
  General SCF calculation program by
  Eric Jon Sundstrom, Paul Horn, Yuezhi Mao, Dmitri Zuev, Alec White,
  David Stuck, Shaama M.S., Shane Yost, Joonho Lee, David Small,
  Daniel Levine, Susi Lehtola, Hugh Burton, Evgeny Epifanovsky,
  Bang C. Huynh
 -----------------------------------------------------------------------
=================================================
        Doing projection-based embedding         
      F. Manby et al. JCTC, 8, 2564 (2012)       
=================================================

****************************************************
   Low-level SCF calculation for the whole system   
****************************************************
----------------------------------------------
 Summary of the low-level theory: 
 Exchange:     0.2000 Hartree-Fock + 0.0800 Slater + 0.7200 B88
 Correlation:  0.1900 VWN1RPA + 0.8100 LYP
 Using Euler-Maclaurin-Lebedev (75,302) quadrature formula
----------------------------------------------
 using 16 threads for integral computing
 -------------------------------------------------------
 OpenMP Integral computing Module                
 Release: version 1.0, May 2013, Q-Chem Inc. Pittsburgh 
 -------------------------------------------------------
 A restricted SCF calculation will be
 performed using DIIS
 SCF converges when DIIS error is below 1.0e-08
 ---------------------------------------
  Cycle       Energy         DIIS error
 ---------------------------------------
    1  -14252.2533234978      1.40e-02  
    2  -14229.9339784296      2.57e-03  
    3  -14217.9008682751      4.87e-03  
    4  -14233.4174480570      1.13e-03  
    5  -14234.3478235750      1.74e-04  
    6  -14234.3586583125      1.39e-04  
    7  -14234.3698459557      5.39e-05  
    8  -14234.3716872552      1.19e-05  
    9  -14234.3717752358      4.67e-06  
   10  -14234.3717878177      1.75e-06  
   11  -14234.3717896020      5.67e-07  
   12  -14234.3717897971      1.88e-07  
   13  -14234.3717898203      5.27e-08  
   14  -14234.3717898219      2.39e-08  
   15  -14234.3717898222      7.96e-09  Convergence criterion met
 ---------------------------------------
 SCF time:   CPU 201506.28s  wall 14435.00s 
 SCF   energy in the final basis set =   -14234.3717898222
 Total energy in the final basis set =   -14234.3717898222

****************************************************
             Start embedding calculation            
****************************************************
----------------------------------------------
 Summary of the high-level theory: 
 Exchange:     0.2000 Hartree-Fock + 0.0800 Slater + 0.7200 B88
 Correlation:  0.1900 VWN1RPA + 0.8100 LYP
 Using Euler-Maclaurin-Lebedev (75,302) quadrature formula
----------------------------------------------
Doing R-in-R Embedding Calculation
Number of fragments: 2
Embedded fragment(s): 1 
NOcc for each fragment
           35
          525
NBasis for each fragment
          197
         2300
Variational space of the embedded problem: 
NOcc (active)  = 35
NOcc (fixed)   = 525
NVir (total)   = 1935
Read converged orbitals from disk
=========================================================
       Doing SPADE partition for the orbital space       
     D. Claudino and N. Mayhall JCTC 15, 1053 (2019)     
=========================================================
SPADE singular values:
 1.0000 1.0000 1.0000 1.0000 1.0000 1.0000 1.0000 1.0000 1.0000 0.9999
 0.9998 0.9997 0.9996 0.9996 0.9994 0.9993 0.9991 0.9989 0.9986 0.9972
 0.9967 0.9965 0.9962 0.9957 0.9951 0.9948 0.9941 0.9936 0.9921 0.9913
 0.9903 0.9895 0.9877 0.9847 0.9782 0.2363 0.1906 0.1731 0.1634 0.1531
 0.1503 0.1417 0.1294 0.1188 0.1159 0.1076 0.0953 0.0824 0.0724 0.0711
 0.0636 0.0606 0.0524 0.0492 0.0463 0.0442 0.0389 0.0383 0.0350 0.0330
 0.0302 0.0280 0.0259 0.0256 0.0240 0.0232 0.0221 0.0213 0.0192 0.0185
 0.0171 0.0164 0.0155 0.0149 0.0137 0.0131 0.0121 0.0118 0.0110 0.0105
 0.0100 0.0092 0.0088 0.0086 0.0081 0.0077 0.0073 0.0071 0.0071 0.0066
 0.0062 0.0056 0.0054 0.0051 0.0049 0.0049 0.0044 0.0043 0.0041 0.0039
 0.0037 0.0035 0.0034 0.0032 0.0029 0.0028 0.0027 0.0025 0.0025 0.0024
 0.0022 0.0022 0.0021 0.0020 0.0019 0.0018 0.0017 0.0016 0.0015 0.0015
 0.0014 0.0014 0.0014 0.0013 0.0013 0.0011 0.0011 0.0010 0.0010 0.0010
 0.0009 0.0009 0.0009 0.0008 0.0008 0.0008 0.0007 0.0007 0.0007 0.0007
 0.0007 0.0006 0.0006 0.0006 0.0005 0.0005 0.0005 0.0005 0.0005 0.0005
 0.0004 0.0004 0.0004 0.0004 0.0004 0.0003 0.0003 0.0003 0.0003 0.0003
 0.0003 0.0003 0.0002 0.0002 0.0002 0.0002 0.0002 0.0002 0.0002 0.0002
 0.0002 0.0002 0.0002 0.0002 0.0002 0.0002 0.0002 0.0001 0.0001 0.0001
 0.0001 0.0001 0.0001 0.0001 0.0001 0.0001 0.0001 0.0001 0.0001 0.0001
 0.0001 0.0001 0.0001 0.0001 0.0001 0.0001 0.0000
Early stop requested; no embedded SCF will be performed

 525 environment occs will be part of frozen-core in future post-HF calculations

 --------------------------------------------------------------

                    Orbital Energies (a.u.)
 --------------------------------------------------------------

 Alpha MOs
 -- Occupied --
-89.0207 -89.0178 -89.0117 -89.0081 -89.0069 -89.0064 -89.0059 -89.0042
-89.0025 -88.9976 -88.9947 -88.9936 -88.9926 -88.9921 -88.9844 -88.9829
-88.9823 -88.9816 -88.9782 -88.9780 -88.9685 -88.9676 -88.9567 -88.9541
-88.9462 -19.1424 -19.1322 -19.1286 -19.1280 -19.1224 -19.1219 -19.1202
-19.1200 -19.1178 -19.1170 -19.1125 -19.1123 -19.1088 -19.1021 -19.1011
-19.1010 -19.0997 -19.0970 -19.0964 -19.0945 -19.0865 -19.0858 -19.0824
-19.0792 -19.0570 -10.2455 -10.2414 -10.2405 -10.2331 -10.2295 -10.2293
-10.2256 -10.2255 -10.2195 -10.2195 -10.2192 -10.2184 -10.2172 -10.2170
-10.2170 -10.2159 -10.2159 -10.2145 -10.2128 -10.2128 -10.2112 -10.2111
-10.2096 -10.2093 -10.2088 -10.2081 -10.2050 -10.2043 -10.2042 -10.2042
-10.2035 -10.2005 -10.1996 -10.1995 -10.1990 -10.1974 -10.1967 -10.1944
-10.1943 -10.1924 -10.1920 -10.1906 -10.1899 -10.1888 -10.1827 -10.1817
-10.1712 -10.1654 -10.1615 -10.1570  -8.0674  -8.0637  -8.0581  -8.0534
 -8.0527  -8.0525  -8.0513  -8.0506  -8.0489  -8.0432  -8.0405  -8.0390
 -8.0384  -8.0384  -8.0313  -8.0281  -8.0280  -8.0275  -8.0236  -8.0226
 -8.0145  -8.0135  -8.0021  -8.0010  -7.9914  -6.0318  -6.0305  -6.0281
 -6.0269  -6.0247  -6.0224  -6.0212  -6.0209  -6.0178  -6.0169  -6.0168
 -6.0166  -6.0157  -6.0155  -6.0155  -6.0155  -6.0150  -6.0144  -6.0137
 -6.0134  -6.0119  -6.0109  -6.0104  -6.0102  -6.0087  -6.0079  -6.0072
 -6.0063  -6.0063  -6.0048  -6.0035  -6.0033  -6.0032  -6.0027  -6.0020
 -6.0015  -6.0014  -6.0012  -5.9981  -5.9967  -5.9959  -5.9956  -5.9952
 -5.9943  -5.9926  -5.9924  -5.9920  -5.9911  -5.9910  -5.9904  -5.9885
 -5.9880  -5.9873  -5.9867  -5.9859  -5.9856  -5.9854  -5.9850  -5.9810
 -5.9797  -5.9789  -5.9778  -5.9776  -5.9767  -5.9718  -5.9707  -5.9667
 -5.9654  -5.9652  -5.9644  -5.9596  -5.9573  -5.9557  -5.9545  -5.9492
 -1.0502  -1.0418  -1.0367  -1.0328  -1.0311  -1.0303  -1.0299  -1.0294
 -1.0290  -1.0286  -1.0250  -1.0193  -1.0183  -1.0124  -1.0116  -1.0102
 -1.0097  -1.0092  -1.0031  -1.0021  -0.9946  -0.9922  -0.9850  -0.9832
 -0.9685  -0.8283  -0.8188  -0.8166  -0.8093  -0.8087  -0.8081  -0.8053
 -0.8049  -0.8035  -0.8019  -0.7996  -0.7943  -0.7935  -0.7926  -0.7914
 -0.7903  -0.7876  -0.7852  -0.7821  -0.7778  -0.7747  -0.7723  -0.7664
 -0.7657  -0.7544  -0.7498  -0.7435  -0.7392  -0.7335  -0.7325  -0.7305
 -0.7286  -0.7283  -0.7260  -0.7227  -0.7219  -0.7205  -0.7189  -0.7183
 -0.7151  -0.7098  -0.7084  -0.7080  -0.7069  -0.7062  -0.7026  -0.7015
 -0.7009  -0.6758  -0.6708  -0.6319  -0.6317  -0.6248  -0.6213  -0.6203
 -0.6193  -0.6178  -0.6136  -0.6127  -0.6120  -0.6085  -0.6063  -0.6053
 -0.6044  -0.5993  -0.5978  -0.5963  -0.5933  -0.5925  -0.5901  -0.5809
 -0.5802  -0.5760  -0.5687  -0.5597  -0.5047  -0.5040  -0.4997  -0.4932
 -0.4910  -0.4896  -0.4891  -0.4885  -0.4866  -0.4861  -0.4836  -0.4830
 -0.4829  -0.4817  -0.4792  -0.4783  -0.4781  -0.4779  -0.4771  -0.4766
 -0.4762  -0.4752  -0.4727  -0.4725  -0.4719  -0.4716  -0.4712  -0.4705
 -0.4704  -0.4699  -0.4684  -0.4680  -0.4677  -0.4670  -0.4666  -0.4650
 -0.4635  -0.4632  -0.4629  -0.4620  -0.4608  -0.4606  -0.4601  -0.4594
 -0.4582  -0.4574  -0.4568  -0.4563  -0.4552  -0.4548  -0.4539  -0.4534
 -0.4530  -0.4497  -0.4494  -0.4489  -0.4470  -0.4459  -0.4451  -0.4450
 -0.4435  -0.4419  -0.4416  -0.4401  -0.4399  -0.4396  -0.4391  -0.4381
 -0.4365  -0.4354  -0.4352  -0.4345  -0.4340  -0.4337  -0.4337  -0.4335
 -0.4329  -0.4325  -0.4306  -0.4297  -0.4294  -0.4276  -0.4270  -0.4262
 -0.4250  -0.4237  -0.4235  -0.4229  -0.4222  -0.4216  -0.4215  -0.4210
 -0.4197  -0.4184  -0.4172  -0.4164  -0.4154  -0.4148  -0.4143  -0.4133
 -0.4124  -0.4123  -0.4113  -0.4108  -0.4101  -0.4087  -0.4084  -0.4080
 -0.4068  -0.4056  -0.4052  -0.4042  -0.4033  -0.4032  -0.4025  -0.4010
 -0.4005  -0.3999  -0.3991  -0.3987  -0.3977  -0.3962  -0.3948  -0.3926
 -0.3907  -0.3892  -0.3873  -0.3852  -0.3849  -0.3841  -0.3839  -0.3831
 -0.3829  -0.3820  -0.3814  -0.3810  -0.3805  -0.3799  -0.3770  -0.3762
 -0.3759  -0.3758  -0.3742  -0.3735  -0.3726  -0.3718  -0.3714  -0.3712
 -0.3710  -0.3693  -0.3687  -0.3684  -0.3656  -0.3654  -0.3644  -0.3641
 -0.3624  -0.3620  -0.3595  -0.3582  -0.3550  -0.3545  -0.3531  -0.3484
 -0.3479  -0.3462  -0.3446  -0.3443  -0.3422  -0.3405  -0.3312  -0.3277
 -0.3215  -0.3193  -0.3072  -0.3035  -0.2948  -0.2911  -0.2881  -0.2834
 -0.2819  -0.2804  -0.2798  -0.2784  -0.2753  -0.2742  -0.2701  -0.2664
 -0.2652  -0.2633  -0.2602  -0.2599  -0.2590  -0.2583  -0.2580  -0.2578
 -0.2548  -0.2546  -0.2544  -0.2510  -0.2489  -0.2480  -0.2478  -0.2460
 -0.2457  -0.2443  -0.2441  -0.2417  -0.2405  -0.2375  -0.2371  -0.2366
 -0.2362  -0.2276  -0.2267  -0.2250  -0.2239  -0.2188  -0.2183  -0.2145
 -0.2081  -0.2072  -0.1979  -0.1946  -0.1798 -10.2684 -10.5283 -12.7259
-11.5834 -10.3456 -13.9250 -13.8557 -10.0898 -10.3274  -0.8506  -0.7207
 -0.7171  -0.8385  -0.8253  -0.6878  -0.6976  -0.6887  -0.4257  -0.4400
 -0.4137  -0.4095  -0.4334  -0.4629  -0.4490  -0.4381  -0.4061  -0.3930
 -0.4549  -0.3477  -0.4620  -0.4324  -0.4533  -0.4885  -0.5382  -0.6009
 -- Virtual --
 -0.0299  -0.0192  -0.0183  -0.0142  -0.0140  -0.0133  -0.0128  -0.0117
 -0.0110  -0.0104  -0.0103  -0.0078  -0.0067  -0.0056  -0.0041  -0.0034
 -0.0030  -0.0011  -0.0001   0.0006   0.0016   0.0021   0.0029   0.0039
  0.0047   0.0072   0.0075   0.0083   0.0094   0.0102   0.0105   0.0108
  0.0116   0.0126   0.0131   0.0136   0.0144   0.0149   0.0156   0.0166
  0.0178   0.0183   0.0191   0.0201   0.0207   0.0212   0.0217   0.0226
  0.0230   0.0247   0.0253   0.0260   0.0270   0.0271   0.0287   0.0297
  0.0308   0.0315   0.0325   0.0331   0.0335   0.0347   0.0349   0.0354
  0.0363   0.0380   0.0386   0.0392   0.0399   0.0400   0.0410   0.0413
  0.0419   0.0420   0.0424   0.0429   0.0439   0.0440   0.0450   0.0454
  0.0456   0.0464   0.0465   0.0475   0.0479   0.0483   0.0491   0.0498
  0.0503   0.0509   0.0521   0.0527   0.0534   0.0542   0.0545   0.0550
  0.0554   0.0559   0.0564   0.0566   0.0579   0.0585   0.0593   0.0596
  0.0604   0.0611   0.0616   0.0625   0.0634   0.0638   0.0646   0.0655
  0.0663   0.0670   0.0682   0.0691   0.0694   0.0699   0.0712   0.0714
  0.0720   0.0725   0.0735   0.0738   0.0747   0.0754   0.0765   0.0768
  0.0771   0.0778   0.0780   0.0783   0.0789   0.0802   0.0806   0.0817
  0.0821   0.0828   0.0834   0.0838   0.0844   0.0855   0.0865   0.0869
  0.0871   0.0879   0.0883   0.0895   0.0905   0.0914   0.0919   0.0925
  0.0931   0.0934   0.0940   0.0944   0.0954   0.0958   0.0967   0.0975
  0.0984   0.0991   0.0995   0.1005   0.1012   0.1019   0.1024   0.1027
  0.1033   0.1040   0.1047   0.1050   0.1055   0.1061   0.1068   0.1077
  0.1080   0.1087   0.1105   0.1107   0.1110   0.1124   0.1128   0.1128
  0.1142   0.1149   0.1157   0.1161   0.1164   0.1172   0.1175   0.1183
  0.1191   0.1199   0.1202   0.1208   0.1211   0.1221   0.1226   0.1235
  0.1241   0.1247   0.1254   0.1263   0.1273   0.1276   0.1282   0.1285
  0.1289   0.1296   0.1300   0.1313   0.1314   0.1315   0.1322   0.1331
  0.1342   0.1347   0.1351   0.1361   0.1371   0.1371   0.1375   0.1392
  0.1397   0.1408   0.1411   0.1422   0.1426   0.1431   0.1445   0.1454
  0.1458   0.1460   0.1471   0.1476   0.1483   0.1485   0.1496   0.1504
  0.1510   0.1511   0.1516   0.1524   0.1527   0.1531   0.1540   0.1544
  0.1551   0.1554   0.1561   0.1568   0.1574   0.1581   0.1591   0.1601
  0.1610   0.1613   0.1623   0.1626   0.1634   0.1640   0.1644   0.1650
  0.1655   0.1665   0.1669   0.1677   0.1680   0.1689   0.1695   0.1701
  0.1707   0.1710   0.1721   0.1733   0.1737   0.1740   0.1744   0.1747
  0.1752   0.1762   0.1764   0.1774   0.1785   0.1790   0.1792   0.1801
  0.1808   0.1817   0.1823   0.1828   0.1833   0.1841   0.1847   0.1859
  0.1861   0.1869   0.1872   0.1880   0.1892   0.1898   0.1902   0.1905
  0.1910   0.1916   0.1920   0.1926   0.1940   0.1941   0.1951   0.1957
  0.1958   0.1964   0.1974   0.1982   0.1985   0.1989   0.2004   0.2005
  0.2011   0.2018   0.2028   0.2033   0.2041   0.2048   0.2052   0.2054
  0.2061   0.2069   0.2073   0.2079   0.2089   0.2093   0.2096   0.2098
  0.2114   0.2124   0.2129   0.2135   0.2144   0.2146   0.2148   0.2160
  0.2165   0.2174   0.2178   0.2191   0.2192   0.2198   0.2205   0.2211
  0.2217   0.2220   0.2228   0.2238   0.2239   0.2245   0.2250   0.2259
  0.2269   0.2280   0.2282   0.2289   0.2297   0.2301   0.2309   0.2323
  0.2327   0.2331   0.2341   0.2345   0.2350   0.2364   0.2365   0.2372
  0.2375   0.2390   0.2397   0.2408   0.2409   0.2419   0.2423   0.2424
  0.2434   0.2434   0.2443   0.2453   0.2457   0.2462   0.2472   0.2475
  0.2482   0.2494   0.2500   0.2509   0.2517   0.2527   0.2532   0.2540
  0.2549   0.2551   0.2554   0.2565   0.2572   0.2582   0.2590   0.2596
  0.2601   0.2616   0.2625   0.2635   0.2640   0.2644   0.2651   0.2661
  0.2669   0.2678   0.2682   0.2692   0.2694   0.2700   0.2717   0.2719
  0.2731   0.2736   0.2749   0.2754   0.2761   0.2778   0.2781   0.2788
  0.2792   0.2800   0.2806   0.2825   0.2830   0.2834   0.2852   0.2862
  0.2872   0.2887   0.2888   0.2891   0.2896   0.2904   0.2916   0.2921
  0.2942   0.2947   0.2951   0.2966   0.2976   0.2979   0.2984   0.2993
  0.3003   0.3016   0.3019   0.3022   0.3039   0.3044   0.3049   0.3051
  0.3062   0.3073   0.3079   0.3089   0.3102   0.3109   0.3116   0.3132
  0.3137   0.3141   0.3159   0.3166   0.3172   0.3184   0.3187   0.3192
  0.3198   0.3212   0.3220   0.3232   0.3245   0.3254   0.3267   0.3270
  0.3281   0.3293   0.3296   0.3301   0.3322   0.3330   0.3337   0.3352
  0.3366   0.3369   0.3378   0.3381   0.3400   0.3402   0.3411   0.3415
  0.3423   0.3432   0.3434   0.3450   0.3454   0.3467   0.3470   0.3485
  0.3487   0.3493   0.3504   0.3524   0.3535   0.3543   0.3554   0.3564
  0.3568   0.3572   0.3596   0.3600   0.3610   0.3612   0.3623   0.3627
  0.3639   0.3643   0.3664   0.3674   0.3677   0.3689   0.3691   0.3700
  0.3722   0.3727   0.3737   0.3753   0.3754   0.3761   0.3772   0.3785
  0.3790   0.3799   0.3805   0.3819   0.3823   0.3831   0.3844   0.3850
  0.3868   0.3880   0.3881   0.3891   0.3903   0.3912   0.3919   0.3931
  0.3937   0.3940   0.3948   0.3960   0.3971   0.3977   0.3994   0.3997
  0.4013   0.4019   0.4023   0.4042   0.4046   0.4056   0.4066   0.4077
  0.4095   0.4096   0.4109   0.4125   0.4138   0.4140   0.4149   0.4164
  0.4166   0.4194   0.4214   0.4220   0.4227   0.4232   0.4244   0.4250
  0.4252   0.4264   0.4272   0.4278   0.4285   0.4312   0.4334   0.4338
  0.4339   0.4340   0.4358   0.4364   0.4373   0.4390   0.4398   0.4412
  0.4422   0.4444   0.4453   0.4460   0.4465   0.4483   0.4506   0.4510
  0.4514   0.4529   0.4529   0.4550   0.4567   0.4574   0.4587   0.4596
  0.4613   0.4626   0.4632   0.4653   0.4661   0.4680   0.4701   0.4710
  0.4722   0.4732   0.4743   0.4757   0.4763   0.4777   0.4780   0.4811
  0.4817   0.4824   0.4833   0.4842   0.4876   0.4883   0.4896   0.4912
  0.4922   0.4939   0.4951   0.4975   0.4986   0.4992   0.5018   0.5051
  0.5061   0.5071   0.5088   0.5097   0.5110   0.5122   0.5155   0.5159
  0.5181   0.5187   0.5204   0.5218   0.5251   0.5258   0.5263   0.5268
  0.5282   0.5315   0.5323   0.5341   0.5359   0.5372   0.5396   0.5402
  0.5414   0.5436   0.5453   0.5469   0.5483   0.5496   0.5524   0.5532
  0.5552   0.5565   0.5577   0.5603   0.5613   0.5640   0.5657   0.5668
  0.5695   0.5714   0.5726   0.5740   0.5757   0.5779   0.5805   0.5822
  0.5828   0.5835   0.5871   0.5874   0.5885   0.5897   0.5917   0.5931
  0.5944   0.5953   0.5973   0.5984   0.5999   0.6013   0.6027   0.6056
  0.6071   0.6074   0.6084   0.6094   0.6109   0.6119   0.6138   0.6149
  0.6170   0.6176   0.6195   0.6202   0.6221   0.6229   0.6239   0.6254
  0.6274   0.6293   0.6304   0.6308   0.6322   0.6338   0.6350   0.6358
  0.6366   0.6377   0.6388   0.6400   0.6421   0.6427   0.6453   0.6458
  0.6483   0.6490   0.6508   0.6516   0.6528   0.6546   0.6561   0.6573
  0.6577   0.6591   0.6601   0.6610   0.6626   0.6627   0.6645   0.6653
  0.6664   0.6673   0.6687   0.6698   0.6716   0.6730   0.6742   0.6751
  0.6760   0.6764   0.6776   0.6800   0.6801   0.6812   0.6823   0.6833
  0.6839   0.6848   0.6862   0.6865   0.6873   0.6902   0.6920   0.6928
  0.6947   0.6950   0.6973   0.6981   0.6998   0.7004   0.7018   0.7022
  0.7038   0.7063   0.7073   0.7079   0.7090   0.7091   0.7111   0.7120
  0.7125   0.7145   0.7170   0.7182   0.7190   0.7209   0.7214   0.7219
  0.7249   0.7260   0.7265   0.7269   0.7274   0.7286   0.7303   0.7324
  0.7344   0.7358   0.7372   0.7384   0.7404   0.7428   0.7441   0.7449
  0.7456   0.7493   0.7497   0.7521   0.7526   0.7537   0.7558   0.7568
  0.7570   0.7590   0.7605   0.7614   0.7624   0.7637   0.7650   0.7676
  0.7690   0.7711   0.7743   0.7755   0.7764   0.7797   0.7816   0.7827
  0.7850   0.7853   0.7862   0.7874   0.7905   0.7916   0.7927   0.7948
  0.7954   0.7991   0.7997   0.8017   0.8021   0.8047   0.8054   0.8069
  0.8078   0.8093   0.8104   0.8137   0.8149   0.8169   0.8181   0.8205
  0.8219   0.8222   0.8234   0.8257   0.8298   0.8304   0.8321   0.8330
  0.8344   0.8360   0.8363   0.8383   0.8404   0.8413   0.8423   0.8470
  0.8479   0.8493   0.8500   0.8512   0.8521   0.8538   0.8550   0.8577
  0.8594   0.8600   0.8605   0.8625   0.8644   0.8650   0.8656   0.8672
  0.8697   0.8705   0.8707   0.8723   0.8731   0.8747   0.8753   0.8757
  0.8768   0.8788   0.8805   0.8826   0.8836   0.8846   0.8860   0.8867
  0.8881   0.8894   0.8906   0.8918   0.8928   0.8932   0.8956   0.8959
  0.8974   0.8986   0.8992   0.9014   0.9019   0.9033   0.9044   0.9051
  0.9064   0.9079   0.9089   0.9108   0.9117   0.9140   0.9147   0.9151
  0.9179   0.9181   0.9196   0.9218   0.9222   0.9244   0.9249   0.9261
  0.9275   0.9283   0.9296   0.9307   0.9321   0.9333   0.9346   0.9362
  0.9369   0.9380   0.9386   0.9400   0.9407   0.9415   0.9431   0.9444
  0.9449   0.9452   0.9479   0.9486   0.9499   0.9508   0.9525   0.9541
  0.9558   0.9562   0.9569   0.9576   0.9583   0.9601   0.9622   0.9626
  0.9635   0.9648   0.9653   0.9654   0.9671   0.9693   0.9714   0.9736
  0.9749   0.9756   0.9778   0.9781   0.9788   0.9790   0.9809   0.9839
  0.9854   0.9856   0.9866   0.9873   0.9884   0.9893   0.9918   0.9945
  0.9946   0.9954   0.9972   0.9981   0.9988   0.9999   1.0012   1.0030
  1.0035   1.0055   1.0065   1.0073   1.0080   1.0092   1.0102   1.0112
  1.0117   1.0135   1.0143   1.0153   1.0162   1.0167   1.0190   1.0202
  1.0214   1.0219   1.0227   1.0241   1.0264   1.0271   1.0283   1.0290
  1.0301   1.0321   1.0334   1.0344   1.0350   1.0367   1.0372   1.0400
  1.0408   1.0410   1.0431   1.0441   1.0457   1.0483   1.0490   1.0501
  1.0513   1.0525   1.0541   1.0554   1.0580   1.0590   1.0597   1.0617
  1.0625   1.0635   1.0651   1.0669   1.0677   1.0679   1.0695   1.0722
  1.0725   1.0742   1.0746   1.0760   1.0777   1.0789   1.0813   1.0818
  1.0834   1.0844   1.0854   1.0859   1.0885   1.0910   1.0913   1.0927
  1.0947   1.0952   1.0973   1.0990   1.0997   1.1003   1.1033   1.1049
  1.1057   1.1085   1.1101   1.1107   1.1132   1.1147   1.1160   1.1173
  1.1194   1.1198   1.1214   1.1230   1.1249   1.1272   1.1272   1.1290
  1.1306   1.1316   1.1331   1.1342   1.1348   1.1376   1.1377   1.1385
  1.1397   1.1417   1.1432   1.1448   1.1457   1.1473   1.1483   1.1492
  1.1503   1.1517   1.1524   1.1531   1.1552   1.1568   1.1591   1.1597
  1.1622   1.1635   1.1654   1.1656   1.1676   1.1681   1.1689   1.1698
  1.1719   1.1755   1.1758   1.1759   1.1775   1.1809   1.1820   1.1849
  1.1864   1.1873   1.1887   1.1894   1.1909   1.1925   1.1960   1.1974
  1.1994   1.1999   1.2034   1.2038   1.2049   1.2072   1.2080   1.2108
  1.2120   1.2121   1.2163   1.2182   1.2202   1.2217   1.2227   1.2243
  1.2269   1.2295   1.2315   1.2321   1.2327   1.2349   1.2374   1.2396
  1.2427   1.2443   1.2466   1.2482   1.2526   1.2543   1.2562   1.2584
  1.2594   1.2627   1.2640   1.2656   1.2663   1.2689   1.2736   1.2772
  1.2785   1.2796   1.2843   1.2880   1.2908   1.2943   1.2945   1.2969
  1.3006   1.3011   1.3027   1.3053   1.3093   1.3101   1.3121   1.3143
  1.3173   1.3207   1.3220   1.3230   1.3246   1.3299   1.3315   1.3342
  1.3367   1.3384   1.3419   1.3432   1.3470   1.3495   1.3508   1.3513
  1.3540   1.3556   1.3563   1.3587   1.3617   1.3626   1.3662   1.3665
  1.3685   1.3694   1.3706   1.3717   1.3745   1.3751   1.3758   1.3769
  1.3789   1.3813   1.3822   1.3843   1.3851   1.3879   1.3885   1.3899
  1.3924   1.3944   1.3950   1.3977   1.3981   1.3988   1.3997   1.4020
  1.4028   1.4034   1.4056   1.4075   1.4082   1.4093   1.4110   1.4122
  1.4152   1.4159   1.4172   1.4183   1.4197   1.4209   1.4220   1.4232
  1.4247   1.4260   1.4283   1.4305   1.4328   1.4349   1.4357   1.4367
  1.4393   1.4408   1.4437   1.4449   1.4461   1.4489   1.4498   1.4513
  1.4529   1.4530   1.4556   1.4569   1.4597   1.4621   1.4630   1.4675
  1.4695   1.4701   1.4709   1.4751   1.4753   1.4774   1.4785   1.4822
  1.4852   1.4868   1.4894   1.4909   1.4922   1.4936   1.4953   1.4970
  1.4995   1.5004   1.5019   1.5033   1.5061   1.5078   1.5107   1.5116
  1.5148   1.5170   1.5181   1.5201   1.5207   1.5235   1.5253   1.5302
  1.5306   1.5332   1.5344   1.5371   1.5408   1.5438   1.5458   1.5505
  1.5524   1.5543   1.5582   1.5597   1.5623   1.5677   1.5692   1.5711
  1.5768   1.5816   1.5860   1.5905   1.5953   1.6007   1.6060   1.6156
  1.6184   1.6228   1.6248   1.6318   1.6351   1.6385   1.6435   1.6446
  1.6524   1.6564   1.6584   1.6587   1.6623   1.6653   1.6664   1.6682
  1.6706   1.6721   1.6759   1.6783   1.6791   1.6801   1.6807   1.6820
  1.6850   1.6876   1.6896   1.6912   1.6929   1.6937   1.6949   1.6967
  1.6978   1.6996   1.7014   1.7017   1.7044   1.7053   1.7065   1.7082
  1.7092   1.7106   1.7109   1.7123   1.7140   1.7146   1.7161   1.7164
  1.7178   1.7212   1.7217   1.7226   1.7230   1.7237   1.7254   1.7262
  1.7281   1.7291   1.7300   1.7319   1.7355   1.7362   1.7372   1.7379
  1.7401   1.7410   1.7438   1.7450   1.7463   1.7469   1.7488   1.7496
  1.7509   1.7514   1.7548   1.7555   1.7557   1.7561   1.7583   1.7597
  1.7605   1.7614   1.7642   1.7652   1.7663   1.7677   1.7690   1.7695
  1.7738   1.7756   1.7774   1.7802   1.7830   1.7835   1.7864   1.7866
  1.7891   1.7911   1.7947   1.7961   1.7969   1.7989   1.8015   1.8039
  1.8052   1.8075   1.8094   1.8153   1.8181   1.8198   1.8231   1.8262
  1.8284   1.8312   1.8364   1.8388   1.8404   1.8422   1.8426   1.8451
  1.8471   1.8492   1.8535   1.8561   1.8575   1.8604   1.8606   1.8629
  1.8673   1.8701   1.8707   1.8731   1.8742   1.8770   1.8773   1.8829
  1.8835   1.8847   1.8856   1.8867   1.8875   1.8892   1.8905   1.8917
  1.8933   1.8943   1.8956   1.8979   1.8991   1.9017   1.9039   1.9042
  1.9044   1.9065   1.9074   1.9091   1.9093   1.9106   1.9123   1.9147
  1.9152   1.9163   1.9169   1.9191   1.9194   1.9206   1.9219   1.9223
  1.9243   1.9260   1.9280   1.9293   1.9310   1.9311   1.9346   1.9350
  1.9391   1.9402   1.9412   1.9426   1.9442   1.9465   1.9516   1.9553
  1.9555   1.9595   1.9633   1.9653   1.9679   1.9709   1.9724   1.9807
  1.9815   1.9874   1.9966   1.9984   2.0023   2.0093   2.0247   2.0260
  2.0323   2.0380   2.0518   2.0540   2.0564   2.0569   2.0593   2.0602
  2.0619   2.0635   2.0667   2.0691   2.0707   2.0734   2.0737   2.0751
  2.0781   2.0800   2.0804   2.0832   2.0840   2.0854   2.0866   2.0879
  2.0888   2.0901   2.0911   2.0922   2.0930   2.0937   2.0969   2.0982
  2.0991   2.1002   2.1009   2.1032   2.1043   2.1051   2.1070   2.1076
  2.1111   2.1154   2.1184   2.1220   2.1247   2.1266   2.1277   2.1344
  2.1373   2.1388   2.1411   2.1438   2.1441   2.1484   2.1540   2.1545
  2.1555   2.1629   2.1641   2.1656   2.1684   2.1694   2.1713   2.1733
  2.1826   2.1853   2.1861   2.1906   2.1911   2.1941   2.1950   2.1966
  2.2004   2.2029   2.2082   2.2092   2.2109   2.2163   2.2169   2.2174
  2.2194   2.2199   2.2206   2.2217   2.2248   2.2263   2.2274   2.2292
  2.2293   2.2321   2.2324   2.2339   2.2346   2.2354   2.2364   2.2388
  2.2397   2.2414   2.2426   2.2439   2.2451   2.2460   2.2484   2.2493
  2.2507   2.2510   2.2512   2.2523   2.2534   2.2541   2.2549   2.2560
  2.2590   2.2603   2.2615   2.2626   2.2637   2.2648   2.2658   2.2687
  2.2699   2.2715   2.2725   2.2733   2.2753   2.2764   2.2782   2.2793
  2.2802   2.2805   2.2815   2.2819   2.2827   2.2834   2.2841   2.2863
  2.2872   2.2879   2.2889   2.2910   2.2921   2.2926   2.2931   2.2943
  2.2957   2.2970   2.2976   2.2978   2.2986   2.3007   2.3016   2.3024
  2.3042   2.3047   2.3057   2.3059   2.3069   2.3093   2.3113   2.3144
  2.3148   2.3158   2.3163   2.3184   2.3195   2.3202   2.3204   2.3223
  2.3243   2.3248   2.3264   2.3286   2.3298   2.3319   2.3323   2.3336
  2.3352   2.3368   2.3378   2.3393   2.3407   2.3431   2.3438   2.3439
  2.3456   2.3483   2.3521   2.3529   2.3546   2.3556   2.3584   2.3609
  2.3617   2.3645   2.3662   2.3671   2.3689   2.3710   2.3719   2.3735
  2.3764   2.3785   2.3831   2.3852   2.3867   2.3917   2.3956   2.3995
  2.4014   2.4044   2.4087   2.4147   2.4189   2.4283   2.4369   2.4476
  2.4572   2.4737   2.5000   2.5251   2.5455   2.5908   2.6746   2.7390
  2.7779   2.7992   2.8169   2.8276   2.8294   2.8308   2.8324   2.8336
  2.8372   2.8440   2.8462   2.8471   2.8508   2.8536   2.8567   2.8586
  2.8613   2.8631   2.8682   2.8712   2.8729   2.8735   2.8745   2.8801
  2.8831   2.8883   2.8930   2.8963   2.8993   2.9133   2.9201   2.9317
  3.1012   3.2579   3.9491   3.9565   3.9625   3.9632   3.9725   3.9739
  3.9774   3.9811   3.9831   3.9847   3.9868   3.9880   3.9979   3.9982
  4.0018   4.0039   4.0048   4.0165   4.0229   4.0272   4.0299   4.0327
  4.0361   4.0416   4.0472   4.2154   4.2320   4.2338   4.2366   4.2379
  4.2425   4.2458   4.2467   4.2488   4.2513   4.2517   4.2530   4.2540
  4.2570   4.2651   4.2680   4.2687   4.2733   4.2774   4.2789   4.2842
  4.2878   4.2892   4.2921   4.2941   4.2967   4.2997   4.3016   4.3031
  4.3067   4.3080   4.3092   4.3152   4.3165   4.3186   4.3196   4.3222
  4.3248   4.3287   4.3322   4.3346   4.3356   4.3404   4.3418   4.3465
  4.3485   4.3513   4.3518   4.3569   4.3577   4.3621   4.3636   4.3683
  4.3692   4.3752   4.3792   4.3813   4.3834   4.3872   4.3947   4.3996
  4.4005   4.4080   4.4144   4.4148   4.4195   4.4272   4.4316   4.4417
  4.4558   4.4654   4.4861   4.5035   4.5113   4.5220   4.5448   4.5689
  4.5825   4.6094   4.6286   4.6984   4.7231   4.7718   4.8507
 --------------------------------------------------------------

          Ground-State Mulliken Net Atomic Charges

     Atom                 Charge (a.u.)
  ----------------------------------------
      1 C                    -0.575151
      2 C                    -0.363277
      3 C                    -0.635970
      4 C                     0.036931
      5 C                    -0.048003
      6 C                    -0.958329
      7 H                     0.224507
      8 H                     0.243823
      9 H                     0.220151
     10 H                     0.203244
     11 H                     0.224307
     12 H                     0.244470
     13 H                     0.184059
     14 H                     0.202584
     15 H                     0.251980
     16 H                     0.247421
     17 H                     0.203247
     18 N                    -0.249149
     19 H                     0.504625
     20 C                    -0.302719
     21 H                     0.161562
     22 O                    -0.226143
     23 C                    -1.038959
     24 H                     0.263815
     25 H                     0.273401
     26 H                     0.245629
     27 S                     0.989208
     28 C                    -0.953320
     29 H                     0.242069
     30 H                     0.252728
     31 H                     0.281205
     32 O                    -0.632421
     33 C                    -0.925043
     34 H                     0.252600
     35 H                     0.243929
     36 H                     0.231820
     37 S                     1.072442
     38 C                    -0.982231
     39 H                     0.270458
     40 H                     0.246739
     41 H                     0.279863
     42 O                    -0.682148
     43 C                    -0.944829
     44 H                     0.232377
     45 H                     0.264752
     46 H                     0.239786
     47 S                     1.135228
     48 C                    -0.988065
     49 H                     0.280471
     50 H                     0.220957
     51 H                     0.245576
     52 O                    -0.676900
     53 C                    -0.842863
     54 H                     0.226603
     55 H                     0.287733
     56 H                     0.241981
     57 S                     0.763692
     58 C                    -0.898719
     59 H                     0.227945
     60 H                     0.310285
     61 H                     0.270458
     62 O                    -0.677991
     63 C                    -0.971095
     64 H                     0.290067
     65 H                     0.293061
     66 H                     0.245176
     67 S                     0.963777
     68 C                    -0.978074
     69 H                     0.274971
     70 H                     0.295163
     71 H                     0.239959
     72 O                    -0.709790
     73 C                    -0.930726
     74 H                     0.224352
     75 H                     0.233648
     76 H                     0.268662
     77 S                     1.064419
     78 C                    -0.893238
     79 H                     0.256334
     80 H                     0.213094
     81 H                     0.275433
     82 O                    -0.712030
     83 C                    -1.012436
     84 H                     0.255746
     85 H                     0.255785
     86 H                     0.282355
     87 S                     1.238330
     88 C                    -1.177145
     89 H                     0.263624
     90 H                     0.253889
     91 H                     0.241416
     92 O                    -0.719489
     93 C                    -0.902948
     94 H                     0.249053
     95 H                     0.232077
     96 H                     0.259295
     97 S                     1.169894
     98 C                    -0.985916
     99 H                     0.256252
    100 H                     0.251424
    101 H                     0.240324
    102 O                    -0.703509
    103 C                    -0.806298
    104 H                     0.234019
    105 H                     0.258938
    106 H                     0.250852
    107 S                     0.691776
    108 C                    -0.607797
    109 H                     0.266788
    110 H                     0.233541
    111 H                     0.280458
    112 O                    -0.650179
    113 C                    -0.887260
    114 H                     0.244394
    115 H                     0.257119
    116 H                     0.237543
    117 S                     1.013805
    118 C                    -0.848106
    119 H                     0.288217
    120 H                     0.252916
    121 H                     0.244125
    122 O                    -0.770394
    123 C                    -0.740675
    124 H                     0.225146
    125 H                     0.252211
    126 H                     0.247493
    127 S                     0.890030
    128 C                    -0.896691
    129 H                     0.247912
    130 H                     0.271798
    131 H                     0.279461
    132 O                    -0.725170
    133 C                    -0.694555
    134 H                     0.220645
    135 H                     0.272106
    136 H                     0.283498
    137 S                     0.650317
    138 C                    -0.853889
    139 H                     0.240384
    140 H                     0.272807
    141 H                     0.223183
    142 O                    -0.639967
    143 C                    -1.252193
    144 H                     0.286460
    145 H                     0.231939
    146 H                     0.249622
    147 S                     1.701112
    148 C                    -1.157925
    149 H                     0.266646
    150 H                     0.289791
    151 H                     0.266439
    152 O                    -0.660976
    153 C                    -0.851991
    154 H                     0.264397
    155 H                     0.336134
    156 H                     0.230575
    157 S                     0.852762
    158 C                    -0.814354
    159 H                     0.221320
    160 H                     0.245947
    161 H                     0.267315
    162 O                    -0.712367
    163 C                    -0.969634
    164 H                     0.221017
    165 H                     0.281522
    166 H                     0.283645
    167 S                     0.897803
    168 C                    -1.004853
    169 H                     0.249537
    170 H                     0.277085
    171 H                     0.297286
    172 O                    -0.640381
    173 C                    -0.911728
    174 H                     0.294838
    175 H                     0.231736
    176 H                     0.249152
    177 S                     1.021729
    178 C                    -0.774753
    179 H                     0.279222
    180 H                     0.239059
    181 H                     0.228601
    182 O                    -0.778824
    183 C                    -0.596890
    184 H                     0.274887
    185 H                     0.223037
    186 H                     0.266735
    187 S                     0.298134
    188 C                    -0.826684
    189 H                     0.284104
    190 H                     0.244159
    191 H                     0.279221
    192 O                    -0.603409
    193 C                    -0.927873
    194 H                     0.265926
    195 H                     0.285224
    196 H                     0.243826
    197 S                     0.871898
    198 C                    -0.815434
    199 H                     0.251381
    200 H                     0.242504
    201 H                     0.261504
    202 O                    -0.711768
    203 C                    -0.733711
    204 H                     0.269463
    205 H                     0.226692
    206 H                     0.253234
    207 S                     0.845459
    208 C                    -0.849992
    209 H                     0.227485
    210 H                     0.248478
    211 H                     0.268249
    212 O                    -0.716760
    213 C                    -0.863853
    214 H                     0.300931
    215 H                     0.285010
    216 H                     0.242160
    217 S                     0.707212
    218 C                    -0.826373
    219 H                     0.281702
    220 H                     0.259387
    221 H                     0.248582
    222 O                    -0.551041
    223 C                    -0.803734
    224 H                     0.286658
    225 H                     0.232981
    226 H                     0.238731
    227 S                     0.965435
    228 C                    -0.824719
    229 H                     0.233317
    230 H                     0.240447
    231 H                     0.253362
    232 O                    -0.761533
    233 C                    -0.944691
    234 H                     0.291946
    235 H                     0.235622
    236 H                     0.279629
    237 S                     0.919300
    238 C                    -0.932059
    239 H                     0.263324
    240 H                     0.278794
    241 H                     0.267607
    242 O                    -0.655572
    243 C                    -0.828316
    244 H                     0.287104
    245 H                     0.292449
    246 H                     0.221636
    247 S                     0.874283
    248 C                    -0.959644
    249 H                     0.281994
    250 H                     0.259537
    251 H                     0.242929
    252 O                    -0.701832
    253 C                    -0.821102
    254 H                     0.239128
    255 H                     0.229786
    256 H                     0.293272
    257 S                     0.889691
    258 C                    -0.866000
    259 H                     0.249773
    260 H                     0.240295
    261 H                     0.287203
    262 O                    -0.694480
    263 C                    -0.805880
    264 H                     0.233626
    265 H                     0.255023
    266 H                     0.258369
    267 S                     0.768322
    268 C                    -0.715007
    269 H                     0.263388
    270 H                     0.256693
    271 H                     0.231342
    272 O                    -0.740046
  ----------------------------------------
  Sum of atomic charges =     0.000000

 -----------------------------------------------------------------
                    Cartesian Multipole Moments
 -----------------------------------------------------------------
    Charge (ESU x 10^10)
                 0.0000
    Dipole Moment (Debye)
         X      -9.1425      Y      13.8655      Z      -3.8125
       Tot      17.0403
    Quadrupole Moments (Debye-Ang)
        XX   -1180.4900     XY      25.5920     YY    -504.9078
        XZ    -310.0296     YZ     366.2499     ZZ    -957.0123
    Octopole Moments (Debye-Ang^2)
       XXX  -63571.6745    XXY  -18431.0224    XYY  -16689.6356
       YYY  -33837.9456    XXZ  -35227.4946    XYZ     603.1209
       YYZ  -15640.5559    XZZ  -25541.4253    YZZ   -2027.4001
       ZZZ  -75972.3947
    Hexadecapole Moments (Debye-Ang^3)
      XXXX ************   XXXY ************   XXYY -731779.4643
      XYYY -836759.6378   YYYY ************   XXXZ ************
      XXYZ -538543.3196   XYYZ -492514.6205   YYYZ ************
      XXZZ ************   XYZZ -225589.7471   YYZZ -697473.8863
      XZZZ ************   YZZZ -800063.5010   ZZZZ ************
 -----------------------------------------------------------------
 Total job time:  14696.97s(wall), 203919.81s(cpu) 
 Thu Jul 21 07:43:36 2022

        *************************************************************
        *                                                           *
        *  Thank you very much for using Q-Chem.  Have a nice day.  *
        *                                                           *
        *************************************************************


 
User input: 2 of 2 
 
                  Welcome to Q-Chem
     A Quantum Leap Into The Future Of Chemistry


 Q-Chem 6.0 (devel), Q-Chem, Inc., Pleasanton, CA (2022)

 E. Epifanovsky,  A. T. B. Gilbert,  Xintian Feng,  Joonho Lee,  Yuezhi Mao,  
 N. Mardirossian,  P. Pokhilko,  A. White,  M. Wormit,  M. P. Coons,  
 A. L. Dempwolff,  Zhengting Gan,  D. Hait,  P. R. Horn,  L. D. Jacobson,  
 I. Kaliman,  J. Kussmann,  A. W. Lange,  Ka Un Lao,  D. S. Levine,  Jie Liu,  
 S. C. McKenzie,  A. F. Morrison,  K. Nanda,  F. Plasser,  D. R. Rehn,  
 M. L. Vidal,  Zhi-Qiang You,  Ying Zhu,  B. Alam,  B. Albrecht,  
 A. Aldossary,  E. Alguire,  J. H. Andersen,  V. Athavale,  D. Barton,  
 K. Begam,  A. Behn,  N. Bellonzi,  Y. A. Bernard,  E. J. Berquist,  
 H. Burton,  A. Carreras,  K. Carter-Fenk,  Romit Chakraborty,  
 Chandrima Chakravarty,  Junhan Chen,  A. D. Chien,  K. D. Closser,  
 V. Cofer-Shabica,  L. Cunha,  S. Dasgupta,  Jia Deng,  M. de Wergifosse,  
 M. Diedenhofen,  Hainam Do,  S. Ehlert,  Po-Tung Fang,  S. Fatehi,  
 Qingguo Feng,  T. Friedhoff,  B. Ganoe,  J. Gayvert,  Qinghui Ge,  
 G. Gidofalvi,  M. Goldey,  J. Gomes,  C. Gonzalez-Espinoza,  S. Gulania,  
 A. Gunina,  J. A. Gyamfi,  M. W. D. Hanson-Heine,  P. H. P. Harbach,  
 A. W. Hauser,  M. F. Herbst,  M. Hernandez Vera,  M. Hodecker,  
 Z. C. Holden,  S. Houck,  Xunkun Huang,  Kerwin Hui,  B. C. Huynh,  
 K. Ikeda,  M. Ivanov,  Hyunjun Ji,  Zuxin Jin,  Hanjie Jiang,  B. Kaduk,  
 S. Kaehler,  R. Kang,  K. Khistyaev,  Jaehoon Kim,  Yongbin Kim,  
 P. Klunzinger,  Z. Koczor-Benda,  Joong Hoon Koh,  D. Kosenkov,  
 Saikiran Kotaru,  L. Koulias,  T. Kowalczyk,  C. M. Krauter,  K. Kue,  
 A. Kunitsa,  T. Kus,  A. Landau,  K. V. Lawler,  D. Lefrancois,  S. Lehtola,  
 Rain Li,  Shaozhi Li,  Yi-Pei Li,  Jiashu Liang,  M. Liebenthal,  
 Hung-Hsuan Lin,  You-Sheng Lin,  Fenglai Liu,  Kuan-Yu Liu,  
 M. Loipersberger,  A. Luenser,  C. Malbon,  A. Manjanath,  P. Manohar,  
 E. Mansoor,  S. F. Manzer,  Shan-Ping Mao,  A. V. Marenich,  T. Markovich,  
 S. Mason,  F. Matz,  S. A. Maurer,  P. F. McLaughlin,  M. F. S. J. Menger,  
 J.-M. Mewes,  S. A. Mewes,  P. Morgante,  Mohammad Mostafanejad,  
 J. W. Mullinax,  K. J. Oosterbaan,  G. Paran,  V. Parravicini,  
 Alexander C. Paul,  Suranjan K. Paul,  F. Pavosevic,  Zheng Pei,  S. Prager,  
 E. I. Proynov,  E. Ramos,  B. Rana,  A. E. Rask,  A. Rettig,  R. M. Richard,  
 F. Rob,  E. Rossomme,  T. Scheele,  M. Scheurer,  M. Schneider,  
 P. E. Schneider,  N. Sergueev,  S. M. Sharada,  Hengyuan Shen,  
 W. Skomorowski,  D. W. Small,  C. J. Stein,  Yingli Su,  Yu-Chuan Su,  
 E. J. Sundstrom,  Zhen Tao,  J. Thirman,  Hung-Yi Tsai,  T. Tsuchimochi,  
 N. M. Tubman,  C. Utku,  S. P. Veccham,  O. Vydrov,  J. Wenzel,  
 Jonathan Wong,  J. Witte,  A. Yamada,  Chou-Hsun Yang,  Kun Yao,  
 S. Yeganeh,  S. R. Yost,  A. Zech,  F. Zeller,  Igor Ying Zhang,  
 Xing Zhang,  Yu Zhang,  D. Zuev,  A. Aspuru-Guzik,  A. T. Bell,  
 N. A. Besley,  K. B. Bravaya,  B. R. Brooks,  D. Casanova,  Jeng-Da Chai,  
 Hsing-Ta Chen,  S. Coriani,  C. J. Cramer,  A. E. DePrince, III,  
 R. A. DiStasio Jr.,  A. Dreuw,  B. D. Dunietz,  T. R. Furlani,  
 W. A. Goddard III,  S. Grimme,  S. Hammes-Schiffer,  T. Head-Gordon,  
 W. J. Hehre,  Chao-Ping Hsu,  T.-C. Jagau,  Yousung Jung,  A. Klamt,  
 Jing Kong,  D. S. Lambrecht,  Xiangyuan Li,  WanZhen Liang,  N. J. Mayhall,  
 C. W. McCurdy,  J. B. Neaton,  T. Neudecker,  C. Ochsenfeld,  
 J. A. Parkhill,  R. Peverati,  V. A. Rassolov,  Haisheng Ren,  Yihan Shao,  
 L. V. Slipchenko,  R. P. Steele,  J. E. Subotnik,  A. J. W. Thom,  
[...]
    2   1.7321902   0.1241206   0.9601981   3.3749778   1.2807967  -0.7537350
    3   0.2790778   0.2937665  -0.9072850   1.3269823   2.3788712   0.9875260
          169         170         171         172         173         174
    1  -1.7606716  -1.3986811   0.8886327  -3.2448072  -1.5761865  -1.7027029
    2  -1.1275439  -0.6249423  -0.3720111   1.8605711   0.1249879  -1.5938487
    3   2.6386804  -0.8916539   0.8012475   1.4334874   3.4029052   3.1229000
          175         176         177         178         179         180
    1  -0.9518081  -2.4887104   0.6621498   0.4422492   1.5352015  -1.5593556
    2   0.5457776   1.3429958  -0.2960951   2.0422567   1.9799986   2.5993886
    3   4.6477661   2.0315600   2.8729008   2.9476593   1.2657804   2.3239688
          181         182         183         184         185         186
    1   0.7419640  -0.7103739  -0.9218282  -1.5974982  -2.1833606   0.9298970
    2   1.3039085   0.5523617  -2.0247731  -3.6757865  -1.1437454  -1.0453967
    3   4.4587015  -0.4043974  -2.2976378  -1.3418326  -3.2956485  -1.9920047
          187         188         189         190         191         192
    1  -1.9506290  -0.8418184  -1.1590925   0.9310526  -2.1863067   0.4031675
    2  -0.8955472   0.9757250   1.8339265   0.3766690   0.6075560  -0.9184933
    3  -0.5405268  -1.4324754   0.2284912  -1.8377363  -2.8135534   1.1116683
          193         194         195         196         197         198
    1  -0.8410896  -1.4124612  -1.0303343  -0.1742950  -2.7303942  -1.9560457
    2   0.6974561   0.0094009   2.3900469  -1.0275719   1.4819261   1.0606695
    3  -0.1834223  -1.8695341   0.4206264   0.9227305   0.3458879   2.5967709
          199         200         201         202         203         204
    1  -3.2905911  -0.5429268  -1.8929871  -2.9583702   2.8398631   3.1640782
    2   0.3844462  -0.3560142   3.0094348  -1.8170050  -0.6075019   0.7869397
    3   3.0270621   2.7226540   1.9848967   0.5093671   0.6609214  -0.3890003
          205         206         207         208         209         210
    1   3.8221086   1.3592286   2.1855691   1.3302250   3.0953549  -0.0530675
    2  -0.9617250  -1.8484511   1.3349828  -0.6344731  -0.7957014   0.7759778
    3   1.9075615   0.6877272   2.0189014   3.1724865   2.8545159   3.9633775
          211         212         213         214         215         216
    1   0.6262137  -0.6448641  -1.1549333  -0.7339570  -1.6339503  -0.5381414
    2  -2.2137534   1.1255312  -0.7301424  -1.7390472   0.8993263  -1.3543201
    3   2.2938488   1.3495017  -1.6817430   0.2170487  -1.3668387  -3.5688144
          217         218         219         220         221         222
    1   0.0471456   1.0850626   2.5218844   0.1554665   0.3425777   0.7621570
    2   0.6214408  -0.9364659   0.1468496  -2.1370840  -0.3122545   0.7380804
    3  -2.2535788  -2.4428779  -2.3499324  -1.1835401  -4.3688173   0.9355730
          223         224         225         226         227         228
    1   1.5952213   1.5283086   3.4824330  -0.1403574   2.1962044   0.7369336
    2   2.4662806   1.2376569   2.4855885   3.4084643   0.7935592   2.0022133
    3   0.0127365   1.0066705  -0.5391350  -0.6628764  -1.8444931  -2.7088880
          229         230         231         232         233         234
    1   2.2506031   0.5917852  -0.9740545  -0.7633396   2.2431100   3.6053730
    2   2.9260579   0.3963891   2.7661961  -0.0818902  -0.6896648  -0.0729299
    3  -1.8182561  -3.8393499  -1.6124940  -1.6741825   0.9817901   1.7472561
          235         236         237         238         239         240
    1   0.0790641   2.9571479   1.6425833   0.8780666   0.8503417   2.1394133
    2  -0.5435373  -1.9524139   1.0417818  -0.4311569   0.6745497  -1.7839594
    3   1.0517840  -0.2565856  -0.2250957  -1.5288431  -2.7802516  -1.6547627
          241         242         243         244         245         246
    1  -0.3921814   4.3213482   0.1463216   1.8835876  -0.7218140  -0.1698652
    2  -0.4408740   0.5498804  -0.8299051  -1.3086292  -2.3420200   0.9830697
    3   0.2508523  -1.5242118  -1.6221108  -0.4246178  -2.3480463  -1.4388276
          247         248         249         250         251         252
    1  -1.7222694  -0.1913809  -0.6911703  -1.1486709   1.6691680   0.0919443
    2  -1.6896988  -0.1622173   1.1552784  -1.4615145  -0.3917456  -3.9404609
    3  -0.3750719   0.9610613   0.2476716   2.3133272   0.4500388   0.3759888
          253         254         255         256         257         258
    1  -0.2250381  -0.6123536  -1.6158756   1.2137334   0.1036177   0.9600407
    2  -0.1947932  -1.6855813   0.7890848   0.2465485  -0.9778028  -2.6047179
    3  -2.9296963  -4.0814581  -2.0458996  -2.4267094  -0.8325761  -1.8711029
          259         260         261         262         263         264
    1   0.3657565  -0.0220244   2.2978102  -2.6353457  -2.3454698  -2.8011414
    2  -3.4445437  -2.8214260  -1.3084708  -2.5724553   0.7980259  -0.7945302
    3  -0.5457308  -3.5354784  -1.7890012  -1.5191249  -2.4358353  -3.0427056
          265         266         267         268         269         270
    1  -2.8259657  -1.0076167  -0.6095130  -1.6900453   0.1391606  -2.2818260
    2   1.3080893   2.2068683  -0.6048105  -1.6648620  -2.4353277   0.0362512
    3  -0.4581805  -3.1812269  -2.8995785  -1.2247134  -1.1572508   0.0754562
          271         272
    1  -2.8350582   0.3072813
    2  -1.8933764   1.1533625
    3  -2.4767986  -0.7594172
 EField
            1           2           3           4           5           6
    1   0.0030270   0.0022872  -0.0016541  -0.0005313  -0.0009889  -0.0020668
    2   0.0001034   0.0036504   0.0004136  -0.0029572  -0.0042135  -0.0018928
    3   0.0024627  -0.0002561  -0.0015566   0.0009777  -0.0039554   0.0016816
            7           8           9          10          11          12
    1  -0.0032181  -0.0017284   0.0084050   0.0033001   0.0013169  -0.0018611
    2   0.0016014   0.0047336  -0.0036566   0.0023860  -0.0011430  -0.0052165
    3   0.0003852   0.0040298  -0.0002396   0.0070587   0.0007351   0.0061765
           13          14          15          16          17          18
    1   0.0012057  -0.0009819   0.0003874  -0.0070793  -0.0020168   0.0076837
    2  -0.0055884  -0.0051818  -0.0082419   0.0036538  -0.0004941   0.0165743
    3  -0.0086599  -0.0055289   0.0033474   0.0042819  -0.0051180  -0.0022054
           19          20          21          22          23          24
    1   0.0217073   0.0028466   0.0073097  -0.0013575  -0.0077548  -0.0179511
    2   0.0348444   0.0096570   0.0088929   0.0039171  -0.0021893  -0.0099921
    3  -0.0184228   0.0012766   0.0075743  -0.0021970   0.0026731  -0.0237833
           25          26          27          28          29          30
    1   0.0107532  -0.0100744  -0.0069749   0.0030751  -0.0044802  -0.0082870
    2  -0.0153175   0.0277392   0.0167797  -0.0107421  -0.0179549  -0.0224466
    3   0.0273197   0.0016266  -0.0548073   0.0000479   0.0259850  -0.0236530
           31          32          33          34          35          36
    1   0.0264933   0.0701367  -0.0061817   0.0006823  -0.0080425  -0.0159036
    2  -0.0148956   0.0459896   0.0003864   0.0288835  -0.0297862   0.0104638
    3  -0.0050955   0.0698774  -0.0043568  -0.0155626  -0.0133140   0.0220327
           37          38          39          40          41          42
    1   0.0346037  -0.0018044   0.0245441  -0.0271281   0.0002198   0.0224932
    2  -0.0267394  -0.0066930  -0.0018005   0.0056957  -0.0340831   0.0994506
    3  -0.0349733   0.0064947   0.0224994   0.0107056  -0.0062578   0.0403563
           43          44          45          46          47          48
    1   0.0069518   0.0300874  -0.0267872   0.0075067   0.0215352  -0.0026076
    2  -0.0057306   0.0199624  -0.0028744  -0.0340431   0.0015355   0.0074936
    3   0.0055891  -0.0040938   0.0223982   0.0023962  -0.0423338  -0.0018953
           49          50          51          52          53          54
    1  -0.0390175  -0.0056853   0.0327987  -0.0936827  -0.0053124   0.0072524
    2  -0.0007175  -0.0075833   0.0194930  -0.0551932  -0.0037241   0.0070589
    3   0.0066815   0.0294858  -0.0115943   0.0251805  -0.0001218   0.0259261
           55          56          57          58          59          60
    1  -0.0305507   0.0002326   0.0055033  -0.0107670  -0.0122982  -0.0294288
    2   0.0114418  -0.0345839   0.0604710  -0.0001480  -0.0316728   0.0198898
    3   0.0045736   0.0030825   0.0069420  -0.0065622  -0.0069018   0.0069798
           61          62          63          64          65          66
    1   0.0211047   0.0864796  -0.0099173   0.0241280  -0.0218503  -0.0129613
    2   0.0007239  -0.0611386   0.0053286   0.0264923  -0.0248547   0.0020754
    3  -0.0245901  -0.0259107  -0.0046271  -0.0102052  -0.0158983   0.0305266
           67          68          69          70          71          72
    1   0.0310364  -0.0059157  -0.0260694   0.0300780  -0.0177848   0.0522227
    2  -0.0108826  -0.0109472  -0.0066874  -0.0161670   0.0047853   0.0314188
    3  -0.0543840   0.0021366  -0.0231017   0.0059858   0.0255049   0.0903954
           73          74          75          76          77          78
    1   0.0053402   0.0120903   0.0206040  -0.0269427  -0.0389275   0.0041262
    2  -0.0069308  -0.0074145  -0.0065932  -0.0169435   0.0090359   0.0034105
    3   0.0039855  -0.0292206   0.0294506   0.0005770  -0.0600312   0.0048876
           79          80          81          82          83          84
    1   0.0079849   0.0338457  -0.0100157  -0.0567311   0.0029381  -0.0298743
    2   0.0132743  -0.0070241   0.0298399   0.0009747   0.0081541  -0.0039782
    3   0.0292610  -0.0072476  -0.0029998   0.0951043   0.0060602   0.0113695
           85          86          87          88          89          90
    1   0.0280256  -0.0026402  -0.0465412   0.0007004   0.0112002   0.0106070
    2  -0.0013026   0.0309108   0.0018594  -0.0079992  -0.0195027   0.0047816
    3   0.0165846  -0.0011863  -0.0296650   0.0030301  -0.0208220   0.0271800
           91          92          93          94          95          96
    1  -0.0170766   0.1011234   0.0005966   0.0042721   0.0270152  -0.0213306
    2  -0.0320322   0.0067830   0.0047703   0.0008557   0.0181686   0.0233958
    3   0.0000023  -0.0415476   0.0014751   0.0305015  -0.0055974  -0.0093546
           97          98          99         100         101         102
    1  -0.0116766  -0.0063860  -0.0271263  -0.0105400   0.0057093   0.0740252
    2   0.0057540  -0.0028612   0.0209125  -0.0305731   0.0074997  -0.0704621
    3  -0.0542631   0.0028631  -0.0073177  -0.0035060   0.0304891   0.0404328
          103         104         105         106         107         108
    1  -0.0007647   0.0182236  -0.0167732  -0.0101790  -0.0329036   0.0077539
    2   0.0019733  -0.0091405  -0.0286034   0.0349133   0.0159882   0.0037676
    3  -0.0084508  -0.0248457  -0.0038849   0.0020736   0.0458322  -0.0026489
          109         110         111         112         113         114
    1   0.0188827  -0.0013999   0.0202305   0.0501118   0.0039920   0.0122944
    2  -0.0050838   0.0348019  -0.0007359  -0.0998416  -0.0038504  -0.0275579
    3  -0.0246929   0.0023302   0.0211582  -0.0036678  -0.0078651   0.0088020
          115         116         117         118         119         120
    1  -0.0251996   0.0154037  -0.0046791   0.0040325  -0.0021377   0.0065527
    2  -0.0065961   0.0239325   0.0532334  -0.0007223   0.0230096  -0.0312809
    3  -0.0152450  -0.0217731  -0.0016498   0.0093101   0.0311862  -0.0154967
          121         122         123         124         125         126
    1   0.0316335  -0.0760422  -0.0030460  -0.0063946  -0.0244674   0.0165605
    2   0.0138762  -0.0730813   0.0067891   0.0342756  -0.0058630   0.0161596
    3  -0.0011763   0.0194957   0.0021215  -0.0191645   0.0226580   0.0157259
          127         128         129         130         131         132
    1  -0.0356409   0.0054748  -0.0250596   0.0202515   0.0150991   0.0899556
    2  -0.0329457  -0.0032913  -0.0040221  -0.0236004   0.0234000   0.0393896
    3  -0.0173533   0.0111697   0.0218494  -0.0058365   0.0111405  -0.0478554
          133         134         135         136         137         138
    1   0.0032797  -0.0134856   0.0181297  -0.0185393  -0.0300953   0.0061185
    2   0.0085577  -0.0191751   0.0188236   0.0202343  -0.0292649  -0.0005107
    3   0.0125363   0.0223473   0.0263000   0.0068936  -0.0316728   0.0032937
          139         140         141         142         143         144
    1   0.0192074   0.0196701   0.0014213   0.0541730   0.0016561  -0.0185301
    2  -0.0135430   0.0209536  -0.0238512   0.0943249   0.0077733   0.0238937
    3  -0.0221659   0.0142532   0.0264952  -0.0305756   0.0008575   0.0133810
          145         146         147         148         149         150
    1   0.0227928  -0.0106063  -0.0605635   0.0029132  -0.0116774  -0.0198914
    2   0.0063401   0.0072713  -0.0048951  -0.0015490   0.0210414  -0.0167522
    3   0.0218640  -0.0333755  -0.0092280   0.0076122   0.0235263   0.0179752
          151         152         153         154         155         156
    1   0.0314207   0.0749807   0.0112938   0.0124697   0.0189716   0.0189796
    2  -0.0127077  -0.0454063  -0.0040770   0.0109519  -0.0206102   0.0178613
    3  -0.0031838  -0.0624373  -0.0014470   0.0299887  -0.0280281  -0.0263983
          157         158         159         160         161         162
    1  -0.0252843   0.0013759   0.0037832  -0.0302683   0.0153578  -0.0113272
    2  -0.0103107   0.0051088   0.0322708   0.0063254  -0.0002080  -0.0579352
    3  -0.0477480   0.0048545  -0.0166516  -0.0002893   0.0281852   0.0922915
          163         164         165         166         167         168
    1   0.0034396   0.0265975  -0.0217214   0.0046321   0.0279227   0.0031580
    2   0.0024752  -0.0112257  -0.0054373   0.0323904   0.0106961  -0.0080559
    3  -0.0093852  -0.0054846  -0.0238856   0.0005783   0.0477638  -0.0057175
          169         170         171         172         173         174
    1  -0.0087411  -0.0070260   0.0308120  -0.1057460  -0.0104855  -0.0037985
    2  -0.0180048  -0.0027093  -0.0178156   0.0214263  -0.0050343  -0.0305661
    3   0.0230869  -0.0322023   0.0002683  -0.0161634   0.0013356  -0.0027137
          175         176         177         178         179         180
    1   0.0062332  -0.0174929   0.0406150   0.0003510   0.0304126  -0.0219426
    2   0.0105753   0.0191286  -0.0366020   0.0045757   0.0198608   0.0257138
    3   0.0318118  -0.0189617   0.0201185  -0.0036509  -0.0073498  -0.0021194
          181         182         183         184         185         186
    1   0.0141866  -0.0330569   0.0008955  -0.0081290  -0.0082397   0.0262664
    2   0.0116216   0.0169397  -0.0029089  -0.0293743   0.0012089   0.0116595
    3   0.0275596  -0.1023544  -0.0040766   0.0071262  -0.0373409  -0.0059226
          187         188         189         190         191         192
    1  -0.0544842   0.0026497  -0.0006041   0.0339277  -0.0296329   0.0824698
    2  -0.0095526   0.0087861   0.0258157   0.0043535   0.0008598  -0.0198501
    3   0.0136063  -0.0030072   0.0181761  -0.0022770  -0.0152353   0.0675474
          193         194         195         196         197         198
    1   0.0109525  -0.0008400   0.0219680   0.0156672  -0.0305306   0.0045744
    2   0.0016573   0.0030876   0.0240003  -0.0178130   0.0394663   0.0022993
    3  -0.0018275  -0.0340414   0.0042724   0.0219029  -0.0230345   0.0078075
          199         200         201         202         203         204
    1  -0.0282802   0.0290940   0.0248613  -0.0222696   0.0013600   0.0100701
    2  -0.0153873  -0.0034829   0.0303570  -0.1069032  -0.0048422   0.0118863
    3   0.0128431   0.0160620   0.0082381  -0.0066895  -0.0068514  -0.0273372
          205         206         207         208         209         210
    1   0.0271971  -0.0118580   0.0303472  -0.0013627   0.0291886  -0.0101407
    2  -0.0186203  -0.0270696   0.0448323  -0.0054965   0.0018154   0.0092158
    3   0.0097404  -0.0103284   0.0148626   0.0044348   0.0269100   0.0310239
          211         212         213         214         215         216
    1  -0.0231708  -0.1045940  -0.0048035  -0.0064418  -0.0259330  -0.0063303
    2  -0.0228921   0.0050498  -0.0003202  -0.0176716   0.0139751  -0.0124115
    3  -0.0186042  -0.0321699   0.0072338   0.0208787  -0.0026500  -0.0252758
          217         218         219         220         221         222
    1  -0.0013179   0.0062576   0.0276393   0.0063625  -0.0115638   0.0267421
    2   0.0472840  -0.0022645   0.0033068  -0.0271709  -0.0070317   0.0165859
    3  -0.0426933   0.0021353   0.0168687   0.0164595  -0.0319184   0.1143237
          223         224         225         226         227         228
    1   0.0002067  -0.0040214   0.0288032  -0.0203608   0.0481673  -0.0037204
    2   0.0007926  -0.0145420   0.0265855   0.0239156  -0.0257528   0.0049040
    3   0.0064023   0.0271419   0.0123763   0.0062338  -0.0063271  -0.0003497
          229         230         231         232         233         234
    1   0.0289411  -0.0052014  -0.0369845  -0.0955456   0.0025569   0.0143162
    2   0.0209861  -0.0060661   0.0054025  -0.0523877  -0.0096962   0.0177344
    3  -0.0122530  -0.0286023   0.0011081   0.0187309   0.0061534   0.0216227
          235         236         237         238         239         240
    1  -0.0274028   0.0083193  -0.0320113  -0.0091849  -0.0078624   0.0141977
    2  -0.0026728  -0.0317271   0.0506430  -0.0057118   0.0210695  -0.0271509
    3   0.0140937  -0.0052915   0.0171020  -0.0043042  -0.0197566  -0.0067393
          241         242         243         244         245         246
    1  -0.0380109   0.0976187   0.0004283   0.0233621  -0.0173479  -0.0097480
    2  -0.0005231   0.0063534  -0.0028581  -0.0041105  -0.0182934   0.0311070
    3   0.0109284  -0.0484835  -0.0023253   0.0158822  -0.0302964  -0.0062321
          247         248         249         250         251         252
    1  -0.0560143  -0.0006300  -0.0174318  -0.0142261   0.0277874   0.0555176
    2   0.0016459   0.0085778   0.0293176  -0.0055083   0.0009446  -0.0894616
    3  -0.0076188   0.0073445  -0.0055245   0.0309202  -0.0024737   0.0323742
          253         254         255         256         257         258
    1   0.0033300  -0.0096539  -0.0268269   0.0359226   0.0180579   0.0058021
    2   0.0046072  -0.0132806   0.0212732   0.0088843   0.0258706  -0.0048406
    3  -0.0076095  -0.0288329  -0.0070168  -0.0044560   0.0461962  -0.0054535
          259         260         261         262         263         264
    1  -0.0039725  -0.0076893   0.0337864  -0.1001386  -0.0035387  -0.0255382
    2  -0.0269588  -0.0173337   0.0125889  -0.0499316   0.0055837  -0.0096984
    3   0.0158957  -0.0277009  -0.0071595  -0.0072183   0.0013701  -0.0183898
          265         266         267         268         269         270
    1  -0.0207153   0.0048983   0.0250041  -0.0027963   0.0140934  -0.0126078
    2   0.0055477   0.0231407  -0.0232678  -0.0014697  -0.0256349   0.0081733
    3   0.0278702  -0.0255163  -0.0474265   0.0060682   0.0119927   0.0313009
          271         272
    1  -0.0235050   0.0552166
    2  -0.0222077   0.0616364
    3  -0.0096903   0.0722645
  --- DONE ESP SUMMARY ---
 Total job time:  31.90s(wall), 60.22s(cpu) 
 Thu Jul 21 07:44:08 2022

        *************************************************************
        *                                                           *
        *  Thank you very much for using Q-Chem.  Have a nice day.  *
        *                                                           *
        *************************************************************


