                  Welcome to Q-Chem
     A Quantum Leap Into The Future Of Chemistry


 Q-Chem 6.0 (devel), Q-Chem, Inc., Pleasanton, CA (2022)

 E. Epifanovsky,  A. T. B. Gilbert,  Xintian Feng,  Joonho Lee,  Yuezhi Mao,  
 N. Mardirossian,  P. Pokhilko,  A. White,  M. Wormit,  M. P. Coons,  
 A. L. Dempwolff,  Zhengting Gan,  D. Hait,  P. R. Horn,  L. D. Jacobson,  
 I. Kaliman,  J. Kussmann,  A. W. Lange,  Ka Un Lao,  D. S. Levine,  Jie Liu,  
 S. C. McKenzie,  A. F. Morrison,  K. Nanda,  F. Plasser,  D. R. Rehn,  
 M. L. Vidal,  Zhi-Qiang You,  Ying Zhu,  B. Alam,  B. Albrecht,  
 A. Aldossary,  E. Alguire,  J. H. Andersen,  V. Athavale,  D. Barton,  
 K. Begam,  A. Behn,  N. Bellonzi,  Y. A. Bernard,  E. J. Berquist,  
 H. Burton,  A. Carreras,  K. Carter-Fenk,  Romit Chakraborty,  
 Chandrima Chakravarty,  Junhan Chen,  A. D. Chien,  K. D. Closser,  
 V. Cofer-Shabica,  L. Cunha,  S. Dasgupta,  Jia Deng,  M. de Wergifosse,  
 M. Diedenhofen,  Hainam Do,  S. Ehlert,  Po-Tung Fang,  S. Fatehi,  
 Qingguo Feng,  T. Friedhoff,  B. Ganoe,  J. Gayvert,  Qinghui Ge,  
 G. Gidofalvi,  M. Goldey,  J. Gomes,  C. Gonzalez-Espinoza,  S. Gulania,  
 A. Gunina,  J. A. Gyamfi,  M. W. D. Hanson-Heine,  P. H. P. Harbach,  
 A. W. Hauser,  M. F. Herbst,  M. Hernandez Vera,  M. Hodecker,  
 Z. C. Holden,  S. Houck,  Xunkun Huang,  Kerwin Hui,  B. C. Huynh,  
 K. Ikeda,  M. Ivanov,  Hyunjun Ji,  Zuxin Jin,  Hanjie Jiang,  B. Kaduk,  
 S. Kaehler,  R. Kang,  K. Khistyaev,  Jaehoon Kim,  Yongbin Kim,  
 P. Klunzinger,  Z. Koczor-Benda,  Joong Hoon Koh,  D. Kosenkov,  
 Saikiran Kotaru,  L. Koulias,  T. Kowalczyk,  C. M. Krauter,  K. Kue,  
 A. Kunitsa,  T. Kus,  A. Landau,  K. V. Lawler,  D. Lefrancois,  S. Lehtola,  
 Rain Li,  Shaozhi Li,  Yi-Pei Li,  Jiashu Liang,  M. Liebenthal,  
 Hung-Hsuan Lin,  You-Sheng Lin,  Fenglai Liu,  Kuan-Yu Liu,  
 M. Loipersberger,  A. Luenser,  C. Malbon,  A. Manjanath,  P. Manohar,  
 E. Mansoor,  S. F. Manzer,  Shan-Ping Mao,  A. V. Marenich,  T. Markovich,  
 S. Mason,  F. Matz,  S. A. Maurer,  P. F. McLaughlin,  M. F. S. J. Menger,  
 J.-M. Mewes,  S. A. Mewes,  P. Morgante,  Mohammad Mostafanejad,  
 J. W. Mullinax,  K. J. Oosterbaan,  G. Paran,  V. Parravicini,  
 Alexander C. Paul,  Suranjan K. Paul,  F. Pavosevic,  Zheng Pei,  S. Prager,  
 E. I. Proynov,  E. Ramos,  B. Rana,  A. E. Rask,  A. Rettig,  R. M. Richard,  
 F. Rob,  E. Rossomme,  T. Scheele,  M. Scheurer,  M. Schneider,  
 P. E. Schneider,  N. Sergueev,  S. M. Sharada,  Hengyuan Shen,  
 W. Skomorowski,  D. W. Small,  C. J. Stein,  Yingli Su,  Yu-Chuan Su,  
 E. J. Sundstrom,  Zhen Tao,  J. Thirman,  Hung-Yi Tsai,  T. Tsuchimochi,  
 N. M. Tubman,  C. Utku,  S. P. Veccham,  O. Vydrov,  J. Wenzel,  
 Jonathan Wong,  J. Witte,  A. Yamada,  Chou-Hsun Yang,  Kun Yao,  
 S. Yeganeh,  S. R. Yost,  A. Zech,  F. Zeller,  Igor Ying Zhang,  
 Xing Zhang,  Yu Zhang,  D. Zuev,  A. Aspuru-Guzik,  A. T. Bell,  
 N. A. Besley,  K. B. Bravaya,  B. R. Brooks,  D. Casanova,  Jeng-Da Chai,  
 Hsing-Ta Chen,  S. Coriani,  C. J. Cramer,  A. E. DePrince, III,  
 R. A. DiStasio Jr.,  A. Dreuw,  B. D. Dunietz,  T. R. Furlani,  
 W. A. Goddard III,  S. Grimme,  S. Hammes-Schiffer,  T. Head-Gordon,  
 W. J. Hehre,  Chao-Ping Hsu,  T.-C. Jagau,  Yousung Jung,  A. Klamt,  
 Jing Kong,  D. S. Lambrecht,  Xiangyuan Li,  WanZhen Liang,  N. J. Mayhall,  
 C. W. McCurdy,  J. B. Neaton,  T. Neudecker,  C. Ochsenfeld,  
 J. A. Parkhill,  R. Peverati,  V. A. Rassolov,  Haisheng Ren,  Yihan Shao,  
 L. V. Slipchenko,  R. P. Steele,  J. E. Subotnik,  A. J. W. Thom,  
 A. Tkatchenko,  D. G. Truhlar,  T. Van Voorhis,  Fan Wang,  
 T. A. Wesolowski,  K. B. Whaley,  H. L. Woodcock III,  P. M. Zimmerman,  
 S. Faraji,  P. M. W. Gill,  M. Head-Gordon,  J. M. Herbert,  A. I. Krylov

 Contributors to earlier versions of Q-Chem not listed above: 
 R. D. Adamson,  B. Austin,  R. Baer,  J. Baker,  G. J. O. Beran,  
 K. Brandhorst,  S. T. Brown,  E. F. C. Byrd,  Arup K. Chakraborty,  
 G. K. L. Chan,  Chun-Min Chang,  Yunqing Chen,  C.-L. Cheng,  
 Siu Hung Chien,  D. M. Chipman,  D. L. Crittenden,  H. Dachsel,  
 R. J. Doerksen,  A. D. Dutoi,  R. G. Edgar,  J. Fosso-Tande,  
 L. Fusti-Molnar,  D. Ghosh,  A. Ghysels,  A. Golubeva-Zadorozhnaya,  
 J. Gonthier,  M. S. Gordon,  S. R. Gwaltney,  G. Hawkins,  J. E. Herr,  
 A. Heyden,  S. Hirata,  E. G. Hohenstein,  G. Kedziora,  F. J. Keil,  
 C. Kelley,  Jihan Kim,  R. A. King,  R. Z. Khaliullin,  P. P. Korambath,  
 W. Kurlancheek,  A. Laurent,  A. M. Lee,  M. S. Lee,  S. V. Levchenko,  
 Ching Yeh Lin,  D. Liotard,  E. Livshits,  R. C. Lochan,  I. Lotan,  
 L. A. Martinez-Martinez,  P. E. Maslen,  N. Nair,  D. P. O'Neill,  
 D. Neuhauser,  E. Neuscamman,  C. M. Oana,  R. Olivares-Amaya,  R. Olson,  
 T. M. Perrine,  B. Peters,  P. A. Pieniazek,  A. Prociuk,  Y. M. Rhee,  
 J. Ritchie,  M. A. Rohrdanz,  E. Rosta,  N. J. Russ,  H. F. Schaefer III,  
 M. W. Schmidt,  N. E. Schultz,  S. Sharma,  N. Shenvi,  C. D. Sherrill,  
 A. C. Simmonett,  A. Sodt,  T. Stein,  D. Stuck,  K. S. Thanthiriwatte,  
 V. Vanovschi,  L. Vogt,  Tao Wang,  A. Warshel,  M. A. Watson,  
 C. F. Williams,  Q. Wu,  X. Xu,  Jun Yang,  W. Zhang,  Yan Zhao

   Please cite Q-Chem as follows:
  "Software for the frontiers of quantum chemistry:
   An overview of developments in the Q-Chem 5 package"
   J. Chem. Phys. 155, 084801 (2021)
   https://doi.org/10.1063/5.0055522 (open access)

 Q-Chem 6.0.0 for Intel X86 EM64T Linux

 Parts of Q-Chem use Armadillo 9.900.5 (Nocturnal Misbehaviour).
 http://arma.sourceforge.net/

 Q-Chem begins on Thu Jul 21 03:13:29 2022  

 Host: nid00533
0

     Scratch files written to /global/cscratch1/sd/ymao90/r7.00_frame_0045_spade_B3LYP_dp20220721031326//
 Processing $rem in /global/homes/y/ymao90/my_qchem/qchem_embedding_5p4/config/preferences:
 Processing $rem in /global/homes/y/ymao90/.qchemrc:
 No nuclear gradient supported for projection-based embedding or EMFT. Set max ideriv = 0.

 Checking the input file for inconsistencies... 	...done.

--------------------------------------------------------------
User input:
--------------------------------------------------------------
$molecule
0 1
--
0 1
C    25.49500   18.85300   26.12800  
C    24.58200   20.09000   26.15700  
C    25.35800   21.33300   26.62200  
C    26.74200   21.49300   25.97300  
C    27.58000   20.20400   25.97200  
C    26.78700   19.05900   25.32000  
H    24.82700   22.22100   26.25600  
H    24.27000   20.31800   25.13000  
H    25.56100   18.33800   27.09400  
H    24.90100   18.19400   25.48400  
H    26.64100   21.80100   24.92500  
H    27.32900   22.29900   26.43000  
H    28.44200   20.35100   25.31100  
H    27.90600   20.05900   27.01000  
H    26.54600   19.30100   24.27800  
H    27.30900   18.09900   25.22500  
H    25.45100   21.41200   27.71200  
N    23.43700   19.78700   27.01300  
H    23.48400   20.12200   27.96700  
C    22.24600   19.19900   26.64100  
H    21.47200   19.17500   27.42900  
O    22.04000   18.76100   25.52300  
--
0 1
C    20.70800   27.65100   28.43400  
H    20.70300   28.74400   28.42700  
H    19.73300   27.20000   28.63700  
H    21.48100   27.23400   29.08500  
S    20.91900   27.08300   26.73200  
C    22.17600   28.25600   26.17500  
H    22.76400   27.85300   25.34700  
H    21.88800   29.29100   25.97600  
H    22.84600   28.19900   27.03700  
O    19.64600   27.57900   26.12000  
C    21.41400   18.09400   22.49200  
H    21.06200   17.19700   23.00800  
H    20.94000   18.92100   23.02700  
H    21.14700   18.09700   21.43200  
S    23.21400   18.25900   22.50300  
C    23.17100   19.81000   21.57600  
H    24.04800   19.83800   20.92500  
H    22.28500   19.67700   20.95000  
H    22.99100   20.68000   22.21400  
O    23.66700   17.21600   21.53000  
C    33.14300   18.68000   29.72800  
H    34.15900   18.48100   30.07700  
H    32.73700   19.29200   30.53800  
H    32.62300   17.75900   29.45100  
S    33.56400   19.65900   28.26900  
C    34.22400   21.05400   29.20800  
H    35.19800   20.68500   29.54100  
H    34.42400   21.94600   28.60800  
H    33.59500   21.21100   30.08700  
O    32.27000   20.18400   27.72900  
C    29.34800   15.25700   25.19200  
H    29.32600   14.17700   25.35800  
H    29.95100   15.72600   25.97300  
H    28.31100   15.59800   25.25800  
S    29.90000   15.65900   23.51900  
C    28.97100   14.27900   22.81400  
H    29.31300   13.35500   23.28600  
H    27.92200   14.48600   23.04400  
H    29.12400   14.32700   21.73300  
O    31.35600   15.31800   23.59600  
C    20.85700   22.19200   23.41100  
H    19.79900   21.91900   23.38500  
H    21.37400   22.26100   22.45100  
H    21.40200   21.48400   24.04200  
S    20.91400   23.77900   24.27300  
C    22.71900   23.81000   24.36600  
H    23.21200   23.13100   25.06600  
H    23.17600   23.53600   23.41200  
H    22.94500   24.87000   24.50400  
O    20.52300   23.39800   25.66600  
C    28.44600   26.78100   33.41400  
H    28.46800   26.00100   34.18000  
H    29.24400   27.50100   33.61000  
H    27.46200   27.23200   33.26100  
S    28.94600   25.90000   31.91800  
C    29.10600   27.21600   30.69000  
H    28.24900   27.89500   30.71300  
H    30.01800   27.75400   30.95800  
H    29.21800   26.71000   29.72800  
O    27.57300   25.47600   31.49800  
C    24.97100   17.65900   34.51800  
H    24.35700   18.33000   35.12400  
H    25.80700   17.27300   35.10600  
H    25.38200   18.18600   33.65300  
S    23.92200   16.36500   33.81800  
C    25.27800   15.70100   32.82600  
H    25.73400   16.50100   32.23700  
H    26.09500   15.37500   33.47400  
H    24.92900   14.86800   32.21000  
O    23.04900   17.05700   32.81800  
C    18.23600   13.87500   24.52400  
H    18.11400   13.28400   23.61300  
H    18.61500   13.22700   25.31800  
H    17.20900   14.07200   24.84400  
S    19.21300   15.37200   24.26300  
C    18.74600   16.05600   25.86900  
H    19.26300   17.01400   25.97600  
H    17.68500   16.17100   26.10400  
H    19.11400   15.34000   26.60800  
O    18.50600   16.06100   23.13700  
C    22.40300   14.41500   21.98200  
H    22.33400   14.22200   20.90800  
H    21.94900   15.32400   22.38300  
H    23.44800   14.55400   22.26900  
S    21.80300   12.92600   22.81300  
C    20.22700   12.94600   21.93000  
H    20.47600   12.69100   20.89700  
H    19.55300   12.20100   22.36100  
H    19.73800   13.92100   22.00200  
O    21.49800   13.33800   24.21900  
C    28.36900   16.24000   28.91000  
H    27.59400   15.65400   28.41000  
H    29.28200   16.16100   28.31500  
H    28.48000   15.80600   29.90700  
S    27.84900   17.97000   28.96500  
C    29.48300   18.72200   29.14600  
H    29.83400   18.18700   30.03200  
H    30.05600   18.55600   28.23100  
H    29.22900   19.75800   29.38600  
O    27.31400   18.10100   30.35700  
C    25.73700   22.10600   21.59700  
H    25.22200   21.67600   20.73400  
H    26.72500   21.64900   21.49800  
H    25.14600   21.84800   22.48000  
S    25.77500   23.89100   21.32100  
C    26.07800   24.34000   23.04500  
H    25.43900   23.66700   23.62300  
H    27.12600   24.17900   23.31100  
H    25.71400   25.36700   23.13000  
O    24.29100   24.08300   21.33500  
C    28.84900   26.68400   24.69800  
H    27.88900   26.18600   24.85700  
H    28.66300   27.55200   24.06000  
H    29.55800   26.07000   24.13900  
S    29.56000   27.09700   26.30700  
C    31.28600   27.02900   25.77600  
H    31.86700   27.26200   26.67200  
H    31.41300   26.00500   25.41500  
H    31.54500   27.73200   24.98000  
O    29.41900   25.84800   27.11900  
C    18.85700   20.44100   26.01000  
H    19.58000   19.65600   25.77400  
H    18.88700   21.26100   25.28900  
H    19.14700   20.84200   26.98500  
S    17.24600   19.63200   26.13200  
C    16.48300   21.15700   26.73000  
H    16.87000   21.60200   27.65100  
H    16.59300   21.82600   25.87300  
H    15.44600   20.84200   26.87300  
O    17.28800   18.80600   27.38000  
C    18.97300   17.13700   30.10800  
H    19.96800   16.70700   30.24800  
H    18.21600   16.38300   29.88200  
H    19.02200   17.79900   29.24000  
S    18.44600   18.23800   31.44100  
C    19.90400   19.26600   31.72500  
H    20.18500   19.80600   30.81700  
H    19.68800   20.10300   32.39400  
H    20.66700   18.60800   32.15000  
O    18.40000   17.45500   32.71700  
C    24.24900   17.19600   29.28000  
H    24.67900   17.52200   30.23000  
H    24.86600   16.62800   28.57900  
H    23.87900   18.10800   28.80300  
S    22.76000   16.29000   29.75500  
C    23.77100   14.79900   29.61500  
H    23.86500   14.57600   28.54900  
H    24.69300   14.98200   30.17300  
H    23.21400   13.93600   29.98800  
O    21.94000   16.33700   28.50300  
C    24.23400   22.53300   31.32300  
H    24.91100   22.72400   30.48700  
H    23.34300   23.10700   31.05400  
H    24.66200   22.86700   32.27200  
S    23.66100   20.82600   31.47100  
C    25.29800   20.06500   31.39000  
H    26.09100   20.53500   31.97900  
H    25.08500   19.04000   31.70400  
H    25.71400   20.00700   30.38100  
O    23.23100   20.43000   30.09300  
C    31.65100   19.15500   24.60200  
H    30.85000   19.88200   24.75800  
H    31.35900   18.11000   24.47700  
H    32.38800   19.21600   25.40700  
S    32.28700   19.65200   22.98600  
C    33.47300   18.31000   22.74900  
H    33.92500   18.39400   21.75700  
H    34.11600   18.36000   23.63100  
H    32.91000   17.37300   22.78000  
O    33.15800   20.80500   23.37700  
C    26.86800   17.63400   21.93100  
H    26.28500   18.06900   22.74800  
H    26.16800   17.17100   21.23000  
H    27.53700   16.85800   22.31100  
S    27.95300   18.81300   21.09600  
C    28.93800   17.53800   20.27900  
H    28.42400   16.57500   20.32900  
H    29.04500   17.94400   19.27000  
H    29.87000   17.44600   20.84300  
O    28.75600   19.27500   22.27300  
C    32.62900   14.49500   26.81800  
H    32.02100   14.41400   25.91300  
H    33.56100   13.94700   26.65800  
H    32.07900   14.03900   27.64500  
S    32.91500   16.25500   27.10900  
C    33.89000   16.67200   25.64500  
H    34.38000   17.64700   25.70200  
H    34.64300   15.88100   25.60800  
H    33.24600   16.53200   24.77300  
O    33.92600   16.11500   28.20400  
C    26.00600   27.20900   28.09000  
H    26.67700   27.35700   28.94100  
H    26.54500   27.26100   27.14100  
H    25.16500   27.89500   27.95600  
S    25.05900   25.67400   28.19100  
C    26.58000   24.71500   28.37200  
H    26.29600   23.66000   28.36600  
H    27.29300   24.69600   27.54400  
H    27.02600   25.04700   29.31400  
O    24.78600   25.37500   26.75000  
C    20.01800   23.17300   29.52800  
H    19.47800   22.69200   28.70900  
H    20.37000   22.40600   30.22200  
H    19.39100   23.80200   30.16500  
S    21.29400   24.23100   28.80900  
C    22.43300   22.98000   28.17400  
H    22.85500   22.39800   28.99700  
H    21.88500   22.27200   27.54600  
H    23.16100   23.59000   27.63300  
O    21.96200   24.90100   29.96900  
C    17.94500   19.29500   22.43700  
H    18.84800   19.78200   22.06000  
H    18.07200   18.96000   23.47000  
H    17.63100   18.40000   21.89500  
S    16.59000   20.49000   22.47000  
C    16.90100   21.10000   20.79800  
H    16.95700   20.21400   20.16100  
H    16.03000   21.71800   20.56300  
H    17.84100   21.63200   20.62800  
O    17.13200   21.60900   23.30400  
C    35.41100   23.33000   24.80100  
H    36.32100   23.90000   24.60200  
H    35.54600   22.44000   25.42200  
H    34.95400   22.90900   23.90100  
S    34.22400   24.37800   25.67100  
C    32.88500   23.16500   25.65900  
H    32.85600   22.93000   24.59100  
H    33.15200   22.29400   26.26300  
H    31.95600   23.63100   25.99500  
O    33.81100   25.32200   24.58500  
C    28.15100   22.08300   30.39300  
H    28.03100   21.35500   29.58700  
H    28.35500   21.58000   31.34100  
H    27.22400   22.66200   30.35100  
S    29.58700   23.06500   29.90500  
C    29.66200   22.57900   28.16600  
H    30.71200   22.72300   27.90200  
H    29.50800   21.49900   28.09600  
H    29.13100   23.23300   27.46900  
O    30.72000   22.35800   30.58100  
C    23.50100   15.73800   25.36600  
H    23.33200   16.78500   25.63100  
H    22.84400   15.46800   24.53600  
H    23.13300   15.16200   26.21900  
S    25.24300   15.51400   24.94100  
C    25.17000   13.70900   24.89500  
H    26.10000   13.25000   24.55200  
H    24.80500   13.26400   25.82400  
H    24.35100   13.55600   24.18800  
O    26.04900   15.69000   26.19000  
C    29.90000   22.45700   22.74400  
H    30.31200   21.45700   22.89600  
H    30.07300   23.05200   23.64500  
H    28.82200   22.38300   22.57600  
S    30.57700   23.24600   21.26600  
C    32.15900   23.70300   22.01200  
H    32.68000   24.36400   21.31600  
H    31.92700   24.25900   22.92400  
H    32.76000   22.80300   22.16600  
O    29.81100   24.53000   21.18700  
$end

$rem
JOBTYPE  SP
METHOD  B3LYP
BASIS  6-31+G(D)
SYMMETRY  FALSE
SYM_IGNORE  TRUE
MEM_TOTAL  12000
MEM_STATIC  4000
BASIS_LIN_DEP_THRESH  6
THRESH  14
SCF_CONVERGENCE  8
FD_MAT_VEC_PROD  FALSE
XC_GRID  000075000302
NL_GRID  1
MAX_SCF_CYCLES  200
ENV_METHOD  B3LYP
GEN_SCFMAN_EMBED  TRUE
SPADE_PARTITION  TRUE
EMBEDDING_EARLY_STOP  TRUE
$end

--------------------------------------------------------------
 ----------------------------------------------------------------
             Standard Nuclear Orientation (Angstroms)
    I     Atom           X                Y                Z
 ----------------------------------------------------------------
    1      C      25.4950000000    18.8530000000    26.1280000000
    2      C      24.5820000000    20.0900000000    26.1570000000
    3      C      25.3580000000    21.3330000000    26.6220000000
    4      C      26.7420000000    21.4930000000    25.9730000000
    5      C      27.5800000000    20.2040000000    25.9720000000
    6      C      26.7870000000    19.0590000000    25.3200000000
    7      H      24.8270000000    22.2210000000    26.2560000000
    8      H      24.2700000000    20.3180000000    25.1300000000
    9      H      25.5610000000    18.3380000000    27.0940000000
   10      H      24.9010000000    18.1940000000    25.4840000000
   11      H      26.6410000000    21.8010000000    24.9250000000
   12      H      27.3290000000    22.2990000000    26.4300000000
   13      H      28.4420000000    20.3510000000    25.3110000000
   14      H      27.9060000000    20.0590000000    27.0100000000
   15      H      26.5460000000    19.3010000000    24.2780000000
   16      H      27.3090000000    18.0990000000    25.2250000000
   17      H      25.4510000000    21.4120000000    27.7120000000
   18      N      23.4370000000    19.7870000000    27.0130000000
   19      H      23.4840000000    20.1220000000    27.9670000000
   20      C      22.2460000000    19.1990000000    26.6410000000
   21      H      21.4720000000    19.1750000000    27.4290000000
   22      O      22.0400000000    18.7610000000    25.5230000000
   23      C      20.7080000000    27.6510000000    28.4340000000
   24      H      20.7030000000    28.7440000000    28.4270000000
   25      H      19.7330000000    27.2000000000    28.6370000000
   26      H      21.4810000000    27.2340000000    29.0850000000
   27      S      20.9190000000    27.0830000000    26.7320000000
   28      C      22.1760000000    28.2560000000    26.1750000000
   29      H      22.7640000000    27.8530000000    25.3470000000
   30      H      21.8880000000    29.2910000000    25.9760000000
   31      H      22.8460000000    28.1990000000    27.0370000000
   32      O      19.6460000000    27.5790000000    26.1200000000
   33      C      21.4140000000    18.0940000000    22.4920000000
   34      H      21.0620000000    17.1970000000    23.0080000000
   35      H      20.9400000000    18.9210000000    23.0270000000
   36      H      21.1470000000    18.0970000000    21.4320000000
   37      S      23.2140000000    18.2590000000    22.5030000000
   38      C      23.1710000000    19.8100000000    21.5760000000
   39      H      24.0480000000    19.8380000000    20.9250000000
   40      H      22.2850000000    19.6770000000    20.9500000000
   41      H      22.9910000000    20.6800000000    22.2140000000
   42      O      23.6670000000    17.2160000000    21.5300000000
   43      C      33.1430000000    18.6800000000    29.7280000000
   44      H      34.1590000000    18.4810000000    30.0770000000
   45      H      32.7370000000    19.2920000000    30.5380000000
   46      H      32.6230000000    17.7590000000    29.4510000000
   47      S      33.5640000000    19.6590000000    28.2690000000
   48      C      34.2240000000    21.0540000000    29.2080000000
   49      H      35.1980000000    20.6850000000    29.5410000000
   50      H      34.4240000000    21.9460000000    28.6080000000
   51      H      33.5950000000    21.2110000000    30.0870000000
   52      O      32.2700000000    20.1840000000    27.7290000000
   53      C      29.3480000000    15.2570000000    25.1920000000
   54      H      29.3260000000    14.1770000000    25.3580000000
   55      H      29.9510000000    15.7260000000    25.9730000000
   56      H      28.3110000000    15.5980000000    25.2580000000
   57      S      29.9000000000    15.6590000000    23.5190000000
   58      C      28.9710000000    14.2790000000    22.8140000000
   59      H      29.3130000000    13.3550000000    23.2860000000
   60      H      27.9220000000    14.4860000000    23.0440000000
   61      H      29.1240000000    14.3270000000    21.7330000000
   62      O      31.3560000000    15.3180000000    23.5960000000
   63      C      20.8570000000    22.1920000000    23.4110000000
   64      H      19.7990000000    21.9190000000    23.3850000000
   65      H      21.3740000000    22.2610000000    22.4510000000
   66      H      21.4020000000    21.4840000000    24.0420000000
   67      S      20.9140000000    23.7790000000    24.2730000000
   68      C      22.7190000000    23.8100000000    24.3660000000
   69      H      23.2120000000    23.1310000000    25.0660000000
   70      H      23.1760000000    23.5360000000    23.4120000000
   71      H      22.9450000000    24.8700000000    24.5040000000
   72      O      20.5230000000    23.3980000000    25.6660000000
   73      C      28.4460000000    26.7810000000    33.4140000000
   74      H      28.4680000000    26.0010000000    34.1800000000
   75      H      29.2440000000    27.5010000000    33.6100000000
   76      H      27.4620000000    27.2320000000    33.2610000000
   77      S      28.9460000000    25.9000000000    31.9180000000
   78      C      29.1060000000    27.2160000000    30.6900000000
   79      H      28.2490000000    27.8950000000    30.7130000000
   80      H      30.0180000000    27.7540000000    30.9580000000
   81      H      29.2180000000    26.7100000000    29.7280000000
   82      O      27.5730000000    25.4760000000    31.4980000000
   83      C      24.9710000000    17.6590000000    34.5180000000
   84      H      24.3570000000    18.3300000000    35.1240000000
   85      H      25.8070000000    17.2730000000    35.1060000000
   86      H      25.3820000000    18.1860000000    33.6530000000
   87      S      23.9220000000    16.3650000000    33.8180000000
   88      C      25.2780000000    15.7010000000    32.8260000000
   89      H      25.7340000000    16.5010000000    32.2370000000
   90      H      26.0950000000    15.3750000000    33.4740000000
   91      H      24.9290000000    14.8680000000    32.2100000000
   92      O      23.0490000000    17.0570000000    32.8180000000
   93      C      18.2360000000    13.8750000000    24.5240000000
   94      H      18.1140000000    13.2840000000    23.6130000000
   95      H      18.6150000000    13.2270000000    25.3180000000
   96      H      17.2090000000    14.0720000000    24.8440000000
   97      S      19.2130000000    15.3720000000    24.2630000000
   98      C      18.7460000000    16.0560000000    25.8690000000
   99      H      19.2630000000    17.0140000000    25.9760000000
  100      H      17.6850000000    16.1710000000    26.1040000000
  101      H      19.1140000000    15.3400000000    26.6080000000
  102      O      18.5060000000    16.0610000000    23.1370000000
  103      C      22.4030000000    14.4150000000    21.9820000000
  104      H      22.3340000000    14.2220000000    20.9080000000
  105      H      21.9490000000    15.3240000000    22.3830000000
  106      H      23.4480000000    14.5540000000    22.2690000000
  107      S      21.8030000000    12.9260000000    22.8130000000
  108      C      20.2270000000    12.9460000000    21.9300000000
  109      H      20.4760000000    12.6910000000    20.8970000000
  110      H      19.5530000000    12.2010000000    22.3610000000
  111      H      19.7380000000    13.9210000000    22.0020000000
  112      O      21.4980000000    13.3380000000    24.2190000000
  113      C      28.3690000000    16.2400000000    28.9100000000
  114      H      27.5940000000    15.6540000000    28.4100000000
  115      H      29.2820000000    16.1610000000    28.3150000000
  116      H      28.4800000000    15.8060000000    29.9070000000
  117      S      27.8490000000    17.9700000000    28.9650000000
  118      C      29.4830000000    18.7220000000    29.1460000000
  119      H      29.8340000000    18.1870000000    30.0320000000
  120      H      30.0560000000    18.5560000000    28.2310000000
  121      H      29.2290000000    19.7580000000    29.3860000000
  122      O      27.3140000000    18.1010000000    30.3570000000
  123      C      25.7370000000    22.1060000000    21.5970000000
  124      H      25.2220000000    21.6760000000    20.7340000000
  125      H      26.7250000000    21.6490000000    21.4980000000
  126      H      25.1460000000    21.8480000000    22.4800000000
  127      S      25.7750000000    23.8910000000    21.3210000000
  128      C      26.0780000000    24.3400000000    23.0450000000
  129      H      25.4390000000    23.6670000000    23.6230000000
  130      H      27.1260000000    24.1790000000    23.3110000000
  131      H      25.7140000000    25.3670000000    23.1300000000
  132      O      24.2910000000    24.0830000000    21.3350000000
  133      C      28.8490000000    26.6840000000    24.6980000000
  134      H      27.8890000000    26.1860000000    24.8570000000
  135      H      28.6630000000    27.5520000000    24.0600000000
  136      H      29.5580000000    26.0700000000    24.1390000000
  137      S      29.5600000000    27.0970000000    26.3070000000
  138      C      31.2860000000    27.0290000000    25.7760000000
  139      H      31.8670000000    27.2620000000    26.6720000000
  140      H      31.4130000000    26.0050000000    25.4150000000
  141      H      31.5450000000    27.7320000000    24.9800000000
  142      O      29.4190000000    25.8480000000    27.1190000000
  143      C      18.8570000000    20.4410000000    26.0100000000
  144      H      19.5800000000    19.6560000000    25.7740000000
  145      H      18.8870000000    21.2610000000    25.2890000000
  146      H      19.1470000000    20.8420000000    26.9850000000
  147      S      17.2460000000    19.6320000000    26.1320000000
  148      C      16.4830000000    21.1570000000    26.7300000000
  149      H      16.8700000000    21.6020000000    27.6510000000
  150      H      16.5930000000    21.8260000000    25.8730000000
  151      H      15.4460000000    20.8420000000    26.8730000000
  152      O      17.2880000000    18.8060000000    27.3800000000
  153      C      18.9730000000    17.1370000000    30.1080000000
  154      H      19.9680000000    16.7070000000    30.2480000000
  155      H      18.2160000000    16.3830000000    29.8820000000
  156      H      19.0220000000    17.7990000000    29.2400000000
  157      S      18.4460000000    18.2380000000    31.4410000000
  158      C      19.9040000000    19.2660000000    31.7250000000
  159      H      20.1850000000    19.8060000000    30.8170000000
  160      H      19.6880000000    20.1030000000    32.3940000000
  161      H      20.6670000000    18.6080000000    32.1500000000
  162      O      18.4000000000    17.4550000000    32.7170000000
  163      C      24.2490000000    17.1960000000    29.2800000000
  164      H      24.6790000000    17.5220000000    30.2300000000
  165      H      24.8660000000    16.6280000000    28.5790000000
  166      H      23.8790000000    18.1080000000    28.8030000000
  167      S      22.7600000000    16.2900000000    29.7550000000
  168      C      23.7710000000    14.7990000000    29.6150000000
  169      H      23.8650000000    14.5760000000    28.5490000000
  170      H      24.6930000000    14.9820000000    30.1730000000
  171      H      23.2140000000    13.9360000000    29.9880000000
  172      O      21.9400000000    16.3370000000    28.5030000000
  173      C      24.2340000000    22.5330000000    31.3230000000
  174      H      24.9110000000    22.7240000000    30.4870000000
  175      H      23.3430000000    23.1070000000    31.0540000000
  176      H      24.6620000000    22.8670000000    32.2720000000
  177      S      23.6610000000    20.8260000000    31.4710000000
  178      C      25.2980000000    20.0650000000    31.3900000000
  179      H      26.0910000000    20.5350000000    31.9790000000
  180      H      25.0850000000    19.0400000000    31.7040000000
  181      H      25.7140000000    20.0070000000    30.3810000000
  182      O      23.2310000000    20.4300000000    30.0930000000
  183      C      31.6510000000    19.1550000000    24.6020000000
  184      H      30.8500000000    19.8820000000    24.7580000000
  185      H      31.3590000000    18.1100000000    24.4770000000
  186      H      32.3880000000    19.2160000000    25.4070000000
  187      S      32.2870000000    19.6520000000    22.9860000000
  188      C      33.4730000000    18.3100000000    22.7490000000
  189      H      33.9250000000    18.3940000000    21.7570000000
  190      H      34.1160000000    18.3600000000    23.6310000000
  191      H      32.9100000000    17.3730000000    22.7800000000
  192      O      33.1580000000    20.8050000000    23.3770000000
  193      C      26.8680000000    17.6340000000    21.9310000000
  194      H      26.2850000000    18.0690000000    22.7480000000
  195      H      26.1680000000    17.1710000000    21.2300000000
  196      H      27.5370000000    16.8580000000    22.3110000000
  197      S      27.9530000000    18.8130000000    21.0960000000
  198      C      28.9380000000    17.5380000000    20.2790000000
  199      H      28.4240000000    16.5750000000    20.3290000000
  200      H      29.0450000000    17.9440000000    19.2700000000
  201      H      29.8700000000    17.4460000000    20.8430000000
  202      O      28.7560000000    19.2750000000    22.2730000000
  203      C      32.6290000000    14.4950000000    26.8180000000
  204      H      32.0210000000    14.4140000000    25.9130000000
  205      H      33.5610000000    13.9470000000    26.6580000000
  206      H      32.0790000000    14.0390000000    27.6450000000
  207      S      32.9150000000    16.2550000000    27.1090000000
  208      C      33.8900000000    16.6720000000    25.6450000000
  209      H      34.3800000000    17.6470000000    25.7020000000
  210      H      34.6430000000    15.8810000000    25.6080000000
  211      H      33.2460000000    16.5320000000    24.7730000000
  212      O      33.9260000000    16.1150000000    28.2040000000
  213      C      26.0060000000    27.2090000000    28.0900000000
  214      H      26.6770000000    27.3570000000    28.9410000000
  215      H      26.5450000000    27.2610000000    27.1410000000
  216      H      25.1650000000    27.8950000000    27.9560000000
  217      S      25.0590000000    25.6740000000    28.1910000000
  218      C      26.5800000000    24.7150000000    28.3720000000
  219      H      26.2960000000    23.6600000000    28.3660000000
  220      H      27.2930000000    24.6960000000    27.5440000000
  221      H      27.0260000000    25.0470000000    29.3140000000
  222      O      24.7860000000    25.3750000000    26.7500000000
  223      C      20.0180000000    23.1730000000    29.5280000000
  224      H      19.4780000000    22.6920000000    28.7090000000
  225      H      20.3700000000    22.4060000000    30.2220000000
  226      H      19.3910000000    23.8020000000    30.1650000000
  227      S      21.2940000000    24.2310000000    28.8090000000
  228      C      22.4330000000    22.9800000000    28.1740000000
  229      H      22.8550000000    22.3980000000    28.9970000000
  230      H      21.8850000000    22.2720000000    27.5460000000
  231      H      23.1610000000    23.5900000000    27.6330000000
  232      O      21.9620000000    24.9010000000    29.9690000000
  233      C      17.9450000000    19.2950000000    22.4370000000
  234      H      18.8480000000    19.7820000000    22.0600000000
  235      H      18.0720000000    18.9600000000    23.4700000000
  236      H      17.6310000000    18.4000000000    21.8950000000
  237      S      16.5900000000    20.4900000000    22.4700000000
  238      C      16.9010000000    21.1000000000    20.7980000000
  239      H      16.9570000000    20.2140000000    20.1610000000
  240      H      16.0300000000    21.7180000000    20.5630000000
  241      H      17.8410000000    21.6320000000    20.6280000000
  242      O      17.1320000000    21.6090000000    23.3040000000
  243      C      35.4110000000    23.3300000000    24.8010000000
  244      H      36.3210000000    23.9000000000    24.6020000000
  245      H      35.5460000000    22.4400000000    25.4220000000
  246      H      34.9540000000    22.9090000000    23.9010000000
  247      S      34.2240000000    24.3780000000    25.6710000000
  248      C      32.8850000000    23.1650000000    25.6590000000
  249      H      32.8560000000    22.9300000000    24.5910000000
  250      H      33.1520000000    22.2940000000    26.2630000000
  251      H      31.9560000000    23.6310000000    25.9950000000
  252      O      33.8110000000    25.3220000000    24.5850000000
  253      C      28.1510000000    22.0830000000    30.3930000000
  254      H      28.0310000000    21.3550000000    29.5870000000
  255      H      28.3550000000    21.5800000000    31.3410000000
  256      H      27.2240000000    22.6620000000    30.3510000000
  257      S      29.5870000000    23.0650000000    29.9050000000
  258      C      29.6620000000    22.5790000000    28.1660000000
  259      H      30.7120000000    22.7230000000    27.9020000000
  260      H      29.5080000000    21.4990000000    28.0960000000
  261      H      29.1310000000    23.2330000000    27.4690000000
  262      O      30.7200000000    22.3580000000    30.5810000000
  263      C      23.5010000000    15.7380000000    25.3660000000
  264      H      23.3320000000    16.7850000000    25.6310000000
  265      H      22.8440000000    15.4680000000    24.5360000000
  266      H      23.1330000000    15.1620000000    26.2190000000
  267      S      25.2430000000    15.5140000000    24.9410000000
  268      C      25.1700000000    13.7090000000    24.8950000000
  269      H      26.1000000000    13.2500000000    24.5520000000
  270      H      24.8050000000    13.2640000000    25.8240000000
  271      H      24.3510000000    13.5560000000    24.1880000000
  272      O      26.0490000000    15.6900000000    26.1900000000
  273      C      29.9000000000    22.4570000000    22.7440000000
  274      H      30.3120000000    21.4570000000    22.8960000000
  275      H      30.0730000000    23.0520000000    23.6450000000
  276      H      28.8220000000    22.3830000000    22.5760000000
  277      S      30.5770000000    23.2460000000    21.2660000000
  278      C      32.1590000000    23.7030000000    22.0120000000
  279      H      32.6800000000    24.3640000000    21.3160000000
  280      H      31.9270000000    24.2590000000    22.9240000000
  281      H      32.7600000000    22.8030000000    22.1660000000
  282      O      29.8110000000    24.5300000000    21.1870000000
 ----------------------------------------------------------------
 Nuclear Repulsion Energy =       45613.56213065 hartrees
 There are      581 alpha and      581 beta electrons
 Requested basis set is 6-31+G(d)
 There are 929 shells and 2589 basis functions

 Total QAlloc Memory Limit  12000 MB
 Mega-Array Size      3911 MB
 MEM_STATIC part      4000 MB

 A cutoff of  1.0D-14 yielded 170233 shell pairs
 There are   1464598 function pairs
 Smallest overlap matrix eigenvalue = 2.87E-07
 Linear dependence detected in AO basis
 Tighter screening thresholds may be required for diffuse basis sets
 Use S2THRESH > 14 and THRESH = 14 in case of SCF convergence issues
 Number of orthogonalized atomic orbitals = 2586
 Maximum deviation from orthogonality = 7.367E-11

 Scale SEOQF with 1.000000e-03/1.000000e-03/1.000000e-03

 Standard Electronic Orientation quadrupole field applied
 Nucleus-field energy     =    -0.0000002460 hartrees
 Guess from superposition of atomic densities
 Warning:  Energy on first SCF cycle will be non-variational
 SAD guess density has 1162.000002 electrons

 -----------------------------------------------------------------------
  General SCF calculation program by
  Eric Jon Sundstrom, Paul Horn, Yuezhi Mao, Dmitri Zuev, Alec White,
  David Stuck, Shaama M.S., Shane Yost, Joonho Lee, David Small,
  Daniel Levine, Susi Lehtola, Hugh Burton, Evgeny Epifanovsky,
  Bang C. Huynh
 -----------------------------------------------------------------------
=================================================
        Doing projection-based embedding         
      F. Manby et al. JCTC, 8, 2564 (2012)       
=================================================

****************************************************
   Low-level SCF calculation for the whole system   
****************************************************
----------------------------------------------
 Summary of the low-level theory: 
 Exchange:     0.2000 Hartree-Fock + 0.0800 Slater + 0.7200 B88
 Correlation:  0.1900 VWN1RPA + 0.8100 LYP
 Using Euler-Maclaurin-Lebedev (75,302) quadrature formula
----------------------------------------------
 using 16 threads for integral computing
 -------------------------------------------------------
 OpenMP Integral computing Module                
 Release: version 1.0, May 2013, Q-Chem Inc. Pittsburgh 
 -------------------------------------------------------
 A restricted SCF calculation will be
 performed using DIIS
 SCF converges when DIIS error is below 1.0e-08
 ---------------------------------------
  Cycle       Energy         DIIS error
 ---------------------------------------
    1  -14806.1927424369      1.38e-02  
    2  -14782.8440899905      2.55e-03  
    3  -14769.8880245423      4.85e-03  
    4  -14786.5433050616      1.11e-03  
    5  -14787.5063751146      1.70e-04  
    6  -14787.5195691016      1.27e-04  
    7  -14787.5293146687      5.17e-05  
    8  -14787.5311019587      1.18e-05  
    9  -14787.5311986217      4.32e-06  
   10  -14787.5312104062      1.81e-06  
   11  -14787.5312124947      5.31e-07  
   12  -14787.5312126772      1.88e-07  
   13  -14787.5312127018      4.89e-08  
   14  -14787.5312127032      2.45e-08  
   15  -14787.5312127037      7.92e-09  Convergence criterion met
 ---------------------------------------
 SCF time:   CPU 255838.24s  wall 18219.00s 
 SCF   energy in the final basis set =   -14787.5312127037
 Total energy in the final basis set =   -14787.5312127037

****************************************************
             Start embedding calculation            
****************************************************
----------------------------------------------
 Summary of the high-level theory: 
 Exchange:     0.2000 Hartree-Fock + 0.0800 Slater + 0.7200 B88
 Correlation:  0.1900 VWN1RPA + 0.8100 LYP
 Using Euler-Maclaurin-Lebedev (75,302) quadrature formula
----------------------------------------------
Doing R-in-R Embedding Calculation
Number of fragments: 2
Embedded fragment(s): 1 
NOcc for each fragment
           35
          546
NBasis for each fragment
          197
         2392
Variational space of the embedded problem: 
NOcc (active)  = 35
NOcc (fixed)   = 546
NVir (total)   = 2005
Read converged orbitals from disk
=========================================================
       Doing SPADE partition for the orbital space       
     D. Claudino and N. Mayhall JCTC 15, 1053 (2019)     
=========================================================
SPADE singular values:
 1.0000 1.0000 1.0000 1.0000 1.0000 1.0000 1.0000 1.0000 1.0000 0.9999
 0.9998 0.9997 0.9996 0.9995 0.9994 0.9992 0.9990 0.9988 0.9984 0.9970
 0.9965 0.9961 0.9958 0.9954 0.9951 0.9944 0.9936 0.9929 0.9924 0.9921
 0.9898 0.9894 0.9864 0.9849 0.9779 0.2271 0.2186 0.1913 0.1683 0.1601
 0.1431 0.1394 0.1359 0.1182 0.1087 0.1047 0.0925 0.0874 0.0790 0.0719
 0.0669 0.0599 0.0515 0.0503 0.0465 0.0458 0.0441 0.0405 0.0394 0.0362
 0.0349 0.0310 0.0294 0.0284 0.0271 0.0241 0.0226 0.0217 0.0212 0.0203
 0.0196 0.0181 0.0169 0.0163 0.0159 0.0154 0.0145 0.0133 0.0128 0.0118
 0.0113 0.0109 0.0102 0.0095 0.0089 0.0085 0.0083 0.0078 0.0069 0.0067
 0.0063 0.0061 0.0059 0.0057 0.0056 0.0048 0.0046 0.0045 0.0044 0.0040
 0.0039 0.0036 0.0033 0.0032 0.0031 0.0030 0.0029 0.0027 0.0025 0.0025
 0.0024 0.0023 0.0022 0.0022 0.0021 0.0020 0.0019 0.0018 0.0017 0.0016
 0.0016 0.0015 0.0015 0.0015 0.0015 0.0014 0.0014 0.0013 0.0012 0.0012
 0.0012 0.0011 0.0011 0.0010 0.0010 0.0010 0.0009 0.0009 0.0008 0.0008
 0.0008 0.0007 0.0007 0.0007 0.0006 0.0006 0.0006 0.0005 0.0005 0.0005
 0.0005 0.0005 0.0004 0.0004 0.0004 0.0004 0.0004 0.0003 0.0003 0.0003
 0.0003 0.0003 0.0003 0.0003 0.0003 0.0002 0.0002 0.0002 0.0002 0.0002
 0.0002 0.0002 0.0002 0.0002 0.0002 0.0002 0.0002 0.0002 0.0002 0.0001
 0.0001 0.0001 0.0001 0.0001 0.0001 0.0001 0.0001 0.0001 0.0001 0.0001
 0.0001 0.0001 0.0001 0.0001 0.0001 0.0001 0.0001
Early stop requested; no embedded SCF will be performed

 546 environment occs will be part of frozen-core in future post-HF calculations

 --------------------------------------------------------------

                    Orbital Energies (a.u.)
 --------------------------------------------------------------

 Alpha MOs
 -- Occupied --
-89.0335 -89.0201 -89.0172 -89.0133 -89.0082 -89.0072 -89.0059 -89.0058
-89.0056 -89.0054 -89.0049 -89.0048 -89.0013 -89.0004 -88.9974 -88.9952
-88.9932 -88.9912 -88.9899 -88.9890 -88.9827 -88.9784 -88.9769 -88.9701
-88.9668 -88.9537 -19.1529 -19.1313 -19.1268 -19.1265 -19.1245 -19.1245
-19.1214 -19.1208 -19.1202 -19.1197 -19.1185 -19.1161 -19.1131 -19.1094
-19.1079 -19.1074 -19.1072 -19.1062 -19.1051 -19.1035 -19.0968 -19.0942
-19.0939 -19.0916 -19.0756 -19.0655 -10.2563 -10.2424 -10.2395 -10.2309
-10.2293 -10.2278 -10.2273 -10.2270 -10.2269 -10.2260 -10.2253 -10.2240
-10.2239 -10.2228 -10.2227 -10.2227 -10.2222 -10.2211 -10.2210 -10.2191
-10.2188 -10.2180 -10.2176 -10.2171 -10.2151 -10.2139 -10.2134 -10.2121
-10.2101 -10.2081 -10.2077 -10.2070 -10.2053 -10.2051 -10.2050 -10.2047
-10.2047 -10.2023 -10.2003 -10.1968 -10.1956 -10.1939 -10.1929 -10.1921
-10.1876 -10.1862 -10.1853 -10.1850 -10.1840 -10.1833 -10.1783 -10.1714
 -8.0792  -8.0660  -8.0631  -8.0581  -8.0545  -8.0529  -8.0527  -8.0518
 -8.0517  -8.0512  -8.0507  -8.0507  -8.0467  -8.0464  -8.0437  -8.0417
 -8.0389  -8.0366  -8.0351  -8.0349  -8.0279  -8.0240  -8.0226  -8.0159
 -8.0128  -7.9997  -6.0437  -6.0422  -6.0366  -6.0303  -6.0291  -6.0274
 -6.0262  -6.0236  -6.0227  -6.0212  -6.0206  -6.0189  -6.0175  -6.0175
 -6.0168  -6.0162  -6.0161  -6.0159  -6.0158  -6.0157  -6.0157  -6.0151
 -6.0149  -6.0149  -6.0147  -6.0142  -6.0139  -6.0138  -6.0120  -6.0112
 -6.0105  -6.0103  -6.0101  -6.0097  -6.0095  -6.0092  -6.0091  -6.0086
 -6.0082  -6.0081  -6.0079  -6.0067  -6.0059  -6.0047  -6.0043  -6.0041
 -6.0032  -6.0019  -6.0012  -6.0010  -5.9998  -5.9997  -5.9992  -5.9992
 -5.9982  -5.9980  -5.9965  -5.9938  -5.9924  -5.9924  -5.9921  -5.9911
 -5.9884  -5.9869  -5.9867  -5.9856  -5.9854  -5.9816  -5.9805  -5.9804
 -5.9791  -5.9772  -5.9760  -5.9729  -5.9700  -5.9641  -5.9630  -5.9568
 -1.0602  -1.0429  -1.0366  -1.0359  -1.0356  -1.0352  -1.0340  -1.0332
 -1.0330  -1.0292  -1.0287  -1.0285  -1.0275  -1.0228  -1.0206  -1.0199
 -1.0191  -1.0176  -1.0155  -1.0130  -1.0061  -1.0052  -1.0007  -1.0004
 -0.9872  -0.9739  -0.8411  -0.8234  -0.8137  -0.8132  -0.8126  -0.8113
 -0.8097  -0.8073  -0.8069  -0.8066  -0.8052  -0.7981  -0.7972  -0.7966
 -0.7943  -0.7933  -0.7911  -0.7909  -0.7908  -0.7895  -0.7879  -0.7815
 -0.7756  -0.7730  -0.7705  -0.7558  -0.7534  -0.7449  -0.7446  -0.7415
 -0.7371  -0.7360  -0.7360  -0.7330  -0.7315  -0.7301  -0.7297  -0.7280
 -0.7270  -0.7238  -0.7224  -0.7210  -0.7202  -0.7152  -0.7143  -0.7097
 -0.7076  -0.7045  -0.7037  -0.7025  -0.6949  -0.6902  -0.6459  -0.6335
 -0.6291  -0.6234  -0.6207  -0.6205  -0.6186  -0.6179  -0.6173  -0.6169
 -0.6160  -0.6145  -0.6142  -0.6119  -0.6088  -0.6069  -0.6056  -0.6048
 -0.6036  -0.5987  -0.5960  -0.5944  -0.5859  -0.5840  -0.5793  -0.5670
 -0.5183  -0.5074  -0.5057  -0.5026  -0.4955  -0.4944  -0.4938  -0.4922
 -0.4903  -0.4902  -0.4895  -0.4871  -0.4860  -0.4858  -0.4851  -0.4846
 -0.4845  -0.4829  -0.4816  -0.4811  -0.4807  -0.4786  -0.4783  -0.4776
 -0.4774  -0.4771  -0.4770  -0.4755  -0.4749  -0.4741  -0.4737  -0.4732
 -0.4718  -0.4717  -0.4711  -0.4705  -0.4699  -0.4691  -0.4687  -0.4685
 -0.4679  -0.4667  -0.4665  -0.4651  -0.4643  -0.4631  -0.4617  -0.4610
 -0.4607  -0.4603  -0.4602  -0.4592  -0.4583  -0.4581  -0.4577  -0.4573
 -0.4571  -0.4563  -0.4558  -0.4552  -0.4539  -0.4523  -0.4514  -0.4504
 -0.4490  -0.4482  -0.4479  -0.4473  -0.4471  -0.4465  -0.4444  -0.4440
 -0.4425  -0.4417  -0.4407  -0.4397  -0.4397  -0.4390  -0.4387  -0.4363
 -0.4356  -0.4352  -0.4343  -0.4341  -0.4313  -0.4311  -0.4292  -0.4290
 -0.4288  -0.4285  -0.4267  -0.4247  -0.4240  -0.4237  -0.4228  -0.4224
 -0.4223  -0.4209  -0.4208  -0.4200  -0.4191  -0.4182  -0.4176  -0.4175
 -0.4169  -0.4166  -0.4162  -0.4153  -0.4150  -0.4140  -0.4135  -0.4127
 -0.4125  -0.4118  -0.4117  -0.4115  -0.4112  -0.4097  -0.4095  -0.4092
 -0.4084  -0.4071  -0.4061  -0.4054  -0.4053  -0.4036  -0.4033  -0.4014
 -0.4006  -0.4004  -0.4000  -0.3998  -0.3989  -0.3988  -0.3977  -0.3972
 -0.3968  -0.3951  -0.3920  -0.3913  -0.3892  -0.3880  -0.3869  -0.3853
 -0.3845  -0.3824  -0.3804  -0.3775  -0.3766  -0.3763  -0.3739  -0.3737
 -0.3736  -0.3733  -0.3727  -0.3722  -0.3716  -0.3708  -0.3702  -0.3694
 -0.3672  -0.3665  -0.3664  -0.3662  -0.3658  -0.3645  -0.3633  -0.3619
 -0.3605  -0.3586  -0.3567  -0.3549  -0.3544  -0.3538  -0.3521  -0.3517
 -0.3461  -0.3446  -0.3419  -0.3361  -0.3307  -0.3148  -0.3112  -0.2935
 -0.2896  -0.2877  -0.2854  -0.2844  -0.2841  -0.2834  -0.2814  -0.2801
 -0.2783  -0.2772  -0.2741  -0.2736  -0.2707  -0.2688  -0.2681  -0.2676
 -0.2662  -0.2639  -0.2603  -0.2601  -0.2572  -0.2556  -0.2552  -0.2546
 -0.2538  -0.2534  -0.2503  -0.2497  -0.2492  -0.2481  -0.2470  -0.2468
 -0.2454  -0.2445  -0.2427  -0.2400  -0.2389  -0.2378  -0.2378  -0.2370
 -0.2293  -0.2290  -0.2287  -0.2275  -0.2244  -0.2239  -0.2214  -0.2133
 -0.1998  -0.1873 -10.4001 -13.3191 -11.7115 -10.4010 -13.5536 -10.4229
-12.3745 -10.5954 -11.2480  -0.7283  -0.7636  -0.9588  -0.6860  -0.6441
 -0.6361  -0.8299  -0.7271  -0.4671  -0.4418  -0.4852  -0.4732  -0.4466
 -0.4506  -0.4407  -0.4160  -0.4317  -0.4220  -0.4390  -0.4394  -0.4460
 -0.4968  -0.3946  -0.5372  -0.4817  -0.5789
 -- Virtual --
 -0.0397  -0.0335  -0.0263  -0.0241  -0.0198  -0.0180  -0.0177  -0.0153
 -0.0149  -0.0123  -0.0122  -0.0112  -0.0097  -0.0086  -0.0083  -0.0072
 -0.0067  -0.0052  -0.0050  -0.0035  -0.0028  -0.0021  -0.0009  -0.0005
 -0.0002   0.0005   0.0011   0.0022   0.0027   0.0042   0.0054   0.0059
  0.0066   0.0070   0.0080   0.0090   0.0092   0.0094   0.0103   0.0110
  0.0115   0.0134   0.0137   0.0142   0.0153   0.0157   0.0171   0.0174
  0.0176   0.0180   0.0187   0.0198   0.0203   0.0208   0.0212   0.0219
  0.0225   0.0229   0.0243   0.0250   0.0254   0.0261   0.0277   0.0283
  0.0292   0.0292   0.0298   0.0306   0.0321   0.0327   0.0330   0.0339
  0.0343   0.0346   0.0358   0.0363   0.0371   0.0376   0.0382   0.0392
  0.0398   0.0406   0.0413   0.0421   0.0422   0.0429   0.0438   0.0444
  0.0450   0.0453   0.0464   0.0469   0.0480   0.0490   0.0498   0.0507
  0.0511   0.0516   0.0524   0.0528   0.0537   0.0539   0.0546   0.0552
  0.0561   0.0565   0.0571   0.0575   0.0583   0.0585   0.0597   0.0598
  0.0606   0.0612   0.0624   0.0627   0.0638   0.0644   0.0645   0.0654
  0.0660   0.0670   0.0680   0.0688   0.0692   0.0697   0.0708   0.0711
  0.0727   0.0735   0.0741   0.0744   0.0754   0.0762   0.0769   0.0771
  0.0773   0.0781   0.0796   0.0801   0.0804   0.0815   0.0820   0.0827
  0.0828   0.0834   0.0838   0.0843   0.0847   0.0853   0.0859   0.0861
  0.0872   0.0872   0.0888   0.0893   0.0901   0.0911   0.0914   0.0917
  0.0932   0.0937   0.0937   0.0949   0.0952   0.0962   0.0971   0.0984
  0.0989   0.0995   0.1005   0.1009   0.1017   0.1020   0.1024   0.1031
  0.1035   0.1041   0.1046   0.1051   0.1055   0.1071   0.1076   0.1080
  0.1086   0.1090   0.1095   0.1104   0.1105   0.1113   0.1123   0.1128
  0.1135   0.1142   0.1147   0.1163   0.1166   0.1178   0.1179   0.1187
  0.1190   0.1195   0.1200   0.1214   0.1217   0.1231   0.1233   0.1239
  0.1247   0.1248   0.1255   0.1261   0.1276   0.1284   0.1286   0.1297
  0.1302   0.1304   0.1312   0.1320   0.1330   0.1332   0.1345   0.1352
  0.1352   0.1366   0.1367   0.1378   0.1386   0.1389   0.1392   0.1397
  0.1406   0.1414   0.1416   0.1425   0.1433   0.1438   0.1444   0.1449
  0.1455   0.1462   0.1469   0.1476   0.1487   0.1489   0.1492   0.1496
  0.1504   0.1507   0.1517   0.1519   0.1526   0.1533   0.1539   0.1544
  0.1547   0.1549   0.1566   0.1569   0.1575   0.1579   0.1586   0.1594
  0.1605   0.1607   0.1611   0.1618   0.1620   0.1624   0.1636   0.1640
  0.1650   0.1652   0.1659   0.1663   0.1671   0.1681   0.1684   0.1687
  0.1696   0.1704   0.1707   0.1711   0.1727   0.1735   0.1736   0.1741
  0.1746   0.1749   0.1756   0.1762   0.1771   0.1776   0.1784   0.1789
  0.1798   0.1804   0.1813   0.1817   0.1821   0.1831   0.1835   0.1839
  0.1843   0.1853   0.1858   0.1862   0.1866   0.1874   0.1885   0.1888
  0.1899   0.1906   0.1913   0.1917   0.1925   0.1926   0.1933   0.1934
  0.1939   0.1951   0.1956   0.1960   0.1966   0.1977   0.1981   0.1990
  0.1998   0.2002   0.2010   0.2017   0.2027   0.2028   0.2035   0.2039
  0.2045   0.2049   0.2055   0.2062   0.2076   0.2079   0.2087   0.2088
  0.2094   0.2107   0.2111   0.2117   0.2124   0.2131   0.2137   0.2146
  0.2146   0.2154   0.2160   0.2162   0.2172   0.2179   0.2183   0.2189
  0.2194   0.2202   0.2210   0.2216   0.2223   0.2235   0.2237   0.2247
  0.2251   0.2262   0.2270   0.2275   0.2278   0.2287   0.2291   0.2295
  0.2313   0.2315   0.2319   0.2323   0.2332   0.2335   0.2340   0.2344
  0.2348   0.2363   0.2366   0.2371   0.2379   0.2380   0.2392   0.2398
  0.2402   0.2408   0.2419   0.2426   0.2432   0.2442   0.2449   0.2452
  0.2465   0.2469   0.2474   0.2480   0.2484   0.2487   0.2505   0.2507
  0.2512   0.2525   0.2531   0.2533   0.2542   0.2547   0.2555   0.2555
  0.2568   0.2576   0.2581   0.2590   0.2595   0.2599   0.2608   0.2615
  0.2619   0.2626   0.2631   0.2642   0.2649   0.2654   0.2666   0.2672
  0.2680   0.2688   0.2693   0.2703   0.2713   0.2719   0.2726   0.2742
  0.2749   0.2753   0.2759   0.2771   0.2776   0.2783   0.2790   0.2795
  0.2804   0.2820   0.2827   0.2832   0.2836   0.2841   0.2851   0.2866
  0.2880   0.2883   0.2890   0.2894   0.2900   0.2909   0.2913   0.2919
  0.2930   0.2941   0.2949   0.2956   0.2963   0.2977   0.2983   0.2991
  0.2994   0.3011   0.3017   0.3021   0.3029   0.3042   0.3048   0.3056
  0.3064   0.3067   0.3077   0.3094   0.3098   0.3104   0.3118   0.3122
  0.3127   0.3132   0.3138   0.3150   0.3157   0.3162   0.3174   0.3188
  0.3191   0.3199   0.3209   0.3219   0.3227   0.3232   0.3246   0.3251
  0.3258   0.3270   0.3270   0.3290   0.3299   0.3309   0.3312   0.3320
  0.3322   0.3341   0.3351   0.3368   0.3372   0.3383   0.3389   0.3401
  0.3413   0.3419   0.3423   0.3428   0.3436   0.3454   0.3459   0.3462
  0.3468   0.3481   0.3493   0.3503   0.3511   0.3517   0.3526   0.3541
  0.3543   0.3557   0.3569   0.3572   0.3590   0.3596   0.3604   0.3612
  0.3622   0.3627   0.3636   0.3645   0.3658   0.3663   0.3677   0.3680
  0.3688   0.3700   0.3707   0.3718   0.3735   0.3741   0.3751   0.3759
  0.3768   0.3777   0.3790   0.3795   0.3812   0.3813   0.3828   0.3833
  0.3838   0.3848   0.3857   0.3863   0.3875   0.3881   0.3885   0.3903
  0.3919   0.3928   0.3931   0.3942   0.3954   0.3964   0.3967   0.3973
  0.3986   0.3991   0.4000   0.4004   0.4012   0.4017   0.4035   0.4045
  0.4053   0.4062   0.4075   0.4088   0.4089   0.4101   0.4116   0.4118
  0.4130   0.4143   0.4150   0.4159   0.4168   0.4176   0.4193   0.4199
  0.4205   0.4216   0.4230   0.4247   0.4258   0.4262   0.4265   0.4293
  0.4298   0.4313   0.4318   0.4330   0.4337   0.4343   0.4360   0.4364
  0.4381   0.4396   0.4402   0.4420   0.4424   0.4437   0.4447   0.4453
  0.4464   0.4479   0.4497   0.4505   0.4512   0.4537   0.4542   0.4560
  0.4563   0.4580   0.4589   0.4598   0.4606   0.4623   0.4642   0.4647
  0.4656   0.4666   0.4686   0.4692   0.4706   0.4724   0.4750   0.4771
  0.4773   0.4780   0.4787   0.4795   0.4818   0.4831   0.4842   0.4847
  0.4866   0.4874   0.4890   0.4913   0.4917   0.4935   0.4943   0.4965
  0.4982   0.4984   0.5008   0.5023   0.5030   0.5049   0.5057   0.5085
  0.5091   0.5107   0.5119   0.5129   0.5145   0.5169   0.5176   0.5187
  0.5211   0.5229   0.5239   0.5257   0.5265   0.5275   0.5291   0.5304
  0.5319   0.5328   0.5341   0.5359   0.5366   0.5394   0.5406   0.5416
  0.5439   0.5468   0.5474   0.5500   0.5518   0.5521   0.5534   0.5564
  0.5571   0.5589   0.5616   0.5628   0.5636   0.5651   0.5667   0.5692
  0.5707   0.5726   0.5732   0.5744   0.5757   0.5785   0.5795   0.5802
  0.5824   0.5839   0.5855   0.5877   0.5901   0.5911   0.5919   0.5936
  0.5939   0.5951   0.5961   0.5971   0.5987   0.6001   0.6008   0.6038
  0.6050   0.6070   0.6092   0.6108   0.6118   0.6129   0.6156   0.6160
  0.6169   0.6173   0.6198   0.6205   0.6219   0.6228   0.6244   0.6259
  0.6279   0.6288   0.6296   0.6315   0.6336   0.6344   0.6359   0.6374
  0.6390   0.6397   0.6404   0.6416   0.6433   0.6443   0.6455   0.6478
  0.6493   0.6501   0.6512   0.6513   0.6532   0.6541   0.6556   0.6560
  0.6570   0.6580   0.6600   0.6615   0.6620   0.6635   0.6652   0.6655
  0.6671   0.6678   0.6684   0.6702   0.6712   0.6732   0.6735   0.6759
  0.6762   0.6775   0.6794   0.6806   0.6809   0.6816   0.6821   0.6823
  0.6842   0.6859   0.6867   0.6870   0.6878   0.6892   0.6906   0.6921
  0.6935   0.6940   0.6956   0.6967   0.6972   0.6984   0.7004   0.7007
  0.7027   0.7044   0.7056   0.7062   0.7072   0.7086   0.7098   0.7116
  0.7134   0.7142   0.7157   0.7165   0.7172   0.7190   0.7193   0.7213
  0.7217   0.7228   0.7238   0.7262   0.7280   0.7287   0.7298   0.7315
  0.7323   0.7342   0.7348   0.7363   0.7380   0.7392   0.7405   0.7427
  0.7451   0.7462   0.7485   0.7489   0.7497   0.7517   0.7535   0.7543
  0.7565   0.7575   0.7594   0.7601   0.7614   0.7624   0.7649   0.7661
  0.7679   0.7701   0.7706   0.7719   0.7725   0.7740   0.7765   0.7777
  0.7792   0.7801   0.7823   0.7836   0.7848   0.7872   0.7900   0.7918
  0.7921   0.7929   0.7948   0.7962   0.7982   0.7996   0.8010   0.8028
  0.8038   0.8058   0.8081   0.8096   0.8113   0.8121   0.8132   0.8154
  0.8163   0.8169   0.8198   0.8213   0.8217   0.8235   0.8254   0.8266
  0.8273   0.8296   0.8307   0.8324   0.8349   0.8353   0.8376   0.8394
  0.8402   0.8415   0.8433   0.8445   0.8468   0.8473   0.8479   0.8488
  0.8503   0.8521   0.8525   0.8538   0.8560   0.8583   0.8587   0.8613
  0.8619   0.8627   0.8632   0.8656   0.8663   0.8672   0.8687   0.8697
  0.8717   0.8727   0.8734   0.8745   0.8765   0.8773   0.8780   0.8797
  0.8808   0.8810   0.8830   0.8848   0.8868   0.8876   0.8891   0.8902
  0.8920   0.8930   0.8935   0.8946   0.8968   0.8978   0.8986   0.9004
  0.9010   0.9022   0.9030   0.9041   0.9055   0.9076   0.9078   0.9083
  0.9117   0.9127   0.9142   0.9161   0.9172   0.9176   0.9194   0.9200
  0.9206   0.9226   0.9239   0.9245   0.9271   0.9276   0.9291   0.9303
  0.9315   0.9330   0.9331   0.9341   0.9353   0.9376   0.9391   0.9398
  0.9405   0.9421   0.9433   0.9435   0.9438   0.9447   0.9456   0.9470
  0.9487   0.9490   0.9511   0.9514   0.9526   0.9550   0.9552   0.9566
  0.9577   0.9597   0.9605   0.9613   0.9617   0.9618   0.9632   0.9655
  0.9674   0.9680   0.9706   0.9714   0.9726   0.9737   0.9744   0.9755
  0.9768   0.9783   0.9797   0.9810   0.9816   0.9821   0.9824   0.9842
  0.9848   0.9867   0.9876   0.9897   0.9906   0.9919   0.9932   0.9941
  0.9952   0.9973   0.9988   0.9996   1.0011   1.0014   1.0029   1.0045
  1.0057   1.0062   1.0075   1.0085   1.0091   1.0106   1.0114   1.0123
  1.0133   1.0146   1.0163   1.0167   1.0171   1.0188   1.0197   1.0201
  1.0231   1.0257   1.0266   1.0277   1.0283   1.0297   1.0310   1.0320
  1.0328   1.0340   1.0349   1.0358   1.0370   1.0379   1.0387   1.0407
  1.0416   1.0433   1.0436   1.0450   1.0465   1.0475   1.0490   1.0499
  1.0510   1.0524   1.0539   1.0550   1.0556   1.0562   1.0582   1.0586
  1.0597   1.0621   1.0637   1.0645   1.0655   1.0673   1.0688   1.0702
  1.0713   1.0733   1.0748   1.0761   1.0768   1.0777   1.0784   1.0804
  1.0812   1.0826   1.0830   1.0857   1.0859   1.0876   1.0882   1.0890
  1.0909   1.0934   1.0962   1.0973   1.0974   1.0992   1.1004   1.1026
  1.1047   1.1059   1.1063   1.1093   1.1110   1.1124   1.1128   1.1139
  1.1158   1.1174   1.1195   1.1202   1.1220   1.1233   1.1253   1.1272
  1.1280   1.1295   1.1297   1.1318   1.1336   1.1339   1.1350   1.1365
  1.1378   1.1393   1.1410   1.1421   1.1443   1.1455   1.1463   1.1474
  1.1490   1.1506   1.1516   1.1537   1.1549   1.1562   1.1570   1.1581
  1.1590   1.1605   1.1628   1.1634   1.1647   1.1663   1.1667   1.1691
  1.1696   1.1718   1.1724   1.1742   1.1773   1.1780   1.1795   1.1806
  1.1817   1.1829   1.1849   1.1874   1.1891   1.1904   1.1913   1.1927
  1.1934   1.1948   1.1970   1.1975   1.1988   1.2000   1.2017   1.2027
  1.2058   1.2066   1.2082   1.2104   1.2127   1.2152   1.2171   1.2190
  1.2212   1.2224   1.2235   1.2262   1.2288   1.2302   1.2321   1.2347
  1.2366   1.2383   1.2399   1.2418   1.2431   1.2448   1.2461   1.2496
  1.2517   1.2530   1.2552   1.2575   1.2591   1.2622   1.2636   1.2649
  1.2651   1.2702   1.2718   1.2738   1.2744   1.2797   1.2809   1.2837
  1.2866   1.2879   1.2936   1.2952   1.2955   1.2986   1.3002   1.3009
  1.3022   1.3037   1.3067   1.3099   1.3112   1.3119   1.3143   1.3171
  1.3179   1.3199   1.3234   1.3243   1.3278   1.3293   1.3329   1.3366
  1.3378   1.3387   1.3419   1.3436   1.3449   1.3467   1.3485   1.3505
  1.3520   1.3542   1.3568   1.3574   1.3594   1.3618   1.3628   1.3650
  1.3684   1.3711   1.3718   1.3733   1.3761   1.3786   1.3789   1.3815
  1.3824   1.3846   1.3849   1.3880   1.3889   1.3893   1.3917   1.3925
  1.3949   1.3956   1.3966   1.3993   1.4006   1.4019   1.4025   1.4045
  1.4064   1.4078   1.4099   1.4107   1.4120   1.4133   1.4154   1.4171
  1.4185   1.4191   1.4210   1.4232   1.4243   1.4248   1.4268   1.4287
  1.4305   1.4313   1.4330   1.4340   1.4354   1.4365   1.4384   1.4392
  1.4422   1.4430   1.4442   1.4467   1.4479   1.4500   1.4507   1.4520
  1.4531   1.4554   1.4567   1.4590   1.4604   1.4613   1.4627   1.4650
  1.4673   1.4676   1.4706   1.4727   1.4744   1.4770   1.4797   1.4813
  1.4820   1.4833   1.4857   1.4863   1.4881   1.4891   1.4920   1.4945
  1.4958   1.4991   1.5024   1.5039   1.5056   1.5064   1.5086   1.5106
  1.5120   1.5138   1.5151   1.5172   1.5175   1.5189   1.5225   1.5251
  1.5258   1.5282   1.5306   1.5333   1.5353   1.5380   1.5413   1.5458
  1.5482   1.5496   1.5532   1.5567   1.5603   1.5632   1.5636   1.5661
  1.5689   1.5708   1.5765   1.5819   1.5839   1.5860   1.5866   1.5914
  1.5949   1.6018   1.6034   1.6079   1.6123   1.6166   1.6194   1.6231
  1.6316   1.6368   1.6387   1.6409   1.6429   1.6466   1.6483   1.6491
  1.6543   1.6561   1.6568   1.6603   1.6625   1.6653   1.6669   1.6685
  1.6710   1.6731   1.6758   1.6777   1.6781   1.6800   1.6828   1.6829
  1.6856   1.6867   1.6875   1.6891   1.6905   1.6918   1.6935   1.6942
  1.6951   1.6956   1.6971   1.6988   1.7001   1.7014   1.7024   1.7042
  1.7045   1.7063   1.7082   1.7083   1.7091   1.7104   1.7111   1.7133
  1.7152   1.7158   1.7171   1.7179   1.7180   1.7205   1.7214   1.7242
  1.7247   1.7264   1.7287   1.7290   1.7316   1.7324   1.7340   1.7351
  1.7358   1.7370   1.7398   1.7409   1.7418   1.7424   1.7441   1.7460
  1.7478   1.7482   1.7488   1.7509   1.7518   1.7538   1.7552   1.7569
  1.7572   1.7592   1.7603   1.7614   1.7647   1.7676   1.7679   1.7703
  1.7708   1.7721   1.7727   1.7749   1.7758   1.7784   1.7791   1.7809
  1.7827   1.7840   1.7847   1.7870   1.7878   1.7906   1.7940   1.7966
  1.8004   1.8023   1.8036   1.8063   1.8069   1.8088   1.8096   1.8137
  1.8140   1.8172   1.8197   1.8202   1.8225   1.8254   1.8270   1.8278
  1.8322   1.8360   1.8405   1.8448   1.8475   1.8488   1.8495   1.8543
  1.8561   1.8584   1.8597   1.8647   1.8679   1.8696   1.8731   1.8755
  1.8774   1.8796   1.8801   1.8831   1.8846   1.8871   1.8901   1.8910
  1.8921   1.8926   1.8940   1.8945   1.8961   1.8964   1.8994   1.9007
  1.9020   1.9022   1.9046   1.9055   1.9075   1.9087   1.9096   1.9112
  1.9116   1.9135   1.9147   1.9167   1.9172   1.9189   1.9201   1.9202
  1.9213   1.9224   1.9245   1.9256   1.9264   1.9276   1.9294   1.9303
  1.9322   1.9332   1.9338   1.9348   1.9389   1.9410   1.9440   1.9450
  1.9461   1.9476   1.9507   1.9519   1.9532   1.9561   1.9573   1.9580
  1.9587   1.9606   1.9626   1.9665   1.9737   1.9770   1.9792   1.9834
  1.9848   1.9901   1.9974   2.0005   2.0064   2.0115   2.0203   2.0234
  2.0379   2.0391   2.0498   2.0530   2.0545   2.0557   2.0567   2.0632
  2.0649   2.0652   2.0660   2.0695   2.0697   2.0709   2.0717   2.0759
  2.0762   2.0770   2.0788   2.0797   2.0805   2.0823   2.0836   2.0858
  2.0867   2.0871   2.0883   2.0895   2.0902   2.0913   2.0918   2.0950
  2.0956   2.0972   2.0978   2.0980   2.0989   2.1015   2.1039   2.1042
  2.1053   2.1065   2.1069   2.1096   2.1099   2.1119   2.1150   2.1186
  2.1193   2.1213   2.1238   2.1268   2.1298   2.1321   2.1364   2.1372
  2.1401   2.1428   2.1491   2.1633   2.1645   2.1693   2.1704   2.1735
  2.1802   2.1841   2.1859   2.1897   2.1924   2.1946   2.1966   2.1980
  2.1984   2.2013   2.2021   2.2045   2.2074   2.2088   2.2123   2.2143
  2.2157   2.2189   2.2213   2.2227   2.2244   2.2261   2.2279   2.2285
  2.2292   2.2297   2.2310   2.2336   2.2362   2.2371   2.2379   2.2398
  2.2410   2.2425   2.2450   2.2460   2.2474   2.2482   2.2494   2.2505
  2.2508   2.2532   2.2539   2.2549   2.2569   2.2574   2.2588   2.2590
  2.2599   2.2610   2.2630   2.2640   2.2649   2.2653   2.2655   2.2662
  2.2676   2.2684   2.2691   2.2706   2.2713   2.2717   2.2729   2.2732
  2.2743   2.2750   2.2760   2.2771   2.2777   2.2786   2.2793   2.2797
  2.2806   2.2810   2.2818   2.2837   2.2844   2.2868   2.2870   2.2883
  2.2901   2.2910   2.2927   2.2939   2.2944   2.2957   2.2963   2.2986
  2.2991   2.3012   2.3018   2.3028   2.3036   2.3040   2.3060   2.3079
  2.3087   2.3095   2.3111   2.3127   2.3143   2.3145   2.3152   2.3174
  2.3179   2.3196   2.3207   2.3216   2.3228   2.3241   2.3251   2.3264
  2.3271   2.3273   2.3294   2.3304   2.3307   2.3330   2.3341   2.3342
  2.3353   2.3362   2.3374   2.3398   2.3403   2.3412   2.3430   2.3431
  2.3466   2.3478   2.3496   2.3514   2.3529   2.3551   2.3581   2.3607
  2.3615   2.3638   2.3645   2.3663   2.3683   2.3701   2.3715   2.3725
  2.3778   2.3811   2.3817   2.3871   2.3898   2.3907   2.3962   2.3980
  2.4015   2.4060   2.4103   2.4182   2.4204   2.4243   2.4258   2.4344
  2.4470   2.4632   2.4828   2.5170   2.5265   2.5529   2.5731   2.6796
  2.7257   2.7648   2.7890   2.8191   2.8224   2.8290   2.8392   2.8396
  2.8409   2.8412   2.8431   2.8434   2.8452   2.8477   2.8517   2.8530
  2.8606   2.8617   2.8634   2.8661   2.8666   2.8690   2.8699   2.8712
  2.8741   2.8750   2.8787   2.8797   2.8869   2.8880   2.8903   2.9077
  2.9213   2.9469   3.1146   3.2765   3.9613   3.9618   3.9644   3.9669
  3.9703   3.9714   3.9759   3.9776   3.9817   3.9842   3.9879   3.9925
  3.9931   3.9983   4.0021   4.0027   4.0048   4.0085   4.0135   4.0146
  4.0200   4.0206   4.0259   4.0271   4.0456   4.0523   4.2370   4.2389
  4.2406   4.2427   4.2449   4.2484   4.2506   4.2531   4.2576   4.2595
  4.2619   4.2653   4.2712   4.2732   4.2738   4.2771   4.2806   4.2842
  4.2860   4.2886   4.2898   4.2927   4.2944   4.2972   4.2998   4.3036
  4.3073   4.3087   4.3103   4.3106   4.3124   4.3166   4.3213   4.3223
  4.3237   4.3248   4.3296   4.3329   4.3365   4.3410   4.3415   4.3446
  4.3477   4.3528   4.3539   4.3567   4.3590   4.3648   4.3655   4.3688
  4.3713   4.3735   4.3766   4.3885   4.3963   4.3977   4.4031   4.4078
  4.4157   4.4185   4.4226   4.4297   4.4361   4.4412   4.4465   4.4513
  4.4579   4.4588   4.4649   4.4676   4.4696   4.4802   4.4832   4.4958
  4.5031   4.5306   4.5428   4.5509   4.5638   4.5811   4.6060   4.6206
  4.6833   4.7313   4.7688   4.8018   5.0276
 --------------------------------------------------------------

          Ground-State Mulliken Net Atomic Charges

     Atom                 Charge (a.u.)
  ----------------------------------------
      1 C                    -0.476911
      2 C                    -0.546782
      3 C                    -0.933891
      4 C                    -0.365153
      5 C                    -0.464621
      6 C                     0.020866
      7 H                     0.241564
      8 H                     0.220757
      9 H                     0.258764
     10 H                     0.204301
     11 H                     0.207132
     12 H                     0.201243
     13 H                     0.202760
     14 H                     0.179708
     15 H                     0.198601
     16 H                     0.207688
     17 H                     0.212270
     18 N                    -0.111833
     19 H                     0.507506
     20 C                     0.030468
     21 H                     0.190850
     22 O                    -0.216051
     23 C                    -0.867236
     24 H                     0.240926
     25 H                     0.256855
     26 H                     0.278669
     27 S                     0.951005
     28 C                    -0.859426
     29 H                     0.254061
     30 H                     0.254914
     31 H                     0.206336
     32 O                    -0.712866
     33 C                    -0.884947
     34 H                     0.273421
     35 H                     0.286668
     36 H                     0.247674
     37 S                     1.117112
     38 C                    -1.044025
     39 H                     0.249998
     40 H                     0.239351
     41 H                     0.254288
     42 O                    -0.629944
     43 C                    -0.885410
     44 H                     0.250305
     45 H                     0.267621
     46 H                     0.266379
     47 S                     0.975869
     48 C                    -0.933334
     49 H                     0.235076
     50 H                     0.248976
     51 H                     0.283774
     52 O                    -0.666817
     53 C                    -1.005114
     54 H                     0.254253
     55 H                     0.254289
     56 H                     0.299102
     57 S                     0.915727
     58 C                    -0.900465
     59 H                     0.260605
     60 H                     0.256135
     61 H                     0.253971
     62 O                    -0.686974
     63 C                    -0.900055
     64 H                     0.284581
     65 H                     0.249628
     66 H                     0.276454
     67 S                     0.887859
     68 C                    -0.865023
     69 H                     0.264738
     70 H                     0.273873
     71 H                     0.271514
     72 O                    -0.702119
     73 C                    -0.784289
     74 H                     0.250196
     75 H                     0.220740
     76 H                     0.271413
     77 S                     0.922732
     78 C                    -0.823445
     79 H                     0.250021
     80 H                     0.221785
     81 H                     0.305538
     82 O                    -0.786791
     83 C                    -0.766085
     84 H                     0.255831
     85 H                     0.234033
     86 H                     0.248205
     87 S                     0.846033
     88 C                    -0.850861
     89 H                     0.285821
     90 H                     0.238462
     91 H                     0.239472
     92 O                    -0.695211
     93 C                    -0.988127
     94 H                     0.230266
     95 H                     0.267786
     96 H                     0.257619
     97 S                     0.761891
     98 C                    -0.909905
     99 H                     0.269755
    100 H                     0.286139
    101 H                     0.260409
    102 O                    -0.605286
    103 C                    -0.841917
    104 H                     0.225139
    105 H                     0.282830
    106 H                     0.270241
    107 S                     0.957946
    108 C                    -0.891080
    109 H                     0.230767
    110 H                     0.248898
    111 H                     0.292325
    112 O                    -0.647380
    113 C                    -0.988077
    114 H                     0.301595
    115 H                     0.219495
    116 H                     0.269993
    117 S                     1.062811
    118 C                    -0.862568
    119 H                     0.255758
    120 H                     0.268903
    121 H                     0.242333
    122 O                    -0.631353
    123 C                    -1.066144
    124 H                     0.258786
    125 H                     0.241335
    126 H                     0.244650
    127 S                     0.970713
    128 C                    -0.763881
    129 H                     0.240451
    130 H                     0.248241
    131 H                     0.264176
    132 O                    -0.703614
    133 C                    -0.722923
    134 H                     0.263743
    135 H                     0.250060
    136 H                     0.267397
    137 S                     0.541591
    138 C                    -0.666854
    139 H                     0.242906
    140 H                     0.259653
    141 H                     0.254924
    142 O                    -0.674726
    143 C                    -1.111778
    144 H                     0.259848
    145 H                     0.289377
    146 H                     0.254264
    147 S                     1.010672
    148 C                    -0.877694
    149 H                     0.253337
    150 H                     0.280244
    151 H                     0.234002
    152 O                    -0.665068
    153 C                    -0.751761
    154 H                     0.254861
    155 H                     0.245883
    156 H                     0.273154
    157 S                     0.729147
    158 C                    -0.825916
    159 H                     0.231151
    160 H                     0.242109
    161 H                     0.293242
    162 O                    -0.718094
    163 C                    -1.086382
    164 H                     0.278092
    165 H                     0.277063
    166 H                     0.298888
    167 S                     1.073703
    168 C                    -0.962728
    169 H                     0.272565
    170 H                     0.225700
    171 H                     0.236916
    172 O                    -0.702282
    173 C                    -0.778066
    174 H                     0.255036
    175 H                     0.315239
    176 H                     0.251196
    177 S                     0.947996
    178 C                    -0.903445
    179 H                     0.239189
    180 H                     0.250778
    181 H                     0.315938
    182 O                    -0.749956
    183 C                    -1.053630
    184 H                     0.271815
    185 H                     0.224243
    186 H                     0.313371
    187 S                     1.297606
    188 C                    -1.084287
    189 H                     0.250867
    190 H                     0.247101
    191 H                     0.271963
    192 O                    -0.722342
    193 C                    -1.002667
    194 H                     0.265340
    195 H                     0.300957
    196 H                     0.237517
    197 S                     1.125753
    198 C                    -0.993549
    199 H                     0.254013
    200 H                     0.248170
    201 H                     0.283147
    202 O                    -0.697542
    203 C                    -1.016565
    204 H                     0.272872
    205 H                     0.261561
    206 H                     0.256077
    207 S                     0.915905
    208 C                    -0.834650
    209 H                     0.263381
    210 H                     0.257025
    211 H                     0.278191
    212 O                    -0.701019
    213 C                    -0.902231
    214 H                     0.241443
    215 H                     0.263317
    216 H                     0.230524
    217 S                     1.106544
    218 C                    -1.309018
    219 H                     0.243890
    220 H                     0.317761
    221 H                     0.309158
    222 O                    -0.620322
    223 C                    -1.121441
    224 H                     0.246624
    225 H                     0.250618
    226 H                     0.253430
    227 S                     0.828033
    228 C                    -0.851588
    229 H                     0.293098
    230 H                     0.293746
    231 H                     0.266015
    232 O                    -0.613832
    233 C                    -0.807706
    234 H                     0.236834
    235 H                     0.274735
    236 H                     0.268634
    237 S                     0.913582
    238 C                    -0.849849
    239 H                     0.230550
    240 H                     0.243970
    241 H                     0.264066
    242 O                    -0.717939
    243 C                    -0.846525
    244 H                     0.246138
    245 H                     0.228246
    246 H                     0.289144
    247 S                     1.004972
    248 C                    -1.007959
    249 H                     0.280454
    250 H                     0.265327
    251 H                     0.252136
    252 O                    -0.682072
    253 C                    -0.907740
    254 H                     0.216106
    255 H                     0.272483
    256 H                     0.280049
    257 S                     0.878971
    258 C                    -0.927619
    259 H                     0.285180
    260 H                     0.246333
    261 H                     0.272403
    262 O                    -0.627882
    263 C                    -1.107687
    264 H                     0.308102
    265 H                     0.284660
    266 H                     0.306847
    267 S                     1.004098
    268 C                    -0.860956
    269 H                     0.228588
    270 H                     0.279408
    271 H                     0.231881
    272 O                    -0.571316
    273 C                    -0.928066
    274 H                     0.262610
    275 H                     0.252379
    276 H                     0.249919
    277 S                     0.777515
    278 C                    -0.757261
    279 H                     0.247440
    280 H                     0.262940
    281 H                     0.281256
    282 O                    -0.698968
  ----------------------------------------
  Sum of atomic charges =     0.000000

 -----------------------------------------------------------------
                    Cartesian Multipole Moments
 -----------------------------------------------------------------
    Charge (ESU x 10^10)
                -0.0000
    Dipole Moment (Debye)
         X      19.8194      Y     -11.5877      Z      -5.5690
       Tot      23.6241
    Quadrupole Moments (Debye-Ang)
        XX      -3.0911     XY     128.0733     YY   -1335.9447
        XZ     478.5298     YZ    -304.2496     ZZ   -1178.4561
    Octopole Moments (Debye-Ang^2)
       XXX  -38253.3192    XXY   -6731.0692    XYY  -24622.2981
       YYY  -67378.8472    XXZ     611.8536    XYZ    5323.5308
       YYZ  -32702.0779    XZZ  -10774.0321    YZZ  -26093.8752
       ZZZ  -81682.8594
    Hexadecapole Moments (Debye-Ang^3)
      XXXX ************   XXXY -948533.6017   XXYY -854067.9586
      XYYY ************   YYYY ************   XXXZ -956082.6393
      XXYZ  -89698.5126   XYYZ -545339.0868   YYYZ ************
      XXZZ -560032.9535   XYZZ -266769.7599   YYZZ ************
      XZZZ ************   YZZZ ************   ZZZZ ************
 -----------------------------------------------------------------
 Total job time:  18515.33s(wall), 258810.38s(cpu) 
 Thu Jul 21 08:22:05 2022

        *************************************************************
        *                                                           *
        *  Thank you very much for using Q-Chem.  Have a nice day.  *
        *                                                           *
        *************************************************************


 
User input: 2 of 2 
 
                  Welcome to Q-Chem
     A Quantum Leap Into The Future Of Chemistry


 Q-Chem 6.0 (devel), Q-Chem, Inc., Pleasanton, CA (2022)

 E. Epifanovsky,  A. T. B. Gilbert,  Xintian Feng,  Joonho Lee,  Yuezhi Mao,  
 N. Mardirossian,  P. Pokhilko,  A. White,  M. Wormit,  M. P. Coons,  
 A. L. Dempwolff,  Zhengting Gan,  D. Hait,  P. R. Horn,  L. D. Jacobson,  
 I. Kaliman,  J. Kussmann,  A. W. Lange,  Ka Un Lao,  D. S. Levine,  Jie Liu,  
 S. C. McKenzie,  A. F. Morrison,  K. Nanda,  F. Plasser,  D. R. Rehn,  
 M. L. Vidal,  Zhi-Qiang You,  Ying Zhu,  B. Alam,  B. Albrecht,  
 A. Aldossary,  E. Alguire,  J. H. Andersen,  V. Athavale,  D. Barton,  
 K. Begam,  A. Behn,  N. Bellonzi,  Y. A. Bernard,  E. J. Berquist,  
 H. Burton,  A. Carreras,  K. Carter-Fenk,  Romit Chakraborty,  
 Chandrima Chakravarty,  Junhan Chen,  A. D. Chien,  K. D. Closser,  
 V. Cofer-Shabica,  L. Cunha,  S. Dasgupta,  Jia Deng,  M. de Wergifosse,  
 M. Diedenhofen,  Hainam Do,  S. Ehlert,  Po-Tung Fang,  S. Fatehi,  
 Qingguo Feng,  T. Friedhoff,  B. Ganoe,  J. Gayvert,  Qinghui Ge,  
 G. Gidofalvi,  M. Goldey,  J. Gomes,  C. Gonzalez-Espinoza,  S. Gulania,  
 A. Gunina,  J. A. Gyamfi,  M. W. D. Hanson-Heine,  P. H. P. Harbach,  
 A. W. Hauser,  M. F. Herbst,  M. Hernandez Vera,  M. Hodecker,  
[...]
    3  -0.0781046  -0.5965042   0.3769704   0.2951411  -0.3769029   1.0021910
          187         188         189         190         191         192
    1   1.2122633   3.0392721   3.1728476   4.0431037   1.6410154   3.3207832
    2  -0.4980883  -1.5979540  -0.8859811  -0.9758526  -2.7718273   1.5273281
    3  -2.0563868  -1.9045720  -3.4657547  -0.0163334  -1.8637525  -0.8517192
          193         194         195         196         197         198
    1  -0.5348792  -0.7779390  -1.0180758   0.7940499  -0.0530931   1.3798764
    2  -1.4493547   0.0154900  -2.0225121  -2.5923843   0.0293701  -1.6505117
    3  -1.3733126   0.1375732  -3.2675093  -0.9075574  -2.9527987  -3.2873884
          199         200         201         202         203         204
    1   0.0510115   1.1701289   2.8355761   1.4673357   1.2798936   0.5699341
    2  -3.0971206  -0.3466080  -1.4257902   0.5455529  -3.3892891  -3.0771544
    3  -2.8665532  -4.6008764  -2.0149056  -0.0528536   0.2906976  -1.1596221
          205         206         207         208         209         210
    1   3.0827082   0.2723828   1.0553241   3.0369518   3.7514212   4.0446446
    2  -3.5573940  -3.4687587  -1.2894252  -1.0317807   0.5662199  -2.5815010
    3  -0.0948777   2.0385288   0.3676605  -1.1808890  -0.4910475  -0.8904300
          211         212         213         214         215         216
    1   1.6705782   3.4244489   0.4520368   1.0571635   0.9401981  -1.1798620
    2  -1.6339239  -1.7804554   3.6829764   3.3396605   3.2436259   4.4333623
    3  -2.1559703   2.5255185   0.5079843   2.0517375  -1.5075209   0.2598903
          217         218         219         220         221         222
    1  -0.5757782   0.9024515  -0.1038432   1.4305101   0.8979694  -0.5348568
    2   1.8917305   0.5781142  -1.1731948   0.7810562   1.6462938   1.2573533
    3   1.3659805   0.6632341   0.4131632  -1.1569668   2.2634434  -2.1910031
          223         224         225         226         227         228
    1  -2.8682935  -3.2834401  -1.6817386  -3.4662528  -1.8504439  -0.1501983
    2   0.2653334  -0.1605947  -0.6191859   1.8140828   1.3045244  -0.2592831
    3   1.8221356   0.0553728   2.8544803   2.7748930   0.5635206   0.0800692
          229         230         231         232         233         234
    1   0.0553404  -1.3988016   0.7592615  -0.3413886  -1.0028809   0.3042766
    2  -0.5318484  -1.2212345   1.0265300   2.5353246  -1.0431266   0.4133651
    3   1.5110718  -0.7101447  -0.7315439   3.3877904  -1.7199798  -2.5449975
          235         236         237         238         239         240
    1  -1.3570640  -2.1371456  -2.9793751  -1.5932343  -1.4756161  -3.1277374
    2  -1.2003155  -2.1550931  -0.2251422   0.8868742  -1.1401110   1.7804334
    3   0.1746126  -2.7008782  -1.4363835  -2.9993413  -3.5498447  -2.4840139
          241         242         243         244         245         246
    1   0.1100974  -1.6095999   3.5323049   4.2934822   3.4128835   2.4038572
    2   1.7213268   2.4790378   0.0921848   1.4156784  -1.2199702  -0.2572512
    3  -2.7808736  -0.0273470  -0.9032449  -0.9446416   0.6294703  -2.5430243
          247         248         249         250         251         252
    1   2.5565092   0.9669844   1.2955351   2.1205082  -0.1748931   1.5630620
    2   1.3427518   0.2162409   0.1850017  -0.6841768   1.4488415   3.0742420
    3   0.9193423   0.1591580  -1.9477630   1.0743308   0.6103340  -1.9528331
          253         254         255         256         257         258
    1  -0.2749498  -0.1443248   0.7609581  -1.2615257   0.9681564   0.9387642
    2  -0.2579912  -1.1168515  -0.8640551   1.0625574   1.3240864   0.3185298
    3   2.1008767   0.0949094   3.9809024   1.6990073   1.3474058  -0.6655161
          259         260         261         262         263         264
    1   2.8756640   0.5152560  -0.0020841   3.1549127  -1.3854223  -1.1240264
    2   0.9216560  -1.4063026   1.3398268  -0.3673223  -1.1716505   0.9125784
    3  -0.3528957  -0.3034637  -1.3184445   2.9346800   0.1648989   0.4300403
          265         266         267         268         269         270
    1  -1.6610144  -1.4560504   0.1694277   0.3360485   1.7862319  -0.3828504
    2  -1.5825324  -2.6712167  -1.3499872  -3.7866959  -3.8862436  -4.0036127
    3  -1.2588707   1.5463750  -1.1403809  -0.3682154  -1.0082311   1.6377923
          271         272         273         274         275         276
    1  -0.7633771   1.3933003   0.2213629   1.0091449   0.6810925  -1.2757202
    2  -3.3777033  -1.3562709   0.2342200  -0.9353600   1.5776175   0.3515836
    3  -1.6509023   1.6807651  -0.4278321  -0.7585101   0.8844092  -1.1491587
          277         278         279         280         281         282
    1   1.2099240   2.6088422   2.9030201   1.4295525   3.1633561  -0.2830012
    2   0.3513878   1.4611317   2.4308579   2.4717995  -0.2300702   3.2499626
    3  -2.6993268  -1.5265065  -2.9199633  -0.0145616  -1.7141631  -2.3172880
 EField
            1           2           3           4           5           6
    1   0.0033281   0.0006584  -0.0025741  -0.0008641  -0.0012858   0.0024147
    2  -0.0014493   0.0006071   0.0000504  -0.0002070  -0.0011698  -0.0000646
    3   0.0077401   0.0086668   0.0046084   0.0013646  -0.0011723   0.0035701
            7           8           9          10          11          12
    1   0.0013345   0.0035202   0.0036838   0.0085032   0.0020250  -0.0029260
    2   0.0034532   0.0001242  -0.0034228   0.0085427  -0.0011628  -0.0010296
    3   0.0071737   0.0095424   0.0016549   0.0100100   0.0044608  -0.0014423
           13          14          15          16          17          18
    1  -0.0029206  -0.0053789   0.0099569  -0.0015109  -0.0081439  -0.0009112
    2  -0.0019124  -0.0004342   0.0047225   0.0009610  -0.0037609   0.0037609
    3  -0.0039676  -0.0062132   0.0070660   0.0055278   0.0015380   0.0144699
           19          20          21          22          23          24
    1  -0.0035693   0.0005261   0.0040803   0.0013366   0.0006266  -0.0080391
    2   0.0060403   0.0007197  -0.0040874   0.0034170   0.0001583   0.0306132
    3   0.0256630   0.0155015   0.0141812   0.0161977   0.0070148   0.0040049
           25          26          27          28          29          30
    1  -0.0287374   0.0188099   0.0182418   0.0047653   0.0118052  -0.0201303
    2  -0.0040084  -0.0152436  -0.0543410   0.0031243  -0.0132357   0.0264012
    3   0.0168538   0.0258992  -0.0041167  -0.0010681  -0.0266017  -0.0039871
           31          32          33          34          35          36
    1   0.0315875  -0.0941815  -0.0114217  -0.0115658  -0.0169716  -0.0155796
    2   0.0114578   0.0352617  -0.0029265  -0.0300413   0.0265893  -0.0084563
    3   0.0217848  -0.0455871  -0.0085644   0.0034355   0.0048089  -0.0329316
           37          38          39          40          41          42
    1   0.0269082  -0.0002146   0.0262862  -0.0195644   0.0046777   0.0360427
    2   0.0064030   0.0060582   0.0060411   0.0081231   0.0286257  -0.0779794
    3   0.0505872  -0.0088662  -0.0166773  -0.0304380   0.0135305  -0.0718777
           43          44          45          46          47          48
    1  -0.0004212   0.0271785  -0.0284225  -0.0083848   0.0364312   0.0017471
    2  -0.0041760  -0.0298339   0.0165536  -0.0249019  -0.0253896   0.0049394
    3   0.0076576   0.0172224   0.0164669  -0.0014970  -0.0294937   0.0075516
           49          50          51          52          53          54
    1   0.0332172  -0.0036610  -0.0228435  -0.0941932  -0.0080388   0.0046329
    2  -0.0029635   0.0248820   0.0175610   0.0389559  -0.0001419  -0.0308972
    3   0.0168645  -0.0165518   0.0198900  -0.0388541   0.0090203   0.0064123
           55          56          57          58          59          60
    1   0.0164830  -0.0326709  -0.0221751  -0.0011611   0.0108647  -0.0324647
    2   0.0178478   0.0129915   0.0513707  -0.0058328  -0.0298723  -0.0011366
    3   0.0172320   0.0179695  -0.0154028  -0.0020736   0.0059833   0.0032656
           61          62          63          64          65          66
    1   0.0037990   0.1064366  -0.0021266  -0.0314042   0.0064007   0.0107969
    2  -0.0099796  -0.0234341  -0.0019513  -0.0072836   0.0069704  -0.0130715
    3  -0.0313595   0.0055441  -0.0002842  -0.0102577  -0.0339652   0.0221836
           67          68          69          70          71          72
    1  -0.0174931   0.0115488   0.0030518   0.0093817   0.0214817  -0.0290031
    2   0.0430992   0.0037604  -0.0116382   0.0039577   0.0252019  -0.0234383
    3  -0.0289880  -0.0011800   0.0376243  -0.0367706   0.0168950   0.1037822
           73          74          75          76          77          78
    1  -0.0021095  -0.0071457   0.0181637  -0.0282542   0.0403121   0.0020704
    2   0.0039750  -0.0169492   0.0286173   0.0080904  -0.0292628   0.0044897
    3   0.0036306   0.0272671   0.0180506  -0.0054742   0.0042830  -0.0050674
           79          80          81          82          83          84
    1  -0.0269817   0.0299978   0.0027454  -0.1021505   0.0040209  -0.0168281
    2   0.0139251   0.0242424  -0.0132016  -0.0303310   0.0080045   0.0209152
    3   0.0019601  -0.0038161  -0.0304617  -0.0299871  -0.0005875   0.0155970
           85          86          87          88          89          90
    1   0.0232064   0.0108586  -0.0190999   0.0067999   0.0079083   0.0231217
    2  -0.0119818   0.0230697  -0.0369278   0.0006718   0.0229258  -0.0169762
    3   0.0199972  -0.0205515   0.0384387  -0.0054528  -0.0262572   0.0200414
           91          92          93          94          95          96
    1  -0.0088598  -0.0684618  -0.0079574   0.0006394   0.0217528  -0.0310799
    2  -0.0213259   0.0487570  -0.0097364  -0.0138335  -0.0200016   0.0178435
    3  -0.0149243  -0.0727940   0.0024934  -0.0261044   0.0197167   0.0062183
           97          98          99         100         101         102
    1   0.0586753  -0.0056841   0.0082587  -0.0347544   0.0182427  -0.0521340
    2  -0.0133581   0.0042783   0.0220951   0.0088807  -0.0147827   0.0477272
    3   0.0021206   0.0117700   0.0175523  -0.0004607   0.0299359  -0.0839704
          103         104         105         106         107         108
    1   0.0039539   0.0001779  -0.0229202   0.0338847   0.0303803  -0.0082941
    2   0.0069711   0.0091120   0.0186663   0.0044667  -0.0447703   0.0012005
    3  -0.0019732  -0.0341455  -0.0023278  -0.0037256  -0.0155959  -0.0031746
          109         110         111         112         113         114
    1  -0.0034180  -0.0166508  -0.0127908  -0.0218699  -0.0010974  -0.0244973
    2  -0.0085217  -0.0251024   0.0278388   0.0265150  -0.0079155  -0.0131547
    3  -0.0342942   0.0093373  -0.0034149   0.1042241  -0.0003978  -0.0191959
          115         116         117         118         119         120
    1   0.0281179   0.0056824  -0.0280869   0.0037535   0.0214177   0.0266279
    2  -0.0074648  -0.0015019   0.0184091   0.0028539  -0.0049464   0.0077574
    3  -0.0141688   0.0328705  -0.0490204   0.0022058   0.0270406  -0.0215421
          121         122         123         124         125         126
    1   0.0099666  -0.0411122   0.0024063  -0.0198319   0.0331220  -0.0091416
    2   0.0282080   0.0110579  -0.0064826  -0.0030595  -0.0154078  -0.0037879
    3   0.0081528   0.1000633  -0.0001333  -0.0251258   0.0120776   0.0272516
          127         128         129         130         131         132
    1   0.0344288   0.0010424  -0.0172638   0.0314044  -0.0066132  -0.1089071
    2   0.0175516  -0.0002576  -0.0100820   0.0031212   0.0287174   0.0164333
    3  -0.0333238   0.0087907   0.0235523   0.0123106   0.0099112  -0.0006808
          133         134         135         136         137         138
    1  -0.0029631  -0.0251368  -0.0053832   0.0138167  -0.0148058   0.0082266
    2  -0.0044559  -0.0183138   0.0294004  -0.0253442   0.0534134  -0.0040563
    3  -0.0089372   0.0051963  -0.0158298  -0.0183068   0.0165293  -0.0035675
          139         140         141         142         143         144
    1   0.0248270   0.0175386   0.0093105  -0.0115381   0.0078445   0.0196654
    2   0.0000089  -0.0263238   0.0193163  -0.0897087   0.0073935  -0.0117816
    3   0.0214646  -0.0076395  -0.0243760   0.0613439   0.0035956  -0.0015861
          145         146         147         148         149         150
    1  -0.0034037   0.0063589  -0.0204594  -0.0051370   0.0173225  -0.0074117
    2   0.0248146   0.0113207  -0.0098819   0.0077811   0.0037187   0.0303515
    3  -0.0175470   0.0329691  -0.0434695  -0.0003760   0.0271316  -0.0216720
          151         152         153         154         155         156
    1  -0.0341729  -0.0000192   0.0084359   0.0268520  -0.0221992   0.0022455
    2   0.0040477  -0.0601033  -0.0018389  -0.0140085  -0.0204425   0.0155717
    3   0.0080555   0.0933244  -0.0074655   0.0061079   0.0003970  -0.0333544
          157         158         159         160         161         162
    1  -0.0468640   0.0110639   0.0228083  -0.0128763   0.0273393  -0.0045217
    2   0.0320382   0.0012053   0.0062728   0.0144345  -0.0151529  -0.0562938
    3  -0.0175290  -0.0005976  -0.0342150   0.0289584   0.0098155   0.0947169
          163         164         165         166         167         168
    1   0.0038048   0.0272525   0.0204326  -0.0084641  -0.0156661   0.0000315
    2   0.0139056   0.0109796  -0.0095031   0.0319224   0.0164521  -0.0054219
    3  -0.0015976   0.0173870  -0.0179725  -0.0091338   0.0534765  -0.0017385
          169         170         171         172         173         174
    1   0.0124426   0.0289570  -0.0142152  -0.0609750  -0.0021662   0.0218343
    2   0.0028614  -0.0027049  -0.0254532   0.0089887   0.0090626  -0.0043041
    3  -0.0291820   0.0075853   0.0194585  -0.0856300  -0.0050580  -0.0242663
          175         176         177         178         179         180
    1  -0.0235549   0.0114341  -0.0219657   0.0072427   0.0185163   0.0062594
    2   0.0277253   0.0153844  -0.0083158  -0.0063357   0.0095303  -0.0283669
    3  -0.0008964   0.0240928   0.0436710  -0.0059345   0.0233479   0.0043352
          181         182         183         184         185         186
    1  -0.0039856  -0.0309779  -0.0016693  -0.0288088  -0.0240232   0.0194975
    2  -0.0011769  -0.0335597  -0.0013511   0.0100397  -0.0277494   0.0136501
    3  -0.0343603  -0.1113721   0.0084690   0.0166196   0.0051964   0.0212236
          187         188         189         190         191         192
    1  -0.0411562   0.0026727   0.0214914   0.0291889  -0.0129412   0.0629075
    2   0.0001829  -0.0066260   0.0054815   0.0037914  -0.0334563   0.0837120
    3  -0.0369173   0.0018956  -0.0224132   0.0131789  -0.0012643   0.0295107
          193         194         195         196         197         198
    1  -0.0062431  -0.0088549  -0.0269960   0.0167137  -0.0265622   0.0054122
    2  -0.0069132   0.0159682  -0.0127332  -0.0173793   0.0329342  -0.0028934
    3   0.0029158   0.0219184  -0.0168582   0.0201720  -0.0334200  -0.0015279
          199         200         201         202         203         204
    1  -0.0143352   0.0146113   0.0290072   0.0574180  -0.0016449  -0.0160174
    2  -0.0266514  -0.0017151   0.0046256   0.0356465  -0.0090553  -0.0100280
    3  -0.0086202  -0.0332454   0.0126011   0.0869015  -0.0067823  -0.0308952
          205         206         207         208         209         210
    1   0.0303589  -0.0121892  -0.0452264   0.0044173   0.0103689   0.0288743
    2  -0.0105944  -0.0079228   0.0277964  -0.0033548   0.0267757  -0.0180986
    3   0.0003994   0.0279994   0.0059335  -0.0091059   0.0079792  -0.0026624
          211         212         213         214         215         216
    1  -0.0161586   0.0743419   0.0022340   0.0125110   0.0159958  -0.0119204
    2  -0.0024588  -0.0117062   0.0051112   0.0095362  -0.0092446   0.0389455
    3  -0.0276784   0.0814980  -0.0032858   0.0250463  -0.0257760   0.0053830
          217         218         219         220         221         222
    1  -0.0284955   0.0090567  -0.0133193   0.0164350   0.0202303  -0.0197908
    2  -0.0059370  -0.0049336  -0.0341217   0.0247391  -0.0038801  -0.0243147
    3   0.0419806   0.0044477   0.0115236  -0.0273240   0.0308840  -0.1043260
          223         224         225         226         227         228
    1  -0.0028192  -0.0203377   0.0225547  -0.0219612  -0.0239246   0.0085777
    2  -0.0062817  -0.0115301  -0.0255090   0.0210872   0.0299081  -0.0123175
    3   0.0039461  -0.0210669   0.0158120   0.0107554  -0.0490419   0.0009259
          229         230         231         232         233         234
    1   0.0163292  -0.0104809   0.0250148   0.0478414   0.0024283   0.0231882
    2  -0.0239019  -0.0147357   0.0053213   0.0508860  -0.0070578   0.0121466
    3   0.0211024  -0.0225469  -0.0212861   0.0835747   0.0016140  -0.0120580
          235         236         237         238         239         240
    1   0.0048658  -0.0022503  -0.0470101  -0.0002234  -0.0065326  -0.0202875
    2  -0.0113079  -0.0303686  -0.0227383   0.0028737  -0.0229096   0.0210043
    3   0.0249088  -0.0181075   0.0035592  -0.0071125  -0.0289532  -0.0158997
          241         242         243         244         245         246
    1   0.0249205   0.0361005   0.0014467   0.0263642   0.0183873  -0.0129015
    2   0.0220336   0.0848514  -0.0063881   0.0129086  -0.0273199  -0.0034554
    3   0.0089812   0.0608062  -0.0055886  -0.0067385   0.0179600  -0.0305883
          247         248         249         250         251         252
    1   0.0161565  -0.0049839  -0.0127035  -0.0036547  -0.0262265  -0.0284728
    2   0.0134626  -0.0086570  -0.0204264  -0.0308882   0.0119086   0.0707261
    3   0.0494034  -0.0050860  -0.0249539   0.0144464   0.0109845  -0.0794396
          253         254         255         256         257         258
    1  -0.0083070  -0.0099235   0.0059983  -0.0224682  -0.0109258   0.0022546
    2  -0.0044564  -0.0280706  -0.0099528   0.0217301   0.0606034  -0.0038121
    3  -0.0005818  -0.0155403   0.0262192   0.0104933   0.0061995  -0.0079863
          259         260         261         262         263         264
    1   0.0319280  -0.0057065  -0.0239423   0.0825692  -0.0108819   0.0021172
    2  -0.0000572  -0.0276832   0.0173470  -0.0489683  -0.0006666   0.0199170
    3  -0.0055785  -0.0107569  -0.0159416   0.0513017   0.0088377   0.0118137
          265         266         267         268         269         270
    1  -0.0185852  -0.0036821   0.0130548  -0.0040319   0.0264743  -0.0038528
    2  -0.0140438  -0.0201250   0.0193670  -0.0080131  -0.0135935  -0.0061390
    3  -0.0215985   0.0303909  -0.0466616   0.0003635  -0.0079681   0.0325027
          271         272         273         274         275         276
    1  -0.0201351   0.0608606  -0.0027756   0.0045697   0.0048439  -0.0283601
    2  -0.0242983   0.0137871  -0.0051333  -0.0300876   0.0203064  -0.0079560
    3  -0.0224666   0.0920796   0.0070870   0.0007874   0.0236532  -0.0016670
          277         278         279         280         281         282
    1   0.0073533   0.0077783   0.0153789   0.0035308   0.0190226  -0.0560237
    2  -0.0362074   0.0022051   0.0220425   0.0182434  -0.0270977   0.0943228
    3  -0.0406541   0.0056267  -0.0178652   0.0253870   0.0134871  -0.0092236
  --- DONE ESP SUMMARY ---
 Total job time:  32.41s(wall), 77.27s(cpu) 
 Thu Jul 21 08:22:37 2022

        *************************************************************
        *                                                           *
        *  Thank you very much for using Q-Chem.  Have a nice day.  *
        *                                                           *
        *************************************************************


