                  Welcome to Q-Chem
     A Quantum Leap Into The Future Of Chemistry


 Q-Chem 6.0 (devel), Q-Chem, Inc., Pleasanton, CA (2022)

 E. Epifanovsky,  A. T. B. Gilbert,  Xintian Feng,  Joonho Lee,  Yuezhi Mao,  
 N. Mardirossian,  P. Pokhilko,  A. White,  M. Wormit,  M. P. Coons,  
 A. L. Dempwolff,  Zhengting Gan,  D. Hait,  P. R. Horn,  L. D. Jacobson,  
 I. Kaliman,  J. Kussmann,  A. W. Lange,  Ka Un Lao,  D. S. Levine,  Jie Liu,  
 S. C. McKenzie,  A. F. Morrison,  K. Nanda,  F. Plasser,  D. R. Rehn,  
 M. L. Vidal,  Zhi-Qiang You,  Ying Zhu,  B. Alam,  B. Albrecht,  
 A. Aldossary,  E. Alguire,  J. H. Andersen,  V. Athavale,  D. Barton,  
 K. Begam,  A. Behn,  N. Bellonzi,  Y. A. Bernard,  E. J. Berquist,  
 H. Burton,  A. Carreras,  K. Carter-Fenk,  Romit Chakraborty,  
 Chandrima Chakravarty,  Junhan Chen,  A. D. Chien,  K. D. Closser,  
 V. Cofer-Shabica,  L. Cunha,  S. Dasgupta,  Jia Deng,  M. de Wergifosse,  
 M. Diedenhofen,  Hainam Do,  S. Ehlert,  Po-Tung Fang,  S. Fatehi,  
 Qingguo Feng,  T. Friedhoff,  B. Ganoe,  J. Gayvert,  Qinghui Ge,  
 G. Gidofalvi,  M. Goldey,  J. Gomes,  C. Gonzalez-Espinoza,  S. Gulania,  
 A. Gunina,  J. A. Gyamfi,  M. W. D. Hanson-Heine,  P. H. P. Harbach,  
 A. W. Hauser,  M. F. Herbst,  M. Hernandez Vera,  M. Hodecker,  
 Z. C. Holden,  S. Houck,  Xunkun Huang,  Kerwin Hui,  B. C. Huynh,  
 K. Ikeda,  M. Ivanov,  Hyunjun Ji,  Zuxin Jin,  Hanjie Jiang,  B. Kaduk,  
 S. Kaehler,  R. Kang,  K. Khistyaev,  Jaehoon Kim,  Yongbin Kim,  
 P. Klunzinger,  Z. Koczor-Benda,  Joong Hoon Koh,  D. Kosenkov,  
 Saikiran Kotaru,  L. Koulias,  T. Kowalczyk,  C. M. Krauter,  K. Kue,  
 A. Kunitsa,  T. Kus,  A. Landau,  K. V. Lawler,  D. Lefrancois,  S. Lehtola,  
 Rain Li,  Shaozhi Li,  Yi-Pei Li,  Jiashu Liang,  M. Liebenthal,  
 Hung-Hsuan Lin,  You-Sheng Lin,  Fenglai Liu,  Kuan-Yu Liu,  
 M. Loipersberger,  A. Luenser,  C. Malbon,  A. Manjanath,  P. Manohar,  
 E. Mansoor,  S. F. Manzer,  Shan-Ping Mao,  A. V. Marenich,  T. Markovich,  
 S. Mason,  F. Matz,  S. A. Maurer,  P. F. McLaughlin,  M. F. S. J. Menger,  
 J.-M. Mewes,  S. A. Mewes,  P. Morgante,  Mohammad Mostafanejad,  
 J. W. Mullinax,  K. J. Oosterbaan,  G. Paran,  V. Parravicini,  
 Alexander C. Paul,  Suranjan K. Paul,  F. Pavosevic,  Zheng Pei,  S. Prager,  
 E. I. Proynov,  E. Ramos,  B. Rana,  A. E. Rask,  A. Rettig,  R. M. Richard,  
 F. Rob,  E. Rossomme,  T. Scheele,  M. Scheurer,  M. Schneider,  
 P. E. Schneider,  N. Sergueev,  S. M. Sharada,  Hengyuan Shen,  
 W. Skomorowski,  D. W. Small,  C. J. Stein,  Yingli Su,  Yu-Chuan Su,  
 E. J. Sundstrom,  Zhen Tao,  J. Thirman,  Hung-Yi Tsai,  T. Tsuchimochi,  
 N. M. Tubman,  C. Utku,  S. P. Veccham,  O. Vydrov,  J. Wenzel,  
 Jonathan Wong,  J. Witte,  A. Yamada,  Chou-Hsun Yang,  Kun Yao,  
 S. Yeganeh,  S. R. Yost,  A. Zech,  F. Zeller,  Igor Ying Zhang,  
 Xing Zhang,  Yu Zhang,  D. Zuev,  A. Aspuru-Guzik,  A. T. Bell,  
 N. A. Besley,  K. B. Bravaya,  B. R. Brooks,  D. Casanova,  Jeng-Da Chai,  
 Hsing-Ta Chen,  S. Coriani,  C. J. Cramer,  A. E. DePrince, III,  
 R. A. DiStasio Jr.,  A. Dreuw,  B. D. Dunietz,  T. R. Furlani,  
 W. A. Goddard III,  S. Grimme,  S. Hammes-Schiffer,  T. Head-Gordon,  
 W. J. Hehre,  Chao-Ping Hsu,  T.-C. Jagau,  Yousung Jung,  A. Klamt,  
 Jing Kong,  D. S. Lambrecht,  Xiangyuan Li,  WanZhen Liang,  N. J. Mayhall,  
 C. W. McCurdy,  J. B. Neaton,  T. Neudecker,  C. Ochsenfeld,  
 J. A. Parkhill,  R. Peverati,  V. A. Rassolov,  Haisheng Ren,  Yihan Shao,  
 L. V. Slipchenko,  R. P. Steele,  J. E. Subotnik,  A. J. W. Thom,  
 A. Tkatchenko,  D. G. Truhlar,  T. Van Voorhis,  Fan Wang,  
 T. A. Wesolowski,  K. B. Whaley,  H. L. Woodcock III,  P. M. Zimmerman,  
 S. Faraji,  P. M. W. Gill,  M. Head-Gordon,  J. M. Herbert,  A. I. Krylov

 Contributors to earlier versions of Q-Chem not listed above: 
 R. D. Adamson,  B. Austin,  R. Baer,  J. Baker,  G. J. O. Beran,  
 K. Brandhorst,  S. T. Brown,  E. F. C. Byrd,  Arup K. Chakraborty,  
 G. K. L. Chan,  Chun-Min Chang,  Yunqing Chen,  C.-L. Cheng,  
 Siu Hung Chien,  D. M. Chipman,  D. L. Crittenden,  H. Dachsel,  
 R. J. Doerksen,  A. D. Dutoi,  R. G. Edgar,  J. Fosso-Tande,  
 L. Fusti-Molnar,  D. Ghosh,  A. Ghysels,  A. Golubeva-Zadorozhnaya,  
 J. Gonthier,  M. S. Gordon,  S. R. Gwaltney,  G. Hawkins,  J. E. Herr,  
 A. Heyden,  S. Hirata,  E. G. Hohenstein,  G. Kedziora,  F. J. Keil,  
 C. Kelley,  Jihan Kim,  R. A. King,  R. Z. Khaliullin,  P. P. Korambath,  
 W. Kurlancheek,  A. Laurent,  A. M. Lee,  M. S. Lee,  S. V. Levchenko,  
 Ching Yeh Lin,  D. Liotard,  E. Livshits,  R. C. Lochan,  I. Lotan,  
 L. A. Martinez-Martinez,  P. E. Maslen,  N. Nair,  D. P. O'Neill,  
 D. Neuhauser,  E. Neuscamman,  C. M. Oana,  R. Olivares-Amaya,  R. Olson,  
 T. M. Perrine,  B. Peters,  P. A. Pieniazek,  A. Prociuk,  Y. M. Rhee,  
 J. Ritchie,  M. A. Rohrdanz,  E. Rosta,  N. J. Russ,  H. F. Schaefer III,  
 M. W. Schmidt,  N. E. Schultz,  S. Sharma,  N. Shenvi,  C. D. Sherrill,  
 A. C. Simmonett,  A. Sodt,  T. Stein,  D. Stuck,  K. S. Thanthiriwatte,  
 V. Vanovschi,  L. Vogt,  Tao Wang,  A. Warshel,  M. A. Watson,  
 C. F. Williams,  Q. Wu,  X. Xu,  Jun Yang,  W. Zhang,  Yan Zhao

   Please cite Q-Chem as follows:
  "Software for the frontiers of quantum chemistry:
   An overview of developments in the Q-Chem 5 package"
   J. Chem. Phys. 155, 084801 (2021)
   https://doi.org/10.1063/5.0055522 (open access)

 Q-Chem 6.0.0 for Intel X86 EM64T Linux

 Parts of Q-Chem use Armadillo 9.900.5 (Nocturnal Misbehaviour).
 http://arma.sourceforge.net/

 Q-Chem begins on Thu Jul 21 03:44:19 2022  

 Host: nid00524
0

     Scratch files written to /global/cscratch1/sd/ymao90/r7.00_frame_0065_spade_B3LYP_dp20220721031338//
 Processing $rem in /global/homes/y/ymao90/my_qchem/qchem_embedding_5p4/config/preferences:
 Processing $rem in /global/homes/y/ymao90/.qchemrc:
 No nuclear gradient supported for projection-based embedding or EMFT. Set max ideriv = 0.

 Checking the input file for inconsistencies... 	...done.

--------------------------------------------------------------
User input:
--------------------------------------------------------------
$molecule
0 1
--
0 1
C    28.79300   22.82700   25.12900  
C    28.60200   23.86400   26.24700  
C    28.63700   25.31000   25.72600  
C    27.67400   25.51000   24.54400  
C    27.87800   24.53600   23.37200  
C    27.82100   23.12300   23.97400  
H    28.48500   25.99600   26.56800  
H    27.62400   23.69900   26.71700  
H    29.85600   22.87700   24.86400  
H    28.57000   21.84700   25.56900  
H    26.64400   25.41000   24.90600  
H    27.84500   26.55000   24.24000  
H    27.17500   24.70300   22.54700  
H    28.84700   24.82300   22.94600  
H    26.81600   22.91600   24.36200  
H    28.08600   22.49700   23.11300  
H    29.64000   25.54600   25.34900  
N    29.63800   23.72300   27.26800  
H    30.61100   23.70500   26.98800  
C    29.43600   24.00400   28.60300  
H    30.36100   23.84300   29.18600  
O    28.32300   24.22900   29.04400  
--
0 1
C    27.51200   30.64300   22.64400  
H    28.34700   30.59600   21.93900  
H    27.37700   31.65800   23.02600  
H    27.57400   29.81300   23.35300  
S    26.18500   30.13500   21.52800  
C    25.03500   29.82900   22.88700  
H    25.44600   29.04700   23.53100  
H    24.85100   30.71700   23.49800  
H    24.10800   29.51600   22.40100  
O    26.64400   28.76100   21.14900  
C    25.83700   26.80100   29.74500  
H    26.18000   25.84600   29.33800  
H    25.16500   27.27100   29.02300  
H    26.72500   27.43000   29.84900  
S    25.10200   26.46800   31.36200  
C    24.33900   24.88100   30.95600  
H    24.72400   24.32300   30.09900  
H    24.37600   24.28000   31.86900  
H    23.31600   25.21100   30.75800  
O    23.96700   27.44000   31.45100  
C    30.30100   27.20900   29.82600  
H    31.06700   26.55500   30.25100  
H    29.50500   26.48400   29.63900  
H    30.54900   27.56600   28.82300  
S    29.81300   28.51100   30.98000  
C    29.06600   27.43300   32.22300  
H    28.80800   26.62400   31.53500  
H    29.73000   27.05900   33.00700  
H    28.10400   27.82800   32.56000  
O    28.55700   28.98200   30.31600  
C    32.09300   24.12300   34.03300  
H    31.11000   24.26800   34.48600  
H    32.27400   23.04700   34.10300  
H    32.84700   24.80000   34.44300  
S    32.00300   24.55100   32.27900  
C    33.51700   23.65100   31.87700  
H    33.18500   22.61600   31.76100  
H    33.96800   23.96700   30.93300  
H    34.28200   23.65200   32.65800  
O    32.40600   25.99200   32.34400  
C    31.41600   19.37700   23.82600  
H    31.16900   19.27800   24.88700  
H    32.25600   18.72500   23.57500  
H    31.69600   20.39800   23.55400  
S    30.08400   18.89600   22.70300  
C    30.97600   19.39900   21.21400  
H    31.83800   18.74400   21.06800  
H    30.25500   19.32800   20.39500  
H    31.34900   20.42500   21.25700  
O    28.92500   19.82200   22.90000  
C    23.08100   20.60900   32.79500  
H    23.68300   19.70500   32.67400  
H    23.63800   21.29800   33.43500  
H    22.17800   20.34900   33.35300  
S    22.81300   21.45900   31.22300  
C    21.58400   22.64400   31.81400  
H    22.11000   23.32500   32.48700  
H    21.21500   23.09100   30.88700  
H    20.82700   22.00000   32.26900  
O    21.95200   20.52300   30.43500  
C    33.83700   17.08000   28.87200  
H    34.80700   16.59700   29.01200  
H    33.61100   17.49600   29.85700  
H    32.99400   16.42400   28.64200  
S    34.01000   18.30500   27.55500  
C    33.44800   17.33800   26.13500  
H    32.38400   17.21800   25.91700  
H    33.78600   17.79600   25.20200  
H    33.88400   16.33600   26.16500  
O    35.46500   18.36000   27.20700  
C    30.74400   19.16100   30.97800  
H    31.79100   18.91600   30.77900  
H    30.49800   19.38800   32.01900  
H    30.07900   18.40600   30.55200  
S    30.16800   20.63100   30.10100  
C    31.15300   20.19800   28.65000  
H    30.83500   19.20400   28.32400  
H    30.94000   20.97800   27.91500  
H    32.22300   20.18000   28.87100  
O    31.07000   21.67300   30.68500  
C    29.10200   22.22000   19.89800  
H    28.03900   22.07600   19.69200  
H    29.44500   21.47300   20.61800  
H    29.31500   23.19000   20.35400  
S    30.01600   22.05400   18.34700  
C    29.38300   20.43300   17.85800  
H    29.75500   19.59000   18.44600  
H    28.29700   20.52900   17.93900  
H    29.55100   20.35600   16.78100  
O    31.41100   21.82400   18.83700  
C    26.26700   23.17200   34.33200  
H    25.77000   22.62900   35.14000  
H    26.99800   23.88200   34.72800  
H    25.53500   23.74100   33.75300  
S    27.29600   22.14800   33.25600  
C    28.07900   23.42600   32.24600  
H    27.22300   23.91700   31.77700  
H    28.63500   24.08300   32.91900  
H    28.69400   22.96800   31.46700  
O    26.51300   21.54900   32.13000  
C    21.34700   19.13300   26.07500  
H    21.02000   18.09000   26.07700  
H    22.31700   19.32100   25.60700  
H    21.55800   19.55700   27.06000  
S    20.20700   20.21700   25.18700  
C    20.83000   19.72900   23.56300  
H    20.50800   18.71800   23.30000  
H    20.52400   20.47100   22.82100  
H    21.91200   19.88400   23.56500  
O    20.96700   21.48900   25.39700  
C    34.30000   28.04600   25.80700  
H    34.00100   27.88900   26.84700  
H    33.72500   28.89300   25.42400  
H    33.98400   27.17500   25.22800  
S    36.08800   28.29300   25.72200  
C    36.21300   27.83900   23.97700  
H    35.99600   28.71200   23.35600  
H    37.25300   27.55500   23.79500  
H    35.47600   27.06000   23.76700  
O    36.67100   27.05400   26.32600  
C    28.66600   28.86600   26.67900  
H    28.59700   29.95200   26.57300  
H    27.85000   28.33300   26.18400  
H    28.72900   28.62900   27.74400  
S    30.36400   28.51900   26.17000  
C    31.24900   29.91300   26.90400  
H    31.04800   30.71300   26.18600  
H    30.73700   30.29100   27.79300  
H    32.32100   29.73900   27.02400  
O    30.35700   28.85400   24.71100  
C    26.20800   18.49700   33.16900  
H    26.89100   18.06800   33.90600  
H    25.97800   19.55800   33.29500  
H    25.28400   17.91900   33.08300  
S    27.12300   18.46000   31.61200  
C    25.73000   18.42500   30.46100  
H    25.17500   17.48400   30.47000  
H    24.99600   19.19900   30.70100  
H    26.18100   18.57000   29.47600  
O    27.61200   17.05800   31.42300  
C    31.79800   25.39600   19.07500  
H    32.39200   25.69800   19.94200  
H    31.41000   24.37900   18.97900  
H    32.34100   25.61100   18.15000  
S    30.40900   26.55100   19.11700  
C    29.92400   26.26700   20.83400  
H    28.99600   26.81800   21.00400  
H    29.75600   25.19500   20.96400  
H    30.75400   26.54400   21.49000  
O    29.33800   25.76900   18.42300  
C    36.38000   21.58000   24.80900  
H    36.31000   21.93600   25.84000  
H    37.24100   20.90800   24.78500  
H    36.38300   22.38900   24.07400  
S    34.86300   20.64000   24.53000  
C    35.15700   20.21700   22.79800  
H    35.95400   19.47200   22.85800  
H    34.24700   19.80800   22.35300  
H    35.51500   21.11900   22.29400  
O    33.81600   21.71000   24.52400  
C    25.73600   31.64000   26.92900  
H    26.34700   32.35600   27.48300  
H    26.42300   30.85100   26.61400  
H    25.10600   32.06600   26.14400  
S    24.40200   31.11900   28.03200  
C    25.62800   30.23800   29.02500  
H    25.21900   29.41700   29.61800  
H    26.32500   29.77700   28.32000  
H    26.18500   30.87100   29.72100  
O    23.73800   30.12200   27.13400  
C    22.24400   22.91500   21.89200  
H    22.72400   22.45100   21.02700  
H    22.82900   23.78900   22.18700  
H    22.13000   22.21500   22.72500  
S    20.57500   23.45600   21.46000  
C    19.96000   24.12300   23.02200  
H    20.34100   23.46700   23.80900  
H    20.42300   25.10300   23.16300  
H    18.87200   24.20900   23.08100  
O    19.81100   22.19400   21.20400  
C    23.99900   26.88700   26.17800  
H    24.72100   27.37600   26.83700  
H    24.33800   27.20100   25.18700  
H    22.99000   27.26900   26.35300  
S    23.87100   25.08500   26.16100  
C    22.56800   24.89200   24.92400  
H    22.28600   23.85200   24.74400  
H    21.69900   25.46300   25.26100  
H    22.89200   25.34600   23.98400  
O    23.23000   24.77400   27.47800  
C    33.09900   29.36800   22.28200  
H    33.51900   28.71500   21.51200  
H    33.68700   29.47200   23.19800  
H    32.12300   29.01400   22.62100  
S    32.83000   31.04600   21.66800  
C    31.67700   31.55700   22.96200  
H    30.88100   30.80800   22.95000  
H    32.22700   31.65300   23.90200  
H    31.38600   32.58500   22.73200  
O    31.89100   30.68400   20.55900  
C    25.36100   19.78400   23.77000  
H    25.29200   18.85500   24.34100  
H    26.21600   20.43900   23.95300  
H    24.46600   20.38400   23.95200  
S    25.42400   19.30900   22.02800  
C    25.81900   20.92800   21.33200  
H    25.61700   20.83200   20.26200  
H    25.11400   21.64800   21.75500  
H    26.86400   21.16400   21.54800  
O    23.97100   19.22900   21.67600  
C    26.46400   21.51700   28.86200  
H    27.46500   21.08400   28.92800  
H    26.40400   22.59900   29.00600  
H    25.83400   21.01800   29.60300  
S    25.65000   21.05500   27.31600  
C    23.95000   21.33600   27.86000  
H    23.91200   22.40200   28.09500  
H    23.23900   21.14300   27.05200  
H    23.85800   20.73300   28.76700  
O    25.99000   19.59800   27.28000  
C    24.45200   26.10100   22.08200  
H    24.96400   27.05100   22.25300  
H    23.37700   26.24300   22.21500  
H    24.83100   25.31100   22.73600  
S    24.81200   25.67000   20.36500  
C    23.90200   27.09100   19.71900  
H    23.05400   27.38400   20.34500  
H    24.59500   27.92500   19.58400  
H    23.46100   26.73700   18.78400  
O    23.85800   24.53700   20.14400  
C    32.69800   23.48400   22.08100  
H    31.77500   23.87800   21.64700  
H    33.37300   23.26800   21.24900  
H    32.52300   22.59000   22.68600  
S    33.40900   24.88100   22.97900  
C    31.94100   25.08100   24.01200  
H    32.21300   25.70500   24.86800  
H    31.16000   25.49300   23.36900  
H    31.62900   24.06600   24.27100  
O    33.13100   26.06100   22.10000  
C    28.27500   18.15100   26.11000  
H    28.73400   18.46900   25.17100  
H    27.22700   17.95500   25.86900  
H    28.36800   19.01700   26.77000  
S    29.12700   16.69100   26.75000  
C    28.32800   16.92400   28.35400  
H    27.24700   17.03200   28.22800  
H    28.46600   16.10400   29.06300  
H    28.73500   17.84800   28.77200  
O    30.44800   17.33400   27.03800  
C    25.63500   22.24300   15.47300  
H    24.96500   21.38000   15.42600  
H    25.24500   23.04600   14.84200  
H    26.66500   22.01700   15.18500  
S    25.49300   22.68900   17.21800  
C    26.82200   23.91300   17.19500  
H    27.64900   23.29100   16.84100  
H    26.65500   24.76600   16.53300  
H    27.07300   24.24200   18.20600  
O    26.18000   21.58300   17.95800  
C    34.57900   24.36900   26.33300  
H    35.59800   24.02400   26.52400  
H    34.02800   23.77700   25.59800  
H    34.64600   25.42900   26.07500  
S    33.86700   24.43000   27.99300  
C    33.62600   22.63900   28.00100  
H    34.63800   22.25200   28.14700  
H    32.95100   22.35100   28.81100  
H    33.17600   22.40700   27.03300  
O    32.48000   24.96200   27.80700  
$end

$rem
JOBTYPE  SP
METHOD  B3LYP
BASIS  6-31+G(D)
SYMMETRY  FALSE
SYM_IGNORE  TRUE
MEM_TOTAL  12000
MEM_STATIC  4000
BASIS_LIN_DEP_THRESH  6
THRESH  14
SCF_CONVERGENCE  8
FD_MAT_VEC_PROD  FALSE
XC_GRID  000075000302
NL_GRID  1
MAX_SCF_CYCLES  200
ENV_METHOD  B3LYP
GEN_SCFMAN_EMBED  TRUE
SPADE_PARTITION  TRUE
EMBEDDING_EARLY_STOP  TRUE
$end

--------------------------------------------------------------
 ----------------------------------------------------------------
             Standard Nuclear Orientation (Angstroms)
    I     Atom           X                Y                Z
 ----------------------------------------------------------------
    1      C      28.7930000000    22.8270000000    25.1290000000
    2      C      28.6020000000    23.8640000000    26.2470000000
    3      C      28.6370000000    25.3100000000    25.7260000000
    4      C      27.6740000000    25.5100000000    24.5440000000
    5      C      27.8780000000    24.5360000000    23.3720000000
    6      C      27.8210000000    23.1230000000    23.9740000000
    7      H      28.4850000000    25.9960000000    26.5680000000
    8      H      27.6240000000    23.6990000000    26.7170000000
    9      H      29.8560000000    22.8770000000    24.8640000000
   10      H      28.5700000000    21.8470000000    25.5690000000
   11      H      26.6440000000    25.4100000000    24.9060000000
   12      H      27.8450000000    26.5500000000    24.2400000000
   13      H      27.1750000000    24.7030000000    22.5470000000
   14      H      28.8470000000    24.8230000000    22.9460000000
   15      H      26.8160000000    22.9160000000    24.3620000000
   16      H      28.0860000000    22.4970000000    23.1130000000
   17      H      29.6400000000    25.5460000000    25.3490000000
   18      N      29.6380000000    23.7230000000    27.2680000000
   19      H      30.6110000000    23.7050000000    26.9880000000
   20      C      29.4360000000    24.0040000000    28.6030000000
   21      H      30.3610000000    23.8430000000    29.1860000000
   22      O      28.3230000000    24.2290000000    29.0440000000
   23      C      27.5120000000    30.6430000000    22.6440000000
   24      H      28.3470000000    30.5960000000    21.9390000000
   25      H      27.3770000000    31.6580000000    23.0260000000
   26      H      27.5740000000    29.8130000000    23.3530000000
   27      S      26.1850000000    30.1350000000    21.5280000000
   28      C      25.0350000000    29.8290000000    22.8870000000
   29      H      25.4460000000    29.0470000000    23.5310000000
   30      H      24.8510000000    30.7170000000    23.4980000000
   31      H      24.1080000000    29.5160000000    22.4010000000
   32      O      26.6440000000    28.7610000000    21.1490000000
   33      C      25.8370000000    26.8010000000    29.7450000000
   34      H      26.1800000000    25.8460000000    29.3380000000
   35      H      25.1650000000    27.2710000000    29.0230000000
   36      H      26.7250000000    27.4300000000    29.8490000000
   37      S      25.1020000000    26.4680000000    31.3620000000
   38      C      24.3390000000    24.8810000000    30.9560000000
   39      H      24.7240000000    24.3230000000    30.0990000000
   40      H      24.3760000000    24.2800000000    31.8690000000
   41      H      23.3160000000    25.2110000000    30.7580000000
   42      O      23.9670000000    27.4400000000    31.4510000000
   43      C      30.3010000000    27.2090000000    29.8260000000
   44      H      31.0670000000    26.5550000000    30.2510000000
   45      H      29.5050000000    26.4840000000    29.6390000000
   46      H      30.5490000000    27.5660000000    28.8230000000
   47      S      29.8130000000    28.5110000000    30.9800000000
   48      C      29.0660000000    27.4330000000    32.2230000000
   49      H      28.8080000000    26.6240000000    31.5350000000
   50      H      29.7300000000    27.0590000000    33.0070000000
   51      H      28.1040000000    27.8280000000    32.5600000000
   52      O      28.5570000000    28.9820000000    30.3160000000
   53      C      32.0930000000    24.1230000000    34.0330000000
   54      H      31.1100000000    24.2680000000    34.4860000000
   55      H      32.2740000000    23.0470000000    34.1030000000
   56      H      32.8470000000    24.8000000000    34.4430000000
   57      S      32.0030000000    24.5510000000    32.2790000000
   58      C      33.5170000000    23.6510000000    31.8770000000
   59      H      33.1850000000    22.6160000000    31.7610000000
   60      H      33.9680000000    23.9670000000    30.9330000000
   61      H      34.2820000000    23.6520000000    32.6580000000
   62      O      32.4060000000    25.9920000000    32.3440000000
   63      C      31.4160000000    19.3770000000    23.8260000000
   64      H      31.1690000000    19.2780000000    24.8870000000
   65      H      32.2560000000    18.7250000000    23.5750000000
   66      H      31.6960000000    20.3980000000    23.5540000000
   67      S      30.0840000000    18.8960000000    22.7030000000
   68      C      30.9760000000    19.3990000000    21.2140000000
   69      H      31.8380000000    18.7440000000    21.0680000000
   70      H      30.2550000000    19.3280000000    20.3950000000
   71      H      31.3490000000    20.4250000000    21.2570000000
   72      O      28.9250000000    19.8220000000    22.9000000000
   73      C      23.0810000000    20.6090000000    32.7950000000
   74      H      23.6830000000    19.7050000000    32.6740000000
   75      H      23.6380000000    21.2980000000    33.4350000000
   76      H      22.1780000000    20.3490000000    33.3530000000
   77      S      22.8130000000    21.4590000000    31.2230000000
   78      C      21.5840000000    22.6440000000    31.8140000000
   79      H      22.1100000000    23.3250000000    32.4870000000
   80      H      21.2150000000    23.0910000000    30.8870000000
   81      H      20.8270000000    22.0000000000    32.2690000000
   82      O      21.9520000000    20.5230000000    30.4350000000
   83      C      33.8370000000    17.0800000000    28.8720000000
   84      H      34.8070000000    16.5970000000    29.0120000000
   85      H      33.6110000000    17.4960000000    29.8570000000
   86      H      32.9940000000    16.4240000000    28.6420000000
   87      S      34.0100000000    18.3050000000    27.5550000000
   88      C      33.4480000000    17.3380000000    26.1350000000
   89      H      32.3840000000    17.2180000000    25.9170000000
   90      H      33.7860000000    17.7960000000    25.2020000000
   91      H      33.8840000000    16.3360000000    26.1650000000
   92      O      35.4650000000    18.3600000000    27.2070000000
   93      C      30.7440000000    19.1610000000    30.9780000000
   94      H      31.7910000000    18.9160000000    30.7790000000
   95      H      30.4980000000    19.3880000000    32.0190000000
   96      H      30.0790000000    18.4060000000    30.5520000000
   97      S      30.1680000000    20.6310000000    30.1010000000
   98      C      31.1530000000    20.1980000000    28.6500000000
   99      H      30.8350000000    19.2040000000    28.3240000000
  100      H      30.9400000000    20.9780000000    27.9150000000
  101      H      32.2230000000    20.1800000000    28.8710000000
  102      O      31.0700000000    21.6730000000    30.6850000000
  103      C      29.1020000000    22.2200000000    19.8980000000
  104      H      28.0390000000    22.0760000000    19.6920000000
  105      H      29.4450000000    21.4730000000    20.6180000000
  106      H      29.3150000000    23.1900000000    20.3540000000
  107      S      30.0160000000    22.0540000000    18.3470000000
  108      C      29.3830000000    20.4330000000    17.8580000000
  109      H      29.7550000000    19.5900000000    18.4460000000
  110      H      28.2970000000    20.5290000000    17.9390000000
  111      H      29.5510000000    20.3560000000    16.7810000000
  112      O      31.4110000000    21.8240000000    18.8370000000
  113      C      26.2670000000    23.1720000000    34.3320000000
  114      H      25.7700000000    22.6290000000    35.1400000000
  115      H      26.9980000000    23.8820000000    34.7280000000
  116      H      25.5350000000    23.7410000000    33.7530000000
  117      S      27.2960000000    22.1480000000    33.2560000000
  118      C      28.0790000000    23.4260000000    32.2460000000
  119      H      27.2230000000    23.9170000000    31.7770000000
  120      H      28.6350000000    24.0830000000    32.9190000000
  121      H      28.6940000000    22.9680000000    31.4670000000
  122      O      26.5130000000    21.5490000000    32.1300000000
  123      C      21.3470000000    19.1330000000    26.0750000000
  124      H      21.0200000000    18.0900000000    26.0770000000
  125      H      22.3170000000    19.3210000000    25.6070000000
  126      H      21.5580000000    19.5570000000    27.0600000000
  127      S      20.2070000000    20.2170000000    25.1870000000
  128      C      20.8300000000    19.7290000000    23.5630000000
  129      H      20.5080000000    18.7180000000    23.3000000000
  130      H      20.5240000000    20.4710000000    22.8210000000
  131      H      21.9120000000    19.8840000000    23.5650000000
  132      O      20.9670000000    21.4890000000    25.3970000000
  133      C      34.3000000000    28.0460000000    25.8070000000
  134      H      34.0010000000    27.8890000000    26.8470000000
  135      H      33.7250000000    28.8930000000    25.4240000000
  136      H      33.9840000000    27.1750000000    25.2280000000
  137      S      36.0880000000    28.2930000000    25.7220000000
  138      C      36.2130000000    27.8390000000    23.9770000000
  139      H      35.9960000000    28.7120000000    23.3560000000
  140      H      37.2530000000    27.5550000000    23.7950000000
  141      H      35.4760000000    27.0600000000    23.7670000000
  142      O      36.6710000000    27.0540000000    26.3260000000
  143      C      28.6660000000    28.8660000000    26.6790000000
  144      H      28.5970000000    29.9520000000    26.5730000000
  145      H      27.8500000000    28.3330000000    26.1840000000
  146      H      28.7290000000    28.6290000000    27.7440000000
  147      S      30.3640000000    28.5190000000    26.1700000000
  148      C      31.2490000000    29.9130000000    26.9040000000
  149      H      31.0480000000    30.7130000000    26.1860000000
  150      H      30.7370000000    30.2910000000    27.7930000000
  151      H      32.3210000000    29.7390000000    27.0240000000
  152      O      30.3570000000    28.8540000000    24.7110000000
  153      C      26.2080000000    18.4970000000    33.1690000000
  154      H      26.8910000000    18.0680000000    33.9060000000
  155      H      25.9780000000    19.5580000000    33.2950000000
  156      H      25.2840000000    17.9190000000    33.0830000000
  157      S      27.1230000000    18.4600000000    31.6120000000
  158      C      25.7300000000    18.4250000000    30.4610000000
  159      H      25.1750000000    17.4840000000    30.4700000000
  160      H      24.9960000000    19.1990000000    30.7010000000
  161      H      26.1810000000    18.5700000000    29.4760000000
  162      O      27.6120000000    17.0580000000    31.4230000000
  163      C      31.7980000000    25.3960000000    19.0750000000
  164      H      32.3920000000    25.6980000000    19.9420000000
  165      H      31.4100000000    24.3790000000    18.9790000000
  166      H      32.3410000000    25.6110000000    18.1500000000
  167      S      30.4090000000    26.5510000000    19.1170000000
  168      C      29.9240000000    26.2670000000    20.8340000000
  169      H      28.9960000000    26.8180000000    21.0040000000
  170      H      29.7560000000    25.1950000000    20.9640000000
  171      H      30.7540000000    26.5440000000    21.4900000000
  172      O      29.3380000000    25.7690000000    18.4230000000
  173      C      36.3800000000    21.5800000000    24.8090000000
  174      H      36.3100000000    21.9360000000    25.8400000000
  175      H      37.2410000000    20.9080000000    24.7850000000
  176      H      36.3830000000    22.3890000000    24.0740000000
  177      S      34.8630000000    20.6400000000    24.5300000000
  178      C      35.1570000000    20.2170000000    22.7980000000
  179      H      35.9540000000    19.4720000000    22.8580000000
  180      H      34.2470000000    19.8080000000    22.3530000000
  181      H      35.5150000000    21.1190000000    22.2940000000
  182      O      33.8160000000    21.7100000000    24.5240000000
  183      C      25.7360000000    31.6400000000    26.9290000000
  184      H      26.3470000000    32.3560000000    27.4830000000
  185      H      26.4230000000    30.8510000000    26.6140000000
  186      H      25.1060000000    32.0660000000    26.1440000000
  187      S      24.4020000000    31.1190000000    28.0320000000
  188      C      25.6280000000    30.2380000000    29.0250000000
  189      H      25.2190000000    29.4170000000    29.6180000000
  190      H      26.3250000000    29.7770000000    28.3200000000
  191      H      26.1850000000    30.8710000000    29.7210000000
  192      O      23.7380000000    30.1220000000    27.1340000000
  193      C      22.2440000000    22.9150000000    21.8920000000
  194      H      22.7240000000    22.4510000000    21.0270000000
  195      H      22.8290000000    23.7890000000    22.1870000000
  196      H      22.1300000000    22.2150000000    22.7250000000
  197      S      20.5750000000    23.4560000000    21.4600000000
  198      C      19.9600000000    24.1230000000    23.0220000000
  199      H      20.3410000000    23.4670000000    23.8090000000
  200      H      20.4230000000    25.1030000000    23.1630000000
  201      H      18.8720000000    24.2090000000    23.0810000000
  202      O      19.8110000000    22.1940000000    21.2040000000
  203      C      23.9990000000    26.8870000000    26.1780000000
  204      H      24.7210000000    27.3760000000    26.8370000000
  205      H      24.3380000000    27.2010000000    25.1870000000
  206      H      22.9900000000    27.2690000000    26.3530000000
  207      S      23.8710000000    25.0850000000    26.1610000000
  208      C      22.5680000000    24.8920000000    24.9240000000
  209      H      22.2860000000    23.8520000000    24.7440000000
  210      H      21.6990000000    25.4630000000    25.2610000000
  211      H      22.8920000000    25.3460000000    23.9840000000
  212      O      23.2300000000    24.7740000000    27.4780000000
  213      C      33.0990000000    29.3680000000    22.2820000000
  214      H      33.5190000000    28.7150000000    21.5120000000
  215      H      33.6870000000    29.4720000000    23.1980000000
  216      H      32.1230000000    29.0140000000    22.6210000000
  217      S      32.8300000000    31.0460000000    21.6680000000
  218      C      31.6770000000    31.5570000000    22.9620000000
  219      H      30.8810000000    30.8080000000    22.9500000000
  220      H      32.2270000000    31.6530000000    23.9020000000
  221      H      31.3860000000    32.5850000000    22.7320000000
  222      O      31.8910000000    30.6840000000    20.5590000000
  223      C      25.3610000000    19.7840000000    23.7700000000
  224      H      25.2920000000    18.8550000000    24.3410000000
  225      H      26.2160000000    20.4390000000    23.9530000000
  226      H      24.4660000000    20.3840000000    23.9520000000
  227      S      25.4240000000    19.3090000000    22.0280000000
  228      C      25.8190000000    20.9280000000    21.3320000000
  229      H      25.6170000000    20.8320000000    20.2620000000
  230      H      25.1140000000    21.6480000000    21.7550000000
  231      H      26.8640000000    21.1640000000    21.5480000000
  232      O      23.9710000000    19.2290000000    21.6760000000
  233      C      26.4640000000    21.5170000000    28.8620000000
  234      H      27.4650000000    21.0840000000    28.9280000000
  235      H      26.4040000000    22.5990000000    29.0060000000
  236      H      25.8340000000    21.0180000000    29.6030000000
  237      S      25.6500000000    21.0550000000    27.3160000000
  238      C      23.9500000000    21.3360000000    27.8600000000
  239      H      23.9120000000    22.4020000000    28.0950000000
  240      H      23.2390000000    21.1430000000    27.0520000000
  241      H      23.8580000000    20.7330000000    28.7670000000
  242      O      25.9900000000    19.5980000000    27.2800000000
  243      C      24.4520000000    26.1010000000    22.0820000000
  244      H      24.9640000000    27.0510000000    22.2530000000
  245      H      23.3770000000    26.2430000000    22.2150000000
  246      H      24.8310000000    25.3110000000    22.7360000000
  247      S      24.8120000000    25.6700000000    20.3650000000
  248      C      23.9020000000    27.0910000000    19.7190000000
  249      H      23.0540000000    27.3840000000    20.3450000000
  250      H      24.5950000000    27.9250000000    19.5840000000
  251      H      23.4610000000    26.7370000000    18.7840000000
  252      O      23.8580000000    24.5370000000    20.1440000000
  253      C      32.6980000000    23.4840000000    22.0810000000
  254      H      31.7750000000    23.8780000000    21.6470000000
  255      H      33.3730000000    23.2680000000    21.2490000000
  256      H      32.5230000000    22.5900000000    22.6860000000
  257      S      33.4090000000    24.8810000000    22.9790000000
  258      C      31.9410000000    25.0810000000    24.0120000000
  259      H      32.2130000000    25.7050000000    24.8680000000
  260      H      31.1600000000    25.4930000000    23.3690000000
  261      H      31.6290000000    24.0660000000    24.2710000000
  262      O      33.1310000000    26.0610000000    22.1000000000
  263      C      28.2750000000    18.1510000000    26.1100000000
  264      H      28.7340000000    18.4690000000    25.1710000000
  265      H      27.2270000000    17.9550000000    25.8690000000
  266      H      28.3680000000    19.0170000000    26.7700000000
  267      S      29.1270000000    16.6910000000    26.7500000000
  268      C      28.3280000000    16.9240000000    28.3540000000
  269      H      27.2470000000    17.0320000000    28.2280000000
  270      H      28.4660000000    16.1040000000    29.0630000000
  271      H      28.7350000000    17.8480000000    28.7720000000
  272      O      30.4480000000    17.3340000000    27.0380000000
  273      C      25.6350000000    22.2430000000    15.4730000000
  274      H      24.9650000000    21.3800000000    15.4260000000
  275      H      25.2450000000    23.0460000000    14.8420000000
  276      H      26.6650000000    22.0170000000    15.1850000000
  277      S      25.4930000000    22.6890000000    17.2180000000
  278      C      26.8220000000    23.9130000000    17.1950000000
  279      H      27.6490000000    23.2910000000    16.8410000000
  280      H      26.6550000000    24.7660000000    16.5330000000
  281      H      27.0730000000    24.2420000000    18.2060000000
  282      O      26.1800000000    21.5830000000    17.9580000000
  283      C      34.5790000000    24.3690000000    26.3330000000
  284      H      35.5980000000    24.0240000000    26.5240000000
  285      H      34.0280000000    23.7770000000    25.5980000000
  286      H      34.6460000000    25.4290000000    26.0750000000
  287      S      33.8670000000    24.4300000000    27.9930000000
  288      C      33.6260000000    22.6390000000    28.0010000000
  289      H      34.6380000000    22.2520000000    28.1470000000
  290      H      32.9510000000    22.3510000000    28.8110000000
  291      H      33.1760000000    22.4070000000    27.0330000000
  292      O      32.4800000000    24.9620000000    27.8070000000
 ----------------------------------------------------------------
 Nuclear Repulsion Energy =       48473.34748173 hartrees
 There are      602 alpha and      602 beta electrons
 Requested basis set is 6-31+G(d)
 There are 962 shells and 2681 basis functions

 Total QAlloc Memory Limit  12000 MB
 Mega-Array Size      3911 MB
 MEM_STATIC part      4000 MB

 A cutoff of  1.0D-14 yielded 181472 shell pairs
 There are   1564319 function pairs
 Smallest overlap matrix eigenvalue = 3.92E-07
 Linear dependence detected in AO basis
 Tighter screening thresholds may be required for diffuse basis sets
 Use S2THRESH > 14 and THRESH = 14 in case of SCF convergence issues
 Number of orthogonalized atomic orbitals = 2679
 Maximum deviation from orthogonality = 1.894E-10

 Scale SEOQF with 1.000000e-03/1.000000e-03/1.000000e-03

 Standard Electronic Orientation quadrupole field applied
 Nucleus-field energy     =    -0.0000000295 hartrees
 Guess from superposition of atomic densities
 Warning:  Energy on first SCF cycle will be non-variational
 SAD guess density has 1204.000002 electrons

 -----------------------------------------------------------------------
  General SCF calculation program by
  Eric Jon Sundstrom, Paul Horn, Yuezhi Mao, Dmitri Zuev, Alec White,
  David Stuck, Shaama M.S., Shane Yost, Joonho Lee, David Small,
  Daniel Levine, Susi Lehtola, Hugh Burton, Evgeny Epifanovsky,
  Bang C. Huynh
 -----------------------------------------------------------------------
=================================================
        Doing projection-based embedding         
      F. Manby et al. JCTC, 8, 2564 (2012)       
=================================================

****************************************************
   Low-level SCF calculation for the whole system   
****************************************************
----------------------------------------------
 Summary of the low-level theory: 
 Exchange:     0.2000 Hartree-Fock + 0.0800 Slater + 0.7200 B88
 Correlation:  0.1900 VWN1RPA + 0.8100 LYP
 Using Euler-Maclaurin-Lebedev (75,302) quadrature formula
----------------------------------------------
 using 16 threads for integral computing
 -------------------------------------------------------
 OpenMP Integral computing Module                
 Release: version 1.0, May 2013, Q-Chem Inc. Pittsburgh 
 -------------------------------------------------------
 A restricted SCF calculation will be
 performed using DIIS
 SCF converges when DIIS error is below 1.0e-08
 ---------------------------------------
  Cycle       Energy         DIIS error
 ---------------------------------------
    1  -15360.0237343969      1.35e-02  
    2  -15335.8672685569      2.51e-03  
    3  -15321.8534636462      4.85e-03  
    4  -15339.6937884426      1.10e-03  
    5  -15340.7102200342      1.83e-04  
    6  -15340.7249673845      1.39e-04  
    7  -15340.7375845067      5.24e-05  
    8  -15340.7396036241      1.12e-05  
    9  -15340.7396902431      4.89e-06  
   10  -15340.7397070077      1.79e-06  
   11  -15340.7397091988      5.55e-07  
   12  -15340.7397094074      1.92e-07  
   13  -15340.7397094327      6.84e-08  
   14  -15340.7397094355      2.80e-08  
   15  -15340.7397094362      7.76e-09  Convergence criterion met
 ---------------------------------------
 SCF time:   CPU 292014.19s  wall 20959.00s 
 SCF   energy in the final basis set =   -15340.7397094362
 Total energy in the final basis set =   -15340.7397094362

****************************************************
             Start embedding calculation            
****************************************************
----------------------------------------------
 Summary of the high-level theory: 
 Exchange:     0.2000 Hartree-Fock + 0.0800 Slater + 0.7200 B88
 Correlation:  0.1900 VWN1RPA + 0.8100 LYP
 Using Euler-Maclaurin-Lebedev (75,302) quadrature formula
----------------------------------------------
Doing R-in-R Embedding Calculation
Number of fragments: 2
Embedded fragment(s): 1 
NOcc for each fragment
           35
          567
NBasis for each fragment
          197
         2484
Variational space of the embedded problem: 
NOcc (active)  = 35
NOcc (fixed)   = 567
NVir (total)   = 2077
Read converged orbitals from disk
=========================================================
       Doing SPADE partition for the orbital space       
     D. Claudino and N. Mayhall JCTC 15, 1053 (2019)     
=========================================================
SPADE singular values:
 1.0000 1.0000 1.0000 1.0000 1.0000 1.0000 1.0000 1.0000 1.0000 0.9999
 0.9998 0.9998 0.9997 0.9996 0.9996 0.9994 0.9994 0.9991 0.9983 0.9976
 0.9974 0.9970 0.9967 0.9960 0.9957 0.9952 0.9946 0.9939 0.9936 0.9927
 0.9921 0.9911 0.9903 0.9856 0.9800 0.2102 0.1751 0.1581 0.1501 0.1452
 0.1400 0.1325 0.1204 0.1198 0.1114 0.0969 0.0908 0.0844 0.0751 0.0724
 0.0621 0.0588 0.0547 0.0468 0.0452 0.0441 0.0393 0.0358 0.0344 0.0308
 0.0284 0.0269 0.0247 0.0242 0.0227 0.0217 0.0207 0.0198 0.0187 0.0169
 0.0152 0.0144 0.0139 0.0135 0.0131 0.0118 0.0114 0.0100 0.0093 0.0092
 0.0090 0.0084 0.0082 0.0078 0.0075 0.0073 0.0070 0.0064 0.0061 0.0060
 0.0058 0.0054 0.0053 0.0051 0.0048 0.0047 0.0046 0.0043 0.0041 0.0039
 0.0038 0.0035 0.0031 0.0030 0.0029 0.0029 0.0026 0.0026 0.0025 0.0023
 0.0023 0.0021 0.0020 0.0019 0.0018 0.0018 0.0017 0.0017 0.0015 0.0015
 0.0014 0.0013 0.0013 0.0012 0.0012 0.0012 0.0011 0.0011 0.0010 0.0010
 0.0010 0.0010 0.0009 0.0009 0.0008 0.0008 0.0008 0.0007 0.0007 0.0007
 0.0006 0.0006 0.0006 0.0006 0.0005 0.0005 0.0005 0.0005 0.0005 0.0004
 0.0004 0.0004 0.0004 0.0004 0.0004 0.0003 0.0003 0.0003 0.0003 0.0003
 0.0003 0.0003 0.0003 0.0003 0.0002 0.0002 0.0002 0.0002 0.0002 0.0002
 0.0002 0.0002 0.0002 0.0002 0.0002 0.0002 0.0002 0.0001 0.0001 0.0001
 0.0001 0.0001 0.0001 0.0001 0.0001 0.0001 0.0001 0.0001 0.0001 0.0001
 0.0001 0.0001 0.0001 0.0001 0.0001 0.0001 0.0000
Early stop requested; no embedded SCF will be performed

 567 environment occs will be part of frozen-core in future post-HF calculations

 --------------------------------------------------------------

                    Orbital Energies (a.u.)
 --------------------------------------------------------------

 Alpha MOs
 -- Occupied --
-89.0233 -89.0220 -89.0183 -89.0154 -89.0146 -89.0097 -89.0096 -89.0093
-89.0092 -89.0091 -89.0082 -89.0079 -89.0052 -89.0048 -89.0018 -88.9994
-88.9971 -88.9952 -88.9950 -88.9895 -88.9877 -88.9869 -88.9841 -88.9788
-88.9730 -88.9665 -88.9638 -19.1433 -19.1359 -19.1315 -19.1297 -19.1285
-19.1275 -19.1265 -19.1243 -19.1213 -19.1206 -19.1200 -19.1189 -19.1179
-19.1172 -19.1124 -19.1107 -19.1084 -19.1078 -19.1070 -19.1061 -19.1045
-19.1032 -19.0954 -19.0915 -19.0838 -19.0809 -19.0756 -10.2502 -10.2470
-10.2433 -10.2407 -10.2360 -10.2342 -10.2318 -10.2301 -10.2300 -10.2281
-10.2273 -10.2271 -10.2265 -10.2264 -10.2253 -10.2244 -10.2239 -10.2239
-10.2218 -10.2208 -10.2200 -10.2198 -10.2185 -10.2177 -10.2177 -10.2175
-10.2169 -10.2149 -10.2143 -10.2129 -10.2110 -10.2108 -10.2106 -10.2097
-10.2092 -10.2089 -10.2085 -10.2051 -10.2035 -10.2024 -10.2011 -10.2008
-10.1991 -10.1984 -10.1967 -10.1963 -10.1937 -10.1921 -10.1918 -10.1881
-10.1864 -10.1814 -10.1789 -10.1787  -8.0694  -8.0682  -8.0636  -8.0615
 -8.0604  -8.0563  -8.0555  -8.0551  -8.0550  -8.0546  -8.0540  -8.0535
 -8.0513  -8.0511  -8.0477  -8.0443  -8.0423  -8.0412  -8.0406  -8.0365
 -8.0334  -8.0331  -8.0297  -8.0254  -8.0191  -8.0123  -8.0102  -6.0339
 -6.0328  -6.0324  -6.0312  -6.0281  -6.0269  -6.0265  -6.0256  -6.0255
 -6.0248  -6.0245  -6.0232  -6.0208  -6.0204  -6.0200  -6.0194  -6.0194
 -6.0192  -6.0191  -6.0190  -6.0183  -6.0183  -6.0182  -6.0180  -6.0180
 -6.0178  -6.0178  -6.0170  -6.0168  -6.0157  -6.0152  -6.0140  -6.0140
 -6.0139  -6.0131  -6.0129  -6.0125  -6.0121  -6.0119  -6.0114  -6.0109
 -6.0109  -6.0092  -6.0088  -6.0088  -6.0076  -6.0066  -6.0055  -6.0054
 -6.0051  -6.0049  -6.0044  -6.0039  -6.0017  -6.0005  -6.0000  -5.9995
 -5.9986  -5.9982  -5.9979  -5.9974  -5.9965  -5.9961  -5.9944  -5.9941
 -5.9927  -5.9907  -5.9904  -5.9897  -5.9882  -5.9871  -5.9835  -5.9831
 -5.9822  -5.9766  -5.9766  -5.9755  -5.9747  -5.9734  -5.9699  -5.9671
 -1.0537  -1.0489  -1.0415  -1.0406  -1.0384  -1.0374  -1.0364  -1.0363
 -1.0356  -1.0338  -1.0331  -1.0320  -1.0291  -1.0281  -1.0242  -1.0195
 -1.0191  -1.0179  -1.0166  -1.0163  -1.0154  -1.0133  -1.0104  -1.0059
 -0.9974  -0.9886  -0.9878  -0.8299  -0.8257  -0.8215  -0.8183  -0.8164
 -0.8140  -0.8138  -0.8130  -0.8103  -0.8091  -0.8070  -0.8049  -0.8004
 -0.7993  -0.7991  -0.7966  -0.7955  -0.7948  -0.7925  -0.7897  -0.7897
 -0.7890  -0.7868  -0.7729  -0.7716  -0.7697  -0.7646  -0.7567  -0.7535
 -0.7507  -0.7419  -0.7381  -0.7378  -0.7356  -0.7354  -0.7344  -0.7326
 -0.7313  -0.7289  -0.7282  -0.7275  -0.7263  -0.7253  -0.7232  -0.7204
 -0.7199  -0.7160  -0.7139  -0.7130  -0.7104  -0.7043  -0.7017  -0.6975
 -0.6970  -0.6357  -0.6339  -0.6323  -0.6306  -0.6259  -0.6241  -0.6229
 -0.6224  -0.6218  -0.6213  -0.6210  -0.6193  -0.6178  -0.6163  -0.6148
 -0.6143  -0.6096  -0.6066  -0.6053  -0.6017  -0.6001  -0.5981  -0.5938
 -0.5908  -0.5845  -0.5783  -0.5765  -0.5121  -0.5103  -0.5026  -0.5004
 -0.4996  -0.4966  -0.4965  -0.4953  -0.4931  -0.4930  -0.4915  -0.4905
 -0.4900  -0.4896  -0.4879  -0.4873  -0.4854  -0.4845  -0.4835  -0.4831
 -0.4821  -0.4819  -0.4813  -0.4810  -0.4796  -0.4793  -0.4788  -0.4786
 -0.4775  -0.4766  -0.4765  -0.4760  -0.4758  -0.4747  -0.4745  -0.4739
 -0.4736  -0.4730  -0.4722  -0.4720  -0.4714  -0.4709  -0.4707  -0.4703
 -0.4699  -0.4682  -0.4677  -0.4660  -0.4656  -0.4645  -0.4643  -0.4641
 -0.4638  -0.4617  -0.4606  -0.4600  -0.4594  -0.4591  -0.4586  -0.4581
 -0.4577  -0.4570  -0.4565  -0.4557  -0.4548  -0.4545  -0.4537  -0.4533
 -0.4516  -0.4510  -0.4507  -0.4484  -0.4482  -0.4473  -0.4471  -0.4458
 -0.4453  -0.4440  -0.4433  -0.4432  -0.4422  -0.4402  -0.4395  -0.4378
 -0.4374  -0.4369  -0.4367  -0.4358  -0.4356  -0.4351  -0.4348  -0.4338
 -0.4333  -0.4328  -0.4301  -0.4294  -0.4292  -0.4280  -0.4272  -0.4259
 -0.4255  -0.4251  -0.4250  -0.4248  -0.4237  -0.4226  -0.4217  -0.4210
 -0.4208  -0.4204  -0.4204  -0.4196  -0.4192  -0.4174  -0.4166  -0.4163
 -0.4159  -0.4152  -0.4149  -0.4120  -0.4115  -0.4112  -0.4107  -0.4104
 -0.4101  -0.4100  -0.4081  -0.4074  -0.4062  -0.4058  -0.4047  -0.4035
 -0.4027  -0.4013  -0.3994  -0.3993  -0.3990  -0.3983  -0.3966  -0.3956
 -0.3954  -0.3949  -0.3945  -0.3938  -0.3933  -0.3927  -0.3922  -0.3905
 -0.3887  -0.3858  -0.3856  -0.3855  -0.3846  -0.3828  -0.3817  -0.3814
 -0.3811  -0.3802  -0.3796  -0.3788  -0.3784  -0.3777  -0.3771  -0.3758
 -0.3754  -0.3750  -0.3735  -0.3727  -0.3724  -0.3707  -0.3703  -0.3689
 -0.3681  -0.3657  -0.3654  -0.3610  -0.3605  -0.3586  -0.3582  -0.3521
 -0.3519  -0.3516  -0.3506  -0.3482  -0.3467  -0.3444  -0.3361  -0.3294
 -0.3269  -0.3064  -0.2981  -0.2927  -0.2921  -0.2881  -0.2863  -0.2846
 -0.2829  -0.2824  -0.2816  -0.2804  -0.2781  -0.2775  -0.2766  -0.2734
 -0.2729  -0.2697  -0.2687  -0.2684  -0.2675  -0.2658  -0.2654  -0.2638
 -0.2632  -0.2612  -0.2595  -0.2567  -0.2552  -0.2537  -0.2526  -0.2525
 -0.2521  -0.2505  -0.2502  -0.2501  -0.2494  -0.2466  -0.2437  -0.2433
 -0.2418  -0.2410  -0.2379  -0.2357  -0.2348  -0.2344  -0.2337  -0.2327
 -0.2276  -0.2256  -0.2252  -0.2243  -0.2136  -0.2059  -0.1977 -13.5561
-10.7398 -10.4202 -10.2810 -10.6201 -11.3469 -14.6796 -11.1596 -11.3973
 -0.8463  -0.6120  -0.6478  -0.7703  -0.8183  -0.7246  -0.7316  -0.7947
 -0.4354  -0.4532  -0.4790  -0.4897  -0.4287  -0.4901  -0.4088  -0.4406
 -0.3801  -0.4824  -0.4482  -0.4034  -0.4313  -0.4811  -0.4832  -0.4722
 -0.5351  -0.5406
 -- Virtual --
 -0.0339  -0.0295  -0.0281  -0.0261  -0.0248  -0.0232  -0.0215  -0.0204
 -0.0190  -0.0170  -0.0152  -0.0146  -0.0143  -0.0116  -0.0103  -0.0094
 -0.0089  -0.0075  -0.0071  -0.0060  -0.0051  -0.0044  -0.0030  -0.0020
 -0.0006  -0.0002   0.0007   0.0016   0.0021   0.0023   0.0029   0.0036
  0.0042   0.0046   0.0051   0.0065   0.0071   0.0077   0.0083   0.0092
  0.0098   0.0102   0.0105   0.0112   0.0123   0.0126   0.0137   0.0143
  0.0147   0.0159   0.0162   0.0172   0.0172   0.0185   0.0194   0.0203
  0.0212   0.0218   0.0222   0.0225   0.0229   0.0235   0.0240   0.0248
  0.0258   0.0260   0.0271   0.0275   0.0288   0.0295   0.0300   0.0301
  0.0308   0.0312   0.0321   0.0326   0.0334   0.0335   0.0343   0.0343
  0.0355   0.0363   0.0369   0.0373   0.0376   0.0389   0.0401   0.0404
  0.0412   0.0417   0.0425   0.0431   0.0445   0.0449   0.0449   0.0453
  0.0460   0.0473   0.0475   0.0482   0.0490   0.0494   0.0499   0.0509
  0.0511   0.0524   0.0531   0.0537   0.0545   0.0550   0.0558   0.0566
  0.0571   0.0578   0.0583   0.0587   0.0593   0.0601   0.0608   0.0611
  0.0625   0.0628   0.0631   0.0636   0.0643   0.0645   0.0658   0.0666
  0.0676   0.0677   0.0687   0.0688   0.0695   0.0703   0.0718   0.0724
  0.0728   0.0733   0.0738   0.0748   0.0750   0.0754   0.0765   0.0767
  0.0776   0.0791   0.0792   0.0795   0.0808   0.0812   0.0820   0.0825
  0.0839   0.0843   0.0846   0.0853   0.0858   0.0869   0.0873   0.0879
  0.0880   0.0892   0.0895   0.0902   0.0909   0.0909   0.0916   0.0921
  0.0922   0.0928   0.0937   0.0944   0.0949   0.0957   0.0960   0.0971
  0.0975   0.0976   0.0989   0.0994   0.1001   0.1007   0.1013   0.1024
  0.1038   0.1043   0.1046   0.1051   0.1060   0.1066   0.1069   0.1082
  0.1089   0.1090   0.1096   0.1102   0.1116   0.1124   0.1129   0.1133
  0.1140   0.1145   0.1150   0.1151   0.1159   0.1166   0.1173   0.1183
  0.1184   0.1189   0.1192   0.1201   0.1207   0.1215   0.1223   0.1234
  0.1237   0.1247   0.1254   0.1256   0.1258   0.1262   0.1269   0.1269
  0.1279   0.1284   0.1290   0.1296   0.1298   0.1305   0.1311   0.1317
  0.1328   0.1330   0.1333   0.1338   0.1347   0.1353   0.1365   0.1371
  0.1376   0.1381   0.1386   0.1390   0.1397   0.1403   0.1410   0.1418
  0.1423   0.1426   0.1428   0.1435   0.1446   0.1449   0.1454   0.1461
  0.1468   0.1476   0.1482   0.1484   0.1492   0.1495   0.1499   0.1509
  0.1520   0.1523   0.1529   0.1530   0.1534   0.1536   0.1553   0.1558
  0.1566   0.1573   0.1575   0.1577   0.1586   0.1588   0.1592   0.1612
  0.1612   0.1616   0.1626   0.1629   0.1634   0.1641   0.1650   0.1656
  0.1666   0.1673   0.1677   0.1681   0.1685   0.1696   0.1700   0.1701
  0.1704   0.1712   0.1717   0.1731   0.1737   0.1738   0.1742   0.1747
  0.1756   0.1760   0.1767   0.1779   0.1782   0.1787   0.1794   0.1809
  0.1814   0.1817   0.1822   0.1829   0.1836   0.1844   0.1849   0.1851
  0.1859   0.1864   0.1879   0.1882   0.1888   0.1894   0.1902   0.1905
  0.1912   0.1916   0.1925   0.1928   0.1933   0.1937   0.1943   0.1944
  0.1955   0.1960   0.1965   0.1971   0.1984   0.1989   0.1997   0.1999
  0.2004   0.2007   0.2013   0.2014   0.2022   0.2028   0.2034   0.2044
  0.2045   0.2054   0.2065   0.2071   0.2074   0.2085   0.2087   0.2098
  0.2103   0.2105   0.2118   0.2127   0.2133   0.2134   0.2142   0.2147
  0.2147   0.2159   0.2164   0.2170   0.2175   0.2182   0.2193   0.2197
  0.2201   0.2205   0.2212   0.2219   0.2225   0.2229   0.2234   0.2244
  0.2250   0.2259   0.2267   0.2272   0.2274   0.2280   0.2287   0.2295
  0.2303   0.2307   0.2313   0.2324   0.2332   0.2339   0.2344   0.2349
  0.2356   0.2362   0.2369   0.2370   0.2377   0.2386   0.2386   0.2393
  0.2398   0.2405   0.2422   0.2424   0.2430   0.2431   0.2447   0.2451
  0.2458   0.2463   0.2471   0.2479   0.2483   0.2490   0.2496   0.2504
  0.2506   0.2511   0.2521   0.2526   0.2533   0.2545   0.2550   0.2556
  0.2563   0.2565   0.2574   0.2585   0.2591   0.2598   0.2604   0.2609
  0.2617   0.2622   0.2634   0.2640   0.2646   0.2651   0.2655   0.2666
  0.2677   0.2681   0.2685   0.2690   0.2699   0.2706   0.2716   0.2723
  0.2731   0.2739   0.2743   0.2747   0.2757   0.2764   0.2774   0.2778
  0.2781   0.2789   0.2797   0.2802   0.2817   0.2834   0.2842   0.2845
  0.2849   0.2861   0.2861   0.2880   0.2891   0.2894   0.2901   0.2915
  0.2919   0.2922   0.2928   0.2935   0.2940   0.2951   0.2964   0.2968
  0.2969   0.2975   0.2990   0.2992   0.3009   0.3014   0.3017   0.3027
  0.3038   0.3046   0.3051   0.3060   0.3070   0.3076   0.3090   0.3091
  0.3102   0.3113   0.3119   0.3132   0.3133   0.3147   0.3153   0.3162
  0.3184   0.3188   0.3196   0.3201   0.3203   0.3208   0.3218   0.3225
  0.3235   0.3242   0.3247   0.3265   0.3279   0.3281   0.3289   0.3292
  0.3297   0.3312   0.3322   0.3327   0.3329   0.3335   0.3338   0.3347
  0.3369   0.3376   0.3388   0.3392   0.3400   0.3403   0.3421   0.3430
  0.3434   0.3437   0.3452   0.3463   0.3472   0.3476   0.3484   0.3490
  0.3504   0.3508   0.3515   0.3523   0.3534   0.3539   0.3548   0.3557
  0.3569   0.3578   0.3586   0.3591   0.3601   0.3610   0.3615   0.3630
  0.3638   0.3640   0.3653   0.3661   0.3670   0.3676   0.3679   0.3688
  0.3696   0.3711   0.3714   0.3727   0.3742   0.3750   0.3764   0.3770
  0.3774   0.3780   0.3791   0.3793   0.3810   0.3821   0.3823   0.3834
  0.3841   0.3845   0.3854   0.3867   0.3883   0.3887   0.3903   0.3904
  0.3915   0.3921   0.3939   0.3942   0.3949   0.3961   0.3970   0.3973
  0.3979   0.3989   0.4009   0.4013   0.4022   0.4030   0.4039   0.4044
  0.4050   0.4057   0.4060   0.4078   0.4089   0.4093   0.4103   0.4108
  0.4122   0.4133   0.4146   0.4163   0.4165   0.4173   0.4179   0.4189
  0.4196   0.4201   0.4228   0.4238   0.4247   0.4253   0.4261   0.4268
  0.4281   0.4283   0.4298   0.4319   0.4321   0.4325   0.4332   0.4355
  0.4367   0.4370   0.4374   0.4390   0.4400   0.4414   0.4428   0.4438
  0.4439   0.4449   0.4480   0.4489   0.4498   0.4505   0.4510   0.4530
  0.4543   0.4550   0.4565   0.4578   0.4586   0.4601   0.4615   0.4636
  0.4639   0.4656   0.4664   0.4673   0.4685   0.4694   0.4709   0.4713
  0.4729   0.4740   0.4760   0.4768   0.4775   0.4791   0.4816   0.4822
  0.4828   0.4839   0.4856   0.4864   0.4877   0.4888   0.4912   0.4921
  0.4942   0.4944   0.4965   0.4973   0.4994   0.5005   0.5018   0.5027
  0.5048   0.5058   0.5069   0.5081   0.5106   0.5125   0.5129   0.5157
  0.5161   0.5168   0.5188   0.5199   0.5219   0.5229   0.5235   0.5250
  0.5269   0.5286   0.5304   0.5314   0.5328   0.5349   0.5363   0.5378
  0.5389   0.5418   0.5434   0.5444   0.5450   0.5469   0.5483   0.5492
  0.5504   0.5533   0.5540   0.5555   0.5572   0.5581   0.5585   0.5617
  0.5647   0.5661   0.5668   0.5689   0.5712   0.5722   0.5736   0.5745
  0.5761   0.5775   0.5796   0.5806   0.5817   0.5831   0.5840   0.5857
  0.5874   0.5874   0.5902   0.5923   0.5927   0.5940   0.5956   0.5975
  0.5994   0.5997   0.6013   0.6018   0.6025   0.6042   0.6049   0.6071
  0.6074   0.6089   0.6101   0.6123   0.6130   0.6148   0.6160   0.6170
  0.6187   0.6197   0.6223   0.6227   0.6244   0.6256   0.6263   0.6279
  0.6283   0.6288   0.6309   0.6328   0.6343   0.6351   0.6364   0.6370
  0.6383   0.6385   0.6401   0.6408   0.6413   0.6429   0.6446   0.6450
  0.6464   0.6483   0.6499   0.6502   0.6521   0.6523   0.6532   0.6547
  0.6572   0.6587   0.6589   0.6602   0.6614   0.6626   0.6639   0.6652
  0.6662   0.6678   0.6689   0.6698   0.6708   0.6720   0.6727   0.6731
  0.6737   0.6750   0.6755   0.6768   0.6771   0.6794   0.6797   0.6808
  0.6814   0.6829   0.6831   0.6839   0.6857   0.6866   0.6874   0.6893
  0.6898   0.6910   0.6922   0.6929   0.6937   0.6944   0.6945   0.6968
  0.6990   0.7003   0.7011   0.7023   0.7042   0.7059   0.7075   0.7090
  0.7093   0.7104   0.7112   0.7133   0.7139   0.7143   0.7159   0.7177
  0.7184   0.7189   0.7218   0.7224   0.7241   0.7251   0.7257   0.7271
  0.7280   0.7296   0.7314   0.7339   0.7360   0.7370   0.7388   0.7394
  0.7407   0.7408   0.7420   0.7439   0.7447   0.7456   0.7477   0.7493
  0.7506   0.7518   0.7547   0.7563   0.7595   0.7601   0.7633   0.7636
  0.7653   0.7677   0.7687   0.7689   0.7702   0.7711   0.7739   0.7747
  0.7766   0.7782   0.7804   0.7808   0.7816   0.7842   0.7846   0.7860
  0.7861   0.7877   0.7900   0.7918   0.7938   0.7947   0.7959   0.7974
  0.7990   0.7995   0.7999   0.8014   0.8031   0.8049   0.8056   0.8069
  0.8085   0.8095   0.8106   0.8124   0.8130   0.8142   0.8156   0.8182
  0.8204   0.8212   0.8225   0.8236   0.8249   0.8278   0.8290   0.8297
  0.8307   0.8319   0.8337   0.8353   0.8372   0.8382   0.8394   0.8401
  0.8424   0.8437   0.8450   0.8463   0.8480   0.8489   0.8497   0.8509
  0.8519   0.8531   0.8538   0.8552   0.8571   0.8588   0.8596   0.8608
  0.8624   0.8633   0.8651   0.8659   0.8676   0.8692   0.8709   0.8720
  0.8725   0.8738   0.8751   0.8765   0.8781   0.8790   0.8795   0.8806
  0.8821   0.8834   0.8841   0.8866   0.8885   0.8893   0.8900   0.8920
  0.8928   0.8944   0.8948   0.8957   0.8975   0.8991   0.8992   0.9005
  0.9012   0.9032   0.9044   0.9058   0.9087   0.9090   0.9110   0.9120
  0.9137   0.9157   0.9168   0.9174   0.9183   0.9189   0.9216   0.9217
  0.9233   0.9239   0.9268   0.9278   0.9285   0.9308   0.9331   0.9334
  0.9349   0.9359   0.9373   0.9375   0.9392   0.9414   0.9419   0.9434
  0.9438   0.9456   0.9461   0.9472   0.9489   0.9500   0.9515   0.9528
  0.9536   0.9549   0.9555   0.9562   0.9579   0.9580   0.9596   0.9606
  0.9622   0.9634   0.9648   0.9652   0.9653   0.9672   0.9692   0.9694
  0.9713   0.9716   0.9731   0.9746   0.9755   0.9763   0.9777   0.9787
  0.9793   0.9802   0.9819   0.9831   0.9842   0.9862   0.9880   0.9893
  0.9896   0.9920   0.9923   0.9926   0.9942   0.9953   0.9960   0.9964
  0.9980   0.9986   0.9991   1.0002   1.0018   1.0033   1.0040   1.0047
  1.0053   1.0066   1.0072   1.0096   1.0107   1.0113   1.0124   1.0130
  1.0136   1.0171   1.0175   1.0190   1.0195   1.0200   1.0225   1.0236
  1.0244   1.0258   1.0270   1.0276   1.0283   1.0293   1.0300   1.0322
  1.0326   1.0341   1.0365   1.0367   1.0385   1.0392   1.0411   1.0418
  1.0432   1.0439   1.0454   1.0477   1.0486   1.0495   1.0519   1.0533
  1.0541   1.0544   1.0550   1.0563   1.0576   1.0596   1.0604   1.0611
  1.0632   1.0638   1.0642   1.0648   1.0668   1.0686   1.0691   1.0704
  1.0714   1.0721   1.0731   1.0750   1.0750   1.0771   1.0780   1.0787
  1.0807   1.0824   1.0830   1.0840   1.0849   1.0869   1.0880   1.0907
  1.0911   1.0933   1.0938   1.0960   1.0967   1.0974   1.1002   1.1014
  1.1015   1.1027   1.1035   1.1054   1.1065   1.1080   1.1087   1.1113
  1.1125   1.1141   1.1153   1.1170   1.1170   1.1183   1.1203   1.1216
  1.1225   1.1233   1.1238   1.1251   1.1264   1.1285   1.1297   1.1311
  1.1326   1.1334   1.1343   1.1348   1.1353   1.1366   1.1381   1.1394
  1.1402   1.1427   1.1442   1.1452   1.1465   1.1489   1.1498   1.1513
  1.1523   1.1534   1.1544   1.1552   1.1569   1.1588   1.1596   1.1610
  1.1628   1.1637   1.1656   1.1659   1.1664   1.1685   1.1701   1.1703
  1.1719   1.1742   1.1749   1.1754   1.1773   1.1802   1.1809   1.1821
  1.1853   1.1863   1.1872   1.1891   1.1907   1.1917   1.1939   1.1954
  1.1958   1.1974   1.1980   1.2004   1.2018   1.2022   1.2038   1.2050
  1.2065   1.2080   1.2097   1.2110   1.2120   1.2138   1.2155   1.2161
  1.2197   1.2213   1.2243   1.2249   1.2294   1.2307   1.2338   1.2352
  1.2367   1.2398   1.2409   1.2422   1.2448   1.2463   1.2479   1.2507
  1.2527   1.2543   1.2555   1.2565   1.2578   1.2618   1.2624   1.2660
  1.2666   1.2679   1.2680   1.2735   1.2737   1.2765   1.2787   1.2806
  1.2847   1.2859   1.2873   1.2897   1.2934   1.2955   1.2969   1.2992
  1.3020   1.3036   1.3044   1.3080   1.3095   1.3123   1.3152   1.3172
  1.3183   1.3197   1.3205   1.3241   1.3245   1.3269   1.3293   1.3313
  1.3348   1.3370   1.3396   1.3424   1.3431   1.3457   1.3490   1.3496
  1.3507   1.3525   1.3537   1.3563   1.3586   1.3611   1.3620   1.3646
  1.3660   1.3698   1.3711   1.3731   1.3732   1.3746   1.3764   1.3782
  1.3792   1.3825   1.3838   1.3856   1.3864   1.3878   1.3900   1.3905
  1.3917   1.3931   1.3949   1.3961   1.3972   1.4016   1.4017   1.4029
  1.4043   1.4052   1.4072   1.4081   1.4097   1.4114   1.4124   1.4130
  1.4134   1.4184   1.4201   1.4206   1.4224   1.4227   1.4242   1.4265
  1.4273   1.4278   1.4284   1.4301   1.4310   1.4316   1.4332   1.4345
  1.4370   1.4387   1.4397   1.4422   1.4441   1.4454   1.4469   1.4482
  1.4485   1.4491   1.4503   1.4518   1.4536   1.4551   1.4568   1.4590
  1.4608   1.4627   1.4654   1.4663   1.4680   1.4709   1.4732   1.4751
  1.4768   1.4790   1.4811   1.4822   1.4858   1.4868   1.4883   1.4896
  1.4914   1.4927   1.4944   1.4946   1.4972   1.4984   1.5027   1.5034
  1.5050   1.5065   1.5075   1.5100   1.5148   1.5177   1.5183   1.5209
  1.5231   1.5263   1.5265   1.5284   1.5313   1.5349   1.5352   1.5373
  1.5389   1.5412   1.5433   1.5446   1.5468   1.5498   1.5519   1.5554
  1.5563   1.5597   1.5629   1.5663   1.5671   1.5719   1.5720   1.5792
  1.5819   1.5835   1.5883   1.5911   1.5922   1.5945   1.5990   1.5996
  1.6009   1.6070   1.6113   1.6162   1.6178   1.6225   1.6283   1.6312
  1.6317   1.6352   1.6426   1.6444   1.6483   1.6524   1.6545   1.6564
  1.6573   1.6596   1.6621   1.6642   1.6655   1.6696   1.6704   1.6732
  1.6743   1.6753   1.6769   1.6773   1.6781   1.6797   1.6810   1.6827
  1.6835   1.6864   1.6878   1.6883   1.6897   1.6911   1.6917   1.6936
  1.6949   1.6960   1.6965   1.6991   1.6995   1.7002   1.7019   1.7028
  1.7046   1.7066   1.7073   1.7079   1.7097   1.7106   1.7124   1.7134
  1.7142   1.7150   1.7164   1.7172   1.7195   1.7200   1.7222   1.7239
  1.7253   1.7264   1.7272   1.7296   1.7307   1.7313   1.7333   1.7340
  1.7352   1.7358   1.7382   1.7394   1.7408   1.7429   1.7443   1.7451
  1.7462   1.7479   1.7490   1.7494   1.7508   1.7513   1.7527   1.7536
  1.7539   1.7556   1.7575   1.7582   1.7595   1.7618   1.7626   1.7648
  1.7660   1.7671   1.7681   1.7692   1.7711   1.7720   1.7728   1.7743
  1.7750   1.7763   1.7786   1.7804   1.7827   1.7843   1.7857   1.7871
  1.7899   1.7908   1.7939   1.7946   1.7969   1.7973   1.7991   1.7993
  1.8017   1.8040   1.8071   1.8077   1.8080   1.8138   1.8152   1.8170
  1.8218   1.8249   1.8278   1.8289   1.8346   1.8370   1.8414   1.8461
  1.8475   1.8508   1.8555   1.8579   1.8581   1.8630   1.8667   1.8685
  1.8700   1.8726   1.8744   1.8765   1.8789   1.8794   1.8816   1.8832
  1.8868   1.8876   1.8880   1.8890   1.8894   1.8919   1.8928   1.8941
  1.8955   1.8975   1.8981   1.8999   1.9003   1.9005   1.9027   1.9037
  1.9045   1.9049   1.9074   1.9078   1.9089   1.9094   1.9118   1.9130
  1.9146   1.9164   1.9168   1.9180   1.9196   1.9197   1.9206   1.9209
  1.9233   1.9246   1.9257   1.9268   1.9277   1.9294   1.9305   1.9324
  1.9349   1.9352   1.9374   1.9384   1.9412   1.9422   1.9451   1.9470
  1.9480   1.9502   1.9522   1.9549   1.9573   1.9595   1.9635   1.9655
  1.9682   1.9713   1.9734   1.9750   1.9777   1.9812   1.9869   1.9943
  2.0026   2.0040   2.0181   2.0236   2.0298   2.0435   2.0444   2.0478
  2.0490   2.0504   2.0546   2.0562   2.0569   2.0599   2.0610   2.0626
  2.0640   2.0663   2.0676   2.0686   2.0705   2.0729   2.0744   2.0765
  2.0776   2.0790   2.0797   2.0800   2.0807   2.0819   2.0832   2.0845
  2.0850   2.0866   2.0879   2.0887   2.0906   2.0917   2.0942   2.0961
  2.0986   2.0988   2.0993   2.1003   2.1013   2.1022   2.1027   2.1039
  2.1056   2.1067   2.1097   2.1107   2.1134   2.1141   2.1160   2.1170
  2.1190   2.1204   2.1228   2.1250   2.1264   2.1281   2.1317   2.1378
  2.1486   2.1549   2.1569   2.1656   2.1671   2.1747   2.1753   2.1774
  2.1790   2.1815   2.1833   2.1880   2.1895   2.1938   2.1972   2.2000
  2.2027   2.2042   2.2066   2.2103   2.2132   2.2148   2.2180   2.2191
  2.2204   2.2213   2.2225   2.2233   2.2245   2.2256   2.2309   2.2310
  2.2318   2.2332   2.2360   2.2372   2.2375   2.2392   2.2395   2.2406
  2.2412   2.2418   2.2421   2.2436   2.2441   2.2452   2.2460   2.2470
  2.2483   2.2499   2.2508   2.2531   2.2547   2.2557   2.2568   2.2572
  2.2577   2.2581   2.2600   2.2620   2.2624   2.2638   2.2640   2.2649
  2.2653   2.2662   2.2674   2.2677   2.2681   2.2699   2.2702   2.2712
  2.2725   2.2730   2.2738   2.2745   2.2769   2.2779   2.2785   2.2800
  2.2805   2.2817   2.2827   2.2837   2.2845   2.2861   2.2866   2.2872
  2.2881   2.2886   2.2889   2.2907   2.2914   2.2931   2.2937   2.2948
  2.2963   2.2978   2.2984   2.2994   2.3003   2.3022   2.3035   2.3047
  2.3059   2.3065   2.3082   2.3085   2.3095   2.3096   2.3101   2.3113
  2.3120   2.3126   2.3146   2.3151   2.3160   2.3185   2.3207   2.3213
  2.3224   2.3238   2.3247   2.3259   2.3265   2.3270   2.3280   2.3299
  2.3305   2.3325   2.3350   2.3373   2.3399   2.3406   2.3413   2.3419
  2.3447   2.3452   2.3496   2.3509   2.3514   2.3534   2.3536   2.3543
  2.3555   2.3574   2.3575   2.3593   2.3616   2.3618   2.3635   2.3648
  2.3672   2.3702   2.3706   2.3716   2.3728   2.3742   2.3781   2.3793
  2.3823   2.3841   2.3859   2.3888   2.3915   2.3917   2.4036   2.4083
  2.4094   2.4165   2.4199   2.4375   2.4486   2.4535   2.4966   2.5301
  2.5424   2.5855   2.6634   2.7086   2.7513   2.7737   2.8202   2.8259
  2.8294   2.8299   2.8324   2.8351   2.8361   2.8400   2.8424   2.8475
  2.8480   2.8493   2.8510   2.8522   2.8540   2.8556   2.8570   2.8598
  2.8615   2.8620   2.8625   2.8632   2.8640   2.8664   2.8717   2.8731
  2.8770   2.8805   2.8833   2.8864   2.9019   2.9487   3.0989   3.2352
  3.9516   3.9598   3.9629   3.9651   3.9691   3.9725   3.9733   3.9754
  3.9760   3.9813   3.9817   3.9870   3.9911   3.9937   3.9949   3.9968
  3.9986   3.9993   4.0013   4.0051   4.0063   4.0103   4.0192   4.0246
  4.0264   4.0275   4.0384   4.2246   4.2299   4.2334   4.2362   4.2396
  4.2443   4.2502   4.2553   4.2581   4.2588   4.2606   4.2629   4.2637
  4.2662   4.2679   4.2713   4.2730   4.2747   4.2772   4.2809   4.2868
  4.2881   4.2893   4.2905   4.2925   4.2978   4.3008   4.3025   4.3038
  4.3088   4.3098   4.3107   4.3115   4.3127   4.3173   4.3204   4.3245
  4.3252   4.3268   4.3306   4.3317   4.3367   4.3378   4.3385   4.3414
  4.3429   4.3465   4.3491   4.3495   4.3545   4.3569   4.3583   4.3625
  4.3658   4.3704   4.3739   4.3790   4.3842   4.3856   4.3873   4.3949
  4.4039   4.4046   4.4071   4.4118   4.4175   4.4204   4.4224   4.4271
  4.4355   4.4414   4.4484   4.4512   4.4655   4.4779   4.4811   4.4857
  4.4916   4.5090   4.5204   4.5237   4.5532   4.5769   4.5889   4.6113
  4.6361   4.7085   4.7442   4.7651   4.9387
 --------------------------------------------------------------

          Ground-State Mulliken Net Atomic Charges

     Atom                 Charge (a.u.)
  ----------------------------------------
      1 C                     0.050749
      2 C                    -0.732339
      3 C                    -0.919231
      4 C                    -0.042806
      5 C                    -0.484407
      6 C                    -0.409097
      7 H                     0.223472
      8 H                     0.247609
      9 H                     0.183526
     10 H                     0.228612
     11 H                     0.206349
     12 H                     0.206672
     13 H                     0.210740
     14 H                     0.192117
     15 H                     0.227515
     16 H                     0.229753
     17 H                     0.239446
     18 N                     0.335477
     19 H                     0.470050
     20 C                    -0.510766
     21 H                     0.224366
     22 O                    -0.290041
     23 C                    -0.710730
     24 H                     0.272618
     25 H                     0.229236
     26 H                     0.250741
     27 S                     0.780021
     28 C                    -0.819920
     29 H                     0.249451
     30 H                     0.247518
     31 H                     0.250740
     32 O                    -0.746921
     33 C                    -1.047388
     34 H                     0.265551
     35 H                     0.269621
     36 H                     0.310579
     37 S                     0.990828
     38 C                    -0.902409
     39 H                     0.281496
     40 H                     0.202805
     41 H                     0.295865
     42 O                    -0.712577
     43 C                    -1.033133
     44 H                     0.308046
     45 H                     0.280147
     46 H                     0.257403
     47 S                     1.002334
     48 C                    -0.884761
     49 H                     0.249252
     50 H                     0.256721
     51 H                     0.285724
     52 O                    -0.748564
     53 C                    -0.995345
     54 H                     0.230248
     55 H                     0.239466
     56 H                     0.276329
     57 S                     1.065427
     58 C                    -0.922500
     59 H                     0.281139
     60 H                     0.257791
     61 H                     0.247364
     62 O                    -0.692044
     63 C                    -0.925431
     64 H                     0.294553
     65 H                     0.230831
     66 H                     0.278620
     67 S                     0.698054
     68 C                    -0.853582
     69 H                     0.240848
     70 H                     0.245645
     71 H                     0.291886
     72 O                    -0.623625
     73 C                    -0.904903
     74 H                     0.246829
     75 H                     0.229519
     76 H                     0.249324
     77 S                     0.931657
     78 C                    -0.825764
     79 H                     0.227752
     80 H                     0.276569
     81 H                     0.249518
     82 O                    -0.682811
     83 C                    -1.103207
     84 H                     0.275462
     85 H                     0.234017
     86 H                     0.276538
     87 S                     1.335283
     88 C                    -0.962060
     89 H                     0.305537
     90 H                     0.239088
     91 H                     0.250764
     92 O                    -0.734301
     93 C                    -0.930563
     94 H                     0.242766
     95 H                     0.254183
     96 H                     0.270410
     97 S                     1.348757
     98 C                    -1.368070
     99 H                     0.309849
    100 H                     0.273236
    101 H                     0.280689
    102 O                    -0.710453
    103 C                    -1.048069
    104 H                     0.285043
    105 H                     0.273087
    106 H                     0.255481
    107 S                     1.047029
    108 C                    -0.939567
    109 H                     0.230113
    110 H                     0.312986
    111 H                     0.245917
    112 O                    -0.691692
    113 C                    -0.914915
    114 H                     0.259934
    115 H                     0.242453
    116 H                     0.256273
    117 S                     0.899801
    118 C                    -0.828470
    119 H                     0.290235
    120 H                     0.209842
    121 H                     0.320787
    122 O                    -0.667335
    123 C                    -0.776428
    124 H                     0.222082
    125 H                     0.241090
    126 H                     0.284849
    127 S                     0.873943
    128 C                    -0.767747
    129 H                     0.225905
    130 H                     0.315381
    131 H                     0.265112
    132 O                    -0.821926
    133 C                    -1.053934
    134 H                     0.274770
    135 H                     0.238597
    136 H                     0.239907
    137 S                     0.898026
    138 C                    -0.817208
    139 H                     0.239536
    140 H                     0.259973
    141 H                     0.255488
    142 O                    -0.708465
    143 C                    -0.839259
    144 H                     0.241962
    145 H                     0.284561
    146 H                     0.307186
    147 S                     0.878556
    148 C                    -1.011934
    149 H                     0.277652
    150 H                     0.275248
    151 H                     0.249497
    152 O                    -0.556978
    153 C                    -1.040534
    154 H                     0.249863
    155 H                     0.259210
    156 H                     0.247220
    157 S                     1.102739
    158 C                    -0.921052
    159 H                     0.269898
    160 H                     0.234701
    161 H                     0.294206
    162 O                    -0.658751
    163 C                    -0.975543
    164 H                     0.280690
    165 H                     0.274728
    166 H                     0.246421
    167 S                     1.040482
    168 C                    -0.951132
    169 H                     0.290674
    170 H                     0.222749
    171 H                     0.281369
    172 O                    -0.734262
    173 C                    -0.734414
    174 H                     0.260244
    175 H                     0.255640
    176 H                     0.259951
    177 S                     0.510897
    178 C                    -0.687019
    179 H                     0.251456
    180 H                     0.262131
    181 H                     0.254999
    182 O                    -0.626366
    183 C                    -0.805323
    184 H                     0.240385
    185 H                     0.237907
    186 H                     0.227701
    187 S                     0.814294
    188 C                    -0.793815
    189 H                     0.300105
    190 H                     0.231636
    191 H                     0.266869
    192 O                    -0.698169
    193 C                    -0.839962
    194 H                     0.308818
    195 H                     0.239145
    196 H                     0.259367
    197 S                     0.743904
    198 C                    -0.774379
    199 H                     0.288776
    200 H                     0.216860
    201 H                     0.256417
    202 O                    -0.674973
    203 C                    -0.690102
    204 H                     0.265826
    205 H                     0.227991
    206 H                     0.277039
    207 S                     0.791841
    208 C                    -0.992316
    209 H                     0.316006
    210 H                     0.266772
    211 H                     0.212988
    212 O                    -0.656648
    213 C                    -0.788027
    214 H                     0.284835
    215 H                     0.181486
    216 H                     0.295381
    217 S                     0.790053
    218 C                    -0.763977
    219 H                     0.279291
    220 H                     0.211835
    221 H                     0.239963
    222 O                    -0.720453
    223 C                    -0.858629
    224 H                     0.251316
    225 H                     0.272277
    226 H                     0.267301
    227 S                     0.807594
    228 C                    -0.862678
    229 H                     0.309183
    230 H                     0.255141
    231 H                     0.240967
    232 O                    -0.700694
    233 C                    -1.020825
    234 H                     0.266029
    235 H                     0.284200
    236 H                     0.275565
    237 S                     0.613373
    238 C                    -0.749086
    239 H                     0.299377
    240 H                     0.284127
    241 H                     0.263326
    242 O                    -0.517803
    243 C                    -1.162032
    244 H                     0.274990
    245 H                     0.253855
    246 H                     0.265117
    247 S                     1.241686
    248 C                    -1.036432
    249 H                     0.237687
    250 H                     0.273534
    251 H                     0.264600
    252 O                    -0.679162
    253 C                    -1.056442
    254 H                     0.280768
    255 H                     0.275160
    256 H                     0.277561
    257 S                     1.298147
    258 C                    -1.197090
    259 H                     0.279102
    260 H                     0.299289
    261 H                     0.247256
    262 O                    -0.701449
    263 C                    -0.940936
    264 H                     0.246370
    265 H                     0.277515
    266 H                     0.275543
    267 S                     0.974926
    268 C                    -0.810401
    269 H                     0.268462
    270 H                     0.278300
    271 H                     0.237551
    272 O                    -0.839070
    273 C                    -0.793449
    274 H                     0.248094
    275 H                     0.236786
    276 H                     0.236795
    277 S                     0.923283
    278 C                    -0.841448
    279 H                     0.238643
    280 H                     0.243952
    281 H                     0.301344
    282 O                    -0.789192
    283 C                    -0.972916
    284 H                     0.243461
    285 H                     0.296683
    286 H                     0.262496
    287 S                     1.021619
    288 C                    -0.954769
    289 H                     0.241452
    290 H                     0.302678
    291 H                     0.287617
    292 O                    -0.717864
  ----------------------------------------
  Sum of atomic charges =     0.000000

 -----------------------------------------------------------------
                    Cartesian Multipole Moments
 -----------------------------------------------------------------
    Charge (ESU x 10^10)
                 0.0000
    Dipole Moment (Debye)
         X      13.6309      Y       2.7126      Z      12.2928
       Tot      18.5546
    Quadrupole Moments (Debye-Ang)
        XX    -263.3036     XY     345.1829     YY    -799.0259
        XZ     664.2980     YZ     343.5099     ZZ    -285.8645
    Octopole Moments (Debye-Ang^2)
       XXX  -54408.6947    XXY   -7161.4315    XYY  -17430.7429
       YYY  -60909.0211    XXZ    1219.4899    XYZ   16280.9607
[...]
          205         206         207         208         209         210
    1  -0.6692579  -3.6100548  -0.6663549  -2.6255718  -2.3966821  -4.1102914
    2   2.2072004   2.5067158   0.4786889   0.6154513  -1.1247556   1.9229639
    3  -1.6671976   0.4087343  -0.3739342  -0.7962941  -0.4431926   0.3187203
          211         212         213         214         215         216
    1  -1.5666105  -2.7154078   1.7755164   2.5007056   2.6280441  -0.3642950
    2   1.5780114   0.2104064   0.6913208   0.1687956   1.7175873   0.6133499
    3  -1.8438622   2.2384174  -0.7598834  -2.5883407   0.7116616  -0.3556799
          217         218         219         220         221         222
    1   1.9551769  -0.0087655  -1.1751913   1.5684149  -0.2445663  -0.4373651
    2   2.6181775   2.9855324   1.5376196   2.9876904   4.4145153   1.5631455
    3  -0.9876208   0.3288360  -0.3414222   1.6368494  -0.5277222  -3.2627458
          223         224         225         226         227         228
    1  -0.8434616  -1.1236229   0.7168968  -2.3885830  -0.1291038  -0.3728506
    2  -1.3287059  -3.5189885   0.1382164  -0.1762990  -2.4159216  -0.0399671
    3   0.4379118   0.6703885   0.1132178   0.1630087  -1.2824384  -1.6946870
          229         230         231         232         233         234
    1  -1.0719939  -1.6974967   1.1438301  -3.1944938   0.1452191   1.4617665
    2  -1.1063864   0.9039625  -0.0473807  -2.1968455   0.1542161  -0.7987638
    3  -3.2608100  -0.5994162  -0.9000518  -1.9036205   1.3053333   0.7661389
          235         236         237         238         239         240
    1  -0.1966572  -1.4785803  -0.7224967  -2.5867703  -2.0086522  -2.9747814
    2   1.9309222  -1.1338979  -0.0230782  -0.5517977   1.3833093  -1.0378330
    3   0.9788253   2.2413166  -0.4912942   0.5300203   0.9274205  -0.7619568
          241         242         243         244         245         246
    1  -2.2313967  -0.5501310  -1.2050938  -0.3716777  -3.3766826  -0.0800302
    2  -1.9797471  -3.3730284   1.1875530   2.4410645   1.6354394  -0.4936272
    3   1.7665783  -0.1591347   0.2869161   0.0524020  -0.1679905   0.7187184
          247         248         249         250         251         252
    1  -0.1306383  -2.0200320  -3.4537108  -0.4859479  -2.4773986  -2.4639437
    2   0.9694644   2.2947356   2.3464527   3.0609613   1.1164947  -1.1047385
    3  -1.6679958  -2.3644891  -0.8038556  -2.5168733  -3.8160227  -2.0932477
          253         254         255         256         257         258
    1   1.0980543  -0.5578027   2.9108774   0.6876151   2.4215597  -0.3258833
    2  -1.1879136  -0.1003944  -1.0470489  -1.9480995  -0.0657395   0.4640151
    3  -1.9040280  -2.0706049  -3.2537252  -0.6223664  -0.6520058   0.3465599
          259         260         261         262         263         264
    1   0.7076443  -1.3983227  -0.6039606   1.5490520  -0.7991936   0.2431890
    2   1.5221391   1.0925423  -1.4414559   2.2623523  -1.3449106  -1.2676843
    3   1.2595065  -1.0380432   0.4340276  -2.4649221  -0.8345106  -1.8455808
          265         266         267         268         269         270
    1  -2.3409024   0.0072730  -0.3076571  -0.6689997  -2.5094639   0.0666811
    2  -2.5719867   0.1323937  -3.6197588  -2.8308645  -2.7766124  -4.3085106
    3  -1.0346529   0.5723490  -0.5134113   1.4210650   0.4277374   2.0150592
          271         272         273         274         275         276
    1   0.4985288   2.2798122  -0.7280620  -2.0113131  -1.3995503   1.3198001
    2  -0.9863120  -1.8253174  -0.7339292  -2.3307738   1.0962275  -1.0479590
    3   1.6814780   0.4162386  -3.7107862  -2.9603342  -3.9131407  -3.6421387
          277         278         279         280         281         282
    1  -1.7951569   0.2784087   1.6147614  -0.4499637   0.1441065  -0.0932469
    2   0.0731705   1.2807522  -0.3605114   2.3555780   1.2725681  -2.5344929
    3  -2.3385170  -2.5744644  -3.4192461  -3.6750655  -0.7495697  -1.1470018
          283         284         285         286         287         288
    1   2.7564530   4.6077802   1.3037572   2.4468579   2.5863881   1.7681328
    2   0.2168529  -0.4010068  -0.6492318   1.8445033   0.5296430  -1.4298628
    3  -0.5012384   0.4537768  -1.0977309  -0.3579451   1.5397705   1.0641712
          289         290         291         292
    1   3.9557934   0.8124731   0.5254345  -0.7543807
    2  -1.5035423  -1.0925654  -1.2372696   1.3212191
    3   1.4990859   2.1863645  -0.7794501   0.6135568
 EField
            1           2           3           4           5           6
    1  -0.0001613   0.0035061   0.0048920   0.0026903   0.0014682   0.0013279
    2  -0.0029229  -0.0012050  -0.0040856  -0.0031252  -0.0015842  -0.0043800
    3  -0.0028953  -0.0028678  -0.0023559  -0.0027842  -0.0007215  -0.0005839
            7           8           9          10          11          12
    1   0.0056076   0.0018857  -0.0040662  -0.0012467   0.0028246   0.0056524
    2  -0.0080767  -0.0023492  -0.0027463  -0.0015924  -0.0061061  -0.0019234
    3  -0.0033087  -0.0073606   0.0008545  -0.0072196  -0.0011848  -0.0069502
           13          14          15          16          17          18
    1   0.0048270  -0.0040266   0.0019146   0.0034011   0.0039246   0.0117186
    2  -0.0012095   0.0003355  -0.0025145  -0.0081680  -0.0025337   0.0044380
    3  -0.0016105   0.0011555   0.0013373   0.0014233   0.0013794  -0.0021740
           19          20          21          22          23          24
    1   0.0160314   0.0144561   0.0177314   0.0100751   0.0082602   0.0364559
    2   0.0135131  -0.0000827  -0.0009182  -0.0025330  -0.0019744   0.0002326
    3   0.0057605  -0.0055822  -0.0037979  -0.0077090   0.0006060  -0.0082590
           25          26          27          28          29          30
    1  -0.0005179   0.0153871  -0.0161985  -0.0040789   0.0098683  -0.0086039
    2   0.0278091  -0.0177172   0.0403090  -0.0020172  -0.0244938   0.0261196
    3   0.0161899   0.0236258  -0.0319570   0.0042239   0.0146008   0.0170141
           31          32          33          34          35          36
    1  -0.0310913   0.0357896   0.0027478   0.0043585  -0.0319745   0.0233705
    2  -0.0116723  -0.0995105   0.0062947  -0.0168000   0.0126459   0.0283914
    3  -0.0043553  -0.0314063  -0.0097037  -0.0174995  -0.0118562   0.0065686
           37          38          39          40          41          42
    1   0.0384617  -0.0112742   0.0043825  -0.0051874  -0.0344948  -0.0842477
    2  -0.0023633  -0.0037251  -0.0129966  -0.0221397   0.0037012   0.0734120
    3   0.0391354  -0.0033640  -0.0235947   0.0225762  -0.0094878   0.0083373
           43          44          45          46          47          48
    1   0.0082606   0.0398812  -0.0236502   0.0215194   0.0444854  -0.0029307
    2  -0.0125556  -0.0104379  -0.0087391   0.0119515   0.0338996  -0.0063604
    3  -0.0060391   0.0069395  -0.0048901  -0.0231669   0.0162028   0.0053970
           49          50          51          52          53          54
    1  -0.0116786   0.0239459  -0.0207569  -0.0906614   0.0024937  -0.0254211
    2  -0.0297874  -0.0050961   0.0230285   0.0381936  -0.0012746   0.0113232
    3  -0.0002464   0.0228580   0.0123862  -0.0471484   0.0051449   0.0175524
           55          56          57          58          59          60
    1   0.0148074   0.0223153  -0.0427236   0.0068087  -0.0083183   0.0084666
    2  -0.0307976   0.0162135  -0.0202046  -0.0074937  -0.0335123   0.0149008
    3   0.0103514   0.0136612  -0.0291818  -0.0042474  -0.0117141  -0.0268986
           61          62          63          64          65          66
    1   0.0210806   0.0310999   0.0044170  -0.0092598   0.0263192   0.0094169
    2   0.0092515   0.1048853   0.0076786  -0.0017413  -0.0197112   0.0336165
    3   0.0230496   0.0033234   0.0051529   0.0275212  -0.0012735   0.0058148
           67          68          69          70          71          72
    1  -0.0053261   0.0023880   0.0224139  -0.0128042   0.0071519  -0.0870626
    2  -0.0603394   0.0070323  -0.0218211  -0.0032812   0.0325085   0.0655468
    3   0.0006021  -0.0071438  -0.0117810  -0.0241454  -0.0028187   0.0154058
           73          74          75          76          77          78
    1  -0.0000945   0.0141828   0.0210944  -0.0329638   0.0449981  -0.0065418
    2  -0.0039652  -0.0239018   0.0164942  -0.0100156   0.0236293   0.0011263
    3   0.0076375  -0.0080053   0.0217032   0.0074889  -0.0199490   0.0008766
           79          80          81          82          83          84
    1   0.0006160  -0.0165517  -0.0289796  -0.0641702   0.0006290   0.0275743
    2   0.0286288   0.0194177  -0.0097456  -0.0691629  -0.0084844  -0.0197753
    3   0.0219074  -0.0207993   0.0138745  -0.0600188   0.0046812  -0.0061222
           85          86          87          88          89          90
    1  -0.0063279  -0.0204008  -0.0321192  -0.0080951  -0.0389074   0.0241645
    2   0.0217379  -0.0256233   0.0500638  -0.0082678  -0.0020604   0.0200451
    3   0.0258984  -0.0086640   0.0076153  -0.0106300   0.0178641  -0.0174369
           91          92          93          94          95          96
    1   0.0170732   0.1065158  -0.0007739   0.0293196  -0.0002916  -0.0136694
    2  -0.0274899   0.0053410  -0.0066004  -0.0003151  -0.0063975  -0.0400637
    3   0.0034869  -0.0269689   0.0027605  -0.0017529   0.0321505   0.0042698
           97          98          99         100         101         102
    1  -0.0439107   0.0047853  -0.0043515   0.0010683   0.0272127   0.0680057
    2  -0.0018900  -0.0037497  -0.0282160   0.0181431   0.0048346   0.0775877
    3  -0.0099368  -0.0097583  -0.0265884  -0.0291797   0.0106596   0.0394581
          103         104         105         106         107         108
    1  -0.0066668  -0.0336932   0.0070185   0.0006388  -0.0164753  -0.0079284
    2  -0.0014589   0.0006250  -0.0218051   0.0294296   0.0400918  -0.0049703
    3   0.0090119  -0.0016562   0.0190021   0.0067264  -0.0373373  -0.0013937
          109         110         111         112         113         114
    1   0.0151662  -0.0373924   0.0121545   0.1029120  -0.0055676  -0.0112417
    2  -0.0208823  -0.0041598  -0.0115631  -0.0154943   0.0059841  -0.0187764
    3   0.0120446   0.0036369  -0.0292138   0.0345474   0.0030620   0.0231267
          115         116         117         118         119         120
    1   0.0134846  -0.0228864   0.0408272   0.0044790  -0.0195825   0.0248973
    2   0.0259061   0.0155017  -0.0315268   0.0046275   0.0165007   0.0266159
    3   0.0240838  -0.0144977   0.0312366  -0.0003284  -0.0094836   0.0132400
          121         122         123         124         125         126
    1   0.0256137  -0.0542204   0.0071359  -0.0027714   0.0269134  -0.0108589
    2  -0.0177024  -0.0456105  -0.0021658  -0.0326180  -0.0065913   0.0068512
    3  -0.0112776  -0.0826633   0.0035946   0.0037171  -0.0210840   0.0349425
          127         128         129         130         131         132
    1  -0.0491221   0.0055150  -0.0035620  -0.0227252   0.0332180   0.0539683
    2  -0.0104675   0.0017473  -0.0291691   0.0159595  -0.0081041   0.0934617
    3   0.0057672  -0.0116927  -0.0159595  -0.0270775  -0.0015076   0.0173369
          133         134         135         136         137         138
    1  -0.0092418  -0.0059025  -0.0146724  -0.0087651   0.0158664  -0.0006926
    2  -0.0040553  -0.0082655   0.0247299  -0.0245126   0.0492215  -0.0024213
    3   0.0000880   0.0305468  -0.0142722  -0.0147804   0.0095752  -0.0085382
          139         140         141         142         143         144
    1  -0.0075315   0.0264800  -0.0124543   0.0458880  -0.0032766  -0.0126681
    2   0.0230340  -0.0148418  -0.0259933  -0.0902667   0.0040952   0.0310917
    3  -0.0243171  -0.0042075  -0.0122274   0.0450281   0.0067757  -0.0048587
          145         146         147         148         149         150
    1  -0.0115275  -0.0170259   0.0189403   0.0002321   0.0039038  -0.0059262
    2  -0.0186388  -0.0012265  -0.0574879   0.0099782   0.0219503   0.0055211
    3  -0.0204576   0.0362760   0.0177203   0.0003529  -0.0277642   0.0349234
          151         152         153         154         155         156
    1   0.0269472  -0.0004090  -0.0039201   0.0150724  -0.0057582  -0.0232936
    2  -0.0069331   0.0213349   0.0006277  -0.0112518   0.0291816  -0.0228702
    3   0.0064856  -0.1072720   0.0043253   0.0264050   0.0113739   0.0007480
          157         158         159         160         161         162
    1   0.0314777  -0.0067098  -0.0060555  -0.0193942  -0.0000373   0.0364202
    2   0.0443731  -0.0001068  -0.0346224   0.0252094   0.0074359  -0.1033080
    3  -0.0072180  -0.0083909   0.0050020  -0.0009759  -0.0334595  -0.0148339
          163         164         165         166         167         168
    1   0.0050314   0.0285195  -0.0059560   0.0191783   0.0149706  -0.0003638
    2  -0.0048896  -0.0069285  -0.0298318   0.0040629   0.0498444  -0.0008138
    3   0.0019198   0.0267983   0.0059771  -0.0248359  -0.0095942   0.0087993
          169         170         171         172         173         174
    1  -0.0247325  -0.0106289   0.0203178  -0.0786146   0.0057090  -0.0007215
    2   0.0166536  -0.0299003   0.0145985  -0.0562417   0.0046120   0.0152344
    3   0.0088089   0.0003159   0.0236669  -0.0515337   0.0016449   0.0263168
          175         176         177         178         179         180
    1   0.0293219   0.0055679  -0.0027284   0.0022180   0.0232909  -0.0234048
    2  -0.0158290   0.0272598  -0.0502633   0.0009296  -0.0254261  -0.0091001
    3  -0.0042630  -0.0158982   0.0348240  -0.0058428  -0.0105583  -0.0150512
          181         182         183         184         185         186
    1   0.0058179  -0.0781910   0.0022677   0.0183105   0.0069706  -0.0001071
    2   0.0230091   0.0767109   0.0033935   0.0323676  -0.0272321   0.0184537
    3  -0.0223138   0.0024564  -0.0030092   0.0075833  -0.0142453  -0.0345673
          187         188         189         190         191         192
    1  -0.0209456   0.0064933  -0.0200733   0.0226812   0.0178025  -0.0529062
    2   0.0411397  -0.0088833  -0.0163350  -0.0152261   0.0199927  -0.0704310
    3   0.0248074   0.0062162   0.0190794  -0.0115621   0.0191581  -0.0660671
          193         194         195         196         197         198
    1   0.0095203   0.0106521   0.0218830   0.0029435   0.0031770   0.0008888
    2  -0.0044860  -0.0107256   0.0200443  -0.0236765   0.0441672  -0.0018491
    3   0.0031687  -0.0251140   0.0017965   0.0211268  -0.0452130   0.0098562
          199         200         201         202         203         204
    1  -0.0004753   0.0086413  -0.0300868  -0.0571430  -0.0046553   0.0133441
    2  -0.0218857   0.0317304  -0.0026193  -0.0919215   0.0107771   0.0048965
    3   0.0295335   0.0051038  -0.0056425  -0.0233684  -0.0025557   0.0266943
          205         206         207         208         209         210
    1   0.0036264  -0.0256811   0.0506357  -0.0091442  -0.0049474  -0.0287606
    2   0.0139009   0.0194505  -0.0266142  -0.0007239  -0.0318181   0.0107114
    3  -0.0337318   0.0103822  -0.0186187  -0.0062870   0.0041600   0.0135361
          211         212         213         214         215         216
    1   0.0085514  -0.0491756  -0.0035327   0.0112289   0.0248514  -0.0284082
    2   0.0094898  -0.0229668  -0.0085259  -0.0191728  -0.0097899  -0.0192523
    3  -0.0272088   0.0949330   0.0040395  -0.0178479   0.0247387   0.0040067
          217         218         219         220         221         222
    1   0.0416228  -0.0050615  -0.0258223   0.0105188  -0.0188646  -0.0682126
    2   0.0260002  -0.0016355  -0.0168951  -0.0049366   0.0259952  -0.0278507
    3  -0.0049345   0.0031606   0.0068706   0.0342817  -0.0117105  -0.0834326
          223         224         225         226         227         228
    1   0.0004639   0.0049312   0.0315421  -0.0288781   0.0372534   0.0018291
    2   0.0044217  -0.0193774   0.0096449   0.0142979  -0.0356857   0.0067397
    3   0.0049547   0.0250234   0.0180617  -0.0017463  -0.0103844  -0.0052020
          229         230         231         232         233         234
    1  -0.0015262  -0.0193193   0.0321785  -0.1062120  -0.0021458   0.0277462
    2   0.0038586   0.0221617   0.0112358  -0.0067092  -0.0037116  -0.0120008
    3  -0.0333994   0.0094972   0.0046699  -0.0277812   0.0062245  -0.0047214
          235         236         237         238         239         240
    1   0.0013511  -0.0090824   0.0137137  -0.0091738  -0.0142310  -0.0232687
    2   0.0187386  -0.0114136   0.0384911  -0.0003745   0.0338443  -0.0068830
    3   0.0047493   0.0305387  -0.0469560   0.0033179   0.0057198  -0.0194497
          241         242         243         244         245         246
    1  -0.0230805   0.0273653   0.0012611   0.0195672  -0.0302410   0.0133768
    2  -0.0206534  -0.1053293   0.0032588   0.0252413  -0.0000001  -0.0214035
    3   0.0194916  -0.0078443   0.0044423   0.0102128  -0.0022373   0.0173478
          247         248         249         250         251         252
    1   0.0530473  -0.0029713  -0.0231241   0.0207311  -0.0092156  -0.0682084
    2  -0.0004697   0.0062980   0.0053175   0.0248369  -0.0074837  -0.0840411
    3  -0.0116334  -0.0052142   0.0193352  -0.0073664  -0.0303930  -0.0170222
          253         254         255         256         257         258
    1  -0.0058828  -0.0258441   0.0140299   0.0003687   0.0411914  -0.0090178
    2  -0.0067581   0.0060341  -0.0112246  -0.0220700  -0.0122083  -0.0021504
    3  -0.0048709  -0.0140069  -0.0263361   0.0220999   0.0292206   0.0067216
          259         260         261         262         263         264
    1  -0.0079960  -0.0173533  -0.0151354  -0.0204491  -0.0071656   0.0117937
    2   0.0120590   0.0187389  -0.0261906   0.0866724   0.0111671   0.0077559
    3   0.0294181  -0.0135012   0.0273770  -0.0610140  -0.0066295  -0.0295204
          265         266         267         268         269         270
    1  -0.0325408  -0.0032972  -0.0137378  -0.0054400  -0.0310554   0.0083008
    2   0.0025256   0.0181564  -0.0404094  -0.0000063   0.0054847  -0.0209730
    3  -0.0002670   0.0218914  -0.0237391   0.0102459  -0.0030050   0.0228642
          271         272         273         274         275         276
    1   0.0120246   0.0961040   0.0006308  -0.0135545  -0.0130646   0.0287883
    2   0.0215503   0.0462475  -0.0027726  -0.0290332   0.0225977  -0.0121408
    3   0.0094346   0.0195663  -0.0048622  -0.0135939  -0.0205710  -0.0061896
          277         278         279         280         281         282
    1  -0.0522797   0.0099137   0.0331288  -0.0016712   0.0082709   0.0465249
    2   0.0244728   0.0043677  -0.0055192   0.0271601   0.0137286  -0.0804631
    3   0.0124114   0.0014731  -0.0079380  -0.0172417   0.0269249   0.0558362
          283         284         285         286         287         288
    1  -0.0000539   0.0323899  -0.0169349   0.0106550   0.0335288  -0.0083360
    2   0.0023478  -0.0066355  -0.0210601   0.0224794   0.0129223  -0.0039275
    3  -0.0080205  -0.0083498  -0.0153570  -0.0136790   0.0337819  -0.0013089
          289         290         291         292
    1   0.0227578  -0.0198434  -0.0134570  -0.1073099
    2  -0.0262457  -0.0036765  -0.0129686   0.0343590
    3   0.0018431   0.0230204  -0.0271663  -0.0136353
  --- DONE ESP SUMMARY ---
 Total job time:  31.13s(wall), 76.71s(cpu) 
 Thu Jul 21 09:38:44 2022

        *************************************************************
        *                                                           *
        *  Thank you very much for using Q-Chem.  Have a nice day.  *
        *                                                           *
        *************************************************************


