                  Welcome to Q-Chem
     A Quantum Leap Into The Future Of Chemistry


 Q-Chem 5.2 (devel), Q-Chem, Inc., Pleasanton, CA (2019)

 Yihan Shao,  Zhengting Gan,  E. Epifanovsky,  A. T. B. Gilbert,  M. Wormit,  
 J. Kussmann,  A. W. Lange,  A. Behn,  Jia Deng,  Xintian Feng,  D. Ghosh,  
 M. Goldey,  P. R. Horn,  L. D. Jacobson,  I. Kaliman,  T. Kus,  A. Landau,  
 Jie Liu,  E. I. Proynov,  R. M. Richard,  R. P. Steele,  E. J. Sundstrom,  
 H. L. Woodcock III,  P. M. Zimmerman,  D. Zuev,  B. Alam,  B. Albrecht,  
 E. Alguire,  S. A. Baeppler,  D. Barton,  Z. Benda,  Y. A. Bernard,  
 E. J. Berquist,  K. B. Bravaya,  H. Burton,  K. Carter-Fenk,  D. Casanova,  
 Chun-Min Chang,  Yunqing Chen,  A. Chien,  K. D. Closser,  M. P. Coons,  
 S. Coriani,  S. Dasgupta,  A. L. Dempwolff,  M. Diedenhofen,  Hainam Do,  
 R. G. Edgar,  Po-Tung Fang,  S. Faraji,  S. Fatehi,  Qingguo Feng,  
 J. Fosso-Tande,  J. Gayvert,  Qinghui Ge,  A. Ghysels,  G. Gidofalvi,  
 J. Gomes,  J. Gonthier,  A. Gunina,  D. Hait,  M. W. D. Hanson-Heine,  
 P. H. P. Harbach,  A. W. Hauser,  M. F. Herbst,  J. E. Herr,  
 E. G. Hohenstein,  Z. C. Holden,  Kerwin Hui,  B. C. Huynh,  T.-C. Jagau,  
 Hyunjun Ji,  B. Kaduk,  K. Khistyaev,  Jaehoon Kim,  P. Klunzinger,  K. Koh,  
 D. Kosenkov,  L. Koulias,  T. Kowalczyk,  C. M. Krauter,  A. Kunitsa,  
 Ka Un Lao,  A. Laurent,  K. V. Lawler,  Joonho Lee,  D. Lefrancois,  
 S. Lehtola,  D. S. Levine,  Yi-Pei Li,  You-Sheng Lin,  Fenglai Liu,  
 Kuan-Yu Liu,  E. Livshits,  M. Loipersberger,  A. Luenser,  P. Manohar,  
 E. Mansoor,  S. F. Manzer,  Shan-Ping Mao,  Yuezhi Mao,  N. Mardirossian,  
 A. V. Marenich,  T. Markovich,  L. A. Martinez-Martinez,  S. A. Maurer,  
 N. J. Mayhall,  S. C. McKenzie,  J.-M. Mewes,  P. Morgante,  A. F. Morrison,  
 J. W. Mullinax,  K. Nanda,  T. S. Nguyen-Beck,  R. Olivares-Amaya,  
 J. A. Parkhill,  S. K. Paul,  F. Pavosevic,  Zheng Pei,  T. M. Perrine,  
 F. Plasser,  P. Pokhilko,  S. Prager,  A. Prociuk,  E. Ramos,  B. Rana,  
 D. R. Rehn,  F. Rob,  M. Scheurer,  M. Schneider,  N. Sergueev,  
 S. M. Sharada,  S. Sharma,  D. W. Small,  T. Stauch,  C. J. Stein,  
 T. Stein,  Yu-Chuan Su,  S. P. Veccham,  Zhen Tao,  A. J. W. Thom,  
 A. Tkatchenko,  T. Tsuchimochi,  N. M. Tubman,  L. Vogt,  M. L. Vidal,  
 O. Vydrov,  M. A. Watson,  J. Wenzel,  M. de Wergifosse,  T. A. Wesolowski,  
 A. White,  J. Witte,  A. Yamada,  Jun Yang,  K. Yao,  S. Yeganeh,  
 S. R. Yost,  Zhi-Qiang You,  A. Zech,  Igor Ying Zhang,  Xing Zhang,  
 Yan Zhao,  Ying Zhu,  B. R. Brooks,  G. K. L. Chan,  C. J. Cramer,  
 M. S. Gordon,  W. J. Hehre,  A. Klamt,  M. W. Schmidt,  C. D. Sherrill,  
 D. G. Truhlar,  A. Aspuru-Guzik,  R. Baer,  A. T. Bell,  N. A. Besley,  
 Jeng-Da Chai,  A. E. DePrince, III,  R. A. DiStasio Jr.,  A. Dreuw,  
 B. D. Dunietz,  T. R. Furlani,  Chao-Ping Hsu,  Yousung Jung,  Jing Kong,  
 D. S. Lambrecht,  WanZhen Liang,  C. Ochsenfeld,  V. A. Rassolov,  
 L. V. Slipchenko,  J. E. Subotnik,  T. Van Voorhis,  J. M. Herbert,  
 A. I. Krylov,  P. M. W. Gill,  M. Head-Gordon

 Contributors to earlier versions of Q-Chem not listed above: 
 R. D. Adamson,  B. Austin,  J. Baker,  G. J. O. Beran,  K. Brandhorst,  
 S. T. Brown,  E. F. C. Byrd,  A. K. Chakraborty,  C.-L. Cheng,  
 Siu Hung Chien,  D. M. Chipman,  D. L. Crittenden,  H. Dachsel,  
 R. J. Doerksen,  A. D. Dutoi,  L. Fusti-Molnar,  W. A. Goddard III,  
 A. Golubeva-Zadorozhnaya,  S. R. Gwaltney,  G. Hawkins,  A. Heyden,  
 S. Hirata,  G. Kedziora,  F. J. Keil,  C. Kelley,  Jihan Kim,  R. A. King,  
 R. Z. Khaliullin,  P. P. Korambath,  W. Kurlancheek,  A. M. Lee,  M. S. Lee,  
 S. V. Levchenko,  Ching Yeh Lin,  D. Liotard,  R. C. Lochan,  I. Lotan,  
 P. E. Maslen,  N. Nair,  D. P. O'Neill,  D. Neuhauser,  E. Neuscamman,  
 C. M. Oana,  R. Olson,  B. Peters,  R. Peverati,  P. A. Pieniazek,  
 Y. M. Rhee,  J. Ritchie,  M. A. Rohrdanz,  E. Rosta,  N. J. Russ,  
 H. F. Schaefer III,  N. E. Schultz,  N. Shenvi,  A. C. Simmonett,  A. Sodt,  
 D. Stuck,  K. S. Thanthiriwatte,  V. Vanovschi,  Tao Wang,  A. Warshel,  
 C. F. Williams,  Q. Wu,  X. Xu,  W. Zhang

 Please cite Q-Chem as follows:
 Y. Shao et al., Mol. Phys. 113, 184-215 (2015)
 DOI: 10.1080/00268976.2014.952696

 Q-Chem 5.2.2 for Intel X86 EM64T Linux

 Parts of Q-Chem use Armadillo 9.800.1 (Horizon Scraper).
 http://arma.sourceforge.net/

 Q-Chem begins on Fri Dec  3 15:29:03 2021  

Host: node026
0

     Scratch files written to /home/ymao90/scratch/r7.00_frame_0034_spade_B3LYP_dp20211203120848//

Checking the input file for inconsistencies... 	...done.

--------------------------------------------------------------
User input:
--------------------------------------------------------------
$molecule
0 1
--
0 1
C    21.00500   14.97400   29.11300  
C    22.50600   15.01900   29.44200  
C    23.15100   16.18100   28.66700  
C    22.38500   17.48400   28.94500  
C    20.86000   17.52400   28.74900  
C    20.20400   16.26700   29.34300  
H    24.19200   16.32400   28.98300  
H    22.59600   15.21400   30.51700  
H    20.89800   14.69500   28.05700  
H    20.60500   14.17500   29.74800  
H    22.61500   17.84800   29.95400  
H    22.71600   18.23300   28.21500  
H    20.48300   18.43600   29.22700  
H    20.74600   17.54100   27.65900  
H    20.08200   16.40500   30.42500  
H    19.20900   16.04700   28.93700  
H    23.19100   16.00000   27.58600  
N    23.07900   13.68500   29.27300  
H    23.39200   13.40900   28.35100  
C    23.07300   12.77900   30.31300  
H    23.46500   11.78500   30.03200  
O    22.78300   13.03300   31.46900  
--
0 1
C    23.58900   20.36000   23.12200  
H    23.46600   20.71300   22.09500  
H    24.31600   21.06800   23.52600  
H    23.93900   19.32500   23.16000  
S    22.14100   20.50500   24.19400  
C    22.06900   22.27300   24.56200  
H    21.16500   22.45500   25.14700  
H    22.99600   22.40600   25.12600  
H    21.99500   22.80600   23.61100  
O    22.65600   19.86600   25.44600  
C    20.40500   19.80000   32.50600  
H    20.93500   19.04600   33.09200  
H    20.21000   19.50200   31.47200  
H    21.02400   20.69700   32.58400  
S    18.86600   20.19700   33.36600  
C    17.70200   19.99800   31.99800  
H    17.81300   20.79900   31.26300  
H    17.88900   19.03200   31.52200  
H    16.68300   19.95300   32.39100  
O    18.99800   21.65300   33.68500  
C    27.58900   21.34600   30.69000  
H    27.29500   20.50800   30.05300  
H    28.51100   21.74200   30.25500  
H    27.79700   20.94100   31.68400  
S    26.30800   22.61900   30.67600  
C    27.13200   23.64300   31.91700  
H    27.33000   23.08200   32.83400  
H    28.07500   24.02300   31.51600  
H    26.43900   24.45000   32.16500  
O    25.21600   21.97700   31.47400  
C    17.02600   8.80800    33.56200  
H    16.39800   8.39700    34.35700  
H    16.82500   8.31700    32.60600  
H    18.06900   8.66800    33.85600  
S    16.86300   10.60100   33.40100  
C    15.39500   10.59000   32.34800  
H    14.54800   10.03000   32.75400  
H    15.01700   11.60800   32.22400  
H    15.61000   10.34300   31.30500  
O    17.85100   10.94100   32.32900  
C    14.14500   12.62600   29.49200  
H    14.76400   11.73600   29.35800  
H    14.80400   13.46300   29.73700  
H    13.56600   12.40600   30.39300  
S    12.98900   12.87100   28.12500  
C    13.13400   14.67100   28.20200  
H    12.57300   15.14100   27.39000  
H    12.88500   15.09400   29.17800  
H    14.18200   14.91700   28.01200  
O    11.57700   12.65700   28.57300  
C    24.79600   21.65700   35.39600  
H    24.62500   21.84100   36.45900  
H    25.71000   21.06100   35.33400  
H    24.89100   22.66100   34.97400  
S    23.53500   20.69000   34.53500  
C    22.18600   21.12000   35.65700  
H    22.14800   22.21200   35.70800  
H    21.28000   20.78800   35.14400  
H    22.36400   20.65100   36.62800  
O    23.73500   19.26400   34.94500  
C    27.17000   11.48400   33.10100  
H    27.60800   11.48800   34.10300  
H    27.99400   11.53600   32.38500  
H    26.45600   12.30100   32.96900  
S    26.26700   9.94400    32.82400  
C    24.96200   10.60500   31.76200  
H    24.44100   9.71800    31.39200  
H    24.35000   11.23700   32.41000  
H    25.36000   11.27300   30.99400  
O    25.51600   9.73400    34.10200  
C    16.56800   13.04300   25.33000  
H    16.18300   12.98400   26.35100  
H    17.28000   12.22000   25.22500  
H    17.11700   13.98400   25.23400  
S    15.18800   12.89300   24.17400  
C    14.87900   11.13100   24.43000  
H    14.40700   11.01800   25.40900  
H    14.21700   10.79300   23.62900  
H    15.88000   10.69600   24.37100  
O    15.68600   13.03500   22.76900  
C    19.72000   14.47600   23.99300  
H    18.93300   13.79800   23.65200  
H    20.63600   14.29900   23.42400  
H    19.98400   14.31300   25.04100  
S    19.04400   16.13400   23.75100  
C    20.35200   17.12800   24.50300  
H    21.30700   17.07900   23.97300  
H    19.91000   18.12100   24.61500  
H    20.48500   16.67000   25.48600  
O    17.91900   16.24600   24.73300  
C    23.64900   9.16900    28.32000  
H    22.91200   9.16900    29.12700  
H    24.29600   10.04700   28.25200  
H    23.22800   8.95100    27.33500  
S    24.46000   7.61100    28.74700  
C    23.31000   6.59700    27.79000  
H    23.39900   5.51800    27.93900  
H    22.29400   6.83600    28.11400  
H    23.16400   6.81600    26.72900  
O    24.11100   7.44100    30.19300  
C    29.31400   17.32300   30.35100  
H    28.81600   17.99200   31.05800  
H    28.79400   16.37200   30.49500  
H    30.37700   17.18000   30.56000  
S    29.18200   17.89700   28.64300  
C    29.84100   19.50200   29.14800  
H    29.34400   20.18600   28.45600  
H    29.55000   19.69700   30.18300  
H    30.92400   19.54100   29.00100  
O    27.69900   17.94900   28.44500  
C    18.02300   12.10900   29.55100  
H    18.79000   12.22800   30.32100  
H    17.87500   12.96900   28.89300  
H    17.11700   11.90900   30.12900  
S    18.41200   10.62100   28.60200  
C    20.05000   11.26600   28.19800  
H    20.62900   10.42200   27.81200  
H    19.93400   12.12500   27.53200  
H    20.45800   11.54200   29.17300  
O    17.69800   10.73800   27.29200  
C    20.18400   14.57300   33.56500  
H    19.83400   14.78600   32.55200  
H    20.90700   13.75400   33.53500  
H    19.31800   14.27700   34.16300  
S    20.83000   16.13300   34.20800  
C    21.08200   15.47100   35.87000  
H    21.72800   14.59700   35.75800  
H    21.70800   16.10200   36.50600  
H    20.19300   15.13000   36.40700  
O    19.58900   16.96900   34.25700  
C    17.96400   22.22800   23.93700  
H    18.98800   22.47000   23.64100  
H    17.29200   22.89700   23.39400  
H    17.79700   22.39300   25.00400  
S    17.51600   20.54400   23.45800  
C    17.51300   20.90300   21.68700  
H    18.39000   21.50600   21.43900  
H    17.47700   19.96400   21.12800  
H    16.66300   21.53700   21.42400  
O    16.03800   20.57200   23.69800  
C    22.55400   22.29800   29.64500  
H    22.62400   23.13400   30.34500  
H    22.91400   21.34400   30.03800  
H    23.07700   22.56300   28.72300  
S    20.80300   22.25700   29.20000  
C    20.99700   21.22900   27.72700  
H    20.01800   21.22500   27.24000  
H    21.71800   21.75200   27.09400  
H    21.34100   20.23400   28.02200  
O    20.50300   23.62700   28.67700  
C    26.15500   18.72600   32.87600  
H    27.23000   18.91400   32.83400  
H    25.59500   19.56700   32.46000  
H    25.74900   18.44400   33.85100  
S    25.81600   17.18600   31.99400  
C    24.02000   17.32000   32.14800  
H    23.61600   18.16300   31.58300  
H    23.60100   16.37500   31.79400  
H    23.76700   17.30900   33.21200  
O    26.10600   16.18300   33.06700  
C    16.37300   14.57200   32.94900  
H    17.20600   13.90100   33.17500  
H    16.00600   15.06200   33.85400  
H    15.57600   14.05100   32.41200  
S    16.97500   15.89400   31.87400  
C    15.58600   17.00600   32.19200  
H    14.67200   16.41500   32.08900  
H    15.60500   17.44100   33.19400  
H    15.66100   17.83800   31.48700  
O    16.58400   15.28800   30.56300  
C    21.74600   9.22600    34.78900  
H    21.33000   8.25700    34.50200  
H    21.05100   10.00800   34.47300  
H    22.70400   9.32400    34.27200  
S    22.06400   9.31100    36.56500  
C    23.62900   8.40900    36.59000  
H    24.48500   9.01500    36.28100  
H    23.82400   7.97300    37.57300  
H    23.38500   7.61300    35.88100  
O    21.09700   8.36300    37.20300  
C    25.28200   17.41800   26.02300  
H    25.26300   16.78800   26.91500  
H    26.20700   18.00000   26.00200  
H    24.31200   17.91800   25.95500  
S    25.15400   16.28500   24.62100  
C    26.80400   15.61600   24.92700  
H    27.12400   15.10900   24.01200  
H    27.48800   16.45600   25.07100  
H    26.82200   15.01500   25.84000  
O    25.28500   17.23200   23.46900  
C    18.20600   7.33400    30.32400  
H    17.95700   6.81800    31.25400  
H    17.73200   8.31600    30.25300  
H    17.91400   6.69900    29.48300  
S    19.99200   7.49100    30.10100  
C    20.19500   8.98600    31.09700  
H    19.95400   8.63600    32.10400  
H    21.26400   9.18400    30.98800  
H    19.55500   9.79600    30.73800  
O    20.12700   7.91000    28.67000  
C    15.66100   18.82300   28.62000  
H    15.09200   19.27700   29.43600  
H    14.94300   18.80600   27.79600  
H    16.09300   17.87700   28.95600  
S    16.95800   19.99300   28.15700  
C    17.43600   19.02700   26.70700  
H    17.41100   17.97600   27.00500  
H    16.65600   19.14500   25.95100  
H    18.43900   19.31400   26.37900  
O    18.13700   19.83500   29.06600  
C    25.35400   12.11500   36.47600  
H    26.29200   12.27100   35.93700  
H    25.14100   12.88000   37.22700  
H    25.34400   11.19000   37.05800  
S    24.02900   12.05100   35.24900  
C    24.29700   13.71200   34.59000  
H    25.32200   14.03900   34.40000  
H    23.67700   13.64900   33.69200  
H    23.68700   14.39500   35.18700  
O    22.85600   12.35600   36.12800  
C    26.18900   21.17600   25.48100  
H    27.19000   20.96000   25.09900  
H    25.60900   20.25500   25.38500  
H    25.81500   21.90100   24.75300  
S    26.25200   21.71300   27.20500  
C    25.04700   20.55300   27.88900  
H    24.81700   20.87400   28.90800  
H    24.23200   20.48800   27.16300  
H    25.45000   19.54100   27.97700  
O    25.47400   22.99100   27.14600  
C    29.44300   6.50100    31.00900  
H    30.34000   7.03300    31.33500  
H    28.63100   6.78700    31.68300  
H    29.58100   5.41700    31.05200  
S    28.75900   6.91900    29.38900  
C    27.85200   8.42800    29.79800  
H    27.23700   8.19600    30.67100  
H    28.50000   9.26300    30.07600  
H    27.17400   8.75400    29.00500  
O    27.66500   5.92200    29.16500  
C    28.16000   13.47400   27.73200  
H    28.51300   14.50900   27.72000  
H    28.93200   12.90300   28.25400  
H    28.31000   13.11300   26.71100  
S    26.54800   13.14700   28.47800  
C    26.98400   13.96400   30.03000  
H    26.10600   14.05900   30.67400  
H    27.66600   13.28200   30.54400  
H    27.47200   14.88900   29.71200  
O    26.66000   11.68600   28.78700  
C    29.01200   10.05700   26.90900  
H    28.38900   10.73100   27.50100  
H    29.17000   9.18000    27.54300  
H    29.98400   10.50700   26.68900  
S    28.18700   9.38700    25.44700  
C    26.75100   8.59600    26.20500  
H    26.26600   9.26900    26.91700  
H    26.03500   8.32100    25.42700  
H    27.25300   7.76500    26.70700  
O    29.05900   8.19900    25.18500  
C    24.73600   11.69200   23.64900  
H    25.69100   12.22300   23.60300  
H    24.78300   10.75600   23.08700  
H    23.88000   12.31600   23.38000  
S    24.45800   11.19400   25.36300  
C    22.74300   10.62400   25.35200  
H    22.23400   11.13600   24.53200  
H    22.81400   9.58500    25.02000  
H    22.40700   10.73400   26.38600  
O    24.20000   12.50900   26.03200  
$end

$rem
JOBTYPE  SP
METHOD  B3LYP
BASIS  6-31+G(D)
SYMMETRY  FALSE
SYM_IGNORE  TRUE
MEM_TOTAL  16000
MEM_STATIC  8000
MAX_SUB_FILE_NUM  16000
BASIS_LIN_DEP_THRESH  6
THRESH  14
SCF_CONVERGENCE  8
GEN_SCFMAN  TRUE
SCF_GUESS  SAD
FD_MAT_VEC_PROD  FALSE
XC_GRID  000075000302
NL_GRID  1
MAX_SCF_CYCLES  200
ENV_METHOD  B3LYP
GEN_SCFMAN_EMBED  TRUE
SPADE_PARTITION  TRUE
$end

$development
embedding_early_stop  1
$end

--------------------------------------------------------------
 ----------------------------------------------------------------
             Standard Nuclear Orientation (Angstroms)
    I     Atom           X                Y                Z
 ----------------------------------------------------------------
    1      C      21.0050000000    14.9740000000    29.1130000000
    2      C      22.5060000000    15.0190000000    29.4420000000
    3      C      23.1510000000    16.1810000000    28.6670000000
    4      C      22.3850000000    17.4840000000    28.9450000000
    5      C      20.8600000000    17.5240000000    28.7490000000
    6      C      20.2040000000    16.2670000000    29.3430000000
    7      H      24.1920000000    16.3240000000    28.9830000000
    8      H      22.5960000000    15.2140000000    30.5170000000
    9      H      20.8980000000    14.6950000000    28.0570000000
   10      H      20.6050000000    14.1750000000    29.7480000000
   11      H      22.6150000000    17.8480000000    29.9540000000
   12      H      22.7160000000    18.2330000000    28.2150000000
   13      H      20.4830000000    18.4360000000    29.2270000000
   14      H      20.7460000000    17.5410000000    27.6590000000
   15      H      20.0820000000    16.4050000000    30.4250000000
   16      H      19.2090000000    16.0470000000    28.9370000000
   17      H      23.1910000000    16.0000000000    27.5860000000
   18      N      23.0790000000    13.6850000000    29.2730000000
   19      H      23.3920000000    13.4090000000    28.3510000000
   20      C      23.0730000000    12.7790000000    30.3130000000
   21      H      23.4650000000    11.7850000000    30.0320000000
   22      O      22.7830000000    13.0330000000    31.4690000000
   23      C      23.5890000000    20.3600000000    23.1220000000
   24      H      23.4660000000    20.7130000000    22.0950000000
   25      H      24.3160000000    21.0680000000    23.5260000000
   26      H      23.9390000000    19.3250000000    23.1600000000
   27      S      22.1410000000    20.5050000000    24.1940000000
   28      C      22.0690000000    22.2730000000    24.5620000000
   29      H      21.1650000000    22.4550000000    25.1470000000
   30      H      22.9960000000    22.4060000000    25.1260000000
   31      H      21.9950000000    22.8060000000    23.6110000000
   32      O      22.6560000000    19.8660000000    25.4460000000
   33      C      20.4050000000    19.8000000000    32.5060000000
   34      H      20.9350000000    19.0460000000    33.0920000000
   35      H      20.2100000000    19.5020000000    31.4720000000
   36      H      21.0240000000    20.6970000000    32.5840000000
   37      S      18.8660000000    20.1970000000    33.3660000000
   38      C      17.7020000000    19.9980000000    31.9980000000
   39      H      17.8130000000    20.7990000000    31.2630000000
   40      H      17.8890000000    19.0320000000    31.5220000000
   41      H      16.6830000000    19.9530000000    32.3910000000
   42      O      18.9980000000    21.6530000000    33.6850000000
   43      C      27.5890000000    21.3460000000    30.6900000000
   44      H      27.2950000000    20.5080000000    30.0530000000
   45      H      28.5110000000    21.7420000000    30.2550000000
   46      H      27.7970000000    20.9410000000    31.6840000000
   47      S      26.3080000000    22.6190000000    30.6760000000
   48      C      27.1320000000    23.6430000000    31.9170000000
   49      H      27.3300000000    23.0820000000    32.8340000000
   50      H      28.0750000000    24.0230000000    31.5160000000
   51      H      26.4390000000    24.4500000000    32.1650000000
   52      O      25.2160000000    21.9770000000    31.4740000000
   53      C      17.0260000000     8.8080000000    33.5620000000
   54      H      16.3980000000     8.3970000000    34.3570000000
   55      H      16.8250000000     8.3170000000    32.6060000000
   56      H      18.0690000000     8.6680000000    33.8560000000
   57      S      16.8630000000    10.6010000000    33.4010000000
   58      C      15.3950000000    10.5900000000    32.3480000000
   59      H      14.5480000000    10.0300000000    32.7540000000
   60      H      15.0170000000    11.6080000000    32.2240000000
   61      H      15.6100000000    10.3430000000    31.3050000000
   62      O      17.8510000000    10.9410000000    32.3290000000
   63      C      14.1450000000    12.6260000000    29.4920000000
   64      H      14.7640000000    11.7360000000    29.3580000000
   65      H      14.8040000000    13.4630000000    29.7370000000
   66      H      13.5660000000    12.4060000000    30.3930000000
   67      S      12.9890000000    12.8710000000    28.1250000000
   68      C      13.1340000000    14.6710000000    28.2020000000
   69      H      12.5730000000    15.1410000000    27.3900000000
   70      H      12.8850000000    15.0940000000    29.1780000000
   71      H      14.1820000000    14.9170000000    28.0120000000
   72      O      11.5770000000    12.6570000000    28.5730000000
   73      C      24.7960000000    21.6570000000    35.3960000000
   74      H      24.6250000000    21.8410000000    36.4590000000
   75      H      25.7100000000    21.0610000000    35.3340000000
   76      H      24.8910000000    22.6610000000    34.9740000000
   77      S      23.5350000000    20.6900000000    34.5350000000
   78      C      22.1860000000    21.1200000000    35.6570000000
   79      H      22.1480000000    22.2120000000    35.7080000000
   80      H      21.2800000000    20.7880000000    35.1440000000
   81      H      22.3640000000    20.6510000000    36.6280000000
   82      O      23.7350000000    19.2640000000    34.9450000000
   83      C      27.1700000000    11.4840000000    33.1010000000
   84      H      27.6080000000    11.4880000000    34.1030000000
   85      H      27.9940000000    11.5360000000    32.3850000000
   86      H      26.4560000000    12.3010000000    32.9690000000
   87      S      26.2670000000     9.9440000000    32.8240000000
   88      C      24.9620000000    10.6050000000    31.7620000000
   89      H      24.4410000000     9.7180000000    31.3920000000
   90      H      24.3500000000    11.2370000000    32.4100000000
   91      H      25.3600000000    11.2730000000    30.9940000000
   92      O      25.5160000000     9.7340000000    34.1020000000
   93      C      16.5680000000    13.0430000000    25.3300000000
   94      H      16.1830000000    12.9840000000    26.3510000000
   95      H      17.2800000000    12.2200000000    25.2250000000
   96      H      17.1170000000    13.9840000000    25.2340000000
   97      S      15.1880000000    12.8930000000    24.1740000000
   98      C      14.8790000000    11.1310000000    24.4300000000
   99      H      14.4070000000    11.0180000000    25.4090000000
  100      H      14.2170000000    10.7930000000    23.6290000000
  101      H      15.8800000000    10.6960000000    24.3710000000
  102      O      15.6860000000    13.0350000000    22.7690000000
  103      C      19.7200000000    14.4760000000    23.9930000000
  104      H      18.9330000000    13.7980000000    23.6520000000
  105      H      20.6360000000    14.2990000000    23.4240000000
  106      H      19.9840000000    14.3130000000    25.0410000000
  107      S      19.0440000000    16.1340000000    23.7510000000
  108      C      20.3520000000    17.1280000000    24.5030000000
  109      H      21.3070000000    17.0790000000    23.9730000000
  110      H      19.9100000000    18.1210000000    24.6150000000
  111      H      20.4850000000    16.6700000000    25.4860000000
  112      O      17.9190000000    16.2460000000    24.7330000000
  113      C      23.6490000000     9.1690000000    28.3200000000
  114      H      22.9120000000     9.1690000000    29.1270000000
  115      H      24.2960000000    10.0470000000    28.2520000000
  116      H      23.2280000000     8.9510000000    27.3350000000
  117      S      24.4600000000     7.6110000000    28.7470000000
  118      C      23.3100000000     6.5970000000    27.7900000000
  119      H      23.3990000000     5.5180000000    27.9390000000
  120      H      22.2940000000     6.8360000000    28.1140000000
  121      H      23.1640000000     6.8160000000    26.7290000000
  122      O      24.1110000000     7.4410000000    30.1930000000
  123      C      29.3140000000    17.3230000000    30.3510000000
  124      H      28.8160000000    17.9920000000    31.0580000000
  125      H      28.7940000000    16.3720000000    30.4950000000
  126      H      30.3770000000    17.1800000000    30.5600000000
  127      S      29.1820000000    17.8970000000    28.6430000000
  128      C      29.8410000000    19.5020000000    29.1480000000
  129      H      29.3440000000    20.1860000000    28.4560000000
  130      H      29.5500000000    19.6970000000    30.1830000000
  131      H      30.9240000000    19.5410000000    29.0010000000
  132      O      27.6990000000    17.9490000000    28.4450000000
  133      C      18.0230000000    12.1090000000    29.5510000000
  134      H      18.7900000000    12.2280000000    30.3210000000
  135      H      17.8750000000    12.9690000000    28.8930000000
  136      H      17.1170000000    11.9090000000    30.1290000000
  137      S      18.4120000000    10.6210000000    28.6020000000
  138      C      20.0500000000    11.2660000000    28.1980000000
  139      H      20.6290000000    10.4220000000    27.8120000000
  140      H      19.9340000000    12.1250000000    27.5320000000
  141      H      20.4580000000    11.5420000000    29.1730000000
  142      O      17.6980000000    10.7380000000    27.2920000000
  143      C      20.1840000000    14.5730000000    33.5650000000
  144      H      19.8340000000    14.7860000000    32.5520000000
  145      H      20.9070000000    13.7540000000    33.5350000000
  146      H      19.3180000000    14.2770000000    34.1630000000
  147      S      20.8300000000    16.1330000000    34.2080000000
  148      C      21.0820000000    15.4710000000    35.8700000000
  149      H      21.7280000000    14.5970000000    35.7580000000
  150      H      21.7080000000    16.1020000000    36.5060000000
  151      H      20.1930000000    15.1300000000    36.4070000000
  152      O      19.5890000000    16.9690000000    34.2570000000
  153      C      17.9640000000    22.2280000000    23.9370000000
  154      H      18.9880000000    22.4700000000    23.6410000000
  155      H      17.2920000000    22.8970000000    23.3940000000
  156      H      17.7970000000    22.3930000000    25.0040000000
  157      S      17.5160000000    20.5440000000    23.4580000000
  158      C      17.5130000000    20.9030000000    21.6870000000
  159      H      18.3900000000    21.5060000000    21.4390000000
  160      H      17.4770000000    19.9640000000    21.1280000000
  161      H      16.6630000000    21.5370000000    21.4240000000
  162      O      16.0380000000    20.5720000000    23.6980000000
  163      C      22.5540000000    22.2980000000    29.6450000000
  164      H      22.6240000000    23.1340000000    30.3450000000
  165      H      22.9140000000    21.3440000000    30.0380000000
  166      H      23.0770000000    22.5630000000    28.7230000000
  167      S      20.8030000000    22.2570000000    29.2000000000
  168      C      20.9970000000    21.2290000000    27.7270000000
  169      H      20.0180000000    21.2250000000    27.2400000000
  170      H      21.7180000000    21.7520000000    27.0940000000
  171      H      21.3410000000    20.2340000000    28.0220000000
  172      O      20.5030000000    23.6270000000    28.6770000000
  173      C      26.1550000000    18.7260000000    32.8760000000
  174      H      27.2300000000    18.9140000000    32.8340000000
  175      H      25.5950000000    19.5670000000    32.4600000000
  176      H      25.7490000000    18.4440000000    33.8510000000
  177      S      25.8160000000    17.1860000000    31.9940000000
  178      C      24.0200000000    17.3200000000    32.1480000000
  179      H      23.6160000000    18.1630000000    31.5830000000
  180      H      23.6010000000    16.3750000000    31.7940000000
  181      H      23.7670000000    17.3090000000    33.2120000000
  182      O      26.1060000000    16.1830000000    33.0670000000
  183      C      16.3730000000    14.5720000000    32.9490000000
  184      H      17.2060000000    13.9010000000    33.1750000000
  185      H      16.0060000000    15.0620000000    33.8540000000
  186      H      15.5760000000    14.0510000000    32.4120000000
  187      S      16.9750000000    15.8940000000    31.8740000000
  188      C      15.5860000000    17.0060000000    32.1920000000
  189      H      14.6720000000    16.4150000000    32.0890000000
  190      H      15.6050000000    17.4410000000    33.1940000000
  191      H      15.6610000000    17.8380000000    31.4870000000
  192      O      16.5840000000    15.2880000000    30.5630000000
  193      C      21.7460000000     9.2260000000    34.7890000000
  194      H      21.3300000000     8.2570000000    34.5020000000
  195      H      21.0510000000    10.0080000000    34.4730000000
  196      H      22.7040000000     9.3240000000    34.2720000000
  197      S      22.0640000000     9.3110000000    36.5650000000
  198      C      23.6290000000     8.4090000000    36.5900000000
  199      H      24.4850000000     9.0150000000    36.2810000000
  200      H      23.8240000000     7.9730000000    37.5730000000
  201      H      23.3850000000     7.6130000000    35.8810000000
  202      O      21.0970000000     8.3630000000    37.2030000000
  203      C      25.2820000000    17.4180000000    26.0230000000
  204      H      25.2630000000    16.7880000000    26.9150000000
  205      H      26.2070000000    18.0000000000    26.0020000000
  206      H      24.3120000000    17.9180000000    25.9550000000
  207      S      25.1540000000    16.2850000000    24.6210000000
  208      C      26.8040000000    15.6160000000    24.9270000000
  209      H      27.1240000000    15.1090000000    24.0120000000
  210      H      27.4880000000    16.4560000000    25.0710000000
  211      H      26.8220000000    15.0150000000    25.8400000000
  212      O      25.2850000000    17.2320000000    23.4690000000
  213      C      18.2060000000     7.3340000000    30.3240000000
  214      H      17.9570000000     6.8180000000    31.2540000000
  215      H      17.7320000000     8.3160000000    30.2530000000
  216      H      17.9140000000     6.6990000000    29.4830000000
  217      S      19.9920000000     7.4910000000    30.1010000000
  218      C      20.1950000000     8.9860000000    31.0970000000
  219      H      19.9540000000     8.6360000000    32.1040000000
  220      H      21.2640000000     9.1840000000    30.9880000000
  221      H      19.5550000000     9.7960000000    30.7380000000
  222      O      20.1270000000     7.9100000000    28.6700000000
  223      C      15.6610000000    18.8230000000    28.6200000000
  224      H      15.0920000000    19.2770000000    29.4360000000
  225      H      14.9430000000    18.8060000000    27.7960000000
  226      H      16.0930000000    17.8770000000    28.9560000000
  227      S      16.9580000000    19.9930000000    28.1570000000
  228      C      17.4360000000    19.0270000000    26.7070000000
  229      H      17.4110000000    17.9760000000    27.0050000000
  230      H      16.6560000000    19.1450000000    25.9510000000
  231      H      18.4390000000    19.3140000000    26.3790000000
  232      O      18.1370000000    19.8350000000    29.0660000000
  233      C      25.3540000000    12.1150000000    36.4760000000
  234      H      26.2920000000    12.2710000000    35.9370000000
  235      H      25.1410000000    12.8800000000    37.2270000000
  236      H      25.3440000000    11.1900000000    37.0580000000
  237      S      24.0290000000    12.0510000000    35.2490000000
  238      C      24.2970000000    13.7120000000    34.5900000000
  239      H      25.3220000000    14.0390000000    34.4000000000
  240      H      23.6770000000    13.6490000000    33.6920000000
  241      H      23.6870000000    14.3950000000    35.1870000000
  242      O      22.8560000000    12.3560000000    36.1280000000
  243      C      26.1890000000    21.1760000000    25.4810000000
  244      H      27.1900000000    20.9600000000    25.0990000000
  245      H      25.6090000000    20.2550000000    25.3850000000
  246      H      25.8150000000    21.9010000000    24.7530000000
  247      S      26.2520000000    21.7130000000    27.2050000000
  248      C      25.0470000000    20.5530000000    27.8890000000
  249      H      24.8170000000    20.8740000000    28.9080000000
  250      H      24.2320000000    20.4880000000    27.1630000000
  251      H      25.4500000000    19.5410000000    27.9770000000
  252      O      25.4740000000    22.9910000000    27.1460000000
  253      C      29.4430000000     6.5010000000    31.0090000000
  254      H      30.3400000000     7.0330000000    31.3350000000
  255      H      28.6310000000     6.7870000000    31.6830000000
  256      H      29.5810000000     5.4170000000    31.0520000000
  257      S      28.7590000000     6.9190000000    29.3890000000
  258      C      27.8520000000     8.4280000000    29.7980000000
  259      H      27.2370000000     8.1960000000    30.6710000000
  260      H      28.5000000000     9.2630000000    30.0760000000
  261      H      27.1740000000     8.7540000000    29.0050000000
  262      O      27.6650000000     5.9220000000    29.1650000000
  263      C      28.1600000000    13.4740000000    27.7320000000
  264      H      28.5130000000    14.5090000000    27.7200000000
  265      H      28.9320000000    12.9030000000    28.2540000000
  266      H      28.3100000000    13.1130000000    26.7110000000
  267      S      26.5480000000    13.1470000000    28.4780000000
  268      C      26.9840000000    13.9640000000    30.0300000000
  269      H      26.1060000000    14.0590000000    30.6740000000
  270      H      27.6660000000    13.2820000000    30.5440000000
  271      H      27.4720000000    14.8890000000    29.7120000000
  272      O      26.6600000000    11.6860000000    28.7870000000
  273      C      29.0120000000    10.0570000000    26.9090000000
  274      H      28.3890000000    10.7310000000    27.5010000000
  275      H      29.1700000000     9.1800000000    27.5430000000
  276      H      29.9840000000    10.5070000000    26.6890000000
  277      S      28.1870000000     9.3870000000    25.4470000000
  278      C      26.7510000000     8.5960000000    26.2050000000
  279      H      26.2660000000     9.2690000000    26.9170000000
  280      H      26.0350000000     8.3210000000    25.4270000000
  281      H      27.2530000000     7.7650000000    26.7070000000
  282      O      29.0590000000     8.1990000000    25.1850000000
  283      C      24.7360000000    11.6920000000    23.6490000000
  284      H      25.6910000000    12.2230000000    23.6030000000
  285      H      24.7830000000    10.7560000000    23.0870000000
  286      H      23.8800000000    12.3160000000    23.3800000000
  287      S      24.4580000000    11.1940000000    25.3630000000
  288      C      22.7430000000    10.6240000000    25.3520000000
  289      H      22.2340000000    11.1360000000    24.5320000000
  290      H      22.8140000000     9.5850000000    25.0200000000
  291      H      22.4070000000    10.7340000000    26.3860000000
  292      O      24.2000000000    12.5090000000    26.0320000000
 ----------------------------------------------------------------
 Nuclear Repulsion Energy =       47424.00719158 hartrees
 There are      602 alpha and      602 beta electrons
 Requested basis set is 6-31+G(d)
 There are 962 shells and 2681 basis functions

 Total QAlloc Memory Limit  16000 MB
 Mega-Array Size      7821 MB
 MEM_STATIC part      8000 MB
 A cutoff of  1.0D-14 yielded 173224 shell pairs
 There are   1498494 function pairs
 Smallest overlap matrix eigenvalue = 5.87E-07
 Linear dependence detected in AO basis
 Tighter screening thresholds may be required for diffuse basis sets
 Use S2THRESH > 14 and THRESH = 14 in case of SCF convergence issues
 Number of orthogonalized atomic orbitals = 2679
 Maximum deviation from orthogonality = 1.274E-10

 Scale SEOQF with 1.000000e-03/1.000000e-03/1.000000e-03

 Standard Electronic Orientation quadrupole field applied
 Nucleus-field energy     =    -0.0000007046 hartrees
 Guess from superposition of atomic densities
 Warning:  Energy on first SCF cycle will be non-variational
 SAD guess density has 1204.000002 electrons

 -----------------------------------------------------------------------
  General SCF calculation program by
  Eric Jon Sundstrom, Paul Horn, Yuezhi Mao, Dmitri Zuev, Alec White,
  David Stuck, Shaama M.S., Shane Yost, Joonho Lee, David Small,
  Daniel Levine, Susi Lehtola, Hugh Burton, Evgeny Epifanovsky,
  Bang C. Huynh
 -----------------------------------------------------------------------
=================================================
        Doing projection-based embedding         
      F. Manby et al. JCTC, 8, 2564 (2012)       
=================================================

****************************************************
   Low-level SCF calculation for the whole system   
****************************************************
----------------------------------------------
 Summary of the low-level theory: 
 Exchange:     0.2000 Hartree-Fock + 0.0800 Slater + 0.7200 B88
 Correlation:  0.1900 VWN1RPA + 0.8100 LYP
 Using Euler-Maclaurin-Lebedev (75,302) quadrature formula
----------------------------------------------
 using 16 threads for integral computing
 -------------------------------------------------------
 OpenMP Integral computing Module                
 Release: version 2.0, May 2017, Q-Chem Inc. Pleasanton 
 -------------------------------------------------------
 A restricted SCF calculation will be
 performed using DIIS
 SCF converges when DIIS error is below 1.0e-08
 ---------------------------------------
  Cycle       Energy         DIIS error
 ---------------------------------------
    1  -15359.8764475073      1.35e-02  
    2  -15335.8605765108      2.51e-03  
    3  -15319.3076137930      5.01e-03  
    4  -15337.1112837387      1.52e-03  
    5  -15338.7256465928      9.96e-04  
    6  -15340.6230311663      3.45e-04  
    7  -15340.6716459588      2.64e-04  
    8  -15340.7178920929      9.68e-05  
    9  -15340.7245006760      5.50e-05  
   10  -15340.7267214626      2.67e-05  
   11  -15340.7274765261      1.14e-05  
   12  -15340.7275880681      4.41e-06  
   13  -15340.7276017753      1.53e-06  
   14  -15340.7276036010      3.99e-07  
   15  -15340.7276037170      1.61e-07  
   16  -15340.7276037329      6.62e-08  
   17  -15340.7276037362      1.69e-08  
   18  -15340.7276037365      5.74e-09  Convergence criterion met
 ---------------------------------------
 SCF time:   CPU 215370.65s  wall 13605.00s 
 SCF   energy in the final basis set =   -15340.7276037365
 Total energy in the final basis set =   -15340.7276037365

****************************************************
             Start embedding calculation            
****************************************************
----------------------------------------------
 Summary of the high-level theory: 
 Exchange:     0.2000 Hartree-Fock + 0.0800 Slater + 0.7200 B88
 Correlation:  0.1900 VWN1RPA + 0.8100 LYP
 Using Euler-Maclaurin-Lebedev (75,302) quadrature formula
----------------------------------------------
Doing R-in-R Embedding Calculation
Number of fragments: 2
Embedded fragment(s): 1 
NOcc for each fragment
           35
          567
NBasis for each fragment
          197
         2484
Variational space of the embedded problem: 
NOcc (active)  = 35
NOcc (fixed)   = 567
NVir (total)   = 2077
Read converged orbitals from disk
=========================================================
       Doing SPADE partition for the orbital space       
     D. CLaudino and N. Mayhall JCTC 15, 1053 (2019)     
=========================================================
SPADE singular values:
 1.0000 1.0000 1.0000 1.0000 1.0000 1.0000 1.0000 1.0000 1.0000 0.9999
 0.9999 0.9998 0.9997 0.9997 0.9996 0.9995 0.9994 0.9990 0.9986 0.9985
 0.9981 0.9974 0.9970 0.9966 0.9963 0.9957 0.9951 0.9948 0.9942 0.9934
 0.9930 0.9913 0.9910 0.9875 0.9825 0.1916 0.1717 0.1564 0.1537 0.1456
 0.1392 0.1248 0.1175 0.1092 0.1010 0.0901 0.0815 0.0722 0.0694 0.0637
 0.0550 0.0526 0.0487 0.0434 0.0397 0.0377 0.0361 0.0337 0.0311 0.0282
 0.0260 0.0241 0.0238 0.0220 0.0210 0.0200 0.0197 0.0187 0.0156 0.0154
 0.0147 0.0144 0.0136 0.0126 0.0123 0.0119 0.0108 0.0102 0.0097 0.0087
 0.0085 0.0079 0.0077 0.0070 0.0069 0.0067 0.0063 0.0061 0.0057 0.0055
 0.0052 0.0050 0.0047 0.0044 0.0043 0.0043 0.0036 0.0035 0.0034 0.0032
 0.0032 0.0029 0.0028 0.0027 0.0025 0.0025 0.0024 0.0022 0.0021 0.0021
 0.0019 0.0018 0.0017 0.0016 0.0016 0.0016 0.0015 0.0015 0.0014 0.0014
 0.0013 0.0013 0.0012 0.0012 0.0011 0.0011 0.0010 0.0010 0.0009 0.0009
 0.0009 0.0009 0.0008 0.0008 0.0007 0.0007 0.0007 0.0007 0.0007 0.0006
 0.0006 0.0006 0.0006 0.0005 0.0005 0.0005 0.0005 0.0004 0.0004 0.0004
 0.0004 0.0004 0.0003 0.0003 0.0003 0.0003 0.0003 0.0003 0.0003 0.0003
 0.0003 0.0002 0.0002 0.0002 0.0002 0.0002 0.0002 0.0002 0.0002 0.0002
 0.0002 0.0002 0.0002 0.0002 0.0002 0.0001 0.0001 0.0001 0.0001 0.0001
 0.0001 0.0001 0.0001 0.0001 0.0001 0.0001 0.0001 0.0001 0.0001 0.0001
 0.0001 0.0001 0.0001 0.0001 0.0001 0.0001 0.0000
Early stop requested!
567 environment occs will be part of frozen-core in future post-HF calculations
 
 --------------------------------------------------------------
 
                    Orbital Energies (a.u.)
 --------------------------------------------------------------
 
 Alpha MOs
 -- Occupied --
 -0.5167  -0.5509  -0.4792  -0.5065  -0.4803  -0.5049  -0.4692  -0.4620
 -0.4215  -0.4645  -0.4504  -0.4618  -0.4553  -0.4537  -0.4397  -0.4746
 -0.4523  -0.4652  -0.4892  -0.4631  -0.5048  -0.5352  -0.4683  -0.5232
 -0.5429  -0.6160  -0.5708  -0.5090  -0.4799  -0.5425  -0.4798  -0.5114
 -0.5182  -0.5947  -0.5591  -0.5191  -0.5312  -0.5364  -0.6018  -0.5718
 -0.6260  -0.5420  -0.5787  -0.6186  -0.5177  -0.5913  -0.5180  -0.5181
 -0.4850  -0.5903  -0.5940  -0.5598  -0.5833  -0.6324  -0.6202  -0.6294
 -0.6417  -0.5952  -0.6547  -0.6089  -0.6441  -0.6717  -0.6493  -0.9315
 -0.6546  -0.7986  -0.7805  -0.8869  -1.0092  -0.8910  -0.8559  -0.9384
 -0.9565  -0.7866  -0.8420  -1.4305  -1.0829  -0.8718  -0.7711  -0.8867
 -0.8990  -0.8338  -0.8931  -0.7636  -1.0992  -0.8965  -0.9881  -1.1328
 -0.9488  -0.9375  -1.1335  -0.8933  -0.8968  -0.9242  -0.9805  -0.9991
 -0.8479  -1.0736  -1.0555  -0.9661  -0.9164  -1.3890  -1.1456  -1.3961
 -1.2703  -1.2584  -1.0958  -0.9247  -0.8655  -1.4570  -1.2337  -0.8570
 -1.0573  -1.0999  -1.2091  -1.1305  -1.0944  -1.0923  -1.1932  -1.0862
 -1.0471  -1.3812  -1.4476  -1.5384  -1.2360  -1.3957  -1.2383  -1.1798
 -1.1596  -1.4085  -1.0860  -1.0683  -1.6623  -1.4451  -1.3539  -1.2388
 -1.8183  -1.4898  -1.3700  -1.6979  -1.7265  -1.6864  -1.4927  -1.5566
 -1.4807  -1.3517  -1.6309  -1.3382  -1.5370  -1.2301  -1.6429  -1.2760
 -1.4929  -1.6703  -1.4849  -2.0613  -1.6534  -1.7197  -1.6524  -1.2314
 -1.9974  -1.5376  -5.9898  -5.9366  -6.0037  -6.1268  -5.9204  -6.0023
 -6.0546  -5.9433  -6.0003  -5.9116  -5.9894  -5.9341  -5.9840  -5.9632
 -5.8094  -5.8378  -5.9604  -5.9256  -5.9539  -5.9509  -5.9274  -5.9583
 -5.9577  -5.9711  -5.9697  -5.9594  -6.0018  -5.9652  -4.2718 -43.1802
 -7.1861  -7.5446  -1.7988  -2.1429  -7.0333  -7.3767  -8.6888 -12.0862
 -2.4201  -4.1213  -4.3346  -2.5596  -5.4462  -2.6740  -1.6430  -1.3237
 -8.1540  -5.2892  -1.1146  -7.3777  -1.3423  -3.7798  -6.3692  -1.4686
 -5.1713  -1.5513 -74.2136  -8.7745 -81.7340 -10.8470  -7.4281  -1.2539
-11.1885  -6.3650  -2.1316  -3.0845  -3.3796  -5.0437  -6.2879  -7.5470
 -6.6583  -1.9885 -11.1081  -1.8203 -24.1952  -7.5680  -2.4197  -1.0658
 -1.7861 -10.4410  -4.2032 -20.7827  -1.2314  -1.2388  -6.3386  -2.5707
 -4.6940 -10.2627 -76.0324 -74.5637  -2.1351  -1.3422  -1.7874 -11.3157
 -7.2414  -1.8110  -6.6409  -8.6237  -2.8839  -4.8587  -1.4371  -1.1057
-13.4825  -4.2130  -1.9256  -4.7943  -5.9511 -10.9897  -6.2629 -12.6563
 -7.3251  -6.4938  -1.3074  -1.5290  -5.8774 -62.9725  -8.3930  -1.5226
 -5.7037  -2.0288 -22.9989 -60.2276 -10.5463  -4.2655  -1.3534  -6.8197
 -7.7987  -3.4271  -1.6183 -16.0104  -7.9069 -13.0666  -2.3525 -45.1284
 -9.6692  -1.2182  -8.6819  -9.5728 -20.5469  -4.9803  -6.0897  -1.1718
 -4.9023  -1.5396 -59.5323 -68.3919  -2.6883  -5.1155  -4.0539  -9.6605
 -8.1793  -4.5300  -4.1842 -38.9172 -27.6732  -4.7624  -1.2204  -4.9933
-12.0542  -5.6798  -7.7145  -5.5403  -5.3051  -5.9144  -2.8734  -5.7157
 -6.2041  -5.0924 -12.3642  -6.3039  -9.8389  -5.9211  -3.6164  -4.8343
-26.3095  -5.4785  -5.7287  -8.2607 -16.7684 -18.4013 -15.3781  -6.7773
 -8.5311  -3.4755  -7.5462  -7.1614  -5.3283  -4.0049  -6.3850  -6.1450
 -5.2449  -6.5621 -17.4506  -4.5532  -4.8118  -5.4827  -7.5623 -19.2715
 -7.3462 -13.7067  -3.3832 -16.3363  -5.8440  -7.6611  -7.7686 -15.3335
 -8.7201  -4.1156 -35.1301  -6.6768  -4.1176  -3.6190  -6.3533  -2.5615
-24.8400 -12.9120  -2.0925  -8.8299  -6.3217  -1.9832  -1.5960  -5.0698
-15.2241  -4.3062  -6.4085  -5.6647  -2.1107  -6.1385  -8.8323  -8.1880
-13.3936  -9.4743 -16.2978  -6.7073 -21.4689 -10.2183  -1.9987  -8.2337
-11.3394  -3.8601  -5.7497 -13.1604  -6.4891  -6.3365  -5.7998 -14.7988
-16.0002  -3.9390  -7.0390  -6.2292  -4.4990  -6.1844  -6.2770 -14.0479
 -1.7863  -3.9566  -1.6909  -4.3963  -6.3626  -8.6974  -6.2265  -3.5487
 -9.3157 -13.7755  -3.8319  -3.9119  -4.2465 -10.8920  -4.3906  -4.6033
 -5.8276  -3.3335  -7.0093 -11.0464  -6.5052 -12.1551  -2.3936  -7.1592
-14.1987 -19.0805  -7.1802  -8.0196  -2.2161  -8.8682 -20.1702 -14.8320
 -4.3681  -4.9670  -3.4086  -8.9392  -6.1388 -10.5559  -3.2533 -22.1691
-14.8997 -22.6367 -13.1625  -1.7992 -14.0185 -10.5399  -4.9047  -5.7881
-60.2065  -7.2606  -5.4984 -10.2215  -8.0490 -12.0143 -21.8241  -8.7080
 -5.4599  -2.8170  -8.1191  -3.0656  -1.0579 -33.2804 -20.4047 -19.4289
-10.4854  -7.9978  -3.2848 -11.6129  -6.7014  -5.0939 -19.9297 -10.5587
-33.3164 -33.8314  -8.2520  -4.6905 -11.4039 -18.0896 -26.1550 -14.0528
-49.1416 -23.5130 -11.4243 -12.0450  -1.7707  -1.8853  -2.8842  -4.4241
-59.0292  -1.5358 -32.5730  -7.2587  -2.4442  -8.8297 -74.6069 -83.1966
-14.5983 -12.7911  -2.9383  -8.2270  -4.6569 -46.2014  -6.0002 -16.7116
-17.5266 -11.6264  -7.2608 -13.3179  -9.2235  -9.7643 -11.8450 -10.8094
-56.8902 -14.9933  -1.6132  -9.0484  -7.3151  -4.4096 -12.0682 -12.2708
 -6.8405  -9.6176  -5.2901  -4.6896 -13.8453 -10.7128  -7.7474  -6.4111
-12.4663 -10.1047 -14.5949  -8.1530 -10.0049 -14.1147  -3.8017  -8.0763
 -6.0308  -5.0610  -6.3459 -22.7249  -4.1798 -14.6177 -14.7999 -12.1054
 -9.0937  -1.6200  -7.1676 -10.6367  -3.9998 -10.6191  -3.0567 -11.4136
-13.4578 -10.9897 -15.8388 -11.5889 -10.1391 -10.0717 -10.2099 -10.3534
 -0.8019  -0.7865  -0.6376  -1.0455  -0.7755  -0.6331  -0.8193  -0.8276
 -0.4418  -0.4725  -0.3925  -0.5292  -0.4168  -0.4711  -0.5279  -0.5000
 -0.4074  -0.4243  -0.4794  -0.4509  -0.4494  -0.4359  -0.4315  -0.4276
 -0.5504  -0.5864
 -- Virtual --
 -0.0523  -0.0464  -0.0422  -0.0375  -0.0348  -0.0299  -0.0293  -0.0274
 -0.0263  -0.0253  -0.0246  -0.0227  -0.0212  -0.0197  -0.0190  -0.0175
 -0.0172  -0.0154  -0.0134  -0.0132  -0.0121  -0.0111  -0.0109  -0.0102
 -0.0090  -0.0085  -0.0068  -0.0060  -0.0046  -0.0040  -0.0025  -0.0017
 -0.0006   0.0010   0.0012   0.0019   0.0024   0.0029   0.0040   0.0041
  0.0049   0.0059   0.0062   0.0070   0.0078   0.0086   0.0090   0.0098
  0.0108   0.0111   0.0115   0.0121   0.0123   0.0130   0.0133   0.0138
  0.0142   0.0149   0.0158   0.0169   0.0182   0.0184   0.0197   0.0202
  0.0210   0.0216   0.0227   0.0231   0.0236   0.0236   0.0248   0.0254
  0.0270   0.0276   0.0277   0.0284   0.0295   0.0300   0.0306   0.0314
  0.0322   0.0331   0.0332   0.0334   0.0350   0.0352   0.0357   0.0364
  0.0371   0.0375   0.0383   0.0387   0.0394   0.0397   0.0407   0.0412
  0.0417   0.0423   0.0432   0.0437   0.0447   0.0452   0.0459   0.0468
  0.0470   0.0473   0.0489   0.0491   0.0496   0.0503   0.0507   0.0517
  0.0523   0.0531   0.0538   0.0543   0.0547   0.0554   0.0555   0.0558
  0.0562   0.0572   0.0584   0.0587   0.0591   0.0604   0.0609   0.0614
  0.0617   0.0618   0.0627   0.0635   0.0642   0.0649   0.0652   0.0658
  0.0671   0.0673   0.0676   0.0681   0.0698   0.0702   0.0706   0.0710
  0.0726   0.0729   0.0730   0.0736   0.0741   0.0753   0.0760   0.0763
  0.0769   0.0779   0.0783   0.0788   0.0795   0.0800   0.0803   0.0807
  0.0818   0.0823   0.0826   0.0832   0.0839   0.0843   0.0849   0.0851
  0.0862   0.0868   0.0874   0.0881   0.0884   0.0889   0.0897   0.0901
  0.0915   0.0920   0.0927   0.0930   0.0936   0.0948   0.0951   0.0958
  0.0963   0.0966   0.0975   0.0986   0.0994   0.1000   0.1001   0.1004
  0.1014   0.1019   0.1026   0.1036   0.1047   0.1052   0.1057   0.1060
  0.1064   0.1071   0.1081   0.1082   0.1085   0.1090   0.1092   0.1106
  0.1113   0.1118   0.1125   0.1128   0.1136   0.1140   0.1146   0.1160
  0.1168   0.1171   0.1180   0.1185   0.1186   0.1191   0.1200   0.1202
  0.1207   0.1219   0.1220   0.1224   0.1226   0.1235   0.1245   0.1249
  0.1257   0.1261   0.1267   0.1277   0.1283   0.1285   0.1292   0.1297
  0.1303   0.1308   0.1315   0.1323   0.1327   0.1329   0.1340   0.1348
  0.1351   0.1353   0.1367   0.1373   0.1375   0.1384   0.1386   0.1390
  0.1398   0.1406   0.1409   0.1415   0.1421   0.1434   0.1438   0.1445
  0.1454   0.1463   0.1466   0.1469   0.1478   0.1485   0.1489   0.1499
  0.1504   0.1508   0.1510   0.1515   0.1523   0.1528   0.1536   0.1544
  0.1544   0.1553   0.1556   0.1563   0.1567   0.1573   0.1575   0.1579
  0.1590   0.1596   0.1603   0.1607   0.1613   0.1616   0.1620   0.1628
  0.1635   0.1644   0.1659   0.1660   0.1663   0.1668   0.1677   0.1683
  0.1686   0.1692   0.1696   0.1702   0.1708   0.1715   0.1720   0.1723
  0.1733   0.1739   0.1746   0.1753   0.1756   0.1761   0.1772   0.1779
  0.1780   0.1784   0.1789   0.1798   0.1801   0.1808   0.1810   0.1817
  0.1825   0.1827   0.1836   0.1846   0.1853   0.1857   0.1860   0.1866
  0.1868   0.1883   0.1884   0.1896   0.1903   0.1906   0.1913   0.1921
  0.1925   0.1931   0.1937   0.1952   0.1955   0.1960   0.1964   0.1972
  0.1981   0.1982   0.1987   0.1998   0.1999   0.2003   0.2008   0.2022
  0.2027   0.2029   0.2036   0.2037   0.2046   0.2052   0.2055   0.2065
  0.2071   0.2072   0.2081   0.2085   0.2092   0.2093   0.2103   0.2111
  0.2113   0.2123   0.2128   0.2132   0.2140   0.2144   0.2150   0.2158
  0.2164   0.2165   0.2176   0.2184   0.2186   0.2190   0.2200   0.2201
  0.2215   0.2221   0.2228   0.2233   0.2242   0.2248   0.2258   0.2259
  0.2268   0.2274   0.2286   0.2289   0.2298   0.2309   0.2314   0.2322
  0.2325   0.2330   0.2336   0.2340   0.2355   0.2358   0.2366   0.2372
  0.2376   0.2384   0.2397   0.2398   0.2407   0.2410   0.2423   0.2424
  0.2431   0.2434   0.2446   0.2450   0.2459   0.2469   0.2480   0.2483
  0.2489   0.2493   0.2502   0.2505   0.2512   0.2522   0.2525   0.2530
  0.2542   0.2550   0.2558   0.2563   0.2568   0.2571   0.2582   0.2585
  0.2595   0.2602   0.2612   0.2619   0.2622   0.2637   0.2640   0.2647
  0.2653   0.2658   0.2662   0.2669   0.2677   0.2682   0.2687   0.2690
  0.2700   0.2710   0.2721   0.2730   0.2739   0.2743   0.2748   0.2753
  0.2765   0.2770   0.2776   0.2785   0.2789   0.2802   0.2810   0.2821
  0.2825   0.2836   0.2848   0.2849   0.2855   0.2864   0.2869   0.2877
  0.2893   0.2896   0.2909   0.2914   0.2920   0.2924   0.2925   0.2938
  0.2948   0.2959   0.2971   0.2974   0.2980   0.2989   0.2998   0.3004
  0.3015   0.3020   0.3031   0.3039   0.3044   0.3052   0.3056   0.3062
  0.3066   0.3071   0.3078   0.3087   0.3109   0.3122   0.3128   0.3130
  0.3144   0.3150   0.3161   0.3171   0.3180   0.3183   0.3194   0.3202
  0.3205   0.3212   0.3221   0.3233   0.3245   0.3249   0.3258   0.3266
  0.3276   0.3279   0.3292   0.3305   0.3306   0.3318   0.3327   0.3336
  0.3345   0.3351   0.3361   0.3368   0.3370   0.3391   0.3396   0.3404
  0.3412   0.3418   0.3429   0.3432   0.3440   0.3443   0.3450   0.3460
  0.3472   0.3476   0.3480   0.3487   0.3501   0.3509   0.3521   0.3530
  0.3539   0.3552   0.3559   0.3566   0.3576   0.3582   0.3588   0.3591
  0.3603   0.3617   0.3624   0.3625   0.3633   0.3646   0.3653   0.3665
  0.3674   0.3680   0.3685   0.3690   0.3705   0.3717   0.3723   0.3727
  0.3731   0.3749   0.3756   0.3760   0.3769   0.3777   0.3788   0.3794
  0.3806   0.3810   0.3820   0.3835   0.3840   0.3843   0.3853   0.3862
  0.3876   0.3879   0.3883   0.3907   0.3914   0.3921   0.3926   0.3933
  0.3936   0.3950   0.3954   0.3966   0.3975   0.3988   0.3989   0.3997
  0.4006   0.4022   0.4028   0.4033   0.4042   0.4050   0.4055   0.4070
  0.4073   0.4098   0.4100   0.4114   0.4119   0.4123   0.4141   0.4148
  0.4160   0.4161   0.4165   0.4176   0.4190   0.4203   0.4210   0.4216
  0.4223   0.4235   0.4244   0.4256   0.4263   0.4275   0.4286   0.4290
  0.4306   0.4319   0.4331   0.4340   0.4345   0.4356   0.4362   0.4387
  0.4398   0.4406   0.4421   0.4428   0.4441   0.4453   0.4461   0.4464
  0.4478   0.4500   0.4506   0.4528   0.4538   0.4546   0.4560   0.4572
  0.4584   0.4597   0.4612   0.4622   0.4641   0.4642   0.4649   0.4660
  0.4670   0.4690   0.4695   0.4721   0.4730   0.4737   0.4761   0.4763
  0.4769   0.4794   0.4823   0.4827   0.4841   0.4849   0.4850   0.4877
  0.4907   0.4922   0.4936   0.4955   0.4969   0.4984   0.4992   0.5006
  0.5021   0.5035   0.5060   0.5065   0.5078   0.5084   0.5099   0.5112
  0.5138   0.5171   0.5175   0.5199   0.5208   0.5227   0.5250   0.5292
  0.5298   0.5308   0.5321   0.5334   0.5336   0.5377   0.5390   0.5412
  0.5424   0.5433   0.5441   0.5459   0.5489   0.5513   0.5519   0.5537
  0.5564   0.5576   0.5600   0.5602   0.5633   0.5662   0.5668   0.5677
  0.5691   0.5710   0.5741   0.5752   0.5770   0.5785   0.5808   0.5821
  0.5833   0.5849   0.5859   0.5878   0.5896   0.5900   0.5923   0.5934
  0.5939   0.5945   0.5971   0.5976   0.5995   0.6004   0.6019   0.6024
  0.6036   0.6048   0.6058   0.6071   0.6083   0.6098   0.6108   0.6130
  0.6136   0.6163   0.6168   0.6182   0.6195   0.6205   0.6216   0.6226
  0.6245   0.6254   0.6268   0.6270   0.6282   0.6307   0.6309   0.6312
  0.6321   0.6329   0.6339   0.6355   0.6356   0.6367   0.6376   0.6378
  0.6395   0.6406   0.6417   0.6425   0.6431   0.6451   0.6466   0.6470
  0.6475   0.6485   0.6492   0.6511   0.6527   0.6536   0.6541   0.6548
  0.6549   0.6567   0.6586   0.6594   0.6604   0.6617   0.6626   0.6643
  0.6654   0.6663   0.6677   0.6692   0.6695   0.6702   0.6711   0.6726
  0.6738   0.6750   0.6754   0.6765   0.6768   0.6792   0.6804   0.6822
  0.6833   0.6837   0.6850   0.6861   0.6874   0.6885   0.6888   0.6895
  0.6909   0.6916   0.6923   0.6932   0.6948   0.6962   0.6977   0.6985
  0.6996   0.7012   0.7021   0.7036   0.7051   0.7057   0.7080   0.7100
  0.7102   0.7122   0.7128   0.7147   0.7150   0.7162   0.7169   0.7190
  0.7202   0.7208   0.7222   0.7230   0.7239   0.7248   0.7271   0.7299
  0.7301   0.7308   0.7325   0.7346   0.7355   0.7373   0.7384   0.7389
  0.7397   0.7400   0.7427   0.7434   0.7440   0.7451   0.7480   0.7490
  0.7510   0.7519   0.7532   0.7548   0.7556   0.7571   0.7590   0.7601
  0.7630   0.7632   0.7639   0.7662   0.7665   0.7692   0.7708   0.7717
  0.7721   0.7736   0.7741   0.7768   0.7784   0.7792   0.7801   0.7829
  0.7847   0.7865   0.7877   0.7901   0.7910   0.7926   0.7936   0.7950
  0.7966   0.7976   0.7988   0.7997   0.8021   0.8043   0.8047   0.8065
  0.8076   0.8082   0.8096   0.8106   0.8114   0.8135   0.8138   0.8155
  0.8186   0.8192   0.8200   0.8216   0.8229   0.8250   0.8282   0.8286
  0.8295   0.8298   0.8323   0.8328   0.8340   0.8343   0.8356   0.8388
  0.8399   0.8405   0.8418   0.8435   0.8444   0.8463   0.8476   0.8490
  0.8498   0.8512   0.8520   0.8534   0.8551   0.8563   0.8573   0.8586
  0.8592   0.8596   0.8606   0.8631   0.8643   0.8648   0.8663   0.8670
  0.8679   0.8687   0.8702   0.8710   0.8746   0.8750   0.8756   0.8775
  0.8792   0.8798   0.8803   0.8816   0.8825   0.8835   0.8856   0.8857
  0.8870   0.8888   0.8904   0.8920   0.8929   0.8938   0.8940   0.8949
  0.8965   0.8978   0.9000   0.9001   0.9018   0.9038   0.9061   0.9079
  0.9089   0.9096   0.9109   0.9124   0.9141   0.9154   0.9160   0.9180
  0.9188   0.9202   0.9214   0.9219   0.9226   0.9251   0.9261   0.9271
  0.9287   0.9295   0.9320   0.9322   0.9339   0.9353   0.9374   0.9384
  0.9389   0.9403   0.9405   0.9428   0.9435   0.9442   0.9453   0.9464
  0.9482   0.9493   0.9508   0.9525   0.9535   0.9557   0.9571   0.9575
  0.9582   0.9598   0.9606   0.9612   0.9619   0.9635   0.9663   0.9667
  0.9674   0.9682   0.9690   0.9699   0.9713   0.9715   0.9732   0.9735
  0.9756   0.9762   0.9773   0.9776   0.9782   0.9795   0.9805   0.9814
  0.9833   0.9839   0.9853   0.9868   0.9877   0.9891   0.9902   0.9914
  0.9920   0.9922   0.9945   0.9955   0.9959   0.9966   0.9985   0.9989
  0.9992   1.0008   1.0013   1.0025   1.0039   1.0048   1.0050   1.0059
  1.0080   1.0099   1.0112   1.0123   1.0129   1.0143   1.0159   1.0162
  1.0173   1.0180   1.0183   1.0204   1.0211   1.0224   1.0231   1.0241
  1.0260   1.0265   1.0282   1.0290   1.0302   1.0313   1.0327   1.0337
  1.0348   1.0356   1.0357   1.0364   1.0385   1.0389   1.0402   1.0414
  1.0426   1.0429   1.0458   1.0465   1.0477   1.0492   1.0505   1.0530
  1.0538   1.0563   1.0567   1.0575   1.0591   1.0612   1.0612   1.0641
  1.0649   1.0658   1.0669   1.0683   1.0699   1.0707   1.0732   1.0755
  1.0765   1.0777   1.0779   1.0790   1.0819   1.0831   1.0835   1.0853
  1.0869   1.0878   1.0893   1.0902   1.0911   1.0937   1.0950   1.0972
  1.0986   1.1001   1.1018   1.1041   1.1044   1.1051   1.1055   1.1066
  1.1072   1.1093   1.1122   1.1133   1.1142   1.1155   1.1173   1.1188
  1.1194   1.1212   1.1226   1.1233   1.1250   1.1267   1.1275   1.1279
  1.1295   1.1310   1.1321   1.1325   1.1339   1.1359   1.1371   1.1373
  1.1383   1.1394   1.1411   1.1416   1.1434   1.1440   1.1457   1.1475
  1.1486   1.1509   1.1512   1.1526   1.1537   1.1547   1.1570   1.1586
  1.1589   1.1601   1.1617   1.1620   1.1624   1.1633   1.1656   1.1666
  1.1688   1.1711   1.1723   1.1735   1.1739   1.1765   1.1784   1.1797
  1.1804   1.1823   1.1827   1.1850   1.1864   1.1882   1.1896   1.1926
  1.1933   1.1946   1.1959   1.1976   1.1982   1.1999   1.2013   1.2032
  1.2062   1.2066   1.2087   1.2126   1.2132   1.2159   1.2164   1.2185
  1.2194   1.2197   1.2218   1.2246   1.2271   1.2287   1.2303   1.2316
  1.2338   1.2368   1.2387   1.2417   1.2422   1.2441   1.2452   1.2494
  1.2506   1.2524   1.2537   1.2548   1.2588   1.2601   1.2624   1.2634
  1.2666   1.2701   1.2711   1.2731   1.2755   1.2771   1.2786   1.2821
  1.2836   1.2845   1.2860   1.2880   1.2906   1.2937   1.2942   1.2974
  1.2995   1.3016   1.3039   1.3059   1.3067   1.3125   1.3140   1.3154
  1.3189   1.3212   1.3240   1.3248   1.3259   1.3285   1.3299   1.3309
  1.3324   1.3355   1.3360   1.3373   1.3381   1.3406   1.3416   1.3429
  1.3437   1.3453   1.3476   1.3490   1.3509   1.3541   1.3559   1.3567
  1.3586   1.3588   1.3615   1.3628   1.3646   1.3654   1.3674   1.3691
  1.3708   1.3717   1.3752   1.3766   1.3774   1.3788   1.3805   1.3819
  1.3834   1.3865   1.3870   1.3884   1.3895   1.3906   1.3926   1.3941
  1.3945   1.3956   1.3985   1.3989   1.3997   1.4011   1.4021   1.4038
  1.4063   1.4083   1.4085   1.4098   1.4122   1.4133   1.4158   1.4176
  1.4185   1.4188   1.4210   1.4217   1.4231   1.4239   1.4260   1.4268
  1.4287   1.4292   1.4317   1.4331   1.4349   1.4352   1.4363   1.4375
  1.4392   1.4406   1.4410   1.4434   1.4449   1.4474   1.4492   1.4504
  1.4520   1.4527   1.4551   1.4570   1.4577   1.4601   1.4607   1.4642
  1.4671   1.4681   1.4693   1.4724   1.4743   1.4745   1.4758   1.4771
  1.4786   1.4814   1.4828   1.4858   1.4869   1.4882   1.4900   1.4933
  1.4937   1.4973   1.4979   1.5001   1.5010   1.5022   1.5057   1.5080
  1.5089   1.5106   1.5115   1.5124   1.5167   1.5191   1.5215   1.5240
  1.5262   1.5298   1.5323   1.5329   1.5355   1.5417   1.5460   1.5464
  1.5490   1.5553   1.5557   1.5581   1.5622   1.5651   1.5683   1.5695
  1.5728   1.5807   1.5834   1.5876   1.5919   1.5952   1.6012   1.6046
  1.6072   1.6138   1.6169   1.6212   1.6235   1.6261   1.6308   1.6341
  1.6387   1.6417   1.6438   1.6466   1.6481   1.6525   1.6534   1.6548
  1.6563   1.6581   1.6591   1.6617   1.6641   1.6675   1.6691   1.6705
  1.6720   1.6734   1.6749   1.6756   1.6769   1.6778   1.6801   1.6809
  1.6816   1.6826   1.6844   1.6850   1.6862   1.6876   1.6887   1.6891
  1.6901   1.6912   1.6915   1.6931   1.6948   1.6960   1.6977   1.6992
  1.6993   1.7006   1.7021   1.7026   1.7052   1.7059   1.7066   1.7076
  1.7097   1.7109   1.7114   1.7143   1.7154   1.7161   1.7177   1.7191
  1.7198   1.7209   1.7217   1.7231   1.7249   1.7254   1.7270   1.7279
  1.7291   1.7300   1.7304   1.7316   1.7332   1.7352   1.7381   1.7395
  1.7417   1.7425   1.7459   1.7473   1.7491   1.7511   1.7522   1.7528
  1.7534   1.7561   1.7564   1.7575   1.7602   1.7605   1.7620   1.7632
  1.7643   1.7658   1.7680   1.7697   1.7717   1.7738   1.7749   1.7765
  1.7808   1.7821   1.7832   1.7865   1.7874   1.7902   1.7912   1.7931
  1.7951   1.7981   1.7994   1.8021   1.8057   1.8077   1.8107   1.8118
  1.8167   1.8185   1.8251   1.8283   1.8298   1.8301   1.8334   1.8356
  1.8364   1.8412   1.8422   1.8474   1.8509   1.8512   1.8531   1.8550
  1.8604   1.8623   1.8643   1.8679   1.8696   1.8702   1.8727   1.8754
  1.8758   1.8774   1.8803   1.8821   1.8824   1.8851   1.8862   1.8868
  1.8887   1.8921   1.8932   1.8944   1.8952   1.8963   1.8977   1.8991
  1.8998   1.9009   1.9018   1.9029   1.9033   1.9040   1.9044   1.9058
  1.9060   1.9068   1.9088   1.9092   1.9116   1.9126   1.9132   1.9142
  1.9153   1.9166   1.9181   1.9193   1.9204   1.9214   1.9227   1.9239
  1.9263   1.9284   1.9307   1.9323   1.9349   1.9375   1.9392   1.9411
  1.9418   1.9429   1.9458   1.9485   1.9488   1.9520   1.9551   1.9587
  1.9602   1.9636   1.9659   1.9704   1.9723   1.9753   1.9801   1.9879
  1.9881   1.9933   2.0010   2.0068   2.0162   2.0180   2.0251   2.0304
  2.0383   2.0399   2.0402   2.0471   2.0485   2.0498   2.0515   2.0560
  2.0570   2.0576   2.0588   2.0598   2.0609   2.0619   2.0630   2.0641
  2.0651   2.0659   2.0670   2.0706   2.0713   2.0721   2.0754   2.0762
  2.0767   2.0779   2.0791   2.0819   2.0839   2.0855   2.0868   2.0877
  2.0895   2.0912   2.0914   2.0924   2.0939   2.0941   2.0963   2.0971
  2.0977   2.0980   2.1000   2.1027   2.1047   2.1085   2.1088   2.1111
  2.1145   2.1148   2.1174   2.1191   2.1204   2.1279   2.1333   2.1345
  2.1394   2.1399   2.1429   2.1451   2.1587   2.1611   2.1621   2.1664
  2.1695   2.1714   2.1725   2.1859   2.1865   2.1902   2.1925   2.1953
  2.1969   2.1990   2.1993   2.2016   2.2025   2.2030   2.2050   2.2058
  2.2077   2.2082   2.2096   2.2107   2.2119   2.2146   2.2161   2.2189
  2.2198   2.2229   2.2241   2.2261   2.2272   2.2288   2.2293   2.2311
  2.2322   2.2337   2.2347   2.2352   2.2373   2.2384   2.2395   2.2412
  2.2426   2.2436   2.2444   2.2461   2.2481   2.2490   2.2512   2.2516
  2.2517   2.2521   2.2540   2.2546   2.2549   2.2552   2.2562   2.2568
  2.2569   2.2583   2.2595   2.2603   2.2615   2.2619   2.2631   2.2639
  2.2651   2.2664   2.2669   2.2677   2.2688   2.2692   2.2703   2.2712
  2.2718   2.2726   2.2744   2.2748   2.2757   2.2762   2.2789   2.2795
  2.2807   2.2808   2.2815   2.2828   2.2836   2.2850   2.2867   2.2879
  2.2889   2.2892   2.2902   2.2914   2.2920   2.2930   2.2942   2.2947
  2.2952   2.2964   2.2975   2.2998   2.3004   2.3019   2.3024   2.3029
  2.3040   2.3056   2.3072   2.3076   2.3081   2.3108   2.3112   2.3115
  2.3127   2.3150   2.3171   2.3178   2.3194   2.3213   2.3216   2.3234
  2.3245   2.3252   2.3268   2.3275   2.3290   2.3301   2.3319   2.3329
  2.3351   2.3364   2.3380   2.3391   2.3422   2.3429   2.3441   2.3465
  2.3476   2.3498   2.3526   2.3540   2.3544   2.3564   2.3568   2.3583
  2.3593   2.3609   2.3624   2.3650   2.3657   2.3685   2.3701   2.3719
  2.3733   2.3756   2.3773   2.3790   2.3814   2.3838   2.3856   2.3870
  2.3885   2.3906   2.3953   2.4014   2.4265   2.4354   2.4864   2.4954
  2.5199   2.5550   2.6529   2.6982   2.7256   2.7711   2.8020   2.8029
  2.8179   2.8232   2.8276   2.8291   2.8322   2.8354   2.8391   2.8402
  2.8425   2.8429   2.8456   2.8472   2.8491   2.8530   2.8544   2.8550
  2.8576   2.8594   2.8609   2.8622   2.8641   2.8692   2.8731   2.8775
  2.8833   2.8861   2.8890   2.8916   2.8990   2.9316   3.0619   3.2191
  3.9402   3.9524   3.9546   3.9570   3.9581   3.9603   3.9630   3.9656
  3.9676   3.9700   3.9737   3.9766   3.9782   3.9846   3.9854   3.9882
  3.9892   3.9913   3.9924   3.9952   3.9993   4.0018   4.0047   4.0054
  4.0110   4.0165   4.0174   4.1840   4.2042   4.2105   4.2138   4.2210
  4.2275   4.2330   4.2364   4.2389   4.2404   4.2441   4.2468   4.2477
  4.2519   4.2537   4.2569   4.2596   4.2610   4.2637   4.2660   4.2715
  4.2735   4.2757   4.2784   4.2794   4.2816   4.2842   4.2863   4.2886
  4.2886   4.2919   4.2923   4.2940   4.2977   4.3016   4.3033   4.3058
  4.3064   4.3092   4.3109   4.3137   4.3164   4.3198   4.3214   4.3254
  4.3282   4.3300   4.3319   4.3338   4.3360   4.3408   4.3430   4.3451
  4.3484   4.3544   4.3576   4.3590   4.3623   4.3638   4.3693   4.3759
  4.3828   4.3876   4.3908   4.3958   4.4032   4.4036   4.4089   4.4177
  4.4200   4.4225   4.4271   4.4352   4.4415   4.4524   4.4699   4.4720
  4.4953   4.5049   4.5107   4.5232   4.5259   4.5429   4.5437   4.5680
  4.5936   4.6858   4.7051   4.7231   4.8558
 --------------------------------------------------------------
 
          Ground-State Mulliken Net Atomic Charges

     Atom                 Charge (a.u.)
  ----------------------------------------
      1 C                    -0.351339
      2 C                    -0.907674
      3 C                    -0.192809
      4 C                    -0.352195
      5 C                    -0.178553
      6 C                    -0.648055
      7 H                     0.222972
      8 H                     0.212039
      9 H                     0.200662
     10 H                     0.219513
     11 H                     0.179590
     12 H                     0.233151
     13 H                     0.244950
     14 H                     0.204321
     15 H                     0.203760
     16 H                     0.234403
     17 H                     0.216106
     18 N                     0.226456
     19 H                     0.489459
     20 C                    -0.353775
     21 H                     0.170280
     22 O                    -0.257643
     23 C                    -0.689188
     24 H                     0.240752
     25 H                     0.219281
     26 H                     0.323810
     27 S                     0.538400
     28 C                    -0.730538
     29 H                     0.278626
     30 H                     0.290945
     31 H                     0.239027
     32 O                    -0.645568
     33 C                    -1.052332
     34 H                     0.278017
     35 H                     0.254458
     36 H                     0.270336
     37 S                     1.108426
     38 C                    -0.989930
     39 H                     0.306760
     40 H                     0.256875
     41 H                     0.228879
     42 O                    -0.704434
     43 C                    -0.961627
     44 H                     0.307917
     45 H                     0.247332
     46 H                     0.260473
     47 S                     0.759045
     48 C                    -0.825403
     49 H                     0.258514
     50 H                     0.234722
     51 H                     0.264033
     52 O                    -0.646513
     53 C                    -0.842517
     54 H                     0.252220
     55 H                     0.245742
     56 H                     0.263094
     57 S                     0.979209
     58 C                    -0.805258
     59 H                     0.239965
     60 H                     0.252223
     61 H                     0.268241
     62 O                    -0.759407
     63 C                    -0.903625
     64 H                     0.239944
     65 H                     0.301367
     66 H                     0.256424
     67 S                     0.895936
     68 C                    -0.876676
     69 H                     0.254343
     70 H                     0.257683
     71 H                     0.249752
     72 O                    -0.715338
     73 C                    -1.074414
     74 H                     0.250549
     75 H                     0.248304
     76 H                     0.245404
     77 S                     1.294262
     78 C                    -0.855723
     79 H                     0.236518
     80 H                     0.280037
     81 H                     0.261606
     82 O                    -0.740017
     83 C                    -0.868513
     84 H                     0.264248
     85 H                     0.230854
     86 H                     0.269584
     87 S                     0.818159
     88 C                    -0.814457
     89 H                     0.297817
     90 H                     0.311324
     91 H                     0.276982
     92 O                    -0.650300
     93 C                    -0.849007
     94 H                     0.245663
     95 H                     0.263598
     96 H                     0.294360
     97 S                     0.829049
     98 C                    -0.771550
     99 H                     0.240837
    100 H                     0.248775
    101 H                     0.244283
    102 O                    -0.707349
    103 C                    -0.825630
    104 H                     0.289909
    105 H                     0.235499
    106 H                     0.249625
    107 S                     0.631977
    108 C                    -0.707112
    109 H                     0.240304
    110 H                     0.260795
    111 H                     0.243566
    112 O                    -0.628037
    113 C                    -1.294322
    114 H                     0.280646
    115 H                     0.281744
    116 H                     0.230546
    117 S                     1.486121
    118 C                    -1.184065
    119 H                     0.266260
    120 H                     0.319620
    121 H                     0.240506
    122 O                    -0.646296
    123 C                    -0.848449
    124 H                     0.249150
    125 H                     0.254270
    126 H                     0.242272
    127 S                     0.910005
    128 C                    -0.859747
    129 H                     0.266580
    130 H                     0.250243
    131 H                     0.256818
    132 O                    -0.688134
    133 C                    -0.685965
    134 H                     0.262248
    135 H                     0.287272
    136 H                     0.268641
    137 S                     0.264659
    138 C                    -0.583949
    139 H                     0.265695
    140 H                     0.269265
    141 H                     0.225546
    142 O                    -0.590535
    143 C                    -0.946896
    144 H                     0.254837
    145 H                     0.284299
    146 H                     0.251988
    147 S                     0.826604
    148 C                    -0.853305
    149 H                     0.277373
    150 H                     0.257916
    151 H                     0.256789
    152 O                    -0.649215
    153 C                    -0.895183
    154 H                     0.218492
    155 H                     0.261253
    156 H                     0.270311
    157 S                     1.155944
    158 C                    -1.001189
    159 H                     0.218938
    160 H                     0.251723
    161 H                     0.277825
    162 O                    -0.741512
    163 C                    -0.825283
    164 H                     0.261141
    165 H                     0.245814
    166 H                     0.271474
    167 S                     1.024924
    168 C                    -1.037114
    169 H                     0.241461
    170 H                     0.244064
    171 H                     0.257194
    172 O                    -0.692958
    173 C                    -1.156112
    174 H                     0.198809
    175 H                     0.287156
    176 H                     0.318268
    177 S                     1.080723
    178 C                    -0.988092
    179 H                     0.235127
    180 H                     0.261745
    181 H                     0.339828
    182 O                    -0.633953
    183 C                    -0.976813
    184 H                     0.262558
    185 H                     0.244727
    186 H                     0.258328
    187 S                     0.975665
    188 C                    -0.941118
    189 H                     0.251228
    190 H                     0.259995
    191 H                     0.254806
    192 O                    -0.635757
    193 C                    -0.911622
    194 H                     0.243686
    195 H                     0.255314
    196 H                     0.286919
    197 S                     0.974840
    198 C                    -0.834327
    199 H                     0.264637
    200 H                     0.252281
    201 H                     0.241485
    202 O                    -0.744082
    203 C                    -1.113831
    204 H                     0.255872
    205 H                     0.265429
    206 H                     0.306546
    207 S                     1.211179
    208 C                    -1.002951
    209 H                     0.248437
    210 H                     0.255235
    211 H                     0.246541
    212 O                    -0.693753
    213 C                    -0.886471
    214 H                     0.230754
    215 H                     0.260424
    216 H                     0.265962
    217 S                     0.947624
    218 C                    -0.796637
    219 H                     0.234798
    220 H                     0.257135
    221 H                     0.289432
    222 O                    -0.660381
    223 C                    -0.806701
    224 H                     0.241451
    225 H                     0.253653
    226 H                     0.289946
    227 S                     0.789440
    228 C                    -0.874206
    229 H                     0.287527
    230 H                     0.285202
    231 H                     0.241870
    232 O                    -0.684863
    233 C                    -0.775237
    234 H                     0.218328
    235 H                     0.264439
    236 H                     0.258029
    237 S                     0.874584
    238 C                    -1.080488
    239 H                     0.266923
    240 H                     0.294620
    241 H                     0.270624
    242 O                    -0.668265
    243 C                    -1.147077
    244 H                     0.243684
    245 H                     0.283264
    246 H                     0.265159
    247 S                     1.288730
    248 C                    -1.212426
    249 H                     0.272674
    250 H                     0.334016
    251 H                     0.292171
    252 O                    -0.668480
    253 C                    -0.846481
    254 H                     0.231602
    255 H                     0.245559
    256 H                     0.268148
    257 S                     0.931433
    258 C                    -1.043638
    259 H                     0.271939
    260 H                     0.240506
    261 H                     0.306605
    262 O                    -0.695014
    263 C                    -1.203991
    264 H                     0.256371
    265 H                     0.285770
    266 H                     0.287466
    267 S                     0.914573
    268 C                    -0.861385
    269 H                     0.304944
    270 H                     0.273615
    271 H                     0.219542
    272 O                    -0.602238
    273 C                    -0.825815
    274 H                     0.274629
    275 H                     0.268288
    276 H                     0.247532
    277 S                     0.848323
    278 C                    -0.871065
    279 H                     0.265215
    280 H                     0.241353
    281 H                     0.304028
    282 O                    -0.711169
    283 C                    -0.883284
    284 H                     0.265700
    285 H                     0.246800
    286 H                     0.257510
    287 S                     0.721351
    288 C                    -0.746842
    289 H                     0.249424
    290 H                     0.243471
    291 H                     0.275183
    292 O                    -0.668305
  ----------------------------------------
  Sum of atomic charges =     0.000000

 -----------------------------------------------------------------
                    Cartesian Multipole Moments
 -----------------------------------------------------------------
    Charge (ESU x 10^10)
                -0.0000
    Dipole Moment (Debye)
         X      23.2572      Y       8.5757      Z      -2.8785
       Tot      24.9544
    Quadrupole Moments (Debye-Ang)
        XX      99.5748     XY     669.3276     YY    -822.6901
        XZ     597.9796     YZ     191.5166     ZZ   -1189.5603
    Octopole Moments (Debye-Ang^2)
       XXX  -25595.0244    XXY   12175.1616    XYY   -8987.3572
       YYY  -42311.7348    XXZ    1659.5778    XYZ   18124.2483
       YYZ  -25609.7909    XZZ   -7122.5340    YZZ  -10536.5287
       ZZZ  -98127.3627
    Hexadecapole Moments (Debye-Ang^3)
      XXXX ************   XXXY  -46767.9972   XXYY -223518.8923
      XYYY -752774.2750   YYYY ************   XXXZ -747974.8569
      XXYZ  334500.7784   XYYZ -293771.0617   YYYZ ************
      XXZZ -504501.8820   XYZZ  176231.4966   YYZZ ************
      XZZZ ************   YZZZ ************   ZZZZ ************
 -----------------------------------------------------------------
Archival summary:
[...]
    2   0.0067984   0.0127220   0.0273667   0.0011785  -0.0434191   0.0000308
    3   0.0037595   0.0220528  -0.0169832   0.0154648   0.0325710  -0.0020668
          139         140         141         142         143         144
    1   0.0155872  -0.0017498   0.0250660  -0.0515616  -0.0071826  -0.0137692
    2  -0.0212821   0.0215846   0.0137980   0.0061848  -0.0047671   0.0071188
    3  -0.0160574  -0.0217229   0.0188973  -0.0970990  -0.0014742  -0.0315012
          145         146         147         148         149         150
    1   0.0140293  -0.0259391   0.0458544   0.0030158   0.0124522   0.0092768
    2  -0.0196573  -0.0051153   0.0168952  -0.0052269  -0.0345108   0.0300490
    3   0.0037670   0.0205301  -0.0224681   0.0111391   0.0046175   0.0186890
          151         152         153         154         155         156
    1  -0.0313380  -0.0905941  -0.0006695   0.0319048  -0.0230874  -0.0038813
    2  -0.0021137   0.0645741   0.0079826   0.0096757   0.0193570   0.0028630
    3   0.0116653   0.0036857   0.0010338  -0.0041368  -0.0120743   0.0309934
          157         158         159         160         161         162
    1   0.0318990  -0.0015872   0.0307734  -0.0013222  -0.0327659  -0.1097044
    2  -0.0371946   0.0028042   0.0116194  -0.0245773   0.0109352   0.0009804
    3   0.0148908  -0.0078406  -0.0157191  -0.0185082   0.0014451   0.0167431
          163         164         165         166         167         168
    1   0.0063439   0.0098817   0.0115180   0.0223471  -0.0331694   0.0029425
    2   0.0031121   0.0186197  -0.0220284   0.0123981  -0.0300004  -0.0025135
    3  -0.0018759   0.0233921   0.0183536  -0.0223265   0.0426537  -0.0048013
          169         170         171         172         173         174
    1  -0.0267051   0.0211547   0.0067073  -0.0250589  -0.0050256   0.0306682
    2  -0.0077484   0.0072492  -0.0315471   0.1009208   0.0063751   0.0060646
    3  -0.0107083  -0.0159993  -0.0013297  -0.0355673   0.0078165   0.0087205
          175         176         177         178         179         180
    1  -0.0151456  -0.0055068   0.0166333  -0.0101933  -0.0180262  -0.0138538
    2   0.0295413   0.0045341   0.0011371   0.0016803   0.0260845  -0.0207384
    3  -0.0118192   0.0350264  -0.0528292   0.0034402  -0.0143353  -0.0189747
          181         182         183         184         185         186
    1  -0.0044401   0.0226508  -0.0031610   0.0188595  -0.0122220  -0.0208105
    2   0.0158048  -0.0706100  -0.0042987  -0.0214260   0.0043461  -0.0104495
    3   0.0313505   0.0786265   0.0039772   0.0059759   0.0331741  -0.0189271
          187         188         189         190         191         192
    1   0.0499680  -0.0064018  -0.0281699   0.0032057  -0.0037492  -0.0265883
    2   0.0201926   0.0048984  -0.0119299   0.0131510   0.0201073  -0.0442392
    3   0.0127131   0.0010719  -0.0110213   0.0315056  -0.0228676  -0.0973621
          193         194         195         196         197         198
    1   0.0009187  -0.0131783  -0.0180960   0.0277125   0.0048455   0.0064359
    2  -0.0043888  -0.0338548   0.0233639   0.0043617   0.0612232  -0.0059420
    3  -0.0064260   0.0011647  -0.0037565  -0.0184411   0.0230986  -0.0017687
          199         200         201         202         203         204
    1   0.0248511  -0.0018455   0.0114573  -0.0719058  -0.0045052   0.0001830
    2   0.0118002  -0.0113260  -0.0322530  -0.0677134   0.0025261  -0.0117515
    3  -0.0181408   0.0299528  -0.0178776   0.0499526   0.0063542   0.0325854
          205         206         207         208         209         210
    1   0.0197864  -0.0224046  -0.0412581   0.0061679   0.0103478   0.0194133
    2   0.0193392   0.0316476  -0.0367858  -0.0002412  -0.0207589   0.0250611
    3  -0.0024135   0.0062784   0.0109291  -0.0000444  -0.0214409   0.0010205
          211         212         213         214         215         216
    1  -0.0029934   0.0072124  -0.0078337  -0.0075089  -0.0142849  -0.0150531
    2  -0.0239905   0.0680352  -0.0000457  -0.0164384   0.0253869  -0.0150505
    3   0.0203029  -0.0848687  -0.0025759   0.0272011  -0.0064983  -0.0249159
          217         218         219         220         221         222
    1   0.0288357  -0.0002882  -0.0043630   0.0300310  -0.0180115   0.0098519
    2  -0.0431196   0.0055958   0.0042250   0.0128789   0.0186285   0.0277720
    3   0.0258097   0.0003605   0.0341002   0.0043620  -0.0010126  -0.1061250
          223         224         225         226         227         228
    1  -0.0031235  -0.0147679  -0.0192867   0.0106927  -0.0218321  -0.0001784
    2  -0.0048992   0.0113021  -0.0129720  -0.0315600   0.0504776  -0.0083625
    3   0.0033393   0.0272320  -0.0266814   0.0028322  -0.0174285  -0.0061411
          229         230         231         232         233         234
    1   0.0098128  -0.0165774   0.0261776   0.0877281   0.0043458   0.0339134
    2  -0.0330151   0.0035328   0.0061450  -0.0083711   0.0001619   0.0023029
    3   0.0020931  -0.0313206  -0.0089845   0.0661381   0.0070287  -0.0037508
          235         236         237         238         239         240
    1  -0.0094586   0.0055783   0.0061476   0.0017893   0.0295509  -0.0000278
    2   0.0293696  -0.0308619  -0.0410288   0.0094294   0.0189320   0.0128127
    3   0.0150139   0.0120219  -0.0324364   0.0027209  -0.0060723  -0.0266303
          241         242         243         244         245         246
    1  -0.0017149  -0.0855518  -0.0017424   0.0322387  -0.0189038  -0.0159225
    2   0.0195176   0.0188349  -0.0059894  -0.0096241  -0.0247301   0.0316459
    3   0.0337354   0.0687846  -0.0098429  -0.0081446  -0.0053551  -0.0037806
          247         248         249         250         251         252
    1   0.0478049  -0.0090783  -0.0168685  -0.0348911   0.0169787  -0.0558436
    2  -0.0039892  -0.0078032   0.0118187   0.0019227  -0.0312094   0.0953113
    3   0.0229087  -0.0002794   0.0231133  -0.0119135   0.0016304  -0.0043613
          253         254         255         256         257         258
    1  -0.0015361   0.0296616  -0.0211497   0.0026644   0.0420509  -0.0074269
    2  -0.0026982   0.0157778  -0.0023130  -0.0300844   0.0096549   0.0056801
    3   0.0093002   0.0029461   0.0291407  -0.0011503  -0.0447020   0.0052199
          259         260         261         262         263         264
    1  -0.0229506   0.0203712  -0.0143849  -0.0802450   0.0107981   0.0029085
    2  -0.0078437   0.0259235   0.0042549  -0.0746134   0.0003167   0.0329600
    3   0.0220932   0.0047892  -0.0236627  -0.0192489  -0.0040418   0.0002258
          265         266         267         268         269         270
    1   0.0168932  -0.0113510  -0.0490980   0.0028874  -0.0207120   0.0244635
    2  -0.0180265  -0.0114059   0.0269676   0.0013418   0.0132808  -0.0171413
    3   0.0241718  -0.0320971  -0.0287265   0.0053911   0.0141298   0.0119459
          271         272         273         274         275         276
    1   0.0077876   0.0046018  -0.0005123  -0.0226565   0.0127057   0.0260905
    2   0.0329004  -0.1056224   0.0004713   0.0208936  -0.0254018   0.0089632
    3   0.0052848   0.0201061   0.0116244   0.0164527   0.0143699  -0.0138571
          277         278         279         280         281         282
    1  -0.0124416  -0.0021126  -0.0149279  -0.0163877   0.0002615   0.0646122
    2   0.0376871  -0.0043171   0.0191137  -0.0154994  -0.0339648  -0.0876909
    3  -0.0392536   0.0084977   0.0212357  -0.0210260   0.0117775  -0.0202986
          283         284         285         286         287         288
    1  -0.0022074   0.0239312   0.0028450  -0.0195922   0.0341161  -0.0053171
    2   0.0025225   0.0162753  -0.0216963   0.0229203  -0.0363455  -0.0020212
    3  -0.0054453  -0.0025460  -0.0292563  -0.0122598   0.0207051  -0.0011642
          289         290         291         292
    1  -0.0259564  -0.0123112  -0.0161683  -0.0224952
    2   0.0231057  -0.0363544   0.0098084   0.0992281
    3  -0.0100572  -0.0023915   0.0221721   0.0546931
  --- DONE ESP SUMMARY ---
Archival summary:
1\1\node026\SP\ProcedureUnspecified\6-31+G*\272754h22\ymao90\FriDec319:26:362021FriDec319:26:362021\0\\#,ProcedureUnspecified,6-31+G*,\\0,1\S\O,1,1.49751\C,1,1.8061,2,101.251\H,3,1.09294,1,109.79,2,-38.0071,0\H,3,1.09328,1,116.642,2,74.9792,0\H,3,1.09361,1,117.644,2,-158.966,0\C,1,1.80729,2,104.229,3,-96.3709,0\H,7,1.09291,1,105.802,2,28.526,0\H,7,1.093,1,110.578,2,-86.0132,0\H,7,1.09311,1,103.911,2,147.453,0\H,10,2.13543,7,139.233,1,-160.128,0\C,11,1.09341,10,148.229,7,-175.461,0\H,12,1.09275,11,108.882,10,-127.945,0\H,12,1.09335,11,103.321,10,111.067,0\S,12,1.8067,11,111.474,10,-10.0509,0\O,15,1.49706,12,102.031,11,56.6923,0\C,15,1.80702,12,89.5041,11,168.642,0\H,17,1.09258,15,102.307,12,-148.469,0\H,17,1.09267,15,109.032,12,-30.2607,0\H,17,1.09363,15,110.809,12,94.241,0\H,19,2.29494,17,108.018,15,-126.463,0\C,21,1.09367,19,94.1001,17,122.851,0\H,22,1.09291,21,105.818,19,-51.3599,0\H,22,1.09331,21,109.594,19,64.017,0\S,22,1.80601,21,109.856,19,-170.288,0\O,25,1.49714,22,102.179,21,-172.035,0\C,25,1.80766,22,94.0511,21,-68.7308,0\H,27,1.09225,25,106.571,22,-172.981,0\H,27,1.09291,25,109.778,22,65.585,0\H,27,1.09308,25,111.578,22,-55.6997,0\H,2,2.35696,1,109.73,3,-19.0567,0\C,31,1.09219,2,164.628,1,-146.212,0\H,32,1.09347,31,111.232,2,-174.438,0\H,32,1.09364,31,105.251,2,-57.065,0\S,32,1.80748,31,114.005,2,55.9526,0\O,35,1.49679,32,99.781,31,-160.365,0\C,35,1.8062,32,100.706,31,-57.1957,0\H,37,1.0925,35,109.416,32,168.072,0\H,37,1.09296,35,99.2395,32,-70.1609,0\H,37,1.09321,35,110.882,32,47.6269,0\H,40,2.3344,37,105.913,35,-94.1494,0\C,41,1.09307,40,162.933,37,28.3559,0\H,42,1.09278,41,107.086,40,-158.836,0\H,42,1.09289,41,108.932,40,85.7516,0\S,42,1.80749,41,113.333,40,-41.5539,0\O,45,1.497,42,102.895,41,-59.6983,0\C,45,1.80748,42,100.379,41,-167.733,0\H,47,1.09266,45,117.741,42,-80.3519,0\H,47,1.09335,45,102.179,42,36.9336,0\H,47,1.09359,45,108.194,42,152.082,0\H,24,2.39848,22,134.749,21,-133.423,0\C,51,1.09212,24,113.367,22,-55.6617,0\H,52,1.09267,51,110.937,24,-5.39966,0\H,52,1.09315,51,116.378,24,-132.655,0\S,52,1.80678,51,108.218,24,117.797,0\O,55,1.49714,52,100.65,51,83.5073,0\C,55,1.80756,52,94.6834,51,-174.94,0\H,57,1.09229,55,112.374,52,66.5343,0\H,57,1.09266,55,106.816,52,-171.533,0\H,57,1.09372,55,108.178,52,-61.7362,0\Gh,58,1.93775,57,120.03,55,107.377,0\Gh,61,1.09703,58,159.301,57,-56.0439,0\Gh,62,1.09702,61,108.798,58,-88.4791,0\Gh,62,1.53683,61,110.072,58,29.6136,0\Gh,64,1.09678,62,109.657,61,-161.372,0\Gh,64,1.09726,62,108.076,61,-46.599,0\Gh,62,1.53806,61,108.449,58,162.101,0\Gh,67,1.09608,62,103.312,61,158.426,0\Gh,67,1.09652,62,107.877,61,38.9637,0\Gh,67,1.53728,62,110.646,61,-83.1291,0\Gh,70,1.09693,67,114.083,62,-158.974,0\Gh,70,1.09757,67,108.998,62,81.7521,0\Gh,70,1.53829,67,114.037,62,-39.1553,0\Gh,73,1.09619,70,109.636,67,167.161,0\Gh,73,1.09746,70,107.866,67,-73.4724,0\Gh,73,1.53729,70,116.86,67,48.3068,0\Gh,76,1.09624,73,107.171,70,63.0138,0\Gh,76,1.46166,73,109.348,70,175.265,0\Gh,78,1.01204,76,118.39,73,85.958,0\Gh,78,1.3793,76,120.704,73,-87.7908,0\Gh,80,1.10484,78,113.431,76,175.574,0\Gh,80,1.21859,78,125.408,76,-10.4999,0\H,81,2.186,80,113.977,78,112.461,0\C,83,1.09291,81,97.8577,80,101.885,0\H,84,1.09264,83,105.497,81,-65.4541,0\H,84,1.09321,83,115.572,81,61.1584,0\S,84,1.8077,83,111.927,81,-179.708,0\O,87,1.49713,84,100.991,83,151.079,0\C,87,1.80658,84,98.0025,83,45.2005,0\H,89,1.09286,87,108.48,84,-95.9823,0\H,89,1.09303,87,106.986,84,25.2593,0\H,89,1.09356,87,110.109,84,146.816,0\H,65,2.31611,64,105.19,62,97.6957,0\C,93,1.09221,65,116.642,64,-133.419,0\H,94,1.09306,93,109.727,65,160.359,0\H,94,1.0934,93,107.405,65,27.8414,0\S,94,1.80712,93,105.708,65,-78.3799,0\O,97,1.49702,94,101.198,93,-176.243,0\C,97,1.80657,94,92.0672,93,-68.9328,0\H,99,1.09279,97,108.02,94,-47.6942,0\H,99,1.0932,97,111.105,94,70.0955,0\H,99,1.09393,97,107.285,94,-162.107,0\H,69,2.3283,67,106.857,62,66.1451,0\C,103,1.09334,69,136.592,67,144.71,0\H,104,1.09273,103,112.598,69,-176.729,0\H,104,1.09345,103,113.487,69,-51.5642,0\S,104,1.8067,103,109.367,69,66.0627,0\O,107,1.49681,104,104.918,103,173.055,0\C,107,1.80713,104,96.2941,103,65.6246,0\H,109,1.09261,107,103.721,104,163.287,0\H,109,1.09263,107,105.159,104,48.9498,0\H,109,1.09278,107,112.827,104,-72.1095,0\H,105,2.14262,104,120.873,103,122.675,0\C,113,1.09205,105,102.618,104,-142.518,0\H,114,1.09269,113,109.2,105,-166.62,0\H,114,1.09321,113,113.91,105,-34.3779,0\S,114,1.80733,113,107.763,105,76.7586,0\O,117,1.49701,114,105.128,113,-79.2346,0\C,117,1.80746,114,103.365,113,175.549,0\H,119,1.09225,117,105.18,114,37.6511,0\H,119,1.09292,117,116.184,114,-74.6506,0\H,119,1.09324,117,108.169,114,158.439,0\H,120,2.10865,119,160.814,117,80.0853,0\C,123,1.09338,120,111.633,119,5.59093,0\H,124,1.09264,123,108.593,120,-3.90169,0\H,124,1.09297,123,102.217,120,108.722,0\S,124,1.8068,123,116.754,120,-129.813,0\O,127,1.49735,124,101.418,123,11.0585,0\C,127,1.80706,124,98.4607,123,115.723,0\H,129,1.09284,127,112.273,124,74.7149,0\H,129,1.09284,127,107.742,124,-169.02,0\H,129,1.0934,127,106.492,124,-40.7049,0\H,68,2.35557,67,157.394,62,90.8022,0\C,133,1.09259,68,133.508,67,176.643,0\H,134,1.09268,133,109.753,68,-25.0401,0\H,134,1.09331,133,108.121,68,102.812,0\S,134,1.80677,133,103.413,68,-136.047,0\O,137,1.4975,134,103.284,133,56.6467,0\C,137,1.80679,134,100.267,133,-51.788,0\H,139,1.09277,137,113.111,134,-65.8013,0\H,139,1.09296,137,110.834,134,52.8562,0\H,139,1.09331,137,104.95,134,174.385,0\H,92,2.38925,89,118.942,87,-86.8864,0\C,143,1.09302,92,143.556,89,57.1891,0\H,144,1.09291,143,113.032,92,70.9653,0\H,144,1.09298,143,113.965,92,-171.894,0\S,144,1.807,143,107.426,92,-49.2652,0\O,147,1.4972,144,99.7072,143,-159.745,0\C,147,1.80694,144,96.1039,143,-60.2912,0\H,149,1.09254,147,118.535,144,43.7291,0\H,149,1.09306,147,99.3528,144,167.683,0\H,149,1.09316,147,107.001,144,-89.1033,0\H,152,2.05049,149,138.309,147,-54.3122,0\C,153,1.09258,152,132.239,149,-141.195,0\H,154,1.09295,153,100.535,152,-51.6922,0\H,154,1.09315,153,106.359,152,-167.557,0\S,154,1.80665,153,106.337,152,67.1481,0\O,157,1.49712,154,106.865,153,159.209,0\C,157,1.80676,154,93.4906,153,56.1964,0\H,159,1.09272,157,106.03,154,172.964,0\H,159,1.09288,157,114.852,154,-66.0815,0\H,159,1.09324,157,108.804,154,57.2215,0\H,162,2.36179,159,121.51,157,122.835,0\C,163,1.09325,162,132.077,159,-87.6522,0\H,164,1.09262,163,111.097,162,-58.7992,0\H,164,1.09317,163,111.38,162,175.502,0\S,164,1.80713,163,108.551,162,57.4405,0\O,167,1.49627,164,97.925,163,95.3647,0\C,167,1.80748,164,95.1295,163,-162.057,0\H,169,1.09252,167,113.138,164,71.9589,0\H,169,1.0931,167,107.582,164,-170.453,0\H,169,1.09329,167,107.056,164,-47.4316,0\H,142,2.41561,139,106.806,137,-68.5113,0\C,173,1.09366,142,111.63,139,-148.773,0\H,174,1.09277,173,107.778,142,149.163,0\H,174,1.0933,173,108.201,142,34.7489,0\S,174,1.80644,173,113.5,142,-90.123,0\O,177,1.4974,174,109.786,173,57.3236,0\C,177,1.80711,174,96.946,173,167.567,0\H,179,1.0927,177,107.555,174,73.3456,0\H,179,1.09274,177,107.538,174,-166.698,0\H,179,1.09303,177,102.932,174,-47.0592,0\O,54,2.43422,52,128.406,51,135.147,0\S,183,1.49719,54,107.957,52,-32.0463,0\C,184,1.80654,183,98.9967,54,-171.359,0\H,185,1.09281,184,104.786,183,-84.5942,0\H,185,1.09293,184,109.149,183,39.0042,0\H,185,1.09385,184,107.009,183,161.747,0\C,184,1.80735,183,106.615,54,-72.7,0\H,189,1.09228,184,116.393,183,-75.6837,0\H,189,1.09291,184,105.349,183,41.5766,0\H,189,1.09322,184,111.599,183,165.755,0\H,145,2.46419,144,125.613,143,-93.2031,0\C,193,1.09337,145,132.3,144,-112.991,0\H,194,1.09289,193,109.61,145,-71.6314,0\H,194,1.09354,193,113.26,145,165.859,0\S,194,1.8065,193,113.427,145,53.6836,0\O,197,1.49694,194,103.74,193,-172.059,0\C,197,1.80625,194,98.2001,193,79.1682,0\H,199,1.09288,197,111.528,194,79.888,0\H,199,1.09289,197,111.259,194,-158.882,0\H,199,1.093,197,107.852,194,-37.0697,0\H,69,2.50018,67,141.591,62,-66.5164,0\C,203,1.09361,69,161.032,67,35.9123,0\H,204,1.09216,203,113.936,69,-32.9705,0\H,204,1.09264,203,113.092,69,86.4242,0\S,204,1.80713,203,110.975,69,-155.175,0\O,207,1.49637,204,103.892,203,-115.94,0\C,207,1.80719,204,99.4448,203,-3.55083,0\H,209,1.09277,207,111.285,204,-70.6117,0\H,209,1.09302,207,108.468,204,50.1864,0\H,209,1.09309,207,109.44,204,165.69,0\O,210,2.42097,209,109.396,207,126.601,0\S,213,1.49709,210,113.803,209,108.352,0\C,214,1.80669,213,102.857,210,-173.827,0\H,215,1.09264,214,107.98,213,-175.955,0\H,215,1.09272,214,106.818,213,70.3734,0\H,215,1.0936,214,110.063,213,-49.9864,0\C,214,1.80706,213,109.958,210,-75.9679,0\H,219,1.0929,214,110.824,213,-36.0109,0\H,219,1.09306,214,106.761,213,-166.446,0\H,219,1.0935,214,107.209,213,83.5749,0\H,40,2.50368,37,152.581,35,157.278,0\C,223,1.09276,40,104.441,37,22.2311,0\H,224,1.09289,223,116.438,40,159.708,0\H,224,1.09316,223,109.401,40,-69.3423,0\S,224,1.8076,223,116.205,40,45.8666,0\O,227,1.4972,224,102.793,223,102.647,0\C,227,1.80736,224,94.1869,223,-148.422,0\H,229,1.09286,227,108.171,224,-53.8987,0\H,229,1.09287,227,115.462,224,-170.586,0\H,229,1.09316,227,119.111,224,55.1917,0\H,226,2.18031,224,111.971,223,-47.9843,0\C,233,1.09277,226,102.342,224,138.098,0\H,234,1.09253,233,121.316,226,158.084,0\H,234,1.09306,233,113.769,226,32.2938,0\S,234,1.80728,233,104.73,226,-80.4709,0\O,237,1.49778,234,96.6706,233,-51.8394,0\C,237,1.8064,234,103.133,233,-155.881,0\H,239,1.09277,237,104.979,234,-71.9693,0\H,239,1.09292,237,105.688,234,48.1031,0\H,239,1.09366,237,107.948,234,169.686,0\H,233,2.30046,226,84.8545,224,-77.4761,0\C,243,1.09388,233,121.547,226,148.488,0\H,244,1.09237,243,108.192,233,-94.7462,0\H,244,1.09311,243,116.583,233,33.3865,0\S,244,1.80618,243,106.464,233,154.839,0\O,247,1.49652,244,102.062,243,-86.6221,0\C,247,1.80723,244,91.0676,243,165.726,0\H,249,1.09292,247,111.155,244,71.2591,0\H,249,1.09312,247,107.783,244,-167.521,0\H,249,1.09332,247,107.965,244,-56.6184,0\H,251,2.47111,249,150.813,247,28.7139,0\C,253,1.0932,251,115.518,249,124.622,0\H,254,1.09297,253,99.8006,251,55.2674,0\H,254,1.09355,253,113.007,251,165.774,0\S,254,1.80664,253,113.432,251,-61.6395,0\O,257,1.49697,254,96.9085,253,27.2825,0\C,257,1.80758,254,96.8429,253,-77.0436,0\H,259,1.09265,257,103.718,254,159.492,0\H,259,1.09331,257,112.697,254,-84.2872,0\H,259,1.09335,257,110.548,254,40.8207,0\H,262,2.31437,259,135.376,257,125.796,0\C,263,1.09232,262,107.632,259,-114.237,0\H,264,1.09272,263,112.393,262,-8.41504,0\H,264,1.09351,263,108.639,262,-131.466,0\S,264,1.8067,263,111.807,262,115.923,0\O,267,1.49718,264,103.381,263,167.133,0\C,267,1.80783,264,96.5957,263,-84.057,0\H,269,1.09263,267,101.815,264,-177.932,0\H,269,1.09297,267,111.478,264,-56.0712,0\H,269,1.09299,267,102.593,264,66.6304,0\H,255,2.46876,254,126.049,253,39.0005,0\C,273,1.09336,255,111.406,254,-81.0563,0\H,274,1.09234,273,103.723,255,49.1125,0\H,274,1.0931,273,106.776,255,-64.8807,0\S,274,1.80694,273,108.175,255,168.591,0\O,277,1.49674,274,110.959,273,-2.22444,0\C,277,1.80747,274,92.9507,273,101.656,0\H,279,1.09248,277,113.914,274,-56.9104,0\H,279,1.09312,277,107.075,274,60.7509,0\H,279,1.09314,277,110.816,274,175.247,0\H,113,2.64719,105,136.977,104,1.19101,0\C,283,1.09305,113,127.96,105,11.7747,0\H,284,1.09252,283,111.977,113,25.6204,0\H,284,1.0927,283,107.82,113,143.54,0\S,284,1.80721,283,111.516,113,-99.7146,0\O,287,1.49762,284,100.647,283,-168.534,0\C,287,1.80702,284,94.3042,283,-68.8076,0\H,289,1.09253,287,110.641,284,-70.5632,0\H,289,1.09281,287,109.312,284,43.9274,0\H,289,1.09339,287,109.299,284,167.579,0\\\@

 Total job time:  58.10s(wall), 178.68s(cpu) 
 Fri Dec  3 19:26:36 2021

        *************************************************************
        *                                                           *
        *  Thank you very much for using Q-Chem.  Have a nice day.  *
        *                                                           *
        *************************************************************


