                  Welcome to Q-Chem
     A Quantum Leap Into The Future Of Chemistry


 Q-Chem 6.0 (devel), Q-Chem, Inc., Pleasanton, CA (2022)

 E. Epifanovsky,  A. T. B. Gilbert,  Xintian Feng,  Joonho Lee,  Yuezhi Mao,  
 N. Mardirossian,  P. Pokhilko,  A. White,  M. Wormit,  M. P. Coons,  
 A. L. Dempwolff,  Zhengting Gan,  D. Hait,  P. R. Horn,  L. D. Jacobson,  
 I. Kaliman,  J. Kussmann,  A. W. Lange,  Ka Un Lao,  D. S. Levine,  Jie Liu,  
 S. C. McKenzie,  A. F. Morrison,  K. Nanda,  F. Plasser,  D. R. Rehn,  
 M. L. Vidal,  Zhi-Qiang You,  Ying Zhu,  B. Alam,  B. Albrecht,  
 A. Aldossary,  E. Alguire,  J. H. Andersen,  V. Athavale,  D. Barton,  
 K. Begam,  A. Behn,  N. Bellonzi,  Y. A. Bernard,  E. J. Berquist,  
 H. Burton,  A. Carreras,  K. Carter-Fenk,  Romit Chakraborty,  
 Chandrima Chakravarty,  Junhan Chen,  A. D. Chien,  K. D. Closser,  
 V. Cofer-Shabica,  L. Cunha,  S. Dasgupta,  Jia Deng,  M. de Wergifosse,  
 M. Diedenhofen,  Hainam Do,  S. Ehlert,  Po-Tung Fang,  S. Fatehi,  
 Qingguo Feng,  T. Friedhoff,  B. Ganoe,  J. Gayvert,  Qinghui Ge,  
 G. Gidofalvi,  M. Goldey,  J. Gomes,  C. Gonzalez-Espinoza,  S. Gulania,  
 A. Gunina,  J. A. Gyamfi,  M. W. D. Hanson-Heine,  P. H. P. Harbach,  
 A. W. Hauser,  M. F. Herbst,  M. Hernandez Vera,  M. Hodecker,  
 Z. C. Holden,  S. Houck,  Xunkun Huang,  Kerwin Hui,  B. C. Huynh,  
 K. Ikeda,  M. Ivanov,  Hyunjun Ji,  Zuxin Jin,  Hanjie Jiang,  B. Kaduk,  
 S. Kaehler,  R. Kang,  K. Khistyaev,  Jaehoon Kim,  Yongbin Kim,  
 P. Klunzinger,  Z. Koczor-Benda,  Joong Hoon Koh,  D. Kosenkov,  
 Saikiran Kotaru,  L. Koulias,  T. Kowalczyk,  C. M. Krauter,  K. Kue,  
 A. Kunitsa,  T. Kus,  A. Landau,  K. V. Lawler,  D. Lefrancois,  S. Lehtola,  
 Rain Li,  Shaozhi Li,  Yi-Pei Li,  Jiashu Liang,  M. Liebenthal,  
 Hung-Hsuan Lin,  You-Sheng Lin,  Fenglai Liu,  Kuan-Yu Liu,  
 M. Loipersberger,  A. Luenser,  C. Malbon,  A. Manjanath,  P. Manohar,  
 E. Mansoor,  S. F. Manzer,  Shan-Ping Mao,  A. V. Marenich,  T. Markovich,  
 S. Mason,  F. Matz,  S. A. Maurer,  P. F. McLaughlin,  M. F. S. J. Menger,  
 J.-M. Mewes,  S. A. Mewes,  P. Morgante,  Mohammad Mostafanejad,  
 J. W. Mullinax,  K. J. Oosterbaan,  G. Paran,  V. Parravicini,  
 Alexander C. Paul,  Suranjan K. Paul,  F. Pavosevic,  Zheng Pei,  S. Prager,  
 E. I. Proynov,  E. Ramos,  B. Rana,  A. E. Rask,  A. Rettig,  R. M. Richard,  
 F. Rob,  E. Rossomme,  T. Scheele,  M. Scheurer,  M. Schneider,  
 P. E. Schneider,  N. Sergueev,  S. M. Sharada,  Hengyuan Shen,  
 W. Skomorowski,  D. W. Small,  C. J. Stein,  Yingli Su,  Yu-Chuan Su,  
 E. J. Sundstrom,  Zhen Tao,  J. Thirman,  Hung-Yi Tsai,  T. Tsuchimochi,  
 N. M. Tubman,  C. Utku,  S. P. Veccham,  O. Vydrov,  J. Wenzel,  
 Jonathan Wong,  J. Witte,  A. Yamada,  Chou-Hsun Yang,  Kun Yao,  
 S. Yeganeh,  S. R. Yost,  A. Zech,  F. Zeller,  Igor Ying Zhang,  
 Xing Zhang,  Yu Zhang,  D. Zuev,  A. Aspuru-Guzik,  A. T. Bell,  
 N. A. Besley,  K. B. Bravaya,  B. R. Brooks,  D. Casanova,  Jeng-Da Chai,  
 Hsing-Ta Chen,  S. Coriani,  C. J. Cramer,  A. E. DePrince, III,  
 R. A. DiStasio Jr.,  A. Dreuw,  B. D. Dunietz,  T. R. Furlani,  
 W. A. Goddard III,  S. Grimme,  S. Hammes-Schiffer,  T. Head-Gordon,  
 W. J. Hehre,  Chao-Ping Hsu,  T.-C. Jagau,  Yousung Jung,  A. Klamt,  
 Jing Kong,  D. S. Lambrecht,  Xiangyuan Li,  WanZhen Liang,  N. J. Mayhall,  
 C. W. McCurdy,  J. B. Neaton,  T. Neudecker,  C. Ochsenfeld,  
 J. A. Parkhill,  R. Peverati,  V. A. Rassolov,  Haisheng Ren,  Yihan Shao,  
 L. V. Slipchenko,  R. P. Steele,  J. E. Subotnik,  A. J. W. Thom,  
 A. Tkatchenko,  D. G. Truhlar,  T. Van Voorhis,  Fan Wang,  
 T. A. Wesolowski,  K. B. Whaley,  H. L. Woodcock III,  P. M. Zimmerman,  
 S. Faraji,  P. M. W. Gill,  M. Head-Gordon,  J. M. Herbert,  A. I. Krylov

 Contributors to earlier versions of Q-Chem not listed above: 
 R. D. Adamson,  B. Austin,  R. Baer,  J. Baker,  G. J. O. Beran,  
 K. Brandhorst,  S. T. Brown,  E. F. C. Byrd,  Arup K. Chakraborty,  
 G. K. L. Chan,  Chun-Min Chang,  Yunqing Chen,  C.-L. Cheng,  
 Siu Hung Chien,  D. M. Chipman,  D. L. Crittenden,  H. Dachsel,  
 R. J. Doerksen,  A. D. Dutoi,  R. G. Edgar,  J. Fosso-Tande,  
 L. Fusti-Molnar,  D. Ghosh,  A. Ghysels,  A. Golubeva-Zadorozhnaya,  
 J. Gonthier,  M. S. Gordon,  S. R. Gwaltney,  G. Hawkins,  J. E. Herr,  
 A. Heyden,  S. Hirata,  E. G. Hohenstein,  G. Kedziora,  F. J. Keil,  
 C. Kelley,  Jihan Kim,  R. A. King,  R. Z. Khaliullin,  P. P. Korambath,  
 W. Kurlancheek,  A. Laurent,  A. M. Lee,  M. S. Lee,  S. V. Levchenko,  
 Ching Yeh Lin,  D. Liotard,  E. Livshits,  R. C. Lochan,  I. Lotan,  
 L. A. Martinez-Martinez,  P. E. Maslen,  N. Nair,  D. P. O'Neill,  
 D. Neuhauser,  E. Neuscamman,  C. M. Oana,  R. Olivares-Amaya,  R. Olson,  
 T. M. Perrine,  B. Peters,  P. A. Pieniazek,  A. Prociuk,  Y. M. Rhee,  
 J. Ritchie,  M. A. Rohrdanz,  E. Rosta,  N. J. Russ,  H. F. Schaefer III,  
 M. W. Schmidt,  N. E. Schultz,  S. Sharma,  N. Shenvi,  C. D. Sherrill,  
 A. C. Simmonett,  A. Sodt,  T. Stein,  D. Stuck,  K. S. Thanthiriwatte,  
 V. Vanovschi,  L. Vogt,  Tao Wang,  A. Warshel,  M. A. Watson,  
 C. F. Williams,  Q. Wu,  X. Xu,  Jun Yang,  W. Zhang,  Yan Zhao

   Please cite Q-Chem as follows:
  "Software for the frontiers of quantum chemistry:
   An overview of developments in the Q-Chem 5 package"
   J. Chem. Phys. 155, 084801 (2021)
   https://doi.org/10.1063/5.0055522 (open access)

 Q-Chem 6.0.0 for Intel X86 EM64T Linux

 Parts of Q-Chem use Armadillo 9.900.5 (Nocturnal Misbehaviour).
 http://arma.sourceforge.net/

 Q-Chem begins on Thu Jul 21 03:14:54 2022  

 Host: nid00538
0

     Scratch files written to /global/cscratch1/sd/ymao90/r7.00_frame_0022_spade_B3LYP_dp20220721031331//
 Processing $rem in /global/homes/y/ymao90/my_qchem/qchem_embedding_5p4/config/preferences:
 Processing $rem in /global/homes/y/ymao90/.qchemrc:
 No nuclear gradient supported for projection-based embedding or EMFT. Set max ideriv = 0.

 Checking the input file for inconsistencies... 	...done.

--------------------------------------------------------------
User input:
--------------------------------------------------------------
$molecule
0 1
--
0 1
C    23.65500   14.31000   26.44500  
C    23.93700   15.16000   25.19500  
C    23.40700   16.59600   25.33200  
C    23.56100   17.25600   26.71200  
C    23.24800   16.30200   27.87600  
C    24.05200   14.99600   27.76200  
H    23.86100   17.28900   24.61200  
H    25.03300   15.19100   25.20500  
H    22.57300   14.14100   26.38000  
H    24.17300   13.34700   26.35400  
H    24.60100   17.59600   26.79300  
H    22.80100   18.04700   26.71300  
H    23.50800   16.84700   28.79100  
H    22.22100   15.93800   28.00600  
H    25.12200   15.22100   27.67000  
H    23.84700   14.41200   28.66700  
H    22.34200   16.59300   25.06900  
N    23.53100   14.62700   23.89600  
H    22.55300   14.53500   23.64500  
C    24.40300   14.06200   22.98900  
H    23.91100   13.72900   22.05800  
O    25.61800   13.99300   23.05800  
--
0 1
C    20.57400   22.26600   27.98100  
H    20.53200   21.17400   27.96000  
H    20.11000   22.66000   28.88900  
H    20.15700   22.68800   27.06300  
S    22.28700   22.83600   28.05600  
C    22.98000   21.64700   26.88600  
H    22.72500   20.64800   27.24800  
H    22.60300   21.86900   25.88400  
H    24.06600   21.74900   26.95500  
O    22.81500   22.29900   29.35000  
C    21.99300   20.31600   23.44700  
H    22.07100   21.03000   22.62300  
H    22.95000   20.38300   23.97000  
H    21.84100   19.24900   23.26700  
S    20.64200   20.97000   24.45400  
C    19.35300   20.42000   23.31300  
H    18.44600   21.02100   23.42100  
H    19.66400   20.40500   22.26500  
H    19.09700   19.36800   23.46600  
O    20.63000   22.43900   24.16700  
C    26.96000   15.23500   30.29900  
H    27.20600   15.40300   31.35100  
H    25.95700   14.82800   30.14700  
H    27.68000   14.55800   29.83100  
S    27.08000   16.80000   29.40300  
C    28.82400   17.10800   29.76200  
H    29.07100   18.00200   29.18200  
H    28.99700   17.42600   30.79300  
H    29.33900   16.19300   29.45800  
O    26.22400   17.78600   30.13400  
C    26.63100   7.05900    25.72300  
H    25.78100   7.69900    25.97200  
H    26.66600   6.84000    24.65200  
H    26.69500   6.14200    26.31500  
S    28.15100   7.99800    25.99300  
C    27.91300   8.20400    27.77200  
H    27.03700   8.83200    27.95400  
H    27.85800   7.21900    28.24400  
H    28.68800   8.87100    28.15700  
O    27.71800   9.31600    25.43100  
C    27.57500   20.71600   28.19700  
H    28.35600   20.63700   27.43600  
H    27.92300   20.36500   29.17200  
H    26.69500   20.11900   27.94400  
S    26.91600   22.37400   28.48100  
C    26.71000   22.86200   26.75300  
H    26.91900   23.93400   26.73000  
H    27.43800   22.27200   26.19000  
H    25.70500   22.68900   26.36200  
O    28.12100   23.08300   29.01500  
C    21.50600   10.09700   33.64000  
H    22.03200   9.40900    32.97300  
H    21.18300   9.60500    34.56100  
H    20.81400   10.81900   33.19900  
S    22.86300   11.17500   34.15000  
C    21.78000   12.38500   34.94100  
H    21.47600   12.00700   35.92000  
H    22.35400   13.30400   35.08700  
H    20.96000   12.58200   34.24400  
O    23.09100   11.99900   32.92100  
C    22.52300   18.97400   31.39900  
H    22.97600   19.72100   30.74200  
H    23.29100   18.43400   31.95900  
H    21.99900   18.22200   30.80400  
S    21.31500   19.76100   32.48700  
C    20.63600   18.17500   33.02700  
H    19.70000   18.25400   33.58700  
H    20.48300   17.59000   32.11600  
H    21.38700   17.57200   33.54200  
O    20.29700   20.26700   31.51300  
C    17.14100   19.45600   26.06400  
H    16.24600   19.41700   25.43800  
H    17.26600   20.39400   26.61100  
H    18.05200   19.41900   25.46000  
S    17.08600   18.00800   27.14300  
C    18.75500   18.13600   27.82500  
H    19.04800   17.12400   28.11600  
H    19.44300   18.48000   27.04900  
H    18.78200   18.93500   28.57100  
O    17.18000   16.91100   26.13000  
C    28.44000   12.17500   23.28400  
H    29.22900   11.64600   23.82500  
H    27.71000   12.57800   23.99100  
H    27.87300   11.50900   22.62800  
S    29.03900   13.63300   22.40100  
C    29.59700   12.72100   20.94400  
H    29.53400   13.37900   20.07300  
H    30.65800   12.48800   21.05600  
H    29.04100   11.78100   20.96900  
O    30.17300   14.17200   23.21500  
C    24.64000   22.84300   32.94900  
H    23.79400   22.15200   32.94400  
H    24.62500   23.49800   33.82400  
H    24.63200   23.46500   32.05100  
S    26.14200   21.85400   32.77200  
C    25.59000   20.63700   31.55600  
H    26.33900   19.84100   31.58100  
H    24.62100   20.30900   31.93900  
H    25.52600   21.04300   30.54300  
O    26.13100   21.05100   34.03400  
C    29.78700   12.37100   27.38100  
H    29.87200   12.22300   26.30200  
H    29.78600   13.43700   27.62400  
H    30.69200   11.90700   27.78100  
S    28.32100   11.58700   28.08900  
C    27.08800   12.44200   27.08200  
H    27.31800   11.99300   26.11200  
H    26.08900   12.10200   27.37000  
H    27.22400   13.52100   27.18800  
O    28.15500   12.23800   29.42600  
C    26.11400   16.92800   17.77900  
H    26.23500   17.34700   16.77700  
H    25.03900   16.86100   17.96700  
H    26.62200   17.53700   18.53100  
S    26.77200   15.24500   17.81500  
C    26.31900   15.02400   19.55000  
H    26.77600   14.04300   19.70400  
H    26.72300   15.81900   20.18300  
H    25.22800   15.08000   19.58800  
O    28.24200   15.52400   17.83400  
C    22.29200   15.24500   31.26900  
H    23.15200   14.58200   31.39300  
H    22.12900   15.57700   30.24100  
H    22.40600   16.07400   31.97200  
S    20.84200   14.34600   31.86500  
C    20.81200   12.92200   30.75400  
H    19.87600   12.35600   30.77000  
H    21.06200   13.30700   29.76300  
H    21.64400   12.30900   31.11000  
O    19.70900   15.23500   31.45600  
C    21.06900   18.30700   19.79700  
H    21.15400   19.34300   20.13500  
H    20.67500   18.34400   18.77800  
H    20.42800   17.81800   20.53500  
S    22.69700   17.54800   19.99000  
C    22.34500   15.93700   19.25100  
H    21.31900   15.61700   19.45500  
H    22.55700   15.94300   18.17900  
H    23.01900   15.20000   19.69600  
O    22.85100   17.34000   21.46400  
C    19.23000   9.63900    20.18000  
H    20.16100   9.70600    19.61100  
H    18.81700   8.62700    20.17900  
H    18.48900   10.34000   19.78900  
S    19.37600   10.17800   21.89800  
C    19.94200   8.63700    22.65200  
H    19.92400   8.66600    23.74500  
H    19.18700   7.94400    22.27000  
H    20.92400   8.42900    22.22000  
O    17.89900   10.23100   22.13600  
C    18.61600   13.92100   28.37200  
H    17.75100   14.44900   27.96300  
H    18.31200   12.93900   28.74400  
H    19.08500   14.43000   29.21700  
S    19.70500   13.74600   26.94000  
C    18.39000   13.46700   25.73300  
H    18.79900   13.12200   24.78000  
H    17.85900   12.63200   26.19600  
H    17.75300   14.35400   25.77800  
O    20.18900   12.35100   27.19100  
C    23.91300   11.37300   19.39900  
H    23.27100   10.58600   19.80200  
H    24.76700   11.02000   18.81500  
H    24.21800   11.95500   20.27200  
S    23.17600   12.40200   18.10900  
C    23.26300   11.37500   16.62400  
H    22.95200   10.36400   16.90200  
H    22.61300   11.71400   15.81300  
H    24.27800   11.41100   16.22200  
O    24.30500   13.37100   17.93900  
C    25.35100   14.77000   33.60400  
H    25.70400   14.66300   34.63300  
H    24.41800   14.21700   33.46700  
H    26.18500   14.30700   33.06900  
S    25.05600   16.49200   33.14500  
C    26.56400   17.15000   33.89400  
H    27.39200   16.56300   33.48800  
H    26.70300   18.21700   33.70400  
H    26.52800   16.96800   34.97100  
O    23.85700   17.01500   33.87300  
C    26.90400   21.92100   22.83100  
H    26.15300   22.70200   22.97300  
H    27.87400   22.18400   23.26100  
H    27.15900   21.85100   21.77000  
S    26.25100   20.37600   23.50300  
C    25.31000   19.87800   22.04300  
H    25.64700   20.38100   21.13300  
H    25.29700   18.80300   21.84700  
H    24.28300   20.18600   22.25600  
O    25.21100   20.83400   24.47700  
C    27.83900   16.36200   25.40500  
H    27.44500   16.02300   24.44400  
H    28.61300   15.73600   25.85800  
H    27.02400   16.47500   26.12400  
S    28.53400   18.00900   25.14100  
C    30.00400   17.50600   24.21900  
H    30.74200   18.31200   24.25200  
H    30.33900   16.57900   24.69100  
H    29.60900   17.35200   23.21200  
O    29.04400   18.31400   26.51500  
C    24.26400   10.56800   29.90100  
H    23.70400   11.28000   30.51300  
H    24.42100   9.70200    30.54900  
H    25.27800   10.84700   29.60300  
S    23.23900   10.04300   28.50800  
C    21.86600   9.40500    29.49400  
H    21.22600   8.82300    28.82600  
H    22.33100   8.68800    30.17500  
H    21.36900   10.11900   30.15600  
O    23.90600   8.84500    27.90900  
C    24.32000   10.36300   24.93900  
H    23.77700   9.45000    25.19900  
H    25.29700   10.18900   24.48200  
H    24.40800   10.99200   25.82800  
S    23.34200   11.15000   23.63900  
C    21.84500   11.31200   24.63800  
H    21.33300   10.34800   24.67900  
H    22.10500   11.53700   25.67600  
H    21.13500   12.03000   24.22000  
O    23.04000   10.04400   22.67600  
C    25.94800   8.78200    21.87400  
H    25.97000   8.05300    22.68700  
H    26.07600   9.78600    22.28600  
H    24.99700   8.84200    21.33800  
S    27.26300   8.49900    20.66700  
C    28.53000   8.33100    21.94500  
H    29.52100   8.53400    21.53000  
H    28.25700   9.10500    22.66700  
H    28.42900   7.28500    22.24400  
O    27.48500   9.89700    20.18000  
C    19.69300   16.37700   23.50400  
H    18.72400   16.81600   23.25200  
H    19.60300   15.69900   24.35600  
H    20.42500   17.16100   23.71100  
S    20.19000   15.32800   22.11900  
C    18.55000   14.65800   21.76200  
H    17.84300   15.48300   21.64000  
H    18.57700   13.93800   20.94000  
H    18.24400   14.13600   22.67200  
O    20.71800   14.15200   22.87900  
$end

$rem
JOBTYPE  SP
METHOD  B3LYP
BASIS  6-31+G(D)
SYMMETRY  FALSE
SYM_IGNORE  TRUE
MEM_TOTAL  12000
MEM_STATIC  4000
BASIS_LIN_DEP_THRESH  6
THRESH  14
SCF_CONVERGENCE  8
FD_MAT_VEC_PROD  FALSE
XC_GRID  000075000302
NL_GRID  1
MAX_SCF_CYCLES  200
ENV_METHOD  B3LYP
GEN_SCFMAN_EMBED  TRUE
SPADE_PARTITION  TRUE
EMBEDDING_EARLY_STOP  TRUE
$end

--------------------------------------------------------------
 ----------------------------------------------------------------
             Standard Nuclear Orientation (Angstroms)
    I     Atom           X                Y                Z
 ----------------------------------------------------------------
    1      C      23.6550000000    14.3100000000    26.4450000000
    2      C      23.9370000000    15.1600000000    25.1950000000
    3      C      23.4070000000    16.5960000000    25.3320000000
    4      C      23.5610000000    17.2560000000    26.7120000000
    5      C      23.2480000000    16.3020000000    27.8760000000
    6      C      24.0520000000    14.9960000000    27.7620000000
    7      H      23.8610000000    17.2890000000    24.6120000000
    8      H      25.0330000000    15.1910000000    25.2050000000
    9      H      22.5730000000    14.1410000000    26.3800000000
   10      H      24.1730000000    13.3470000000    26.3540000000
   11      H      24.6010000000    17.5960000000    26.7930000000
   12      H      22.8010000000    18.0470000000    26.7130000000
   13      H      23.5080000000    16.8470000000    28.7910000000
   14      H      22.2210000000    15.9380000000    28.0060000000
   15      H      25.1220000000    15.2210000000    27.6700000000
   16      H      23.8470000000    14.4120000000    28.6670000000
   17      H      22.3420000000    16.5930000000    25.0690000000
   18      N      23.5310000000    14.6270000000    23.8960000000
   19      H      22.5530000000    14.5350000000    23.6450000000
   20      C      24.4030000000    14.0620000000    22.9890000000
   21      H      23.9110000000    13.7290000000    22.0580000000
   22      O      25.6180000000    13.9930000000    23.0580000000
   23      C      20.5740000000    22.2660000000    27.9810000000
   24      H      20.5320000000    21.1740000000    27.9600000000
   25      H      20.1100000000    22.6600000000    28.8890000000
   26      H      20.1570000000    22.6880000000    27.0630000000
   27      S      22.2870000000    22.8360000000    28.0560000000
   28      C      22.9800000000    21.6470000000    26.8860000000
   29      H      22.7250000000    20.6480000000    27.2480000000
   30      H      22.6030000000    21.8690000000    25.8840000000
   31      H      24.0660000000    21.7490000000    26.9550000000
   32      O      22.8150000000    22.2990000000    29.3500000000
   33      C      21.9930000000    20.3160000000    23.4470000000
   34      H      22.0710000000    21.0300000000    22.6230000000
   35      H      22.9500000000    20.3830000000    23.9700000000
   36      H      21.8410000000    19.2490000000    23.2670000000
   37      S      20.6420000000    20.9700000000    24.4540000000
   38      C      19.3530000000    20.4200000000    23.3130000000
   39      H      18.4460000000    21.0210000000    23.4210000000
   40      H      19.6640000000    20.4050000000    22.2650000000
   41      H      19.0970000000    19.3680000000    23.4660000000
   42      O      20.6300000000    22.4390000000    24.1670000000
   43      C      26.9600000000    15.2350000000    30.2990000000
   44      H      27.2060000000    15.4030000000    31.3510000000
   45      H      25.9570000000    14.8280000000    30.1470000000
   46      H      27.6800000000    14.5580000000    29.8310000000
   47      S      27.0800000000    16.8000000000    29.4030000000
   48      C      28.8240000000    17.1080000000    29.7620000000
   49      H      29.0710000000    18.0020000000    29.1820000000
   50      H      28.9970000000    17.4260000000    30.7930000000
   51      H      29.3390000000    16.1930000000    29.4580000000
   52      O      26.2240000000    17.7860000000    30.1340000000
   53      C      26.6310000000     7.0590000000    25.7230000000
   54      H      25.7810000000     7.6990000000    25.9720000000
   55      H      26.6660000000     6.8400000000    24.6520000000
   56      H      26.6950000000     6.1420000000    26.3150000000
   57      S      28.1510000000     7.9980000000    25.9930000000
   58      C      27.9130000000     8.2040000000    27.7720000000
   59      H      27.0370000000     8.8320000000    27.9540000000
   60      H      27.8580000000     7.2190000000    28.2440000000
   61      H      28.6880000000     8.8710000000    28.1570000000
   62      O      27.7180000000     9.3160000000    25.4310000000
   63      C      27.5750000000    20.7160000000    28.1970000000
   64      H      28.3560000000    20.6370000000    27.4360000000
   65      H      27.9230000000    20.3650000000    29.1720000000
   66      H      26.6950000000    20.1190000000    27.9440000000
   67      S      26.9160000000    22.3740000000    28.4810000000
   68      C      26.7100000000    22.8620000000    26.7530000000
   69      H      26.9190000000    23.9340000000    26.7300000000
   70      H      27.4380000000    22.2720000000    26.1900000000
   71      H      25.7050000000    22.6890000000    26.3620000000
   72      O      28.1210000000    23.0830000000    29.0150000000
   73      C      21.5060000000    10.0970000000    33.6400000000
   74      H      22.0320000000     9.4090000000    32.9730000000
   75      H      21.1830000000     9.6050000000    34.5610000000
   76      H      20.8140000000    10.8190000000    33.1990000000
   77      S      22.8630000000    11.1750000000    34.1500000000
   78      C      21.7800000000    12.3850000000    34.9410000000
   79      H      21.4760000000    12.0070000000    35.9200000000
   80      H      22.3540000000    13.3040000000    35.0870000000
   81      H      20.9600000000    12.5820000000    34.2440000000
   82      O      23.0910000000    11.9990000000    32.9210000000
   83      C      22.5230000000    18.9740000000    31.3990000000
   84      H      22.9760000000    19.7210000000    30.7420000000
   85      H      23.2910000000    18.4340000000    31.9590000000
   86      H      21.9990000000    18.2220000000    30.8040000000
   87      S      21.3150000000    19.7610000000    32.4870000000
   88      C      20.6360000000    18.1750000000    33.0270000000
   89      H      19.7000000000    18.2540000000    33.5870000000
   90      H      20.4830000000    17.5900000000    32.1160000000
   91      H      21.3870000000    17.5720000000    33.5420000000
   92      O      20.2970000000    20.2670000000    31.5130000000
   93      C      17.1410000000    19.4560000000    26.0640000000
   94      H      16.2460000000    19.4170000000    25.4380000000
   95      H      17.2660000000    20.3940000000    26.6110000000
   96      H      18.0520000000    19.4190000000    25.4600000000
   97      S      17.0860000000    18.0080000000    27.1430000000
   98      C      18.7550000000    18.1360000000    27.8250000000
   99      H      19.0480000000    17.1240000000    28.1160000000
  100      H      19.4430000000    18.4800000000    27.0490000000
  101      H      18.7820000000    18.9350000000    28.5710000000
  102      O      17.1800000000    16.9110000000    26.1300000000
  103      C      28.4400000000    12.1750000000    23.2840000000
  104      H      29.2290000000    11.6460000000    23.8250000000
  105      H      27.7100000000    12.5780000000    23.9910000000
  106      H      27.8730000000    11.5090000000    22.6280000000
  107      S      29.0390000000    13.6330000000    22.4010000000
  108      C      29.5970000000    12.7210000000    20.9440000000
  109      H      29.5340000000    13.3790000000    20.0730000000
  110      H      30.6580000000    12.4880000000    21.0560000000
  111      H      29.0410000000    11.7810000000    20.9690000000
  112      O      30.1730000000    14.1720000000    23.2150000000
  113      C      24.6400000000    22.8430000000    32.9490000000
  114      H      23.7940000000    22.1520000000    32.9440000000
  115      H      24.6250000000    23.4980000000    33.8240000000
  116      H      24.6320000000    23.4650000000    32.0510000000
  117      S      26.1420000000    21.8540000000    32.7720000000
  118      C      25.5900000000    20.6370000000    31.5560000000
  119      H      26.3390000000    19.8410000000    31.5810000000
  120      H      24.6210000000    20.3090000000    31.9390000000
  121      H      25.5260000000    21.0430000000    30.5430000000
  122      O      26.1310000000    21.0510000000    34.0340000000
  123      C      29.7870000000    12.3710000000    27.3810000000
  124      H      29.8720000000    12.2230000000    26.3020000000
  125      H      29.7860000000    13.4370000000    27.6240000000
  126      H      30.6920000000    11.9070000000    27.7810000000
  127      S      28.3210000000    11.5870000000    28.0890000000
  128      C      27.0880000000    12.4420000000    27.0820000000
  129      H      27.3180000000    11.9930000000    26.1120000000
  130      H      26.0890000000    12.1020000000    27.3700000000
  131      H      27.2240000000    13.5210000000    27.1880000000
  132      O      28.1550000000    12.2380000000    29.4260000000
  133      C      26.1140000000    16.9280000000    17.7790000000
  134      H      26.2350000000    17.3470000000    16.7770000000
  135      H      25.0390000000    16.8610000000    17.9670000000
  136      H      26.6220000000    17.5370000000    18.5310000000
  137      S      26.7720000000    15.2450000000    17.8150000000
  138      C      26.3190000000    15.0240000000    19.5500000000
  139      H      26.7760000000    14.0430000000    19.7040000000
  140      H      26.7230000000    15.8190000000    20.1830000000
  141      H      25.2280000000    15.0800000000    19.5880000000
  142      O      28.2420000000    15.5240000000    17.8340000000
  143      C      22.2920000000    15.2450000000    31.2690000000
  144      H      23.1520000000    14.5820000000    31.3930000000
  145      H      22.1290000000    15.5770000000    30.2410000000
  146      H      22.4060000000    16.0740000000    31.9720000000
  147      S      20.8420000000    14.3460000000    31.8650000000
  148      C      20.8120000000    12.9220000000    30.7540000000
  149      H      19.8760000000    12.3560000000    30.7700000000
  150      H      21.0620000000    13.3070000000    29.7630000000
  151      H      21.6440000000    12.3090000000    31.1100000000
  152      O      19.7090000000    15.2350000000    31.4560000000
  153      C      21.0690000000    18.3070000000    19.7970000000
  154      H      21.1540000000    19.3430000000    20.1350000000
  155      H      20.6750000000    18.3440000000    18.7780000000
  156      H      20.4280000000    17.8180000000    20.5350000000
  157      S      22.6970000000    17.5480000000    19.9900000000
  158      C      22.3450000000    15.9370000000    19.2510000000
  159      H      21.3190000000    15.6170000000    19.4550000000
  160      H      22.5570000000    15.9430000000    18.1790000000
  161      H      23.0190000000    15.2000000000    19.6960000000
  162      O      22.8510000000    17.3400000000    21.4640000000
  163      C      19.2300000000     9.6390000000    20.1800000000
  164      H      20.1610000000     9.7060000000    19.6110000000
  165      H      18.8170000000     8.6270000000    20.1790000000
  166      H      18.4890000000    10.3400000000    19.7890000000
  167      S      19.3760000000    10.1780000000    21.8980000000
  168      C      19.9420000000     8.6370000000    22.6520000000
  169      H      19.9240000000     8.6660000000    23.7450000000
  170      H      19.1870000000     7.9440000000    22.2700000000
  171      H      20.9240000000     8.4290000000    22.2200000000
  172      O      17.8990000000    10.2310000000    22.1360000000
  173      C      18.6160000000    13.9210000000    28.3720000000
  174      H      17.7510000000    14.4490000000    27.9630000000
  175      H      18.3120000000    12.9390000000    28.7440000000
  176      H      19.0850000000    14.4300000000    29.2170000000
  177      S      19.7050000000    13.7460000000    26.9400000000
  178      C      18.3900000000    13.4670000000    25.7330000000
  179      H      18.7990000000    13.1220000000    24.7800000000
  180      H      17.8590000000    12.6320000000    26.1960000000
  181      H      17.7530000000    14.3540000000    25.7780000000
  182      O      20.1890000000    12.3510000000    27.1910000000
  183      C      23.9130000000    11.3730000000    19.3990000000
  184      H      23.2710000000    10.5860000000    19.8020000000
  185      H      24.7670000000    11.0200000000    18.8150000000
  186      H      24.2180000000    11.9550000000    20.2720000000
  187      S      23.1760000000    12.4020000000    18.1090000000
  188      C      23.2630000000    11.3750000000    16.6240000000
  189      H      22.9520000000    10.3640000000    16.9020000000
  190      H      22.6130000000    11.7140000000    15.8130000000
  191      H      24.2780000000    11.4110000000    16.2220000000
  192      O      24.3050000000    13.3710000000    17.9390000000
  193      C      25.3510000000    14.7700000000    33.6040000000
  194      H      25.7040000000    14.6630000000    34.6330000000
  195      H      24.4180000000    14.2170000000    33.4670000000
  196      H      26.1850000000    14.3070000000    33.0690000000
  197      S      25.0560000000    16.4920000000    33.1450000000
  198      C      26.5640000000    17.1500000000    33.8940000000
  199      H      27.3920000000    16.5630000000    33.4880000000
  200      H      26.7030000000    18.2170000000    33.7040000000
  201      H      26.5280000000    16.9680000000    34.9710000000
  202      O      23.8570000000    17.0150000000    33.8730000000
  203      C      26.9040000000    21.9210000000    22.8310000000
  204      H      26.1530000000    22.7020000000    22.9730000000
  205      H      27.8740000000    22.1840000000    23.2610000000
  206      H      27.1590000000    21.8510000000    21.7700000000
  207      S      26.2510000000    20.3760000000    23.5030000000
  208      C      25.3100000000    19.8780000000    22.0430000000
  209      H      25.6470000000    20.3810000000    21.1330000000
  210      H      25.2970000000    18.8030000000    21.8470000000
  211      H      24.2830000000    20.1860000000    22.2560000000
  212      O      25.2110000000    20.8340000000    24.4770000000
  213      C      27.8390000000    16.3620000000    25.4050000000
  214      H      27.4450000000    16.0230000000    24.4440000000
  215      H      28.6130000000    15.7360000000    25.8580000000
  216      H      27.0240000000    16.4750000000    26.1240000000
  217      S      28.5340000000    18.0090000000    25.1410000000
  218      C      30.0040000000    17.5060000000    24.2190000000
  219      H      30.7420000000    18.3120000000    24.2520000000
  220      H      30.3390000000    16.5790000000    24.6910000000
  221      H      29.6090000000    17.3520000000    23.2120000000
  222      O      29.0440000000    18.3140000000    26.5150000000
  223      C      24.2640000000    10.5680000000    29.9010000000
  224      H      23.7040000000    11.2800000000    30.5130000000
  225      H      24.4210000000     9.7020000000    30.5490000000
  226      H      25.2780000000    10.8470000000    29.6030000000
  227      S      23.2390000000    10.0430000000    28.5080000000
  228      C      21.8660000000     9.4050000000    29.4940000000
  229      H      21.2260000000     8.8230000000    28.8260000000
  230      H      22.3310000000     8.6880000000    30.1750000000
  231      H      21.3690000000    10.1190000000    30.1560000000
  232      O      23.9060000000     8.8450000000    27.9090000000
  233      C      24.3200000000    10.3630000000    24.9390000000
  234      H      23.7770000000     9.4500000000    25.1990000000
  235      H      25.2970000000    10.1890000000    24.4820000000
  236      H      24.4080000000    10.9920000000    25.8280000000
  237      S      23.3420000000    11.1500000000    23.6390000000
  238      C      21.8450000000    11.3120000000    24.6380000000
  239      H      21.3330000000    10.3480000000    24.6790000000
  240      H      22.1050000000    11.5370000000    25.6760000000
  241      H      21.1350000000    12.0300000000    24.2200000000
  242      O      23.0400000000    10.0440000000    22.6760000000
  243      C      25.9480000000     8.7820000000    21.8740000000
  244      H      25.9700000000     8.0530000000    22.6870000000
  245      H      26.0760000000     9.7860000000    22.2860000000
  246      H      24.9970000000     8.8420000000    21.3380000000
  247      S      27.2630000000     8.4990000000    20.6670000000
  248      C      28.5300000000     8.3310000000    21.9450000000
  249      H      29.5210000000     8.5340000000    21.5300000000
  250      H      28.2570000000     9.1050000000    22.6670000000
  251      H      28.4290000000     7.2850000000    22.2440000000
  252      O      27.4850000000     9.8970000000    20.1800000000
  253      C      19.6930000000    16.3770000000    23.5040000000
  254      H      18.7240000000    16.8160000000    23.2520000000
  255      H      19.6030000000    15.6990000000    24.3560000000
  256      H      20.4250000000    17.1610000000    23.7110000000
  257      S      20.1900000000    15.3280000000    22.1190000000
  258      C      18.5500000000    14.6580000000    21.7620000000
  259      H      17.8430000000    15.4830000000    21.6400000000
  260      H      18.5770000000    13.9380000000    20.9400000000
  261      H      18.2440000000    14.1360000000    22.6720000000
  262      O      20.7180000000    14.1520000000    22.8790000000
 ----------------------------------------------------------------
 Nuclear Repulsion Energy =       39745.60413678 hartrees
 There are      539 alpha and      539 beta electrons
 Requested basis set is 6-31+G(d)
 There are 863 shells and 2405 basis functions

 Total QAlloc Memory Limit  12000 MB
 Mega-Array Size      3911 MB
 MEM_STATIC part      4000 MB

 A cutoff of  1.0D-14 yielded 149673 shell pairs
 There are   1290638 function pairs
 Smallest overlap matrix eigenvalue = 6.14E-07
 Linear dependence detected in AO basis
 Tighter screening thresholds may be required for diffuse basis sets
 Use S2THRESH > 14 and THRESH = 14 in case of SCF convergence issues
 Number of orthogonalized atomic orbitals = 2403
 Maximum deviation from orthogonality = 1.303E-10

 Scale SEOQF with 1.000000e-03/1.000000e-03/1.000000e-03

 Standard Electronic Orientation quadrupole field applied
 Nucleus-field energy     =    -0.0000003903 hartrees
 Guess from superposition of atomic densities
 Warning:  Energy on first SCF cycle will be non-variational
 SAD guess density has 1078.000002 electrons

 -----------------------------------------------------------------------
  General SCF calculation program by
  Eric Jon Sundstrom, Paul Horn, Yuezhi Mao, Dmitri Zuev, Alec White,
  David Stuck, Shaama M.S., Shane Yost, Joonho Lee, David Small,
  Daniel Levine, Susi Lehtola, Hugh Burton, Evgeny Epifanovsky,
  Bang C. Huynh
 -----------------------------------------------------------------------
=================================================
        Doing projection-based embedding         
      F. Manby et al. JCTC, 8, 2564 (2012)       
=================================================

****************************************************
   Low-level SCF calculation for the whole system   
****************************************************
----------------------------------------------
 Summary of the low-level theory: 
 Exchange:     0.2000 Hartree-Fock + 0.0800 Slater + 0.7200 B88
 Correlation:  0.1900 VWN1RPA + 0.8100 LYP
 Using Euler-Maclaurin-Lebedev (75,302) quadrature formula
----------------------------------------------
 using 16 threads for integral computing
 -------------------------------------------------------
 OpenMP Integral computing Module                
 Release: version 1.0, May 2013, Q-Chem Inc. Pittsburgh 
 -------------------------------------------------------
 A restricted SCF calculation will be
 performed using DIIS
 SCF converges when DIIS error is below 1.0e-08
 ---------------------------------------
  Cycle       Energy         DIIS error
 ---------------------------------------
    1  -13698.3289746333      1.43e-02  
    2  -13676.8761042580      2.64e-03  
    3  -13664.5282461604      5.06e-03  
    4  -13680.2663705104      1.15e-03  
    5  -13681.1785757804      1.66e-04  
    6  -13681.1903658444      1.21e-04  
    7  -13681.1979547505      5.17e-05  
    8  -13681.1994839749      1.23e-05  
    9  -13681.1995729287      4.35e-06  
   10  -13681.1995830160      1.72e-06  
   11  -13681.1995845916      5.50e-07  
   12  -13681.1995847559      1.97e-07  
   13  -13681.1995847802      4.87e-08  
   14  -13681.1995847813      2.70e-08  
   15  -13681.1995847817      8.11e-09  Convergence criterion met
 ---------------------------------------
 SCF time:   CPU 198436.94s  wall 14184.00s 
 SCF   energy in the final basis set =   -13681.1995847817
 Total energy in the final basis set =   -13681.1995847817

****************************************************
             Start embedding calculation            
****************************************************
----------------------------------------------
 Summary of the high-level theory: 
 Exchange:     0.2000 Hartree-Fock + 0.0800 Slater + 0.7200 B88
 Correlation:  0.1900 VWN1RPA + 0.8100 LYP
 Using Euler-Maclaurin-Lebedev (75,302) quadrature formula
----------------------------------------------
Doing R-in-R Embedding Calculation
Number of fragments: 2
Embedded fragment(s): 1 
NOcc for each fragment
           35
          504
NBasis for each fragment
          197
         2208
Variational space of the embedded problem: 
NOcc (active)  = 35
NOcc (fixed)   = 504
NVir (total)   = 1864
Read converged orbitals from disk
=========================================================
       Doing SPADE partition for the orbital space       
     D. Claudino and N. Mayhall JCTC 15, 1053 (2019)     
=========================================================
SPADE singular values:
 1.0000 1.0000 1.0000 1.0000 1.0000 1.0000 1.0000 1.0000 1.0000 0.9999
 0.9999 0.9998 0.9998 0.9997 0.9996 0.9995 0.9993 0.9992 0.9989 0.9980
 0.9974 0.9973 0.9969 0.9963 0.9961 0.9957 0.9955 0.9951 0.9947 0.9935
 0.9926 0.9909 0.9902 0.9872 0.9796 0.2241 0.1915 0.1661 0.1583 0.1329
 0.1235 0.1136 0.1075 0.1029 0.0992 0.0887 0.0855 0.0766 0.0705 0.0659
 0.0621 0.0530 0.0472 0.0432 0.0395 0.0365 0.0340 0.0329 0.0287 0.0278
 0.0269 0.0248 0.0231 0.0198 0.0189 0.0184 0.0175 0.0170 0.0163 0.0158
 0.0141 0.0135 0.0130 0.0124 0.0120 0.0111 0.0104 0.0100 0.0097 0.0089
 0.0084 0.0082 0.0076 0.0074 0.0072 0.0069 0.0066 0.0064 0.0061 0.0060
 0.0054 0.0049 0.0048 0.0044 0.0041 0.0039 0.0037 0.0036 0.0035 0.0033
 0.0031 0.0029 0.0029 0.0027 0.0027 0.0025 0.0024 0.0023 0.0022 0.0021
 0.0020 0.0019 0.0018 0.0017 0.0017 0.0016 0.0016 0.0015 0.0015 0.0014
 0.0014 0.0013 0.0013 0.0013 0.0012 0.0012 0.0011 0.0011 0.0010 0.0010
 0.0009 0.0009 0.0009 0.0008 0.0008 0.0008 0.0007 0.0007 0.0007 0.0006
 0.0006 0.0006 0.0006 0.0005 0.0005 0.0005 0.0005 0.0004 0.0004 0.0004
 0.0004 0.0004 0.0004 0.0003 0.0003 0.0003 0.0003 0.0003 0.0003 0.0003
 0.0003 0.0002 0.0002 0.0002 0.0002 0.0002 0.0002 0.0002 0.0002 0.0002
 0.0002 0.0002 0.0002 0.0002 0.0002 0.0001 0.0001 0.0001 0.0001 0.0001
 0.0001 0.0001 0.0001 0.0001 0.0001 0.0001 0.0001 0.0001 0.0001 0.0001
 0.0001 0.0001 0.0001 0.0001 0.0001 0.0000 0.0000
Early stop requested; no embedded SCF will be performed

 504 environment occs will be part of frozen-core in future post-HF calculations

 --------------------------------------------------------------

                    Orbital Energies (a.u.)
 --------------------------------------------------------------

 Alpha MOs
 -- Occupied --
-89.0273 -89.0272 -89.0264 -89.0169 -89.0167 -89.0124 -89.0116 -89.0116
-89.0098 -89.0068 -89.0031 -89.0030 -88.9971 -88.9970 -88.9932 -88.9880
-88.9871 -88.9868 -88.9776 -88.9774 -88.9754 -88.9648 -88.9638 -88.9522
-19.1448 -19.1389 -19.1388 -19.1326 -19.1303 -19.1284 -19.1268 -19.1267
-19.1219 -19.1200 -19.1168 -19.1152 -19.1141 -19.1112 -19.1107 -19.1085
-19.1072 -19.1029 -19.1004 -19.0917 -19.0885 -19.0791 -19.0762 -19.0654
-10.2535 -10.2496 -10.2396 -10.2385 -10.2372 -10.2371 -10.2347 -10.2338
-10.2325 -10.2321 -10.2314 -10.2272 -10.2255 -10.2254 -10.2250 -10.2246
-10.2232 -10.2230 -10.2227 -10.2225 -10.2224 -10.2221 -10.2208 -10.2179
-10.2156 -10.2154 -10.2148 -10.2107 -10.2106 -10.2097 -10.2081 -10.2061
-10.2059 -10.2042 -10.2041 -10.2037 -10.1999 -10.1980 -10.1975 -10.1967
-10.1959 -10.1907 -10.1901 -10.1795 -10.1742 -10.1740 -10.1738 -10.1707
 -8.0744  -8.0735  -8.0719  -8.0632  -8.0625  -8.0588  -8.0579  -8.0569
 -8.0557  -8.0528  -8.0498  -8.0487  -8.0436  -8.0429  -8.0389  -8.0332
 -8.0332  -8.0327  -8.0236  -8.0236  -8.0213  -8.0110  -8.0092  -7.9988
 -6.0385  -6.0379  -6.0371  -6.0365  -6.0363  -6.0352  -6.0320  -6.0310
 -6.0291  -6.0275  -6.0268  -6.0262  -6.0256  -6.0231  -6.0223  -6.0219
 -6.0214  -6.0210  -6.0208  -6.0201  -6.0201  -6.0200  -6.0189  -6.0172
 -6.0160  -6.0159  -6.0152  -6.0141  -6.0140  -6.0131  -6.0129  -6.0127
 -6.0117  -6.0102  -6.0077  -6.0074  -6.0074  -6.0067  -6.0064  -6.0061
 -6.0034  -6.0019  -6.0009  -6.0001  -5.9978  -5.9976  -5.9973  -5.9964
 -5.9963  -5.9962  -5.9960  -5.9906  -5.9906  -5.9897  -5.9878  -5.9878
 -5.9868  -5.9866  -5.9859  -5.9845  -5.9811  -5.9811  -5.9784  -5.9752
 -5.9742  -5.9735  -5.9722  -5.9683  -5.9668  -5.9632  -5.9619  -5.9561
 -1.0562  -1.0556  -1.0516  -1.0427  -1.0386  -1.0381  -1.0378  -1.0364
 -1.0357  -1.0310  -1.0275  -1.0258  -1.0239  -1.0218  -1.0212  -1.0164
 -1.0137  -1.0122  -1.0056  -1.0021  -0.9989  -0.9878  -0.9850  -0.9775
 -0.8306  -0.8269  -0.8223  -0.8148  -0.8145  -0.8139  -0.8108  -0.8090
 -0.8078  -0.8075  -0.8062  -0.8020  -0.8007  -0.7971  -0.7969  -0.7948
 -0.7942  -0.7899  -0.7848  -0.7842  -0.7796  -0.7692  -0.7628  -0.7577
 -0.7541  -0.7528  -0.7507  -0.7436  -0.7430  -0.7421  -0.7401  -0.7392
 -0.7367  -0.7365  -0.7353  -0.7331  -0.7288  -0.7247  -0.7187  -0.7181
 -0.7166  -0.7160  -0.7106  -0.7092  -0.7055  -0.6984  -0.6877  -0.6827
 -0.6425  -0.6379  -0.6373  -0.6322  -0.6277  -0.6260  -0.6252  -0.6250
 -0.6236  -0.6180  -0.6159  -0.6140  -0.6100  -0.6083  -0.6051  -0.6036
 -0.5978  -0.5966  -0.5910  -0.5894  -0.5888  -0.5780  -0.5779  -0.5644
 -0.5226  -0.5121  -0.5020  -0.5012  -0.4966  -0.4961  -0.4953  -0.4936
 -0.4923  -0.4911  -0.4898  -0.4892  -0.4889  -0.4880  -0.4874  -0.4865
 -0.4864  -0.4858  -0.4857  -0.4851  -0.4850  -0.4841  -0.4824  -0.4822
 -0.4808  -0.4786  -0.4784  -0.4774  -0.4761  -0.4752  -0.4744  -0.4730
 -0.4726  -0.4722  -0.4720  -0.4718  -0.4713  -0.4700  -0.4694  -0.4674
 -0.4673  -0.4659  -0.4655  -0.4650  -0.4647  -0.4640  -0.4631  -0.4620
 -0.4607  -0.4604  -0.4598  -0.4584  -0.4580  -0.4564  -0.4563  -0.4553
 -0.4539  -0.4524  -0.4519  -0.4505  -0.4486  -0.4483  -0.4482  -0.4472
 -0.4465  -0.4456  -0.4444  -0.4440  -0.4431  -0.4430  -0.4409  -0.4407
 -0.4405  -0.4386  -0.4383  -0.4381  -0.4358  -0.4350  -0.4341  -0.4334
 -0.4326  -0.4319  -0.4317  -0.4312  -0.4290  -0.4283  -0.4276  -0.4268
 -0.4260  -0.4250  -0.4248  -0.4248  -0.4233  -0.4231  -0.4228  -0.4216
 -0.4213  -0.4212  -0.4195  -0.4163  -0.4155  -0.4151  -0.4140  -0.4127
 -0.4122  -0.4117  -0.4117  -0.4111  -0.4105  -0.4092  -0.4084  -0.4079
 -0.4073  -0.4064  -0.4060  -0.4054  -0.4052  -0.4025  -0.4020  -0.4019
 -0.4009  -0.4007  -0.4004  -0.4000  -0.3997  -0.3972  -0.3958  -0.3950
 -0.3947  -0.3926  -0.3900  -0.3895  -0.3888  -0.3879  -0.3875  -0.3859
 -0.3849  -0.3794  -0.3775  -0.3761  -0.3752  -0.3749  -0.3745  -0.3731
 -0.3721  -0.3720  -0.3716  -0.3706  -0.3699  -0.3698  -0.3674  -0.3664
 -0.3648  -0.3636  -0.3623  -0.3612  -0.3609  -0.3584  -0.3541  -0.3529
 -0.3517  -0.3505  -0.3450  -0.3430  -0.3411  -0.3296  -0.3239  -0.3172
 -0.3085  -0.3013  -0.2989  -0.2945  -0.2909  -0.2908  -0.2901  -0.2856
 -0.2847  -0.2810  -0.2802  -0.2769  -0.2760  -0.2749  -0.2725  -0.2721
 -0.2695  -0.2687  -0.2681  -0.2635  -0.2610  -0.2607  -0.2601  -0.2572
 -0.2536  -0.2529  -0.2515  -0.2500  -0.2489  -0.2473  -0.2465  -0.2456
 -0.2431  -0.2399  -0.2390  -0.2361  -0.2348  -0.2333  -0.2321  -0.2274
 -0.2260  -0.2227  -0.2207  -0.2174  -0.2166  -0.2047  -0.2022  -0.1906
-10.2190 -12.0140 -14.9092 -13.4120 -12.2663 -10.3107 -10.2991 -10.0776
-10.4868  -0.9437  -0.7019  -0.6630  -0.8904  -0.7326  -0.5653  -0.7671
 -0.8803  -0.4539  -0.4200  -0.4581  -0.4362  -0.4278  -0.4368  -0.4416
 -0.4343  -0.4174  -0.4591  -0.4165  -0.4867  -0.4070  -0.4649  -0.5099
 -0.4050  -0.5403  -0.5367
 -- Virtual --
 -0.0404  -0.0321  -0.0303  -0.0286  -0.0253  -0.0229  -0.0219  -0.0203
 -0.0201  -0.0176  -0.0173  -0.0151  -0.0140  -0.0118  -0.0115  -0.0088
 -0.0085  -0.0075  -0.0065  -0.0059  -0.0046  -0.0037  -0.0034  -0.0021
 -0.0017  -0.0009  -0.0002   0.0009   0.0023   0.0032   0.0046   0.0057
  0.0058   0.0068   0.0079   0.0088   0.0097   0.0106   0.0106   0.0112
  0.0123   0.0127   0.0138   0.0140   0.0156   0.0184   0.0187   0.0207
  0.0209   0.0214   0.0218   0.0232   0.0238   0.0245   0.0249   0.0253
  0.0257   0.0264   0.0273   0.0285   0.0294   0.0298   0.0307   0.0309
  0.0321   0.0327   0.0333   0.0338   0.0346   0.0356   0.0358   0.0369
  0.0375   0.0379   0.0390   0.0398   0.0403   0.0410   0.0420   0.0423
  0.0428   0.0435   0.0440   0.0446   0.0449   0.0458   0.0466   0.0478
  0.0485   0.0488   0.0494   0.0501   0.0507   0.0511   0.0517   0.0525
  0.0527   0.0537   0.0540   0.0555   0.0558   0.0567   0.0571   0.0572
  0.0586   0.0590   0.0596   0.0606   0.0611   0.0617   0.0630   0.0634
  0.0639   0.0644   0.0653   0.0657   0.0661   0.0670   0.0676   0.0684
  0.0688   0.0693   0.0701   0.0703   0.0718   0.0724   0.0732   0.0740
  0.0748   0.0752   0.0756   0.0764   0.0776   0.0781   0.0787   0.0797
  0.0801   0.0810   0.0819   0.0821   0.0833   0.0840   0.0844   0.0848
  0.0854   0.0857   0.0873   0.0879   0.0889   0.0893   0.0904   0.0905
  0.0920   0.0927   0.0932   0.0936   0.0946   0.0951   0.0952   0.0961
  0.0977   0.0987   0.0991   0.0992   0.1000   0.1004   0.1009   0.1013
  0.1022   0.1032   0.1033   0.1048   0.1053   0.1063   0.1064   0.1068
  0.1079   0.1083   0.1094   0.1095   0.1113   0.1120   0.1130   0.1136
  0.1142   0.1146   0.1156   0.1163   0.1166   0.1174   0.1182   0.1193
  0.1197   0.1200   0.1207   0.1213   0.1222   0.1227   0.1231   0.1246
  0.1254   0.1261   0.1266   0.1269   0.1273   0.1279   0.1291   0.1296
  0.1301   0.1311   0.1314   0.1325   0.1330   0.1332   0.1338   0.1342
  0.1357   0.1360   0.1371   0.1375   0.1378   0.1388   0.1394   0.1402
  0.1404   0.1411   0.1419   0.1420   0.1431   0.1443   0.1449   0.1453
  0.1455   0.1466   0.1468   0.1477   0.1481   0.1487   0.1492   0.1500
  0.1505   0.1510   0.1516   0.1526   0.1527   0.1532   0.1545   0.1546
  0.1556   0.1563   0.1569   0.1571   0.1580   0.1585   0.1594   0.1603
  0.1609   0.1613   0.1623   0.1626   0.1635   0.1638   0.1654   0.1658
  0.1667   0.1674   0.1682   0.1686   0.1694   0.1702   0.1705   0.1718
  0.1721   0.1724   0.1732   0.1740   0.1749   0.1749   0.1753   0.1756
  0.1760   0.1769   0.1770   0.1792   0.1798   0.1803   0.1816   0.1817
  0.1824   0.1829   0.1836   0.1847   0.1856   0.1858   0.1861   0.1875
  0.1878   0.1889   0.1895   0.1900   0.1910   0.1913   0.1921   0.1931
  0.1932   0.1934   0.1945   0.1949   0.1955   0.1968   0.1974   0.1978
  0.1982   0.1997   0.2005   0.2013   0.2016   0.2026   0.2031   0.2049
  0.2054   0.2057   0.2062   0.2068   0.2071   0.2076   0.2084   0.2095
  0.2098   0.2102   0.2114   0.2123   0.2133   0.2138   0.2144   0.2146
  0.2153   0.2160   0.2173   0.2179   0.2184   0.2191   0.2198   0.2202
  0.2212   0.2220   0.2223   0.2231   0.2242   0.2249   0.2254   0.2258
  0.2270   0.2279   0.2283   0.2288   0.2298   0.2302   0.2310   0.2316
  0.2325   0.2330   0.2338   0.2343   0.2347   0.2348   0.2357   0.2362
  0.2372   0.2377   0.2391   0.2398   0.2404   0.2408   0.2415   0.2423
  0.2430   0.2434   0.2444   0.2455   0.2460   0.2466   0.2481   0.2486
  0.2495   0.2497   0.2511   0.2516   0.2520   0.2525   0.2540   0.2545
  0.2555   0.2562   0.2567   0.2570   0.2575   0.2585   0.2590   0.2601
  0.2606   0.2623   0.2623   0.2639   0.2646   0.2656   0.2663   0.2671
  0.2683   0.2687   0.2692   0.2698   0.2707   0.2710   0.2720   0.2729
  0.2736   0.2741   0.2758   0.2761   0.2771   0.2782   0.2783   0.2795
  0.2797   0.2807   0.2821   0.2835   0.2835   0.2838   0.2851   0.2858
  0.2869   0.2873   0.2883   0.2888   0.2902   0.2905   0.2915   0.2923
  0.2928   0.2936   0.2942   0.2952   0.2959   0.2988   0.2989   0.3004
  0.3013   0.3021   0.3027   0.3034   0.3036   0.3044   0.3053   0.3073
  0.3080   0.3084   0.3091   0.3109   0.3117   0.3126   0.3139   0.3150
  0.3152   0.3165   0.3172   0.3193   0.3197   0.3205   0.3211   0.3225
  0.3241   0.3246   0.3266   0.3271   0.3276   0.3285   0.3297   0.3308
  0.3320   0.3322   0.3327   0.3334   0.3335   0.3356   0.3373   0.3378
  0.3390   0.3396   0.3406   0.3411   0.3427   0.3435   0.3445   0.3455
  0.3463   0.3478   0.3486   0.3494   0.3500   0.3505   0.3515   0.3526
  0.3533   0.3547   0.3557   0.3568   0.3581   0.3586   0.3596   0.3604
  0.3607   0.3624   0.3634   0.3638   0.3642   0.3654   0.3664   0.3671
  0.3674   0.3692   0.3701   0.3715   0.3720   0.3740   0.3744   0.3755
  0.3757   0.3765   0.3778   0.3781   0.3798   0.3806   0.3819   0.3825
  0.3827   0.3838   0.3853   0.3857   0.3874   0.3881   0.3888   0.3893
  0.3903   0.3909   0.3923   0.3927   0.3939   0.3947   0.3956   0.3961
  0.3967   0.3980   0.3986   0.3994   0.4006   0.4010   0.4023   0.4033
  0.4043   0.4060   0.4063   0.4071   0.4085   0.4104   0.4116   0.4122
  0.4132   0.4146   0.4153   0.4162   0.4173   0.4183   0.4202   0.4209
  0.4219   0.4228   0.4237   0.4250   0.4255   0.4276   0.4276   0.4298
  0.4306   0.4314   0.4325   0.4334   0.4350   0.4364   0.4375   0.4386
  0.4402   0.4413   0.4423   0.4436   0.4447   0.4457   0.4473   0.4483
  0.4488   0.4511   0.4523   0.4532   0.4541   0.4553   0.4564   0.4572
  0.4589   0.4601   0.4605   0.4616   0.4637   0.4650   0.4669   0.4686
  0.4690   0.4721   0.4726   0.4742   0.4754   0.4772   0.4783   0.4811
  0.4812   0.4837   0.4845   0.4860   0.4870   0.4882   0.4905   0.4932
  0.4942   0.4958   0.4977   0.5003   0.5010   0.5020   0.5051   0.5085
  0.5091   0.5104   0.5107   0.5129   0.5144   0.5163   0.5185   0.5210
  0.5216   0.5249   0.5258   0.5274   0.5301   0.5331   0.5352   0.5381
  0.5392   0.5397   0.5428   0.5455   0.5462   0.5475   0.5497   0.5502
  0.5516   0.5533   0.5563   0.5588   0.5603   0.5616   0.5635   0.5655
  0.5671   0.5680   0.5703   0.5713   0.5724   0.5748   0.5768   0.5788
  0.5790   0.5824   0.5832   0.5855   0.5878   0.5882   0.5898   0.5922
  0.5931   0.5950   0.5966   0.5985   0.6001   0.6020   0.6037   0.6051
  0.6064   0.6082   0.6099   0.6111   0.6120   0.6140   0.6153   0.6164
  0.6183   0.6186   0.6200   0.6215   0.6236   0.6253   0.6278   0.6282
  0.6299   0.6302   0.6311   0.6317   0.6329   0.6335   0.6351   0.6357
  0.6377   0.6381   0.6398   0.6405   0.6422   0.6439   0.6443   0.6456
  0.6471   0.6479   0.6488   0.6503   0.6510   0.6522   0.6544   0.6552
  0.6563   0.6569   0.6581   0.6600   0.6624   0.6627   0.6643   0.6658
  0.6669   0.6687   0.6696   0.6699   0.6729   0.6735   0.6738   0.6762
  0.6767   0.6772   0.6781   0.6793   0.6809   0.6818   0.6838   0.6851
  0.6855   0.6865   0.6888   0.6901   0.6907   0.6926   0.6929   0.6939
  0.6953   0.6956   0.6985   0.6989   0.7006   0.7027   0.7039   0.7054
  0.7058   0.7062   0.7076   0.7089   0.7097   0.7112   0.7114   0.7136
  0.7138   0.7152   0.7172   0.7173   0.7194   0.7211   0.7228   0.7236
  0.7260   0.7265   0.7275   0.7290   0.7296   0.7321   0.7336   0.7356
  0.7377   0.7392   0.7401   0.7423   0.7425   0.7454   0.7459   0.7471
  0.7477   0.7490   0.7521   0.7544   0.7547   0.7561   0.7578   0.7604
  0.7622   0.7629   0.7651   0.7665   0.7693   0.7717   0.7738   0.7746
  0.7753   0.7775   0.7784   0.7809   0.7816   0.7844   0.7857   0.7859
  0.7862   0.7882   0.7908   0.7924   0.7950   0.7969   0.7974   0.7989
  0.8011   0.8035   0.8044   0.8060   0.8082   0.8106   0.8108   0.8135
  0.8140   0.8157   0.8165   0.8187   0.8208   0.8219   0.8238   0.8247
  0.8270   0.8273   0.8287   0.8304   0.8317   0.8337   0.8353   0.8371
  0.8387   0.8388   0.8397   0.8424   0.8437   0.8460   0.8468   0.8474
  0.8481   0.8505   0.8520   0.8543   0.8558   0.8565   0.8573   0.8583
  0.8601   0.8614   0.8628   0.8636   0.8649   0.8671   0.8687   0.8706
  0.8720   0.8733   0.8742   0.8755   0.8775   0.8783   0.8798   0.8827
  0.8839   0.8849   0.8855   0.8871   0.8897   0.8909   0.8925   0.8939
  0.8949   0.8960   0.8975   0.8986   0.9001   0.9005   0.9023   0.9047
  0.9051   0.9052   0.9086   0.9098   0.9099   0.9120   0.9139   0.9142
  0.9161   0.9181   0.9194   0.9204   0.9212   0.9217   0.9248   0.9258
  0.9282   0.9285   0.9304   0.9319   0.9331   0.9339   0.9348   0.9374
  0.9379   0.9396   0.9405   0.9414   0.9420   0.9430   0.9442   0.9463
  0.9470   0.9506   0.9524   0.9533   0.9536   0.9557   0.9567   0.9575
  0.9587   0.9598   0.9617   0.9619   0.9630   0.9639   0.9655   0.9671
  0.9677   0.9686   0.9705   0.9713   0.9718   0.9726   0.9758   0.9774
  0.9801   0.9808   0.9818   0.9826   0.9839   0.9853   0.9862   0.9870
  0.9885   0.9890   0.9896   0.9910   0.9925   0.9938   0.9949   0.9964
  0.9977   0.9985   1.0004   1.0019   1.0038   1.0045   1.0052   1.0071
  1.0081   1.0094   1.0103   1.0113   1.0123   1.0131   1.0154   1.0155
  1.0173   1.0177   1.0188   1.0201   1.0214   1.0230   1.0240   1.0245
  1.0268   1.0278   1.0291   1.0315   1.0324   1.0329   1.0336   1.0351
  1.0358   1.0372   1.0393   1.0396   1.0406   1.0437   1.0445   1.0449
  1.0475   1.0484   1.0489   1.0505   1.0523   1.0540   1.0543   1.0552
  1.0574   1.0589   1.0596   1.0599   1.0618   1.0627   1.0645   1.0653
  1.0675   1.0691   1.0695   1.0716   1.0730   1.0752   1.0760   1.0782
  1.0791   1.0807   1.0823   1.0836   1.0857   1.0877   1.0878   1.0900
  1.0909   1.0920   1.0946   1.0956   1.0967   1.0977   1.1008   1.1016
  1.1030   1.1046   1.1052   1.1053   1.1072   1.1090   1.1112   1.1118
  1.1133   1.1162   1.1173   1.1183   1.1198   1.1217   1.1225   1.1232
  1.1242   1.1261   1.1277   1.1295   1.1309   1.1331   1.1346   1.1361
  1.1383   1.1388   1.1399   1.1430   1.1441   1.1452   1.1473   1.1481
  1.1494   1.1502   1.1526   1.1540   1.1563   1.1581   1.1584   1.1611
  1.1629   1.1648   1.1655   1.1662   1.1668   1.1684   1.1711   1.1724
  1.1735   1.1774   1.1793   1.1804   1.1808   1.1827   1.1840   1.1866
  1.1881   1.1889   1.1897   1.1913   1.1953   1.1961   1.1967   1.1983
  1.1989   1.2006   1.2013   1.2019   1.2034   1.2056   1.2078   1.2102
  1.2126   1.2155   1.2166   1.2187   1.2214   1.2217   1.2228   1.2254
  1.2277   1.2311   1.2328   1.2345   1.2407   1.2418   1.2460   1.2468
  1.2486   1.2501   1.2524   1.2530   1.2544   1.2603   1.2613   1.2628
  1.2672   1.2691   1.2698   1.2713   1.2728   1.2786   1.2806   1.2820
  1.2825   1.2856   1.2891   1.2912   1.2936   1.2981   1.3004   1.3009
  1.3049   1.3095   1.3119   1.3121   1.3144   1.3175   1.3208   1.3218
  1.3237   1.3267   1.3292   1.3325   1.3334   1.3346   1.3368   1.3395
  1.3411   1.3445   1.3450   1.3464   1.3484   1.3519   1.3533   1.3567
  1.3569   1.3593   1.3612   1.3626   1.3640   1.3659   1.3667   1.3702
  1.3705   1.3729   1.3737   1.3758   1.3771   1.3788   1.3801   1.3815
  1.3827   1.3847   1.3852   1.3873   1.3877   1.3904   1.3930   1.3938
  1.3954   1.3976   1.3986   1.3993   1.4004   1.4032   1.4043   1.4062
  1.4067   1.4076   1.4098   1.4113   1.4147   1.4155   1.4168   1.4179
  1.4195   1.4218   1.4228   1.4231   1.4245   1.4272   1.4281   1.4308
  1.4330   1.4339   1.4354   1.4377   1.4383   1.4394   1.4415   1.4429
  1.4455   1.4462   1.4470   1.4495   1.4533   1.4537   1.4543   1.4569
  1.4604   1.4612   1.4617   1.4628   1.4648   1.4663   1.4682   1.4689
  1.4721   1.4734   1.4760   1.4767   1.4809   1.4814   1.4833   1.4870
  1.4885   1.4913   1.4937   1.4946   1.4967   1.4996   1.5007   1.5052
  1.5097   1.5105   1.5133   1.5158   1.5180   1.5190   1.5211   1.5225
  1.5247   1.5271   1.5320   1.5341   1.5353   1.5376   1.5387   1.5434
  1.5442   1.5481   1.5509   1.5543   1.5584   1.5613   1.5618   1.5655
  1.5718   1.5724   1.5758   1.5787   1.5816   1.5920   1.6000   1.6037
  1.6089   1.6141   1.6165   1.6170   1.6232   1.6325   1.6429   1.6442
  1.6465   1.6496   1.6531   1.6537   1.6561   1.6571   1.6584   1.6628
  1.6639   1.6680   1.6706   1.6732   1.6760   1.6769   1.6779   1.6786
  1.6790   1.6808   1.6836   1.6842   1.6854   1.6873   1.6891   1.6898
  1.6918   1.6923   1.6936   1.6949   1.6962   1.6976   1.6977   1.6993
  1.7018   1.7026   1.7042   1.7055   1.7065   1.7079   1.7090   1.7109
  1.7126   1.7141   1.7147   1.7160   1.7165   1.7182   1.7206   1.7216
  1.7233   1.7242   1.7257   1.7272   1.7290   1.7308   1.7322   1.7331
  1.7336   1.7356   1.7385   1.7396   1.7414   1.7430   1.7441   1.7458
  1.7471   1.7491   1.7506   1.7517   1.7520   1.7537   1.7550   1.7566
  1.7589   1.7606   1.7625   1.7677   1.7698   1.7711   1.7730   1.7743
  1.7753   1.7778   1.7793   1.7823   1.7832   1.7841   1.7860   1.7892
  1.7912   1.7934   1.7961   1.7990   1.8014   1.8026   1.8038   1.8059
  1.8084   1.8102   1.8128   1.8179   1.8213   1.8235   1.8253   1.8280
  1.8355   1.8383   1.8389   1.8428   1.8500   1.8521   1.8534   1.8562
  1.8567   1.8578   1.8613   1.8633   1.8659   1.8674   1.8716   1.8733
  1.8757   1.8778   1.8807   1.8810   1.8821   1.8834   1.8835   1.8862
  1.8874   1.8897   1.8922   1.8933   1.8947   1.8961   1.8983   1.9010
  1.9043   1.9052   1.9063   1.9077   1.9085   1.9094   1.9105   1.9116
  1.9123   1.9138   1.9147   1.9151   1.9154   1.9184   1.9200   1.9231
  1.9244   1.9262   1.9266   1.9281   1.9296   1.9322   1.9324   1.9344
  1.9358   1.9370   1.9376   1.9398   1.9409   1.9420   1.9444   1.9450
  1.9468   1.9521   1.9528   1.9604   1.9611   1.9618   1.9650   1.9746
  1.9775   1.9802   1.9868   1.9915   2.0056   2.0131   2.0302   2.0349
  2.0388   2.0418   2.0434   2.0460   2.0481   2.0498   2.0502   2.0528
  2.0543   2.0595   2.0612   2.0631   2.0633   2.0653   2.0680   2.0718
  2.0730   2.0761   2.0788   2.0794   2.0797   2.0815   2.0825   2.0835
  2.0863   2.0897   2.0910   2.0917   2.0923   2.0927   2.0949   2.0973
  2.1007   2.1016   2.1031   2.1044   2.1088   2.1098   2.1109   2.1123
  2.1138   2.1155   2.1205   2.1215   2.1245   2.1274   2.1285   2.1320
  2.1340   2.1350   2.1418   2.1427   2.1491   2.1504   2.1565   2.1609
  2.1634   2.1671   2.1718   2.1753   2.1760   2.1789   2.1828   2.1871
  2.1963   2.1970   2.1988   2.1996   2.2039   2.2077   2.2111   2.2121
  2.2144   2.2166   2.2186   2.2194   2.2210   2.2237   2.2252   2.2264
  2.2276   2.2289   2.2313   2.2326   2.2336   2.2343   2.2360   2.2362
  2.2378   2.2385   2.2395   2.2398   2.2411   2.2417   2.2426   2.2439
  2.2462   2.2474   2.2479   2.2489   2.2500   2.2510   2.2516   2.2523
  2.2530   2.2536   2.2545   2.2547   2.2562   2.2575   2.2587   2.2588
  2.2598   2.2599   2.2615   2.2618   2.2629   2.2637   2.2649   2.2661
  2.2666   2.2676   2.2677   2.2693   2.2723   2.2723   2.2751   2.2751
  2.2763   2.2767   2.2783   2.2788   2.2796   2.2819   2.2826   2.2839
  2.2851   2.2881   2.2897   2.2914   2.2921   2.2926   2.2947   2.2954
  2.2964   2.2979   2.2986   2.3011   2.3014   2.3018   2.3028   2.3050
  2.3062   2.3069   2.3075   2.3085   2.3098   2.3114   2.3124   2.3135
  2.3153   2.3161   2.3166   2.3183   2.3195   2.3199   2.3234   2.3248
  2.3250   2.3271   2.3276   2.3290   2.3305   2.3321   2.3342   2.3343
  2.3379   2.3390   2.3415   2.3427   2.3448   2.3456   2.3472   2.3483
  2.3487   2.3498   2.3510   2.3542   2.3571   2.3597   2.3606   2.3615
  2.3657   2.3670   2.3707   2.3739   2.3751   2.3785   2.3801   2.3806
  2.3824   2.3953   2.3963   2.4030   2.4079   2.4137   2.4295   2.4493
  2.4871   2.5151   2.5228   2.6085   2.6811   2.7213   2.7505   2.7724
  2.7867   2.8123   2.8240   2.8291   2.8309   2.8321   2.8326   2.8381
  2.8389   2.8411   2.8431   2.8434   2.8513   2.8523   2.8545   2.8589
  2.8602   2.8637   2.8685   2.8696   2.8709   2.8764   2.8794   2.8801
  2.8829   2.8850   2.8908   2.8993   2.9356   3.0735   3.2550   3.9467
  3.9588   3.9615   3.9618   3.9648   3.9677   3.9710   3.9733   3.9746
  3.9827   3.9866   3.9893   3.9904   3.9923   3.9945   3.9986   4.0006
  4.0031   4.0056   4.0062   4.0166   4.0230   4.0301   4.0391   4.2104
  4.2273   4.2306   4.2347   4.2390   4.2406   4.2409   4.2432   4.2478
  4.2505   4.2510   4.2528   4.2559   4.2589   4.2609   4.2633   4.2661
  4.2680   4.2703   4.2763   4.2812   4.2819   4.2845   4.2852   4.2875
  4.2893   4.2904   4.2934   4.2954   4.2974   4.3004   4.3056   4.3086
  4.3105   4.3120   4.3158   4.3174   4.3184   4.3208   4.3262   4.3272
  4.3312   4.3345   4.3380   4.3389   4.3423   4.3443   4.3475   4.3481
  4.3501   4.3565   4.3664   4.3686   4.3690   4.3723   4.3744   4.3780
  4.3812   4.3881   4.3916   4.3950   4.4025   4.4081   4.4195   4.4269
  4.4319   4.4432   4.4527   4.4679   4.4761   4.4883   4.4932   4.5224
  4.5346   4.5703   4.5894   4.6078   4.6675   4.7003   4.7656   4.8852
 --------------------------------------------------------------

          Ground-State Mulliken Net Atomic Charges

     Atom                 Charge (a.u.)
  ----------------------------------------
      1 C                    -0.221661
      2 C                    -0.208407
      3 C                    -0.182551
      4 C                    -0.837377
      5 C                    -0.747490
      6 C                    -0.587322
      7 H                     0.243037
      8 H                     0.231323
      9 H                     0.226441
     10 H                     0.195412
     11 H                     0.229264
     12 H                     0.185753
     13 H                     0.253575
     14 H                     0.199548
     15 H                     0.208763
     16 H                     0.200552
     17 H                     0.195183
     18 N                     0.284800
     19 H                     0.500539
     20 C                    -0.519644
     21 H                     0.142148
     22 O                    -0.190457
     23 C                    -0.785192
     24 H                     0.243925
     25 H                     0.274343
     26 H                     0.253897
     27 S                     0.732769
     28 C                    -0.753518
     29 H                     0.250242
     30 H                     0.225036
     31 H                     0.245128
     32 O                    -0.699117
     33 C                    -1.063480
     34 H                     0.260611
     35 H                     0.328618
     36 H                     0.262364
     37 S                     1.281420
     38 C                    -1.156915
     39 H                     0.275354
     40 H                     0.248021
     41 H                     0.232658
     42 O                    -0.743653
     43 C                    -0.767533
     44 H                     0.224607
     45 H                     0.260833
     46 H                     0.284469
     47 S                     0.647112
     48 C                    -0.856846
     49 H                     0.305855
     50 H                     0.258931
     51 H                     0.225705
     52 O                    -0.479532
     53 C                    -0.833578
     54 H                     0.307952
     55 H                     0.228919
     56 H                     0.223999
     57 S                     1.050326
     58 C                    -0.858190
     59 H                     0.285478
     60 H                     0.225096
     61 H                     0.260585
     62 O                    -0.759891
     63 C                    -1.023987
     64 H                     0.277326
     65 H                     0.259068
     66 H                     0.252934
     67 S                     1.140791
     68 C                    -0.980431
     69 H                     0.255983
     70 H                     0.224846
     71 H                     0.253557
     72 O                    -0.720521
     73 C                    -0.754200
     74 H                     0.243929
     75 H                     0.241289
     76 H                     0.238755
     77 S                     0.948608
     78 C                    -0.804044
     79 H                     0.227609
     80 H                     0.275973
     81 H                     0.245221
     82 O                    -0.808931
     83 C                    -0.945858
     84 H                     0.300066
     85 H                     0.283719
     86 H                     0.242180
     87 S                     0.929986
     88 C                    -0.847062
     89 H                     0.236509
     90 H                     0.270098
     91 H                     0.278134
     92 O                    -0.707019
     93 C                    -0.797194
     94 H                     0.252880
     95 H                     0.252023
     96 H                     0.234540
     97 S                     0.842111
     98 C                    -0.787415
     99 H                     0.269356
    100 H                     0.241384
    101 H                     0.289983
    102 O                    -0.746436
    103 C                    -1.022270
    104 H                     0.258748
    105 H                     0.271662
    106 H                     0.246057
    107 S                     1.172601
    108 C                    -1.070041
    109 H                     0.269177
    110 H                     0.256729
    111 H                     0.276538
    112 O                    -0.677144
    113 C                    -0.789809
    114 H                     0.249304
    115 H                     0.246273
    116 H                     0.244038
    117 S                     0.796447
    118 C                    -0.816230
    119 H                     0.266831
    120 H                     0.230259
    121 H                     0.252668
    122 O                    -0.723154
    123 C                    -0.801929
    124 H                     0.268115
    125 H                     0.249884
    126 H                     0.253398
    127 S                     0.610699
    128 C                    -0.758472
    129 H                     0.264966
    130 H                     0.249489
    131 H                     0.257721
    132 O                    -0.651497
    133 C                    -0.856439
    134 H                     0.238958
    135 H                     0.207280
    136 H                     0.250214
    137 S                     1.052327
    138 C                    -0.902738
    139 H                     0.258777
    140 H                     0.254121
    141 H                     0.234682
    142 O                    -0.726590
    143 C                    -0.932842
    144 H                     0.250666
    145 H                     0.263303
    146 H                     0.300215
    147 S                     0.605755
    148 C                    -0.876960
    149 H                     0.257528
    150 H                     0.263510
    151 H                     0.267956
    152 O                    -0.560395
    153 C                    -0.831179
    154 H                     0.256699
    155 H                     0.246117
    156 H                     0.255744
    157 S                     0.760878
    158 C                    -0.817325
    159 H                     0.246222
    160 H                     0.270669
    161 H                     0.290896
    162 O                    -0.597766
    163 C                    -0.883641
    164 H                     0.216657
    165 H                     0.239821
    166 H                     0.259138
    167 S                     0.999245
    168 C                    -0.815748
    169 H                     0.250972
    170 H                     0.232994
    171 H                     0.275151
    172 O                    -0.732921
    173 C                    -1.043433
    174 H                     0.245599
    175 H                     0.272117
    176 H                     0.307655
    177 S                     1.037600
    178 C                    -0.984260
    179 H                     0.277404
    180 H                     0.268160
    181 H                     0.291475
    182 O                    -0.686453
    183 C                    -0.697584
    184 H                     0.255005
    185 H                     0.263979
    186 H                     0.282161
    187 S                     0.793420
    188 C                    -0.854847
    189 H                     0.233126
    190 H                     0.250726
    191 H                     0.279827
    192 O                    -0.759674
    193 C                    -0.874397
    194 H                     0.243378
    195 H                     0.272116
    196 H                     0.248278
    197 S                     0.946455
    198 C                    -0.928471
    199 H                     0.218907
    200 H                     0.313753
    201 H                     0.257955
    202 O                    -0.643023
    203 C                    -0.927527
    204 H                     0.277521
    205 H                     0.258728
    206 H                     0.236713
    207 S                     1.031192
    208 C                    -0.932466
    209 H                     0.230474
    210 H                     0.281578
    211 H                     0.263627
    212 O                    -0.724034
    213 C                    -0.988371
    214 H                     0.270399
    215 H                     0.254396
    216 H                     0.267032
    217 S                     0.933473
    218 C                    -0.789238
    219 H                     0.250833
    220 H                     0.274626
    221 H                     0.240807
    222 O                    -0.702747
    223 C                    -1.028561
    224 H                     0.280840
    225 H                     0.249975
    226 H                     0.276241
    227 S                     1.142782
    228 C                    -1.023576
    229 H                     0.263357
    230 H                     0.242942
    231 H                     0.251727
    232 O                    -0.672667
    233 C                    -0.974578
    234 H                     0.280648
    235 H                     0.280662
    236 H                     0.240125
    237 S                     1.329373
    238 C                    -1.294243
    239 H                     0.254346
    240 H                     0.310885
    241 H                     0.307720
    242 O                    -0.607852
    243 C                    -0.878502
    244 H                     0.230281
    245 H                     0.283158
    246 H                     0.283450
    247 S                     0.934963
    248 C                    -0.898265
    249 H                     0.260844
    250 H                     0.285437
    251 H                     0.220029
    252 O                    -0.733691
    253 C                    -0.763544
    254 H                     0.244529
    255 H                     0.305966
    256 H                     0.253021
    257 S                     0.592234
    258 C                    -0.746168
    259 H                     0.234322
    260 H                     0.262185
    261 H                     0.280633
    262 O                    -0.742002
  ----------------------------------------
  Sum of atomic charges =     0.000000

 -----------------------------------------------------------------
                    Cartesian Multipole Moments
 -----------------------------------------------------------------
    Charge (ESU x 10^10)
                -0.0000
    Dipole Moment (Debye)
         X      -9.7226      Y     -21.7952      Z     -10.6253
       Tot      26.1239
    Quadrupole Moments (Debye-Ang)
        XX   -1368.4749     XY    -729.6251     YY   -1516.8990
        XZ    -459.4570     YZ    -892.2154     ZZ   -1391.4882
    Octopole Moments (Debye-Ang^2)
       XXX  -81680.6351    XXY  -36421.0426    XYY  -40369.1223
       YYY  -55943.0263    XXZ  -39399.1537    XYZ  -26074.3232
       YYZ  -47644.6501    XZZ  -38256.5803    YZZ  -45606.8218
       ZZZ  -87564.3190
    Hexadecapole Moments (Debye-Ang^3)
      XXXX ************   XXXY ************   XXYY ************
      XYYY ************   YYYY ************   XXXZ ************
      XXYZ ************   XYYZ ************   YYYZ ************
      XXZZ ************   XYZZ ************   YYZZ ************
      XZZZ ************   YZZZ ************   ZZZZ ************
 -----------------------------------------------------------------
 Total job time:  14384.50s(wall), 200904.18s(cpu) 
 Thu Jul 21 07:14:39 2022

        *************************************************************
        *                                                           *
        *  Thank you very much for using Q-Chem.  Have a nice day.  *
        *                                                           *
        *************************************************************


 
User input: 2 of 2 
 
                  Welcome to Q-Chem
     A Quantum Leap Into The Future Of Chemistry


 Q-Chem 6.0 (devel), Q-Chem, Inc., Pleasanton, CA (2022)

 E. Epifanovsky,  A. T. B. Gilbert,  Xintian Feng,  Joonho Lee,  Yuezhi Mao,  
 N. Mardirossian,  P. Pokhilko,  A. White,  M. Wormit,  M. P. Coons,  
 A. L. Dempwolff,  Zhengting Gan,  D. Hait,  P. R. Horn,  L. D. Jacobson,  
 I. Kaliman,  J. Kussmann,  A. W. Lange,  Ka Un Lao,  D. S. Levine,  Jie Liu,  
 S. C. McKenzie,  A. F. Morrison,  K. Nanda,  F. Plasser,  D. R. Rehn,  
 M. L. Vidal,  Zhi-Qiang You,  Ying Zhu,  B. Alam,  B. Albrecht,  
 A. Aldossary,  E. Alguire,  J. H. Andersen,  V. Athavale,  D. Barton,  
 K. Begam,  A. Behn,  N. Bellonzi,  Y. A. Bernard,  E. J. Berquist,  
 H. Burton,  A. Carreras,  K. Carter-Fenk,  Romit Chakraborty,  
 Chandrima Chakravarty,  Junhan Chen,  A. D. Chien,  K. D. Closser,  
 V. Cofer-Shabica,  L. Cunha,  S. Dasgupta,  Jia Deng,  M. de Wergifosse,  
 M. Diedenhofen,  Hainam Do,  S. Ehlert,  Po-Tung Fang,  S. Fatehi,  
 Qingguo Feng,  T. Friedhoff,  B. Ganoe,  J. Gayvert,  Qinghui Ge,  
 G. Gidofalvi,  M. Goldey,  J. Gomes,  C. Gonzalez-Espinoza,  S. Gulania,  
 A. Gunina,  J. A. Gyamfi,  M. W. D. Hanson-Heine,  P. H. P. Harbach,  
 A. W. Hauser,  M. F. Herbst,  M. Hernandez Vera,  M. Hodecker,  
 Z. C. Holden,  S. Houck,  Xunkun Huang,  Kerwin Hui,  B. C. Huynh,  
 K. Ikeda,  M. Ivanov,  Hyunjun Ji,  Zuxin Jin,  Hanjie Jiang,  B. Kaduk,  
 S. Kaehler,  R. Kang,  K. Khistyaev,  Jaehoon Kim,  Yongbin Kim,  
 P. Klunzinger,  Z. Koczor-Benda,  Joong Hoon Koh,  D. Kosenkov,  
 Saikiran Kotaru,  L. Koulias,  T. Kowalczyk,  C. M. Krauter,  K. Kue,  
 A. Kunitsa,  T. Kus,  A. Landau,  K. V. Lawler,  D. Lefrancois,  S. Lehtola,  
 Rain Li,  Shaozhi Li,  Yi-Pei Li,  Jiashu Liang,  M. Liebenthal,  
 Hung-Hsuan Lin,  You-Sheng Lin,  Fenglai Liu,  Kuan-Yu Liu,  
 M. Loipersberger,  A. Luenser,  C. Malbon,  A. Manjanath,  P. Manohar,  
 E. Mansoor,  S. F. Manzer,  Shan-Ping Mao,  A. V. Marenich,  T. Markovich,  
 S. Mason,  F. Matz,  S. A. Maurer,  P. F. McLaughlin,  M. F. S. J. Menger,  
 J.-M. Mewes,  S. A. Mewes,  P. Morgante,  Mohammad Mostafanejad,  
 J. W. Mullinax,  K. J. Oosterbaan,  G. Paran,  V. Parravicini,  
 Alexander C. Paul,  Suranjan K. Paul,  F. Pavosevic,  Zheng Pei,  S. Prager,  
 E. I. Proynov,  E. Ramos,  B. Rana,  A. E. Rask,  A. Rettig,  R. M. Richard,  
 F. Rob,  E. Rossomme,  T. Scheele,  M. Scheurer,  M. Schneider,  
 P. E. Schneider,  N. Sergueev,  S. M. Sharada,  Hengyuan Shen,  
 W. Skomorowski,  D. W. Small,  C. J. Stein,  Yingli Su,  Yu-Chuan Su,  
 E. J. Sundstrom,  Zhen Tao,  J. Thirman,  Hung-Yi Tsai,  T. Tsuchimochi,  
 N. M. Tubman,  C. Utku,  S. P. Veccham,  O. Vydrov,  J. Wenzel,  
 Jonathan Wong,  J. Witte,  A. Yamada,  Chou-Hsun Yang,  Kun Yao,  
 S. Yeganeh,  S. R. Yost,  A. Zech,  F. Zeller,  Igor Ying Zhang,  
 Xing Zhang,  Yu Zhang,  D. Zuev,  A. Aspuru-Guzik,  A. T. Bell,  
 N. A. Besley,  K. B. Bravaya,  B. R. Brooks,  D. Casanova,  Jeng-Da Chai,  
 Hsing-Ta Chen,  S. Coriani,  C. J. Cramer,  A. E. DePrince, III,  
 R. A. DiStasio Jr.,  A. Dreuw,  B. D. Dunietz,  T. R. Furlani,  
 W. A. Goddard III,  S. Grimme,  S. Hammes-Schiffer,  T. Head-Gordon,  
 W. J. Hehre,  Chao-Ping Hsu,  T.-C. Jagau,  Yousung Jung,  A. Klamt,  
 Jing Kong,  D. S. Lambrecht,  Xiangyuan Li,  WanZhen Liang,  N. J. Mayhall,  
 C. W. McCurdy,  J. B. Neaton,  T. Neudecker,  C. Ochsenfeld,  
 J. A. Parkhill,  R. Peverati,  V. A. Rassolov,  Haisheng Ren,  Yihan Shao,  
 L. V. Slipchenko,  R. P. Steele,  J. E. Subotnik,  A. J. W. Thom,  
 A. Tkatchenko,  D. G. Truhlar,  T. Van Voorhis,  Fan Wang,  
 T. A. Wesolowski,  K. B. Whaley,  H. L. Woodcock III,  P. M. Zimmerman,  
 S. Faraji,  P. M. W. Gill,  M. Head-Gordon,  J. M. Herbert,  A. I. Krylov

 Contributors to earlier versions of Q-Chem not listed above: 
 R. D. Adamson,  B. Austin,  R. Baer,  J. Baker,  G. J. O. Beran,  
 K. Brandhorst,  S. T. Brown,  E. F. C. Byrd,  Arup K. Chakraborty,  
 G. K. L. Chan,  Chun-Min Chang,  Yunqing Chen,  C.-L. Cheng,  
 Siu Hung Chien,  D. M. Chipman,  D. L. Crittenden,  H. Dachsel,  
 R. J. Doerksen,  A. D. Dutoi,  R. G. Edgar,  J. Fosso-Tande,  
 L. Fusti-Molnar,  D. Ghosh,  A. Ghysels,  A. Golubeva-Zadorozhnaya,  
 J. Gonthier,  M. S. Gordon,  S. R. Gwaltney,  G. Hawkins,  J. E. Herr,  
 A. Heyden,  S. Hirata,  E. G. Hohenstein,  G. Kedziora,  F. J. Keil,  
 C. Kelley,  Jihan Kim,  R. A. King,  R. Z. Khaliullin,  P. P. Korambath,  
 W. Kurlancheek,  A. Laurent,  A. M. Lee,  M. S. Lee,  S. V. Levchenko,  
 Ching Yeh Lin,  D. Liotard,  E. Livshits,  R. C. Lochan,  I. Lotan,  
 L. A. Martinez-Martinez,  P. E. Maslen,  N. Nair,  D. P. O'Neill,  
 D. Neuhauser,  E. Neuscamman,  C. M. Oana,  R. Olivares-Amaya,  R. Olson,  
 T. M. Perrine,  B. Peters,  P. A. Pieniazek,  A. Prociuk,  Y. M. Rhee,  
 J. Ritchie,  M. A. Rohrdanz,  E. Rosta,  N. J. Russ,  H. F. Schaefer III,  
 M. W. Schmidt,  N. E. Schultz,  S. Sharma,  N. Shenvi,  C. D. Sherrill,  
 A. C. Simmonett,  A. Sodt,  T. Stein,  D. Stuck,  K. S. Thanthiriwatte,  
 V. Vanovschi,  L. Vogt,  Tao Wang,  A. Warshel,  M. A. Watson,  
 C. F. Williams,  Q. Wu,  X. Xu,  Jun Yang,  W. Zhang,  Yan Zhao

   Please cite Q-Chem as follows:
  "Software for the frontiers of quantum chemistry:
   An overview of developments in the Q-Chem 5 package"
   J. Chem. Phys. 155, 084801 (2021)
   https://doi.org/10.1063/5.0055522 (open access)

 Q-Chem 6.0.0 for Intel X86 EM64T Linux

 Parts of Q-Chem use Armadillo 9.900.5 (Nocturnal Misbehaviour).
 http://arma.sourceforge.net/

 Q-Chem begins on Thu Jul 21 07:14:39 2022  

 Host: nid00538
0

     Scratch files written to /global/cscratch1/sd/ymao90/r7.00_frame_0022_spade_B3LYP_dp20220721031331//
 Processing $rem in /global/homes/y/ymao90/my_qchem/qchem_embedding_5p4/config/preferences:
[...]
          145         146         147         148         149         150
    1  -0.3517912  -0.2703257  -1.1432943  -1.4049503  -3.2991175  -0.4835719
    2   0.7872226   1.2907539  -0.6900006  -1.8381237  -2.4206389  -0.5088118
    3  -1.2505452   2.1095191   2.1457782   0.4991968   1.0880283  -0.8377769
          151         152         153         154         155         156
    1   0.1430489  -3.4847325  -2.1170048  -1.2496875  -2.1440751  -2.9718684
    2  -2.2884936   1.0938794   1.8147307   3.3908073   1.4075444   0.7239538
    3   1.2052748   1.0047903  -2.2864824  -1.5781283  -3.7952501  -0.9270225
          157         158         159         160         161         162
    1   0.0738138  -0.9070689  -2.7470292  -0.5804795   0.4782995   0.2806400
    2   1.4058264  -0.4652793  -0.6428194   0.3298787  -1.1856460   0.5455776
    3  -2.4885586  -2.6279294  -2.2396650  -4.2376004  -1.1067781   0.7555856
          163         164         165         166         167         168
    1  -1.3624771   0.2727406  -2.0178317  -2.8101156  -0.9049806  -0.8540063
    2  -1.6689430  -1.4288624  -3.3870911   0.0307821  -0.8898488  -3.1249132
    3  -2.7421190  -3.0006145  -1.9537351  -2.9105732  -0.8631848   0.0520176
          169         170         171         172         173         174
    1  -1.3265859  -2.3060648   0.6975466  -4.0862334  -2.8303915  -4.0937796
    2  -2.5457471  -3.8383436  -3.1352648  -0.9975715  -0.3770664   0.3795835
    3   1.7893211  -0.8187441  -1.2611268  -0.2763771   1.6191659   0.5854109
          175         176         177         178         179         180
    1  -3.1967641  -1.6899069  -1.0857653  -3.0672661  -1.9070708  -3.8060680
    2  -2.4851722   0.5250542   0.3316947  -0.8627781  -1.4088210  -2.5481749
    3   1.7957146   2.0895048   0.1025613  -0.8817068  -1.8215532   0.3857967
          181         182         183         184         185         186
    1  -3.7733748  -0.6978074   0.1954792  -1.2543775   1.8307052   0.6275694
    2   0.6801224  -2.8859096  -1.7808790  -2.8061761  -2.2349727  -0.0888826
    3  -0.4224815   0.7107948  -0.8772716  -0.9585828  -2.3787570   0.1718044
          187         188         189         190         191         192
    1  -1.4211450  -0.4246113  -0.9662029  -1.6067953   1.6826915   1.2371933
    2  -0.7458672  -1.6103254  -3.1564221  -0.3704935  -1.2039332   0.8457570
    3  -1.9595148  -3.2561426  -2.0872549  -3.8740899  -3.4661785  -2.4954314
          193         194         195         196         197         198
    1   1.1023799   1.5879065  -0.5599988   2.5985041   0.8537552   2.3061153
    2  -1.6910013  -1.2156022  -1.7576594  -1.9713284  -0.0215167   0.6593558
    3   2.4312036   4.1644520   2.0642124   1.3103625   1.4488692   2.7386499
          199         200         201         202         203         204
    1   3.4734857   1.9828157   1.5428013  -1.5461941   1.6191077  -0.2315697
    2  -0.7045649   2.1241813   0.0726309   0.9636367   2.9516517   3.9849751
    3   1.7342300   2.1279959   4.3981066   3.4535914  -1.7111037  -1.2493290
          205         206         207         208         209         210
    1   3.1429216   1.7454914   1.5360409   0.1430152   0.9915077   0.6646609
    2   2.6865591   2.1172132   0.9296914   0.9926921   2.2050741  -0.6476035
    3  -0.5953594  -3.3115188  -1.1498403  -2.4434913  -3.5947975  -1.8905772
          211         212         213         214         215         216
    1  -1.4894068  -0.8507196   0.5979320  -0.0286646   2.6285385  -0.8243773
    2   1.9038061   2.0395390  -0.8344940  -0.6369401  -1.3640298  -0.1177553
    3  -1.6782998   0.5976518  -0.1970487  -1.9263977   0.7357372   0.8468690
          217         218         219         220         221         222
    1   1.2660308   3.2694138   3.9599673   3.5490457   1.8540339   2.8181692
    2   1.0796241   0.5319738   2.0856953  -1.0414444   0.5574650   1.3233028
    3  -1.0737267  -1.3557571  -0.8743500   0.1265552  -2.9654637   1.7674265
          223         224         225         226         227         228
    1   0.9829106  -0.2380567   1.0459287   2.2203646  -0.6781943  -1.9834321
    2  -1.0732040  -0.1001113  -3.1281504  -0.7947408  -1.0232478  -2.4546530
    3   2.0318188   2.2122335   2.8553446   1.2537370   0.5388387   1.4518259
          229         230         231         232         233         234
    1  -2.7018832  -0.4404116  -2.3022298   0.5833284   0.6464822  -0.8908813
    2  -3.2786575  -3.6942287  -1.0812506  -3.8326673  -1.7297091  -3.6758886
    3  -0.0983725   2.4678912   2.0760074  -0.1380249   0.5765558   0.5470271
          235         236         237         238         239         240
    1   1.8903771   0.4723480   0.1227892  -1.6354279  -2.2629282  -0.5369392
    2  -1.6410395  -0.0305022  -0.1636069  -0.9520672  -3.1521775  -0.5970365
    3  -0.6774295   1.4734062  -0.5526667   0.4278195   0.4259274   1.7180396
          241         242         243         244         245         246
    1  -2.1749150  -0.7263057  -0.5457487  -0.1264732   0.3982051  -1.6958120
    2   0.1108330  -3.0516154  -1.9977699  -3.4801085   0.0778263  -2.1127277
    3  -0.6899626  -2.1820931  -0.4245776   0.5707820  -0.0850218  -1.9347257
          247         248         249         250         251         252
    1   0.7426236   2.4395518   3.7590899   1.6690836   1.5637448   1.3869253
    2  -2.6970789  -2.0815409  -1.3894843  -0.5500001  -3.9333862   0.4929457
    3  -1.8295578  -0.1935099  -1.3250973   0.6304840  -0.0661635  -2.5441873
          253         254         255         256         257         258
    1  -1.7326020  -3.6040278  -1.6222440  -0.0453916  -1.2202401  -3.2559289
    2   1.2388157   1.5726957  -0.2691818   1.9250995   0.6309210  -0.4389844
    3   0.1259935  -1.0392857   1.2121519   0.1190840  -1.8062741  -1.7940482
          259         260         261         262
    1  -3.8892309  -2.4358052  -3.4362651  -0.1398077
    2   1.3050938  -1.4055046  -1.2702953  -1.7172927
    3  -1.7769766  -3.0635163   0.1809903   0.0560287
 EField
            1           2           3           4           5           6
    1  -0.0055958  -0.0060839  -0.0008826   0.0015828   0.0018756  -0.0021480
    2   0.0024596   0.0005854  -0.0015245   0.0015981   0.0038996   0.0032083
    3  -0.0023921  -0.0044466  -0.0023354   0.0013280  -0.0010688  -0.0020440
            7           8           9          10          11          12
    1  -0.0017801  -0.0078105  -0.0044785  -0.0068389  -0.0007185   0.0046066
    2  -0.0013333   0.0016551   0.0000784   0.0070186   0.0041863  -0.0009568
    3  -0.0026739  -0.0017392  -0.0033054  -0.0007305   0.0034599   0.0017358
           13          14          15          16          17          18
    1   0.0071519   0.0018448  -0.0039380  -0.0015703   0.0041576  -0.0136157
    2   0.0081562   0.0023226   0.0050703   0.0022213  -0.0061432   0.0005880
    3   0.0013144  -0.0061212  -0.0006477  -0.0033919  -0.0016204  -0.0062094
           19          20          21          22          23          24
    1  -0.0264873  -0.0109977  -0.0092916  -0.0091689  -0.0059470  -0.0009634
    2  -0.0074526   0.0025150   0.0042546   0.0030234  -0.0024593  -0.0309496
    3  -0.0131370  -0.0001296   0.0087933  -0.0022977   0.0007584   0.0065387
           25          26          27          28          29          30
    1  -0.0178074  -0.0197026   0.0053881   0.0034320  -0.0068383  -0.0018014
    2   0.0058871   0.0128008   0.0504390  -0.0052307  -0.0302383   0.0058112
    3   0.0254561  -0.0259653  -0.0166643  -0.0035566   0.0095938  -0.0298613
           31          32          33          34          35          36
    1   0.0270244   0.0389043   0.0102872  -0.0019041   0.0277848  -0.0004926
    2  -0.0010526  -0.0375302  -0.0018787   0.0137980   0.0054425  -0.0316804
    3  -0.0041446   0.0960158  -0.0015513  -0.0300611   0.0225923  -0.0198180
           37          38          39          40          41          42
    1  -0.0028176  -0.0059470  -0.0209295   0.0137695  -0.0116139  -0.0019430
    2  -0.0236055  -0.0035153   0.0205502   0.0144010  -0.0323348   0.1085365
    3   0.0491515  -0.0054819   0.0048205  -0.0291250   0.0115704  -0.0202113
           43          44          45          46          47          48
    1   0.0016799   0.0046879  -0.0277425   0.0175981  -0.0065127   0.0064298
    2  -0.0065718   0.0018883  -0.0108743  -0.0312407  -0.0111265   0.0066642
    3   0.0022765   0.0279805   0.0017108  -0.0047990  -0.0584131   0.0010209
           49          50          51          52          53          54
    1   0.0152653   0.0024074   0.0275052  -0.0661337  -0.0078619  -0.0252109
    2   0.0168325   0.0007123  -0.0176337   0.0725117  -0.0018899   0.0164848
    3  -0.0277538   0.0350593  -0.0075082   0.0500331   0.0005643   0.0104329
           55          56          57          58          59          60
    1  -0.0094270  -0.0098047   0.0422446  -0.0032205  -0.0357957  -0.0007994
    2  -0.0123557  -0.0310272  -0.0288963   0.0044618   0.0066032  -0.0239672
    3  -0.0286289   0.0143781  -0.0108462   0.0092864   0.0003128   0.0234858
           61          62          63          64          65          66
    1   0.0297650  -0.0316890   0.0016312   0.0233537   0.0120973  -0.0207552
    2   0.0075792   0.0941501  -0.0078135  -0.0038928  -0.0097643  -0.0296649
    3   0.0146630  -0.0410279  -0.0018369  -0.0183911   0.0251147  -0.0106833
           67          68          69          70          71          72
    1  -0.0495891   0.0000504   0.0104799   0.0197142  -0.0261964   0.0877849
    2  -0.0047696   0.0015903   0.0304548  -0.0086028  -0.0094620   0.0516594
    3   0.0299220  -0.0071112  -0.0032637  -0.0224934  -0.0138378   0.0428618
           73          74          75          76          77          78
    1  -0.0028471  -0.0018808  -0.0225341  -0.0273632   0.0329148  -0.0050807
    2  -0.0012396  -0.0254567  -0.0211301   0.0049042  -0.0210369   0.0069324
    3  -0.0010884  -0.0254993   0.0200620  -0.0198558   0.0320545   0.0039168
           79          80          81          82          83          84
    1  -0.0184984   0.0142563  -0.0226322   0.0185390   0.0079375   0.0083022
    2  -0.0043994   0.0269777   0.0127493   0.0620254  -0.0042237   0.0214870
    3   0.0313932   0.0025750  -0.0141001  -0.0878080  -0.0061879  -0.0198949
           85          86          87          88          89          90
    1   0.0231693  -0.0173790   0.0236069  -0.0020272  -0.0247614  -0.0222407
    2  -0.0118582  -0.0149949   0.0293263  -0.0107394   0.0053790  -0.0140900
    3   0.0185386  -0.0228068   0.0398529  -0.0016824   0.0143794  -0.0258892
           91          92          93          94          95          96
    1   0.0247353  -0.0739134   0.0032500  -0.0239163  -0.0076216   0.0210895
    2  -0.0105700   0.0399622   0.0055616   0.0028530   0.0299411  -0.0116502
    3   0.0272082  -0.0703944  -0.0049733  -0.0180792   0.0188554  -0.0215656
           97          98          99         100         101         102
    1  -0.0383261   0.0091174   0.0105058   0.0225286   0.0051290   0.0044026
    2   0.0037875   0.0013826  -0.0234228   0.0033554   0.0120712  -0.0810888
    3   0.0409013   0.0018840   0.0191465  -0.0269515   0.0355466  -0.0745934
          103         104         105         106         107         108
    1   0.0016247   0.0282702  -0.0130998  -0.0114529  -0.0440145   0.0069327
    2  -0.0096131  -0.0166782   0.0013717  -0.0241661   0.0338085  -0.0064420
    3   0.0054009   0.0132923   0.0259387  -0.0197967  -0.0189691  -0.0077163
          109         110         111         112         113         114
    1  -0.0077385   0.0356604  -0.0151135   0.0853548  -0.0078477  -0.0285405
    2   0.0111769  -0.0074606  -0.0274316   0.0428819   0.0018934  -0.0149721
    3  -0.0321701   0.0059557  -0.0244943   0.0594714  -0.0029999   0.0031263
          115         116         117         118         119         120
    1   0.0058529  -0.0134407   0.0445485  -0.0049230   0.0140121  -0.0228671
    2   0.0117950   0.0214673   0.0310382  -0.0057388  -0.0278381  -0.0172238
    3   0.0281326  -0.0285226  -0.0173803  -0.0050355  -0.0029160   0.0053698
          121         122         123         124         125         126
    1  -0.0090589  -0.0001961   0.0075127  -0.0001902   0.0012978   0.0254182
    2   0.0111987  -0.0570639   0.0052396  -0.0004709   0.0303003  -0.0113694
    3  -0.0287969   0.0945408  -0.0033035  -0.0329533   0.0093035   0.0194064
          127         128         129         130         131         132
    1  -0.0031652  -0.0035720  -0.0048115  -0.0281937   0.0003009  -0.0128440
    2  -0.0555293   0.0014141  -0.0027565  -0.0055633   0.0310860   0.0455018
    3  -0.0075148  -0.0039595  -0.0351568   0.0118719   0.0010350   0.1003108
          133         134         135         136         137         138
    1  -0.0023596   0.0083615  -0.0334374   0.0173490  -0.0273017  -0.0032924
    2   0.0042781   0.0139924   0.0052348   0.0168516  -0.0345804   0.0000070
    3  -0.0012755  -0.0280789   0.0066113   0.0180741  -0.0336681   0.0013025
          139         140         141         142         143         144
    1   0.0003930   0.0194404  -0.0330392   0.1086707   0.0064985   0.0295863
    2  -0.0283006   0.0199719  -0.0149982   0.0201224   0.0049711  -0.0163559
    3   0.0209191   0.0136694   0.0046173  -0.0028711  -0.0025277  -0.0027868
          145         146         147         148         149         150
    1  -0.0032980   0.0063047   0.0075848   0.0054838  -0.0276833   0.0017326
    2   0.0110252   0.0260046  -0.0163003  -0.0037388  -0.0088449   0.0001555
    3  -0.0279876   0.0155050   0.0564414  -0.0072578  -0.0000812  -0.0349343
          151         152         153         154         155         156
    1   0.0244410  -0.0842026  -0.0077770   0.0046221  -0.0129866  -0.0226102
    2  -0.0206041   0.0664873   0.0023941   0.0304549  -0.0057175  -0.0177469
    3   0.0098400  -0.0262255   0.0030478   0.0096152  -0.0292476   0.0160907
          157         158         159         160         161         162
    1   0.0416508  -0.0028981  -0.0277390   0.0043366   0.0173192   0.0133952
    2   0.0278230  -0.0115398  -0.0110861  -0.0020794  -0.0206891  -0.0161883
    3  -0.0333274  -0.0010829   0.0065551  -0.0311566   0.0147927   0.1087427
          163         164         165         166         167         168
    1  -0.0010734   0.0277140  -0.0149708  -0.0227395   0.0355870   0.0009438
    2  -0.0012624   0.0004796  -0.0272154   0.0166049   0.0465504  -0.0074610
    3  -0.0055463  -0.0182221  -0.0035793  -0.0126010   0.0092056  -0.0007303
          169         170         171         172         173         174
    1   0.0006211  -0.0199985   0.0337812  -0.1089236  -0.0057845  -0.0313739
    2   0.0034059  -0.0289119  -0.0085046   0.0063666   0.0021405   0.0207865
    3   0.0283276  -0.0008683  -0.0017668   0.0170762   0.0075268   0.0046445
          175         176         177         178         179         180
    1  -0.0051131   0.0092412   0.0313973  -0.0064323   0.0134869  -0.0184988
    2  -0.0317976   0.0234348   0.0426832  -0.0018591  -0.0015241  -0.0273297
    3  -0.0002027   0.0232347  -0.0109542  -0.0030168  -0.0287463   0.0054578
          181         182         183         184         185         186
    1  -0.0216940   0.0344852   0.0046754  -0.0192022   0.0359244   0.0078535
    2   0.0273729  -0.1004506  -0.0078401  -0.0270389  -0.0193909   0.0242693
    3  -0.0157230   0.0176136   0.0061899   0.0108446   0.0039076   0.0179722
          187         188         189         190         191         192
    1  -0.0558389   0.0040341  -0.0051313  -0.0229098   0.0330428   0.0822381
    2   0.0192758  -0.0054810  -0.0346484   0.0162229  -0.0001173   0.0703955
    3   0.0144871  -0.0069182   0.0012999  -0.0179289  -0.0058282  -0.0129021
          193         194         195         196         197         198
    1  -0.0006267  -0.0004240  -0.0225015   0.0166648   0.0058986   0.0062490
    2  -0.0080615   0.0012512  -0.0211868  -0.0135340   0.0062371   0.0067539
    3   0.0046907   0.0375162  -0.0058349  -0.0273515  -0.0673130   0.0064344
          199         200         201         202         203         204
    1   0.0298117  -0.0011004  -0.0025389  -0.0875526   0.0016516  -0.0210605
    2  -0.0109869   0.0322112   0.0008397   0.0412241   0.0091198   0.0228204
    3  -0.0111527  -0.0047753   0.0335144   0.0513216  -0.0035926   0.0091068
          205         206         207         208         209         210
    1   0.0222095   0.0015490   0.0442165  -0.0094770   0.0077209  -0.0031582
    2   0.0106152  -0.0025707  -0.0399220  -0.0014733   0.0148456  -0.0316162
    3   0.0250058  -0.0336722   0.0142414  -0.0064710  -0.0263619   0.0017727
          211         212         213         214         215         216
    1  -0.0281815  -0.0745968  -0.0031670  -0.0097108   0.0225322  -0.0263799
    2   0.0069882   0.0325833  -0.0031988  -0.0174421  -0.0176889   0.0070283
    3   0.0047528   0.0736629   0.0039108  -0.0194805   0.0104327   0.0241809
          217         218         219         220         221         222
    1  -0.0333342   0.0061443   0.0223895   0.0208386   0.0054856   0.0366194
    2   0.0340566  -0.0045390   0.0213450  -0.0261774  -0.0118373   0.0243485
    3  -0.0280123  -0.0015605   0.0024741   0.0029993  -0.0356929   0.1012220
          223         224         225         226         227         228
    1   0.0036656  -0.0053434   0.0050782   0.0241889  -0.0169766  -0.0047134
    2   0.0007557   0.0293444  -0.0285108   0.0190904   0.0510811  -0.0061960
    3   0.0094546   0.0205332   0.0191904  -0.0087366  -0.0339491   0.0053696
          229         230         231         232         233         234
    1  -0.0244315   0.0124807  -0.0203708   0.0475974   0.0009690  -0.0092748
    2  -0.0096035  -0.0286059   0.0260049  -0.0868382  -0.0063135  -0.0298531
    3  -0.0180001   0.0174032   0.0066907  -0.0461894   0.0051493   0.0110060
          235         236         237         238         239         240
    1   0.0287799   0.0024346   0.0173754  -0.0107980  -0.0117806  -0.0049369
    2  -0.0142768   0.0171420   0.0575692   0.0048335  -0.0285614   0.0174149
    3  -0.0000774   0.0259950  -0.0134100   0.0061701  -0.0024725   0.0285799
          241         242         243         244         245         246
    1  -0.0139627  -0.0239309  -0.0086375  -0.0098200   0.0081652  -0.0333725
    2   0.0304427  -0.0776741   0.0033227  -0.0222400   0.0252924  -0.0040390
    3  -0.0143771  -0.0703641   0.0039420   0.0233839   0.0081934  -0.0063582
          247         248         249         250         251         252
    1  -0.0065174   0.0036237   0.0274507   0.0022963   0.0073494   0.0162361
    2  -0.0430882   0.0017655   0.0037564   0.0118534  -0.0300908   0.1004949
    3  -0.0286590   0.0041644  -0.0135531   0.0318584   0.0237112  -0.0399240
          253         254         255         256         257         258
    1  -0.0005470  -0.0283266   0.0003723   0.0259285   0.0274591  -0.0067552
    2  -0.0012395   0.0152418  -0.0185530   0.0147455   0.0243268  -0.0040549
    3   0.0095528   0.0065742   0.0229601   0.0059069  -0.0377482   0.0044546
          259         260         261         262
    1  -0.0261138   0.0007683  -0.0045303   0.0507975
    2   0.0181180  -0.0177891  -0.0196074  -0.0839405
    3  -0.0130072  -0.0222703   0.0247539   0.0613697
  --- DONE ESP SUMMARY ---
 Total job time:  25.54s(wall), 69.38s(cpu) 
 Thu Jul 21 07:15:04 2022

        *************************************************************
        *                                                           *
        *  Thank you very much for using Q-Chem.  Have a nice day.  *
        *                                                           *
        *************************************************************


