                  Welcome to Q-Chem
     A Quantum Leap Into The Future Of Chemistry


 Q-Chem 6.0 (devel), Q-Chem, Inc., Pleasanton, CA (2022)

 E. Epifanovsky,  A. T. B. Gilbert,  Xintian Feng,  Joonho Lee,  Yuezhi Mao,  
 N. Mardirossian,  P. Pokhilko,  A. White,  M. Wormit,  M. P. Coons,  
 A. L. Dempwolff,  Zhengting Gan,  D. Hait,  P. R. Horn,  L. D. Jacobson,  
 I. Kaliman,  J. Kussmann,  A. W. Lange,  Ka Un Lao,  D. S. Levine,  Jie Liu,  
 S. C. McKenzie,  A. F. Morrison,  K. Nanda,  F. Plasser,  D. R. Rehn,  
 M. L. Vidal,  Zhi-Qiang You,  Ying Zhu,  B. Alam,  B. Albrecht,  
 A. Aldossary,  E. Alguire,  J. H. Andersen,  V. Athavale,  D. Barton,  
 K. Begam,  A. Behn,  N. Bellonzi,  Y. A. Bernard,  E. J. Berquist,  
 H. Burton,  A. Carreras,  K. Carter-Fenk,  Romit Chakraborty,  
 Chandrima Chakravarty,  Junhan Chen,  A. D. Chien,  K. D. Closser,  
 V. Cofer-Shabica,  L. Cunha,  S. Dasgupta,  Jia Deng,  M. de Wergifosse,  
 M. Diedenhofen,  Hainam Do,  S. Ehlert,  Po-Tung Fang,  S. Fatehi,  
 Qingguo Feng,  T. Friedhoff,  B. Ganoe,  J. Gayvert,  Qinghui Ge,  
 G. Gidofalvi,  M. Goldey,  J. Gomes,  C. Gonzalez-Espinoza,  S. Gulania,  
 A. Gunina,  J. A. Gyamfi,  M. W. D. Hanson-Heine,  P. H. P. Harbach,  
 A. W. Hauser,  M. F. Herbst,  M. Hernandez Vera,  M. Hodecker,  
 Z. C. Holden,  S. Houck,  Xunkun Huang,  Kerwin Hui,  B. C. Huynh,  
 K. Ikeda,  M. Ivanov,  Hyunjun Ji,  Zuxin Jin,  Hanjie Jiang,  B. Kaduk,  
 S. Kaehler,  R. Kang,  K. Khistyaev,  Jaehoon Kim,  Yongbin Kim,  
 P. Klunzinger,  Z. Koczor-Benda,  Joong Hoon Koh,  D. Kosenkov,  
 Saikiran Kotaru,  L. Koulias,  T. Kowalczyk,  C. M. Krauter,  K. Kue,  
 A. Kunitsa,  T. Kus,  A. Landau,  K. V. Lawler,  D. Lefrancois,  S. Lehtola,  
 Rain Li,  Shaozhi Li,  Yi-Pei Li,  Jiashu Liang,  M. Liebenthal,  
 Hung-Hsuan Lin,  You-Sheng Lin,  Fenglai Liu,  Kuan-Yu Liu,  
 M. Loipersberger,  A. Luenser,  C. Malbon,  A. Manjanath,  P. Manohar,  
 E. Mansoor,  S. F. Manzer,  Shan-Ping Mao,  A. V. Marenich,  T. Markovich,  
 S. Mason,  F. Matz,  S. A. Maurer,  P. F. McLaughlin,  M. F. S. J. Menger,  
 J.-M. Mewes,  S. A. Mewes,  P. Morgante,  Mohammad Mostafanejad,  
 J. W. Mullinax,  K. J. Oosterbaan,  G. Paran,  V. Parravicini,  
 Alexander C. Paul,  Suranjan K. Paul,  F. Pavosevic,  Zheng Pei,  S. Prager,  
 E. I. Proynov,  E. Ramos,  B. Rana,  A. E. Rask,  A. Rettig,  R. M. Richard,  
 F. Rob,  E. Rossomme,  T. Scheele,  M. Scheurer,  M. Schneider,  
 P. E. Schneider,  N. Sergueev,  S. M. Sharada,  Hengyuan Shen,  
 W. Skomorowski,  D. W. Small,  C. J. Stein,  Yingli Su,  Yu-Chuan Su,  
 E. J. Sundstrom,  Zhen Tao,  J. Thirman,  Hung-Yi Tsai,  T. Tsuchimochi,  
 N. M. Tubman,  C. Utku,  S. P. Veccham,  O. Vydrov,  J. Wenzel,  
 Jonathan Wong,  J. Witte,  A. Yamada,  Chou-Hsun Yang,  Kun Yao,  
 S. Yeganeh,  S. R. Yost,  A. Zech,  F. Zeller,  Igor Ying Zhang,  
 Xing Zhang,  Yu Zhang,  D. Zuev,  A. Aspuru-Guzik,  A. T. Bell,  
 N. A. Besley,  K. B. Bravaya,  B. R. Brooks,  D. Casanova,  Jeng-Da Chai,  
 Hsing-Ta Chen,  S. Coriani,  C. J. Cramer,  A. E. DePrince, III,  
 R. A. DiStasio Jr.,  A. Dreuw,  B. D. Dunietz,  T. R. Furlani,  
 W. A. Goddard III,  S. Grimme,  S. Hammes-Schiffer,  T. Head-Gordon,  
 W. J. Hehre,  Chao-Ping Hsu,  T.-C. Jagau,  Yousung Jung,  A. Klamt,  
 Jing Kong,  D. S. Lambrecht,  Xiangyuan Li,  WanZhen Liang,  N. J. Mayhall,  
 C. W. McCurdy,  J. B. Neaton,  T. Neudecker,  C. Ochsenfeld,  
 J. A. Parkhill,  R. Peverati,  V. A. Rassolov,  Haisheng Ren,  Yihan Shao,  
 L. V. Slipchenko,  R. P. Steele,  J. E. Subotnik,  A. J. W. Thom,  
 A. Tkatchenko,  D. G. Truhlar,  T. Van Voorhis,  Fan Wang,  
 T. A. Wesolowski,  K. B. Whaley,  H. L. Woodcock III,  P. M. Zimmerman,  
 S. Faraji,  P. M. W. Gill,  M. Head-Gordon,  J. M. Herbert,  A. I. Krylov

 Contributors to earlier versions of Q-Chem not listed above: 
 R. D. Adamson,  B. Austin,  R. Baer,  J. Baker,  G. J. O. Beran,  
 K. Brandhorst,  S. T. Brown,  E. F. C. Byrd,  Arup K. Chakraborty,  
 G. K. L. Chan,  Chun-Min Chang,  Yunqing Chen,  C.-L. Cheng,  
 Siu Hung Chien,  D. M. Chipman,  D. L. Crittenden,  H. Dachsel,  
 R. J. Doerksen,  A. D. Dutoi,  R. G. Edgar,  J. Fosso-Tande,  
 L. Fusti-Molnar,  D. Ghosh,  A. Ghysels,  A. Golubeva-Zadorozhnaya,  
 J. Gonthier,  M. S. Gordon,  S. R. Gwaltney,  G. Hawkins,  J. E. Herr,  
 A. Heyden,  S. Hirata,  E. G. Hohenstein,  G. Kedziora,  F. J. Keil,  
 C. Kelley,  Jihan Kim,  R. A. King,  R. Z. Khaliullin,  P. P. Korambath,  
 W. Kurlancheek,  A. Laurent,  A. M. Lee,  M. S. Lee,  S. V. Levchenko,  
 Ching Yeh Lin,  D. Liotard,  E. Livshits,  R. C. Lochan,  I. Lotan,  
 L. A. Martinez-Martinez,  P. E. Maslen,  N. Nair,  D. P. O'Neill,  
 D. Neuhauser,  E. Neuscamman,  C. M. Oana,  R. Olivares-Amaya,  R. Olson,  
 T. M. Perrine,  B. Peters,  P. A. Pieniazek,  A. Prociuk,  Y. M. Rhee,  
 J. Ritchie,  M. A. Rohrdanz,  E. Rosta,  N. J. Russ,  H. F. Schaefer III,  
 M. W. Schmidt,  N. E. Schultz,  S. Sharma,  N. Shenvi,  C. D. Sherrill,  
 A. C. Simmonett,  A. Sodt,  T. Stein,  D. Stuck,  K. S. Thanthiriwatte,  
 V. Vanovschi,  L. Vogt,  Tao Wang,  A. Warshel,  M. A. Watson,  
 C. F. Williams,  Q. Wu,  X. Xu,  Jun Yang,  W. Zhang,  Yan Zhao

   Please cite Q-Chem as follows:
  "Software for the frontiers of quantum chemistry:
   An overview of developments in the Q-Chem 5 package"
   J. Chem. Phys. 155, 084801 (2021)
   https://doi.org/10.1063/5.0055522 (open access)

 Q-Chem 6.0.0 for Intel X86 EM64T Linux

 Parts of Q-Chem use Armadillo 9.900.5 (Nocturnal Misbehaviour).
 http://arma.sourceforge.net/

 Q-Chem begins on Thu Jul 21 03:14:50 2022  

 Host: nid00541
0

     Scratch files written to /global/cscratch1/sd/ymao90/r7.00_frame_0097_spade_B3LYP_dp20220721031333//
 Processing $rem in /global/homes/y/ymao90/my_qchem/qchem_embedding_5p4/config/preferences:
 Processing $rem in /global/homes/y/ymao90/.qchemrc:
 No nuclear gradient supported for projection-based embedding or EMFT. Set max ideriv = 0.

 Checking the input file for inconsistencies... 	...done.

--------------------------------------------------------------
User input:
--------------------------------------------------------------
$molecule
0 1
--
0 1
C    24.89600   30.74100   26.04200  
C    26.01000   29.86300   26.63600  
C    25.55600   28.41400   26.40000  
C    25.29600   28.06200   24.92600  
C    24.21000   28.98900   24.35500  
C    24.60800   30.46000   24.55800  
H    26.41900   27.78000   26.63900  
H    26.92000   29.98000   26.03600  
H    23.98500   30.46600   26.58700  
H    25.03400   31.81800   26.19800  
H    26.20400   28.22100   24.33100  
H    24.95100   27.04600   24.70000  
H    24.16600   28.80100   23.27600  
H    23.28500   28.76400   24.90100  
H    25.48300   30.74600   23.96100  
H    23.82400   31.11000   24.15000  
H    24.65900   28.21100   26.99700  
N    26.17800   30.15100   28.06000  
H    25.89100   29.38800   28.66200  
C    27.00200   31.17400   28.47800  
H    27.18500   31.24200   29.56600  
O    27.46500   32.02600   27.74000  
--
0 1
C    22.32900   24.46200   21.83200  
H    23.30400   23.96700   21.81700  
H    21.48600   23.82200   22.10500  
H    22.19700   24.85200   20.82000  
S    22.50200   25.91200   22.89800  
C    20.99000   26.78100   22.42400  
H    20.17900   26.44100   23.07300  
H    21.15400   27.85300   22.56100  
H    20.82700   26.62700   21.35400  
O    23.58600   26.52700   22.06900  
C    32.21000   29.81600   28.81800  
H    31.81300   29.31100   27.93400  
H    33.27600   30.02100   28.69300  
H    32.04900   29.29900   29.76800  
S    31.31400   31.36700   29.05600  
C    31.06100   31.54300   27.27600  
H    30.46900   30.70000   26.91100  
H    30.57100   32.51900   27.22400  
H    31.98100   31.54100   26.68700  
O    32.32700   32.39700   29.44800  
C    23.69600   26.98500   17.59200  
H    23.05300   26.42000   18.27200  
H    23.16700   27.80000   17.09000  
H    24.27600   26.33700   16.93000  
S    25.01800   27.61700   18.65000  
C    23.87700   28.75300   19.46900  
H    23.27700   28.11700   20.12500  
H    24.61400   29.38400   19.97300  
H    23.25500   29.28300   18.74300  
O    25.93500   28.49200   17.85400  
C    27.28000   35.80100   26.41900  
H    28.06500   36.55700   26.49700  
H    26.31700   36.28300   26.60500  
H    27.54400   34.97200   27.08100  
S    27.30700   35.23600   24.70300  
C    26.52400   33.62600   24.94800  
H    25.57300   33.92600   25.39600  
H    26.38000   33.12100   23.98900  
H    26.97000   32.96800   25.69700  
O    28.72300   34.92500   24.32800  
C    25.89300   31.73500   17.79600  
H    24.97700   31.15900   17.95000  
H    25.64000   32.78800   17.65100  
H    26.34900   31.34200   16.88300  
S    27.08300   31.59700   19.14900  
C    26.10600   32.50100   20.37100  
H    25.80700   33.49100   20.01600  
H    25.28000   31.81400   20.57100  
H    26.71200   32.60000   21.27500  
O    28.24500   32.49400   18.85600  
C    28.89000   31.49000   24.05800  
H    28.39100   32.06900   23.27700  
H    28.13400   31.25400   24.81100  
H    29.70100   31.96700   24.61400  
S    29.45500   30.01100   23.18600  
C    30.92300   30.66900   22.36400  
H    31.59300   31.03300   23.14600  
H    31.35400   29.93400   21.67900  
H    30.51900   31.50200   21.78300  
O    28.50000   29.95500   22.03400  
C    27.65800   23.93700   30.83000  
H    28.64300   24.27000   31.16900  
H    27.15200   23.97500   31.79800  
H    27.68800   22.94600   30.37100  
S    27.05900   25.04300   29.53300  
C    25.35600   25.07200   30.13600  
H    25.04000   24.06300   30.41400  
H    25.28500   25.69900   31.02800  
H    24.71300   25.43200   29.32800  
O    26.78700   23.98700   28.50700  
C    25.60200   23.83800   23.72100  
H    26.14700   23.15900   23.05900  
H    25.19700   24.71000   23.20300  
H    26.21000   24.05700   24.60300  
S    24.18200   22.91000   24.34300  
C    24.02100   23.81000   25.90200  
H    24.93100   23.63100   26.48100  
H    23.85400   24.85800   25.64000  
H    23.23400   23.49400   26.59100  
O    24.76000   21.58000   24.71300  
C    29.22800   26.39600   23.20500  
H    28.68300   25.97100   24.05200  
H    30.26600   26.06300   23.13500  
H    29.24400   27.48700   23.27500  
S    28.41700   26.00700   21.63800  
C    26.88100   26.93600   21.84400  
H    26.35700   26.88000   20.88600  
H    26.27900   26.50800   22.65000  
H    27.02000   27.98800   22.10500  
O    27.96900   24.58200   21.74500  
C    22.59200   37.67700   21.19200  
H    23.02500   38.43500   21.84900  
H    23.39200   37.18300   20.63400  
H    21.83700   38.15800   20.56600  
S    21.78600   36.31700   22.06700  
C    23.24200   35.49600   22.75400  
H    23.76400   36.22400   23.38000  
H    22.91600   34.63700   23.34700  
H    23.89800   35.19000   21.93500  
O    21.41900   35.29700   21.03500  
C    24.21600   27.05800   34.61600  
H    23.69500   26.89500   33.66900  
H    23.47400   27.18300   35.40900  
H    24.85700   27.94000   34.54000  
S    25.31700   25.65300   34.89500  
C    26.39900   26.47000   36.09000  
H    26.79100   27.37900   35.62700  
H    25.91500   26.79100   37.01600  
H    27.17900   25.74100   36.32300  
O    26.02200   25.59900   33.57500  
C    17.55800   31.05400   24.61900  
H    16.72500   30.35300   24.71800  
H    17.03600   32.01300   24.59300  
H    18.10700   30.93000   23.68200  
S    18.63100   30.67900   26.02300  
C    17.61300   31.54300   27.24100  
H    17.46100   32.55500   26.85500  
H    16.70000   30.97500   27.43600  
H    18.17500   31.59700   28.17700  
O    19.76700   31.65400   26.01600  
C    31.04400   36.30100   30.17000  
H    31.06100   37.17400   30.82800  
H    30.29200   35.55900   30.44800  
H    32.02100   35.81900   30.26600  
S    30.83400   36.94900   28.49600  
C    30.41600   35.41200   27.64400  
H    31.30300   34.77600   27.69800  
H    29.53300   34.89300   28.02700  
H    30.22000   35.70100   26.60800  
O    32.24200   37.17300   28.03800  
C    18.94500   26.78700   26.04400  
H    18.31700   27.45100   26.64200  
H    19.04400   27.17800   25.02800  
H    18.46300   25.81500   26.17900  
S    20.57700   26.75000   26.81800  
C    20.92800   28.50400   26.56200  
H    21.94600   28.73500   26.88600  
H    20.77000   28.75700   25.51100  
H    20.26100   29.03300   27.24700  
O    21.44300   26.01100   25.84500  
C    31.21100   33.28500   33.32800  
H    30.67700   33.69200   34.19100  
H    31.22100   34.14900   32.65800  
H    30.47900   32.52500   33.04400  
S    32.77400   32.53600   33.84000  
C    32.96500   31.35100   32.48900  
H    33.88100   30.79800   32.71100  
H    32.08500   30.70300   32.48300  
H    33.13600   31.84700   31.53000  
O    32.37200   31.56700   34.90700  
C    19.70600   34.64400   30.47000  
H    19.64000   34.23500   29.45800  
H    18.83300   34.31900   31.04200  
H    19.85500   35.72600   30.50800  
S    21.00500   33.82700   31.42400  
C    20.09100   32.29100   31.68800  
H    19.90700   31.85800   30.70200  
H    20.81200   31.73300   32.29200  
H    19.20400   32.56800   32.26300  
O    20.75800   34.51900   32.72900  
C    22.79100   32.42400   35.60200  
H    22.08100   32.46600   36.43200  
H    23.71100   32.95800   35.85400  
H    22.23300   32.87300   34.77700  
S    23.10900   30.71300   35.11400  
C    23.98100   31.37200   33.67600  
H    24.48500   30.54400   33.16900  
H    23.32300   31.91500   32.99300  
H    24.75100   32.06400   34.02600  
O    21.85000   30.33300   34.39900  
C    22.69400   27.46600   29.71900  
H    22.81700   26.50900   30.23200  
H    21.72300   27.93000   29.91000  
H    22.92700   27.49800   28.65200  
S    23.93500   28.49000   30.54300  
C    23.38500   30.07900   29.88100  
H    22.29400   30.06100   29.80900  
H    23.65600   30.95200   30.48000  
H    23.73800   30.33600   28.87900  
O    25.15800   28.19100   29.73400  
C    25.19800   21.59700   20.51500  
H    25.18300   21.94200   21.55300  
H    24.25200   21.81100   20.01300  
H    25.45400   20.53900   20.41700  
S    26.43200   22.70300   19.79400  
C    25.34300   24.14600   19.79600  
H    24.29300   23.84800   19.84800  
H    25.57500   24.73300   20.68800  
H    25.54500   24.66900   18.85800  
O    26.56100   22.36300   18.34200  
C    29.80800   27.03500   27.84200  
H    29.39600   27.48400   28.75000  
H    30.75400   27.47000   27.50900  
H    29.14700   27.11400   26.97500  
S    30.28800   25.34700   28.27300  
C    31.52600   25.62300   29.56100  
H    32.23000   26.36300   29.17300  
H    31.15300   25.94800   30.53600  
H    32.08800   24.69700   29.70600  
O    31.17500   25.06000   27.10200  
C    23.01600   39.15600   27.09200  
H    21.95300   39.39100   26.99900  
H    23.21000   38.47300   27.92300  
H    23.71700   39.99400   27.06500  
S    23.27300   38.19100   25.58600  
C    25.06300   38.36700   25.41200  
H    25.32900   37.89200   24.46400  
H    25.16400   39.45500   25.37700  
H    25.62500   38.09200   26.30800  
O    22.69400   39.09600   24.54400  
C    18.86200   23.49300   29.03400  
H    18.61700   24.53000   28.79200  
H    18.97500   22.89800   28.12400  
H    18.06300   23.02800   29.61800  
S    20.38300   23.26800   29.98300  
C    20.39000   24.91200   30.73300  
H    21.13100   25.15100   31.50000  
H    20.49200   25.62700   29.91300  
H    19.38900   24.96200   31.16900  
O    21.46400   23.35400   28.95100  
C    24.16600   34.38900   28.86100  
H    24.47400   33.34300   28.78600  
H    24.96400   35.09600   28.61700  
H    23.87400   34.69200   29.86900  
S    22.88500   34.79500   27.65300  
C    22.12000   33.16000   27.72900  
H    21.36500   33.09900   26.94200  
H    22.94600   32.46300   27.56400  
H    21.71300   33.00900   28.73200  
O    23.52900   34.70800   26.30400  
C    20.94700   32.45000   22.92600  
H    21.68500   32.92000   23.58100  
H    21.06000   32.90600   21.93900  
H    19.92200   32.67300   23.23100  
S    21.20500   30.66200   22.93900  
C    22.38200   30.76000   21.57200  
H    22.04900   31.37900   20.73500  
H    23.26400   31.26000   21.98100  
H    22.55700   29.73500   21.23600  
O    19.93800   30.19400   22.29200  
C    29.27300   31.64900   36.76600  
H    29.03300   30.98700   37.60200  
H    29.78700   31.14900   35.94100  
H    29.89000   32.44600   37.19000  
S    27.77300   32.34100   36.03300  
C    26.93900   32.38100   37.63600  
H    26.73700   31.36100   37.97200  
H    27.56800   32.96000   38.31700  
H    26.00200   32.93000   37.51600  
O    27.07500   31.21000   35.34300  
C    28.44800   22.47200   25.78200  
H    27.68600   22.27700   25.02200  
H    28.31900   21.77700   26.61500  
H    28.26100   23.50000   26.10500  
S    30.11400   22.12100   25.17700  
C    30.41200   23.54600   24.10600  
H    30.43800   24.37200   24.82100  
H    31.32500   23.49700   23.50700  
H    29.53000   23.59600   23.46100  
O    30.13200   20.94500   24.25100  
C    27.75000   28.93500   32.11600  
H    27.13300   28.79700   33.00800  
H    27.90700   29.99300   31.89300  
H    27.36000   28.44500   31.22000  
S    29.35400   28.19300   32.49300  
C    29.63900   29.22900   33.94600  
H    28.78300   29.20800   34.62500  
H    30.53000   28.78700   34.39900  
H    29.92400   30.24000   33.64300  
O    30.32800   28.77600   31.51700  
C    26.03200   34.66200   32.88700  
H    25.04500   34.76300   32.42800  
H    26.02100   34.20600   33.88000  
H    26.49900   35.64300   33.00800  
S    26.99300   33.55500   31.83100  
C    27.17400   34.61800   30.38100  
H    27.30000   33.92000   29.55000  
H    26.35000   35.31100   30.19400  
H    28.09600   35.20300   30.44600  
O    25.98200   32.58300   31.30900  
$end

$rem
JOBTYPE  SP
METHOD  B3LYP
BASIS  6-31+G(D)
SYMMETRY  FALSE
SYM_IGNORE  TRUE
MEM_TOTAL  12000
MEM_STATIC  4000
BASIS_LIN_DEP_THRESH  6
THRESH  14
SCF_CONVERGENCE  8
FD_MAT_VEC_PROD  FALSE
XC_GRID  000075000302
NL_GRID  1
MAX_SCF_CYCLES  200
ENV_METHOD  B3LYP
GEN_SCFMAN_EMBED  TRUE
SPADE_PARTITION  TRUE
EMBEDDING_EARLY_STOP  TRUE
$end

--------------------------------------------------------------
 ----------------------------------------------------------------
             Standard Nuclear Orientation (Angstroms)
    I     Atom           X                Y                Z
 ----------------------------------------------------------------
    1      C      24.8960000000    30.7410000000    26.0420000000
    2      C      26.0100000000    29.8630000000    26.6360000000
    3      C      25.5560000000    28.4140000000    26.4000000000
    4      C      25.2960000000    28.0620000000    24.9260000000
    5      C      24.2100000000    28.9890000000    24.3550000000
    6      C      24.6080000000    30.4600000000    24.5580000000
    7      H      26.4190000000    27.7800000000    26.6390000000
    8      H      26.9200000000    29.9800000000    26.0360000000
    9      H      23.9850000000    30.4660000000    26.5870000000
   10      H      25.0340000000    31.8180000000    26.1980000000
   11      H      26.2040000000    28.2210000000    24.3310000000
   12      H      24.9510000000    27.0460000000    24.7000000000
   13      H      24.1660000000    28.8010000000    23.2760000000
   14      H      23.2850000000    28.7640000000    24.9010000000
   15      H      25.4830000000    30.7460000000    23.9610000000
   16      H      23.8240000000    31.1100000000    24.1500000000
   17      H      24.6590000000    28.2110000000    26.9970000000
   18      N      26.1780000000    30.1510000000    28.0600000000
   19      H      25.8910000000    29.3880000000    28.6620000000
   20      C      27.0020000000    31.1740000000    28.4780000000
   21      H      27.1850000000    31.2420000000    29.5660000000
   22      O      27.4650000000    32.0260000000    27.7400000000
   23      C      22.3290000000    24.4620000000    21.8320000000
   24      H      23.3040000000    23.9670000000    21.8170000000
   25      H      21.4860000000    23.8220000000    22.1050000000
   26      H      22.1970000000    24.8520000000    20.8200000000
   27      S      22.5020000000    25.9120000000    22.8980000000
   28      C      20.9900000000    26.7810000000    22.4240000000
   29      H      20.1790000000    26.4410000000    23.0730000000
   30      H      21.1540000000    27.8530000000    22.5610000000
   31      H      20.8270000000    26.6270000000    21.3540000000
   32      O      23.5860000000    26.5270000000    22.0690000000
   33      C      32.2100000000    29.8160000000    28.8180000000
   34      H      31.8130000000    29.3110000000    27.9340000000
   35      H      33.2760000000    30.0210000000    28.6930000000
   36      H      32.0490000000    29.2990000000    29.7680000000
   37      S      31.3140000000    31.3670000000    29.0560000000
   38      C      31.0610000000    31.5430000000    27.2760000000
   39      H      30.4690000000    30.7000000000    26.9110000000
   40      H      30.5710000000    32.5190000000    27.2240000000
   41      H      31.9810000000    31.5410000000    26.6870000000
   42      O      32.3270000000    32.3970000000    29.4480000000
   43      C      23.6960000000    26.9850000000    17.5920000000
   44      H      23.0530000000    26.4200000000    18.2720000000
   45      H      23.1670000000    27.8000000000    17.0900000000
   46      H      24.2760000000    26.3370000000    16.9300000000
   47      S      25.0180000000    27.6170000000    18.6500000000
   48      C      23.8770000000    28.7530000000    19.4690000000
   49      H      23.2770000000    28.1170000000    20.1250000000
   50      H      24.6140000000    29.3840000000    19.9730000000
   51      H      23.2550000000    29.2830000000    18.7430000000
   52      O      25.9350000000    28.4920000000    17.8540000000
   53      C      27.2800000000    35.8010000000    26.4190000000
   54      H      28.0650000000    36.5570000000    26.4970000000
   55      H      26.3170000000    36.2830000000    26.6050000000
   56      H      27.5440000000    34.9720000000    27.0810000000
   57      S      27.3070000000    35.2360000000    24.7030000000
   58      C      26.5240000000    33.6260000000    24.9480000000
   59      H      25.5730000000    33.9260000000    25.3960000000
   60      H      26.3800000000    33.1210000000    23.9890000000
   61      H      26.9700000000    32.9680000000    25.6970000000
   62      O      28.7230000000    34.9250000000    24.3280000000
   63      C      25.8930000000    31.7350000000    17.7960000000
   64      H      24.9770000000    31.1590000000    17.9500000000
   65      H      25.6400000000    32.7880000000    17.6510000000
   66      H      26.3490000000    31.3420000000    16.8830000000
   67      S      27.0830000000    31.5970000000    19.1490000000
   68      C      26.1060000000    32.5010000000    20.3710000000
   69      H      25.8070000000    33.4910000000    20.0160000000
   70      H      25.2800000000    31.8140000000    20.5710000000
   71      H      26.7120000000    32.6000000000    21.2750000000
   72      O      28.2450000000    32.4940000000    18.8560000000
   73      C      28.8900000000    31.4900000000    24.0580000000
   74      H      28.3910000000    32.0690000000    23.2770000000
   75      H      28.1340000000    31.2540000000    24.8110000000
   76      H      29.7010000000    31.9670000000    24.6140000000
   77      S      29.4550000000    30.0110000000    23.1860000000
   78      C      30.9230000000    30.6690000000    22.3640000000
   79      H      31.5930000000    31.0330000000    23.1460000000
   80      H      31.3540000000    29.9340000000    21.6790000000
   81      H      30.5190000000    31.5020000000    21.7830000000
   82      O      28.5000000000    29.9550000000    22.0340000000
   83      C      27.6580000000    23.9370000000    30.8300000000
   84      H      28.6430000000    24.2700000000    31.1690000000
   85      H      27.1520000000    23.9750000000    31.7980000000
   86      H      27.6880000000    22.9460000000    30.3710000000
   87      S      27.0590000000    25.0430000000    29.5330000000
   88      C      25.3560000000    25.0720000000    30.1360000000
   89      H      25.0400000000    24.0630000000    30.4140000000
   90      H      25.2850000000    25.6990000000    31.0280000000
   91      H      24.7130000000    25.4320000000    29.3280000000
   92      O      26.7870000000    23.9870000000    28.5070000000
   93      C      25.6020000000    23.8380000000    23.7210000000
   94      H      26.1470000000    23.1590000000    23.0590000000
   95      H      25.1970000000    24.7100000000    23.2030000000
   96      H      26.2100000000    24.0570000000    24.6030000000
   97      S      24.1820000000    22.9100000000    24.3430000000
   98      C      24.0210000000    23.8100000000    25.9020000000
   99      H      24.9310000000    23.6310000000    26.4810000000
  100      H      23.8540000000    24.8580000000    25.6400000000
  101      H      23.2340000000    23.4940000000    26.5910000000
  102      O      24.7600000000    21.5800000000    24.7130000000
  103      C      29.2280000000    26.3960000000    23.2050000000
  104      H      28.6830000000    25.9710000000    24.0520000000
  105      H      30.2660000000    26.0630000000    23.1350000000
  106      H      29.2440000000    27.4870000000    23.2750000000
  107      S      28.4170000000    26.0070000000    21.6380000000
  108      C      26.8810000000    26.9360000000    21.8440000000
  109      H      26.3570000000    26.8800000000    20.8860000000
  110      H      26.2790000000    26.5080000000    22.6500000000
  111      H      27.0200000000    27.9880000000    22.1050000000
  112      O      27.9690000000    24.5820000000    21.7450000000
  113      C      22.5920000000    37.6770000000    21.1920000000
  114      H      23.0250000000    38.4350000000    21.8490000000
  115      H      23.3920000000    37.1830000000    20.6340000000
  116      H      21.8370000000    38.1580000000    20.5660000000
  117      S      21.7860000000    36.3170000000    22.0670000000
  118      C      23.2420000000    35.4960000000    22.7540000000
  119      H      23.7640000000    36.2240000000    23.3800000000
  120      H      22.9160000000    34.6370000000    23.3470000000
  121      H      23.8980000000    35.1900000000    21.9350000000
  122      O      21.4190000000    35.2970000000    21.0350000000
  123      C      24.2160000000    27.0580000000    34.6160000000
  124      H      23.6950000000    26.8950000000    33.6690000000
  125      H      23.4740000000    27.1830000000    35.4090000000
  126      H      24.8570000000    27.9400000000    34.5400000000
  127      S      25.3170000000    25.6530000000    34.8950000000
  128      C      26.3990000000    26.4700000000    36.0900000000
  129      H      26.7910000000    27.3790000000    35.6270000000
  130      H      25.9150000000    26.7910000000    37.0160000000
  131      H      27.1790000000    25.7410000000    36.3230000000
  132      O      26.0220000000    25.5990000000    33.5750000000
  133      C      17.5580000000    31.0540000000    24.6190000000
  134      H      16.7250000000    30.3530000000    24.7180000000
  135      H      17.0360000000    32.0130000000    24.5930000000
  136      H      18.1070000000    30.9300000000    23.6820000000
  137      S      18.6310000000    30.6790000000    26.0230000000
  138      C      17.6130000000    31.5430000000    27.2410000000
  139      H      17.4610000000    32.5550000000    26.8550000000
  140      H      16.7000000000    30.9750000000    27.4360000000
  141      H      18.1750000000    31.5970000000    28.1770000000
  142      O      19.7670000000    31.6540000000    26.0160000000
  143      C      31.0440000000    36.3010000000    30.1700000000
  144      H      31.0610000000    37.1740000000    30.8280000000
  145      H      30.2920000000    35.5590000000    30.4480000000
  146      H      32.0210000000    35.8190000000    30.2660000000
  147      S      30.8340000000    36.9490000000    28.4960000000
  148      C      30.4160000000    35.4120000000    27.6440000000
  149      H      31.3030000000    34.7760000000    27.6980000000
  150      H      29.5330000000    34.8930000000    28.0270000000
  151      H      30.2200000000    35.7010000000    26.6080000000
  152      O      32.2420000000    37.1730000000    28.0380000000
  153      C      18.9450000000    26.7870000000    26.0440000000
  154      H      18.3170000000    27.4510000000    26.6420000000
  155      H      19.0440000000    27.1780000000    25.0280000000
  156      H      18.4630000000    25.8150000000    26.1790000000
  157      S      20.5770000000    26.7500000000    26.8180000000
  158      C      20.9280000000    28.5040000000    26.5620000000
  159      H      21.9460000000    28.7350000000    26.8860000000
  160      H      20.7700000000    28.7570000000    25.5110000000
  161      H      20.2610000000    29.0330000000    27.2470000000
  162      O      21.4430000000    26.0110000000    25.8450000000
  163      C      31.2110000000    33.2850000000    33.3280000000
  164      H      30.6770000000    33.6920000000    34.1910000000
  165      H      31.2210000000    34.1490000000    32.6580000000
  166      H      30.4790000000    32.5250000000    33.0440000000
  167      S      32.7740000000    32.5360000000    33.8400000000
  168      C      32.9650000000    31.3510000000    32.4890000000
  169      H      33.8810000000    30.7980000000    32.7110000000
  170      H      32.0850000000    30.7030000000    32.4830000000
  171      H      33.1360000000    31.8470000000    31.5300000000
  172      O      32.3720000000    31.5670000000    34.9070000000
  173      C      19.7060000000    34.6440000000    30.4700000000
  174      H      19.6400000000    34.2350000000    29.4580000000
  175      H      18.8330000000    34.3190000000    31.0420000000
  176      H      19.8550000000    35.7260000000    30.5080000000
  177      S      21.0050000000    33.8270000000    31.4240000000
  178      C      20.0910000000    32.2910000000    31.6880000000
  179      H      19.9070000000    31.8580000000    30.7020000000
  180      H      20.8120000000    31.7330000000    32.2920000000
  181      H      19.2040000000    32.5680000000    32.2630000000
  182      O      20.7580000000    34.5190000000    32.7290000000
  183      C      22.7910000000    32.4240000000    35.6020000000
  184      H      22.0810000000    32.4660000000    36.4320000000
  185      H      23.7110000000    32.9580000000    35.8540000000
  186      H      22.2330000000    32.8730000000    34.7770000000
  187      S      23.1090000000    30.7130000000    35.1140000000
  188      C      23.9810000000    31.3720000000    33.6760000000
  189      H      24.4850000000    30.5440000000    33.1690000000
  190      H      23.3230000000    31.9150000000    32.9930000000
  191      H      24.7510000000    32.0640000000    34.0260000000
  192      O      21.8500000000    30.3330000000    34.3990000000
  193      C      22.6940000000    27.4660000000    29.7190000000
  194      H      22.8170000000    26.5090000000    30.2320000000
  195      H      21.7230000000    27.9300000000    29.9100000000
  196      H      22.9270000000    27.4980000000    28.6520000000
  197      S      23.9350000000    28.4900000000    30.5430000000
  198      C      23.3850000000    30.0790000000    29.8810000000
  199      H      22.2940000000    30.0610000000    29.8090000000
  200      H      23.6560000000    30.9520000000    30.4800000000
  201      H      23.7380000000    30.3360000000    28.8790000000
  202      O      25.1580000000    28.1910000000    29.7340000000
  203      C      25.1980000000    21.5970000000    20.5150000000
  204      H      25.1830000000    21.9420000000    21.5530000000
  205      H      24.2520000000    21.8110000000    20.0130000000
  206      H      25.4540000000    20.5390000000    20.4170000000
  207      S      26.4320000000    22.7030000000    19.7940000000
  208      C      25.3430000000    24.1460000000    19.7960000000
  209      H      24.2930000000    23.8480000000    19.8480000000
  210      H      25.5750000000    24.7330000000    20.6880000000
  211      H      25.5450000000    24.6690000000    18.8580000000
  212      O      26.5610000000    22.3630000000    18.3420000000
  213      C      29.8080000000    27.0350000000    27.8420000000
  214      H      29.3960000000    27.4840000000    28.7500000000
  215      H      30.7540000000    27.4700000000    27.5090000000
  216      H      29.1470000000    27.1140000000    26.9750000000
  217      S      30.2880000000    25.3470000000    28.2730000000
  218      C      31.5260000000    25.6230000000    29.5610000000
  219      H      32.2300000000    26.3630000000    29.1730000000
  220      H      31.1530000000    25.9480000000    30.5360000000
  221      H      32.0880000000    24.6970000000    29.7060000000
  222      O      31.1750000000    25.0600000000    27.1020000000
  223      C      23.0160000000    39.1560000000    27.0920000000
  224      H      21.9530000000    39.3910000000    26.9990000000
  225      H      23.2100000000    38.4730000000    27.9230000000
  226      H      23.7170000000    39.9940000000    27.0650000000
  227      S      23.2730000000    38.1910000000    25.5860000000
  228      C      25.0630000000    38.3670000000    25.4120000000
  229      H      25.3290000000    37.8920000000    24.4640000000
  230      H      25.1640000000    39.4550000000    25.3770000000
  231      H      25.6250000000    38.0920000000    26.3080000000
  232      O      22.6940000000    39.0960000000    24.5440000000
  233      C      18.8620000000    23.4930000000    29.0340000000
  234      H      18.6170000000    24.5300000000    28.7920000000
  235      H      18.9750000000    22.8980000000    28.1240000000
  236      H      18.0630000000    23.0280000000    29.6180000000
  237      S      20.3830000000    23.2680000000    29.9830000000
  238      C      20.3900000000    24.9120000000    30.7330000000
  239      H      21.1310000000    25.1510000000    31.5000000000
  240      H      20.4920000000    25.6270000000    29.9130000000
  241      H      19.3890000000    24.9620000000    31.1690000000
  242      O      21.4640000000    23.3540000000    28.9510000000
  243      C      24.1660000000    34.3890000000    28.8610000000
  244      H      24.4740000000    33.3430000000    28.7860000000
  245      H      24.9640000000    35.0960000000    28.6170000000
  246      H      23.8740000000    34.6920000000    29.8690000000
  247      S      22.8850000000    34.7950000000    27.6530000000
  248      C      22.1200000000    33.1600000000    27.7290000000
  249      H      21.3650000000    33.0990000000    26.9420000000
  250      H      22.9460000000    32.4630000000    27.5640000000
  251      H      21.7130000000    33.0090000000    28.7320000000
  252      O      23.5290000000    34.7080000000    26.3040000000
  253      C      20.9470000000    32.4500000000    22.9260000000
  254      H      21.6850000000    32.9200000000    23.5810000000
  255      H      21.0600000000    32.9060000000    21.9390000000
  256      H      19.9220000000    32.6730000000    23.2310000000
  257      S      21.2050000000    30.6620000000    22.9390000000
  258      C      22.3820000000    30.7600000000    21.5720000000
  259      H      22.0490000000    31.3790000000    20.7350000000
  260      H      23.2640000000    31.2600000000    21.9810000000
  261      H      22.5570000000    29.7350000000    21.2360000000
  262      O      19.9380000000    30.1940000000    22.2920000000
  263      C      29.2730000000    31.6490000000    36.7660000000
  264      H      29.0330000000    30.9870000000    37.6020000000
  265      H      29.7870000000    31.1490000000    35.9410000000
  266      H      29.8900000000    32.4460000000    37.1900000000
  267      S      27.7730000000    32.3410000000    36.0330000000
  268      C      26.9390000000    32.3810000000    37.6360000000
  269      H      26.7370000000    31.3610000000    37.9720000000
  270      H      27.5680000000    32.9600000000    38.3170000000
  271      H      26.0020000000    32.9300000000    37.5160000000
  272      O      27.0750000000    31.2100000000    35.3430000000
  273      C      28.4480000000    22.4720000000    25.7820000000
  274      H      27.6860000000    22.2770000000    25.0220000000
  275      H      28.3190000000    21.7770000000    26.6150000000
  276      H      28.2610000000    23.5000000000    26.1050000000
  277      S      30.1140000000    22.1210000000    25.1770000000
  278      C      30.4120000000    23.5460000000    24.1060000000
  279      H      30.4380000000    24.3720000000    24.8210000000
  280      H      31.3250000000    23.4970000000    23.5070000000
  281      H      29.5300000000    23.5960000000    23.4610000000
  282      O      30.1320000000    20.9450000000    24.2510000000
  283      C      27.7500000000    28.9350000000    32.1160000000
  284      H      27.1330000000    28.7970000000    33.0080000000
  285      H      27.9070000000    29.9930000000    31.8930000000
  286      H      27.3600000000    28.4450000000    31.2200000000
  287      S      29.3540000000    28.1930000000    32.4930000000
  288      C      29.6390000000    29.2290000000    33.9460000000
  289      H      28.7830000000    29.2080000000    34.6250000000
  290      H      30.5300000000    28.7870000000    34.3990000000
  291      H      29.9240000000    30.2400000000    33.6430000000
  292      O      30.3280000000    28.7760000000    31.5170000000
  293      C      26.0320000000    34.6620000000    32.8870000000
  294      H      25.0450000000    34.7630000000    32.4280000000
  295      H      26.0210000000    34.2060000000    33.8800000000
  296      H      26.4990000000    35.6430000000    33.0080000000
  297      S      26.9930000000    33.5550000000    31.8310000000
  298      C      27.1740000000    34.6180000000    30.3810000000
  299      H      27.3000000000    33.9200000000    29.5500000000
  300      H      26.3500000000    35.3110000000    30.1940000000
  301      H      28.0960000000    35.2030000000    30.4460000000
  302      O      25.9820000000    32.5830000000    31.3090000000
 ----------------------------------------------------------------
 Nuclear Repulsion Energy =       50285.23187437 hartrees
 There are      623 alpha and      623 beta electrons
 Requested basis set is 6-31+G(d)
 There are 995 shells and 2773 basis functions

 Total QAlloc Memory Limit  12000 MB
 Mega-Array Size      3911 MB
 MEM_STATIC part      4000 MB

 A cutoff of  1.0D-14 yielded 182880 shell pairs
 There are   1580509 function pairs
 Smallest overlap matrix eigenvalue = 5.12E-07
 Linear dependence detected in AO basis
 Tighter screening thresholds may be required for diffuse basis sets
 Use S2THRESH > 14 and THRESH = 14 in case of SCF convergence issues
 Number of orthogonalized atomic orbitals = 2771
 Maximum deviation from orthogonality = 1.586E-10

 Scale SEOQF with 1.000000e-03/1.000000e-03/1.000000e-03

 Standard Electronic Orientation quadrupole field applied
 Nucleus-field energy     =     0.0000000910 hartrees
 Guess from superposition of atomic densities
 Warning:  Energy on first SCF cycle will be non-variational
 SAD guess density has 1246.000002 electrons

 -----------------------------------------------------------------------
  General SCF calculation program by
  Eric Jon Sundstrom, Paul Horn, Yuezhi Mao, Dmitri Zuev, Alec White,
  David Stuck, Shaama M.S., Shane Yost, Joonho Lee, David Small,
  Daniel Levine, Susi Lehtola, Hugh Burton, Evgeny Epifanovsky,
  Bang C. Huynh
 -----------------------------------------------------------------------
=================================================
        Doing projection-based embedding         
      F. Manby et al. JCTC, 8, 2564 (2012)       
=================================================

****************************************************
   Low-level SCF calculation for the whole system   
****************************************************
----------------------------------------------
 Summary of the low-level theory: 
 Exchange:     0.2000 Hartree-Fock + 0.0800 Slater + 0.7200 B88
 Correlation:  0.1900 VWN1RPA + 0.8100 LYP
 Using Euler-Maclaurin-Lebedev (75,302) quadrature formula
----------------------------------------------
 using 16 threads for integral computing
 -------------------------------------------------------
 OpenMP Integral computing Module                
 Release: version 1.0, May 2013, Q-Chem Inc. Pittsburgh 
 -------------------------------------------------------
 A restricted SCF calculation will be
 performed using DIIS
 SCF converges when DIIS error is below 1.0e-08
 ---------------------------------------
  Cycle       Energy         DIIS error
 ---------------------------------------
    1  -15913.7659252508      1.33e-02  
    2  -15888.8118139499      2.48e-03  
    3  -15855.0094120412      5.52e-03  
    4  -15786.5909460295      5.59e-03  
    5  -15892.3274946405      1.32e-03  
    6  -15893.8126376386      3.04e-04  
    7  -15893.8570563646      2.42e-04  
    8  -15893.9054136550      8.26e-05  
    9  -15893.9119730728      4.16e-05  
   10  -15893.9136391868      1.97e-05  
   11  -15893.9138991778      1.01e-05  
   12  -15893.9139769234      2.40e-06  
   13  -15893.9139815537      8.61e-07  
   14  -15893.9139820516      3.80e-07  
   15  -15893.9139821588      1.15e-07  
   16  -15893.9139821693      3.42e-08  
   17  -15893.9139821702      1.36e-08  
   18  -15893.9139821704      5.22e-09  Convergence criterion met
 ---------------------------------------
 SCF time:   CPU 360511.63s  wall 25868.00s 
 SCF   energy in the final basis set =   -15893.9139821704
 Total energy in the final basis set =   -15893.9139821704

****************************************************
             Start embedding calculation            
****************************************************
----------------------------------------------
 Summary of the high-level theory: 
 Exchange:     0.2000 Hartree-Fock + 0.0800 Slater + 0.7200 B88
 Correlation:  0.1900 VWN1RPA + 0.8100 LYP
 Using Euler-Maclaurin-Lebedev (75,302) quadrature formula
----------------------------------------------
Doing R-in-R Embedding Calculation
Number of fragments: 2
Embedded fragment(s): 1 
NOcc for each fragment
           35
          588
NBasis for each fragment
          197
         2576
Variational space of the embedded problem: 
NOcc (active)  = 35
NOcc (fixed)   = 588
NVir (total)   = 2148
Read converged orbitals from disk
=========================================================
       Doing SPADE partition for the orbital space       
     D. Claudino and N. Mayhall JCTC 15, 1053 (2019)     
=========================================================
SPADE singular values:
 1.0000 1.0000 1.0000 1.0000 1.0000 1.0000 1.0000 1.0000 1.0000 0.9999
 0.9998 0.9998 0.9997 0.9996 0.9995 0.9994 0.9991 0.9987 0.9981 0.9978
 0.9974 0.9968 0.9963 0.9959 0.9952 0.9948 0.9942 0.9937 0.9926 0.9918
 0.9904 0.9894 0.9869 0.9842 0.9772 0.2323 0.1945 0.1750 0.1636 0.1593
 0.1449 0.1303 0.1140 0.1041 0.1006 0.0966 0.0861 0.0829 0.0764 0.0713
 0.0631 0.0546 0.0515 0.0479 0.0451 0.0441 0.0429 0.0399 0.0350 0.0324
 0.0314 0.0297 0.0283 0.0275 0.0235 0.0227 0.0218 0.0210 0.0206 0.0184
 0.0183 0.0168 0.0151 0.0149 0.0137 0.0130 0.0123 0.0120 0.0113 0.0111
 0.0104 0.0093 0.0086 0.0084 0.0080 0.0075 0.0072 0.0068 0.0065 0.0061
 0.0058 0.0058 0.0054 0.0047 0.0047 0.0045 0.0043 0.0042 0.0041 0.0038
 0.0035 0.0035 0.0033 0.0031 0.0031 0.0030 0.0028 0.0027 0.0025 0.0024
 0.0023 0.0022 0.0021 0.0019 0.0019 0.0018 0.0017 0.0016 0.0016 0.0015
 0.0015 0.0014 0.0013 0.0013 0.0012 0.0012 0.0011 0.0011 0.0011 0.0011
 0.0009 0.0009 0.0009 0.0009 0.0009 0.0008 0.0008 0.0008 0.0007 0.0007
 0.0007 0.0006 0.0006 0.0006 0.0006 0.0005 0.0005 0.0005 0.0005 0.0004
 0.0004 0.0004 0.0004 0.0004 0.0003 0.0003 0.0003 0.0003 0.0003 0.0003
 0.0003 0.0003 0.0003 0.0003 0.0002 0.0002 0.0002 0.0002 0.0002 0.0002
 0.0002 0.0002 0.0002 0.0002 0.0002 0.0002 0.0001 0.0001 0.0001 0.0001
 0.0001 0.0001 0.0001 0.0001 0.0001 0.0001 0.0001 0.0001 0.0001 0.0001
 0.0001 0.0001 0.0001 0.0001 0.0001 0.0001 0.0000
Early stop requested; no embedded SCF will be performed

 588 environment occs will be part of frozen-core in future post-HF calculations

 --------------------------------------------------------------

                    Orbital Energies (a.u.)
 --------------------------------------------------------------

 Alpha MOs
 -- Occupied --
-89.0489 -89.0479 -89.0443 -89.0434 -89.0384 -89.0362 -89.0338 -89.0308
-89.0307 -89.0234 -89.0150 -89.0140 -89.0125 -89.0118 -89.0074 -89.0067
-89.0057 -89.0019 -88.9981 -88.9972 -88.9951 -88.9942 -88.9848 -88.9713
-88.9685 -88.9622 -88.9498 -88.9349 -19.1607 -19.1603 -19.1579 -19.1561
-19.1508 -19.1480 -19.1471 -19.1441 -19.1406 -19.1337 -19.1319 -19.1288
-19.1282 -19.1266 -19.1231 -19.1195 -19.1162 -19.1153 -19.1094 -19.1091
-19.1057 -19.1020 -19.0916 -19.0862 -19.0857 -19.0752 -19.0671 -19.0549
-10.2659 -10.2627 -10.2623 -10.2607 -10.2573 -10.2565 -10.2562 -10.2559
-10.2554 -10.2547 -10.2536 -10.2515 -10.2485 -10.2478 -10.2474 -10.2469
-10.2458 -10.2441 -10.2441 -10.2423 -10.2414 -10.2366 -10.2355 -10.2341
-10.2284 -10.2278 -10.2270 -10.2257 -10.2229 -10.2224 -10.2189 -10.2177
-10.2175 -10.2164 -10.2157 -10.2153 -10.2135 -10.2134 -10.2134 -10.2131
-10.2129 -10.2120 -10.2105 -10.2090 -10.2010 -10.2003 -10.1990 -10.1936
-10.1881 -10.1842 -10.1804 -10.1793 -10.1780 -10.1732 -10.1608 -10.1571
 -8.0940  -8.0930  -8.0902  -8.0896  -8.0852  -8.0817  -8.0789  -8.0770
 -8.0768  -8.0694  -8.0608  -8.0608  -8.0585  -8.0574  -8.0528  -8.0525
 -8.0515  -8.0477  -8.0442  -8.0427  -8.0413  -8.0396  -8.0308  -8.0167
 -8.0139  -8.0084  -7.9959  -7.9811  -6.0585  -6.0573  -6.0571  -6.0563
 -6.0545  -6.0539  -6.0532  -6.0525  -6.0514  -6.0505  -6.0492  -6.0482
 -6.0478  -6.0473  -6.0460  -6.0448  -6.0432  -6.0430  -6.0422  -6.0412
 -6.0410  -6.0400  -6.0397  -6.0394  -6.0365  -6.0349  -6.0341  -6.0336
 -6.0327  -6.0267  -6.0252  -6.0250  -6.0241  -6.0238  -6.0228  -6.0219
 -6.0216  -6.0203  -6.0183  -6.0179  -6.0170  -6.0169  -6.0162  -6.0159
 -6.0159  -6.0158  -6.0151  -6.0145  -6.0121  -6.0108  -6.0103  -6.0099
 -6.0090  -6.0085  -6.0073  -6.0070  -6.0061  -6.0055  -6.0050  -6.0045
 -6.0036  -6.0027  -6.0018  -6.0001  -5.9986  -5.9976  -5.9951  -5.9939
 -5.9884  -5.9811  -5.9800  -5.9783  -5.9772  -5.9739  -5.9727  -5.9715
 -5.9710  -5.9659  -5.9603  -5.9591  -5.9530  -5.9455  -5.9445  -5.9380
 -1.0745  -1.0704  -1.0690  -1.0681  -1.0618  -1.0605  -1.0553  -1.0540
 -1.0527  -1.0421  -1.0417  -1.0396  -1.0373  -1.0352  -1.0343  -1.0311
 -1.0266  -1.0255  -1.0226  -1.0197  -1.0170  -1.0124  -1.0113  -0.9954
 -0.9909  -0.9845  -0.9746  -0.9591  -0.8469  -0.8451  -0.8427  -0.8410
 -0.8404  -0.8394  -0.8375  -0.8325  -0.8281  -0.8275  -0.8240  -0.8159
 -0.8130  -0.8125  -0.8093  -0.8037  -0.8032  -0.8009  -0.7996  -0.7952
 -0.7952  -0.7907  -0.7781  -0.7771  -0.7767  -0.7728  -0.7717  -0.7678
 -0.7674  -0.7663  -0.7658  -0.7643  -0.7630  -0.7621  -0.7606  -0.7572
 -0.7571  -0.7438  -0.7425  -0.7424  -0.7392  -0.7387  -0.7369  -0.7335
 -0.7311  -0.7299  -0.7292  -0.7276  -0.7272  -0.7189  -0.7135  -0.7052
 -0.7039  -0.6912  -0.6889  -0.6737  -0.6612  -0.6596  -0.6569  -0.6531
 -0.6490  -0.6464  -0.6454  -0.6449  -0.6437  -0.6387  -0.6286  -0.6282
 -0.6236  -0.6235  -0.6221  -0.6185  -0.6175  -0.6175  -0.6115  -0.6079
 -0.6073  -0.6063  -0.5976  -0.5854  -0.5844  -0.5737  -0.5690  -0.5504
 -0.5329  -0.5295  -0.5259  -0.5241  -0.5227  -0.5210  -0.5185  -0.5178
 -0.5147  -0.5137  -0.5127  -0.5102  -0.5099  -0.5097  -0.5081  -0.5072
 -0.5061  -0.5053  -0.5050  -0.5046  -0.5037  -0.5017  -0.5014  -0.5010
 -0.4980  -0.4959  -0.4954  -0.4945  -0.4937  -0.4931  -0.4912  -0.4898
 -0.4883  -0.4879  -0.4867  -0.4864  -0.4864  -0.4858  -0.4854  -0.4851
 -0.4844  -0.4824  -0.4820  -0.4810  -0.4804  -0.4795  -0.4780  -0.4765
 -0.4764  -0.4755  -0.4750  -0.4738  -0.4735  -0.4722  -0.4717  -0.4711
 -0.4704  -0.4701  -0.4694  -0.4683  -0.4676  -0.4664  -0.4658  -0.4655
 -0.4651  -0.4647  -0.4643  -0.4639  -0.4636  -0.4629  -0.4626  -0.4615
 -0.4609  -0.4604  -0.4599  -0.4588  -0.4586  -0.4575  -0.4574  -0.4550
 -0.4545  -0.4523  -0.4512  -0.4508  -0.4507  -0.4498  -0.4496  -0.4475
 -0.4465  -0.4442  -0.4439  -0.4433  -0.4428  -0.4421  -0.4420  -0.4414
 -0.4410  -0.4394  -0.4392  -0.4383  -0.4373  -0.4372  -0.4370  -0.4364
 -0.4341  -0.4338  -0.4335  -0.4326  -0.4322  -0.4316  -0.4312  -0.4305
 -0.4298  -0.4295  -0.4294  -0.4288  -0.4271  -0.4270  -0.4266  -0.4261
 -0.4257  -0.4250  -0.4244  -0.4242  -0.4236  -0.4199  -0.4190  -0.4186
 -0.4184  -0.4163  -0.4148  -0.4140  -0.4129  -0.4125  -0.4114  -0.4110
 -0.4105  -0.4098  -0.4097  -0.4080  -0.4079  -0.4065  -0.4054  -0.4052
 -0.4047  -0.4046  -0.4037  -0.4031  -0.4026  -0.4022  -0.4017  -0.4009
 -0.4003  -0.4000  -0.3996  -0.3988  -0.3987  -0.3963  -0.3955  -0.3947
 -0.3939  -0.3913  -0.3912  -0.3885  -0.3841  -0.3829  -0.3816  -0.3794
 -0.3779  -0.3772  -0.3755  -0.3747  -0.3729  -0.3722  -0.3713  -0.3707
 -0.3704  -0.3681  -0.3677  -0.3674  -0.3656  -0.3640  -0.3580  -0.3579
 -0.3568  -0.3554  -0.3537  -0.3510  -0.3506  -0.3496  -0.3443  -0.3337
 -0.3330  -0.3263  -0.3254  -0.3215  -0.3192  -0.3156  -0.3154  -0.3112
 -0.3094  -0.3058  -0.3053  -0.2986  -0.2965  -0.2943  -0.2935  -0.2905
 -0.2897  -0.2896  -0.2882  -0.2877  -0.2871  -0.2847  -0.2830  -0.2812
 -0.2799  -0.2781  -0.2770  -0.2759  -0.2751  -0.2721  -0.2713  -0.2713
 -0.2709  -0.2644  -0.2626  -0.2611  -0.2569  -0.2565  -0.2535  -0.2528
 -0.2509  -0.2507  -0.2500  -0.2476  -0.2442  -0.2437  -0.2418  -0.2360
 -0.2359  -0.2333  -0.2315  -0.2308  -0.2294  -0.2271  -0.2168  -0.2109
 -0.2057  -0.1998  -0.1879  -0.1689 -10.2474 -14.3117 -12.8479 -11.1869
-12.3699 -12.5525 -10.1466 -10.2510 -10.2705  -0.7852  -0.6786  -0.8014
 -0.8733  -0.5926  -0.7726  -0.8361  -0.8192  -0.4588  -0.4550  -0.4199
 -0.4474  -0.4473  -0.5087  -0.4330  -0.4305  -0.5070  -0.5149  -0.4405
 -0.4234  -0.4315  -0.4914  -0.4549  -0.5194  -0.5511  -0.5402
 -- Virtual --
 -0.0659  -0.0574  -0.0513  -0.0484  -0.0470  -0.0453  -0.0444  -0.0423
 -0.0407  -0.0402  -0.0386  -0.0373  -0.0332  -0.0309  -0.0303  -0.0277
 -0.0268  -0.0247  -0.0229  -0.0223  -0.0214  -0.0203  -0.0190  -0.0176
 -0.0167  -0.0160  -0.0149  -0.0144  -0.0139  -0.0117  -0.0115  -0.0106
 -0.0093  -0.0085  -0.0079  -0.0074  -0.0071  -0.0063  -0.0059  -0.0053
 -0.0045  -0.0032  -0.0027  -0.0021  -0.0014  -0.0009  -0.0001   0.0016
  0.0027   0.0034   0.0036   0.0040   0.0050   0.0052   0.0055   0.0064
  0.0075   0.0077   0.0084   0.0090   0.0097   0.0108   0.0111   0.0120
  0.0121   0.0135   0.0146   0.0148   0.0158   0.0166   0.0172   0.0178
  0.0188   0.0195   0.0199   0.0203   0.0212   0.0217   0.0226   0.0233
  0.0235   0.0247   0.0255   0.0261   0.0271   0.0273   0.0281   0.0289
  0.0295   0.0302   0.0309   0.0319   0.0326   0.0335   0.0340   0.0350
  0.0351   0.0355   0.0364   0.0371   0.0380   0.0390   0.0393   0.0399
  0.0400   0.0423   0.0426   0.0429   0.0433   0.0436   0.0438   0.0455
  0.0457   0.0463   0.0469   0.0475   0.0483   0.0489   0.0492   0.0494
  0.0500   0.0506   0.0511   0.0517   0.0521   0.0529   0.0537   0.0544
  0.0546   0.0553   0.0556   0.0569   0.0575   0.0583   0.0584   0.0589
  0.0593   0.0599   0.0603   0.0614   0.0615   0.0627   0.0633   0.0644
  0.0649   0.0657   0.0662   0.0667   0.0670   0.0686   0.0692   0.0694
  0.0705   0.0708   0.0714   0.0722   0.0730   0.0735   0.0745   0.0750
  0.0752   0.0765   0.0769   0.0773   0.0781   0.0790   0.0801   0.0805
  0.0810   0.0813   0.0819   0.0821   0.0831   0.0835   0.0839   0.0844
  0.0847   0.0853   0.0859   0.0868   0.0877   0.0878   0.0887   0.0890
  0.0898   0.0901   0.0908   0.0916   0.0923   0.0929   0.0934   0.0942
  0.0947   0.0950   0.0952   0.0965   0.0974   0.0975   0.0979   0.0986
  0.0994   0.1000   0.1002   0.1004   0.1014   0.1017   0.1024   0.1026
  0.1040   0.1049   0.1056   0.1061   0.1069   0.1073   0.1079   0.1086
  0.1088   0.1092   0.1100   0.1105   0.1114   0.1121   0.1126   0.1131
  0.1141   0.1146   0.1148   0.1157   0.1164   0.1175   0.1179   0.1191
  0.1194   0.1197   0.1203   0.1206   0.1215   0.1215   0.1223   0.1232
  0.1237   0.1242   0.1250   0.1255   0.1257   0.1266   0.1269   0.1272
  0.1279   0.1287   0.1289   0.1298   0.1298   0.1309   0.1312   0.1316
  0.1323   0.1332   0.1339   0.1344   0.1355   0.1360   0.1361   0.1365
  0.1366   0.1375   0.1380   0.1386   0.1394   0.1395   0.1401   0.1406
  0.1413   0.1417   0.1421   0.1433   0.1438   0.1439   0.1445   0.1454
  0.1460   0.1465   0.1472   0.1478   0.1480   0.1489   0.1498   0.1505
  0.1515   0.1517   0.1521   0.1528   0.1536   0.1537   0.1543   0.1551
  0.1558   0.1563   0.1564   0.1567   0.1570   0.1578   0.1584   0.1597
  0.1603   0.1606   0.1607   0.1614   0.1622   0.1629   0.1630   0.1640
  0.1642   0.1645   0.1653   0.1657   0.1660   0.1677   0.1679   0.1685
  0.1686   0.1695   0.1701   0.1709   0.1712   0.1716   0.1720   0.1730
  0.1737   0.1741   0.1746   0.1755   0.1764   0.1769   0.1771   0.1779
  0.1780   0.1790   0.1797   0.1804   0.1809   0.1811   0.1817   0.1826
  0.1828   0.1833   0.1836   0.1846   0.1851   0.1864   0.1868   0.1871
  0.1877   0.1883   0.1884   0.1891   0.1892   0.1900   0.1905   0.1915
  0.1919   0.1927   0.1931   0.1939   0.1944   0.1953   0.1957   0.1962
  0.1969   0.1970   0.1978   0.1983   0.1991   0.1996   0.2005   0.2010
  0.2015   0.2020   0.2030   0.2038   0.2045   0.2051   0.2053   0.2059
  0.2064   0.2074   0.2084   0.2092   0.2094   0.2096   0.2107   0.2108
  0.2117   0.2123   0.2126   0.2137   0.2141   0.2149   0.2153   0.2159
  0.2160   0.2174   0.2181   0.2186   0.2193   0.2196   0.2205   0.2207
  0.2216   0.2219   0.2234   0.2239   0.2250   0.2251   0.2257   0.2263
  0.2278   0.2281   0.2289   0.2295   0.2305   0.2307   0.2315   0.2321
  0.2326   0.2327   0.2337   0.2345   0.2349   0.2351   0.2359   0.2371
  0.2380   0.2386   0.2388   0.2395   0.2400   0.2412   0.2418   0.2425
  0.2430   0.2436   0.2444   0.2445   0.2448   0.2459   0.2469   0.2474
  0.2475   0.2482   0.2487   0.2496   0.2505   0.2515   0.2519   0.2531
  0.2534   0.2541   0.2544   0.2555   0.2559   0.2569   0.2575   0.2588
  0.2594   0.2601   0.2603   0.2607   0.2616   0.2620   0.2622   0.2626
  0.2633   0.2639   0.2646   0.2652   0.2659   0.2661   0.2677   0.2682
  0.2689   0.2698   0.2700   0.2711   0.2721   0.2734   0.2736   0.2747
  0.2750   0.2756   0.2769   0.2772   0.2776   0.2777   0.2785   0.2795
  0.2806   0.2814   0.2818   0.2826   0.2830   0.2840   0.2847   0.2850
  0.2862   0.2867   0.2879   0.2888   0.2894   0.2908   0.2915   0.2925
  0.2930   0.2932   0.2944   0.2948   0.2957   0.2964   0.2967   0.2981
  0.2987   0.2991   0.3004   0.3022   0.3025   0.3026   0.3029   0.3046
  0.3049   0.3058   0.3065   0.3073   0.3079   0.3084   0.3092   0.3097
  0.3112   0.3117   0.3132   0.3138   0.3144   0.3158   0.3161   0.3172
  0.3175   0.3184   0.3186   0.3190   0.3199   0.3212   0.3223   0.3237
  0.3241   0.3253   0.3253   0.3271   0.3274   0.3282   0.3289   0.3298
  0.3306   0.3314   0.3321   0.3326   0.3335   0.3342   0.3352   0.3357
  0.3359   0.3377   0.3382   0.3391   0.3403   0.3413   0.3417   0.3424
  0.3427   0.3436   0.3448   0.3456   0.3462   0.3468   0.3475   0.3485
  0.3491   0.3493   0.3499   0.3509   0.3520   0.3537   0.3542   0.3548
  0.3554   0.3557   0.3568   0.3581   0.3588   0.3593   0.3600   0.3611
  0.3618   0.3623   0.3639   0.3642   0.3653   0.3662   0.3666   0.3672
  0.3679   0.3685   0.3694   0.3698   0.3712   0.3717   0.3723   0.3734
  0.3742   0.3748   0.3760   0.3767   0.3774   0.3786   0.3790   0.3801
  0.3815   0.3826   0.3835   0.3838   0.3848   0.3856   0.3861   0.3873
  0.3879   0.3884   0.3891   0.3895   0.3914   0.3923   0.3935   0.3943
  0.3951   0.3967   0.3971   0.3976   0.3985   0.3992   0.4001   0.4013
  0.4029   0.4036   0.4044   0.4057   0.4067   0.4078   0.4081   0.4088
  0.4094   0.4105   0.4120   0.4128   0.4138   0.4151   0.4161   0.4163
  0.4177   0.4187   0.4197   0.4198   0.4206   0.4225   0.4238   0.4240
  0.4258   0.4264   0.4270   0.4278   0.4285   0.4295   0.4304   0.4314
  0.4328   0.4342   0.4358   0.4361   0.4375   0.4388   0.4409   0.4417
  0.4433   0.4438   0.4451   0.4461   0.4471   0.4486   0.4490   0.4503
  0.4509   0.4523   0.4532   0.4544   0.4557   0.4566   0.4589   0.4597
  0.4610   0.4622   0.4638   0.4656   0.4663   0.4678   0.4683   0.4696
  0.4700   0.4720   0.4726   0.4753   0.4760   0.4768   0.4792   0.4803
  0.4808   0.4818   0.4847   0.4861   0.4872   0.4881   0.4889   0.4893
  0.4920   0.4923   0.4936   0.4958   0.4966   0.4976   0.5003   0.5020
  0.5022   0.5030   0.5043   0.5059   0.5085   0.5094   0.5100   0.5123
  0.5134   0.5153   0.5161   0.5177   0.5201   0.5209   0.5224   0.5242
  0.5245   0.5251   0.5264   0.5284   0.5297   0.5306   0.5313   0.5332
  0.5350   0.5353   0.5371   0.5385   0.5397   0.5420   0.5431   0.5442
  0.5470   0.5488   0.5499   0.5513   0.5523   0.5556   0.5563   0.5579
  0.5582   0.5585   0.5613   0.5628   0.5657   0.5669   0.5673   0.5694
  0.5704   0.5726   0.5748   0.5755   0.5759   0.5792   0.5802   0.5811
  0.5826   0.5847   0.5861   0.5866   0.5876   0.5895   0.5903   0.5922
  0.5932   0.5938   0.5959   0.5970   0.5985   0.5995   0.6006   0.6031
  0.6044   0.6053   0.6064   0.6069   0.6078   0.6090   0.6107   0.6118
  0.6129   0.6143   0.6152   0.6157   0.6176   0.6185   0.6193   0.6218
  0.6232   0.6233   0.6253   0.6261   0.6270   0.6281   0.6288   0.6314
  0.6324   0.6326   0.6335   0.6345   0.6352   0.6366   0.6375   0.6383
  0.6387   0.6403   0.6415   0.6433   0.6435   0.6459   0.6469   0.6472
  0.6492   0.6497   0.6513   0.6517   0.6521   0.6544   0.6551   0.6562
  0.6570   0.6576   0.6581   0.6597   0.6621   0.6632   0.6643   0.6650
  0.6659   0.6671   0.6679   0.6689   0.6701   0.6715   0.6723   0.6735
  0.6740   0.6749   0.6755   0.6760   0.6778   0.6799   0.6810   0.6825
  0.6825   0.6837   0.6844   0.6849   0.6858   0.6868   0.6877   0.6887
  0.6904   0.6918   0.6924   0.6939   0.6948   0.6955   0.6965   0.6981
  0.6991   0.6997   0.7012   0.7031   0.7046   0.7048   0.7068   0.7071
  0.7091   0.7111   0.7117   0.7132   0.7137   0.7143   0.7149   0.7160
  0.7171   0.7189   0.7200   0.7224   0.7226   0.7236   0.7244   0.7290
  0.7304   0.7311   0.7324   0.7331   0.7355   0.7367   0.7383   0.7397
  0.7400   0.7415   0.7443   0.7450   0.7459   0.7468   0.7485   0.7491
  0.7497   0.7516   0.7523   0.7560   0.7565   0.7578   0.7591   0.7606
  0.7621   0.7624   0.7645   0.7657   0.7670   0.7672   0.7688   0.7713
  0.7734   0.7752   0.7761   0.7785   0.7789   0.7806   0.7808   0.7822
  0.7840   0.7843   0.7866   0.7876   0.7892   0.7903   0.7913   0.7922
  0.7937   0.7955   0.7965   0.7989   0.7998   0.8023   0.8030   0.8050
  0.8054   0.8073   0.8085   0.8091   0.8109   0.8135   0.8140   0.8155
  0.8169   0.8172   0.8195   0.8206   0.8235   0.8240   0.8241   0.8278
  0.8280   0.8290   0.8327   0.8347   0.8356   0.8367   0.8371   0.8381
  0.8398   0.8399   0.8418   0.8435   0.8444   0.8463   0.8475   0.8489
  0.8498   0.8515   0.8526   0.8541   0.8556   0.8559   0.8568   0.8573
  0.8587   0.8596   0.8602   0.8618   0.8631   0.8636   0.8652   0.8657
  0.8668   0.8679   0.8696   0.8718   0.8720   0.8737   0.8742   0.8761
  0.8770   0.8787   0.8792   0.8808   0.8818   0.8827   0.8844   0.8865
  0.8875   0.8880   0.8890   0.8907   0.8912   0.8920   0.8939   0.8947
  0.8955   0.8961   0.8971   0.8976   0.8986   0.8995   0.9011   0.9029
  0.9045   0.9055   0.9063   0.9069   0.9087   0.9097   0.9118   0.9132
  0.9145   0.9154   0.9174   0.9188   0.9191   0.9208   0.9223   0.9231
  0.9241   0.9242   0.9252   0.9264   0.9276   0.9287   0.9296   0.9320
  0.9330   0.9338   0.9350   0.9358   0.9364   0.9369   0.9373   0.9384
  0.9406   0.9414   0.9432   0.9433   0.9446   0.9454   0.9472   0.9482
  0.9494   0.9502   0.9516   0.9526   0.9529   0.9540   0.9556   0.9565
  0.9575   0.9586   0.9595   0.9607   0.9614   0.9634   0.9645   0.9651
  0.9660   0.9666   0.9682   0.9687   0.9696   0.9717   0.9718   0.9739
  0.9742   0.9758   0.9766   0.9767   0.9771   0.9787   0.9795   0.9805
  0.9818   0.9821   0.9833   0.9840   0.9852   0.9863   0.9873   0.9896
  0.9910   0.9916   0.9928   0.9936   0.9945   0.9952   0.9957   0.9969
  0.9976   1.0001   1.0006   1.0020   1.0029   1.0043   1.0052   1.0063
  1.0072   1.0080   1.0091   1.0109   1.0117   1.0130   1.0137   1.0141
  1.0153   1.0157   1.0171   1.0179   1.0184   1.0194   1.0197   1.0208
  1.0223   1.0233   1.0250   1.0260   1.0276   1.0286   1.0299   1.0308
  1.0322   1.0324   1.0341   1.0349   1.0369   1.0374   1.0383   1.0394
  1.0405   1.0415   1.0419   1.0443   1.0458   1.0481   1.0488   1.0501
  1.0511   1.0545   1.0547   1.0555   1.0565   1.0573   1.0592   1.0593
  1.0603   1.0623   1.0634   1.0641   1.0651   1.0664   1.0676   1.0698
  1.0730   1.0735   1.0742   1.0755   1.0770   1.0784   1.0795   1.0803
  1.0826   1.0832   1.0847   1.0862   1.0874   1.0894   1.0916   1.0930
  1.0940   1.0949   1.0957   1.0980   1.0985   1.0989   1.1004   1.1020
  1.1046   1.1049   1.1054   1.1082   1.1092   1.1098   1.1114   1.1138
  1.1142   1.1158   1.1160   1.1168   1.1195   1.1204   1.1223   1.1233
  1.1247   1.1256   1.1268   1.1299   1.1304   1.1311   1.1324   1.1333
  1.1345   1.1352   1.1366   1.1374   1.1389   1.1398   1.1413   1.1418
  1.1447   1.1450   1.1465   1.1473   1.1483   1.1497   1.1510   1.1513
  1.1544   1.1566   1.1576   1.1598   1.1607   1.1617   1.1629   1.1642
  1.1652   1.1676   1.1682   1.1695   1.1700   1.1726   1.1752   1.1765
  1.1783   1.1796   1.1814   1.1842   1.1856   1.1861   1.1879   1.1889
  1.1894   1.1911   1.1934   1.1955   1.1967   1.1984   1.1997   1.2005
  1.2024   1.2026   1.2056   1.2061   1.2072   1.2095   1.2111   1.2123
  1.2134   1.2136   1.2161   1.2170   1.2211   1.2229   1.2251   1.2268
  1.2287   1.2298   1.2312   1.2337   1.2356   1.2379   1.2390   1.2417
  1.2430   1.2446   1.2489   1.2512   1.2532   1.2548   1.2588   1.2611
  1.2618   1.2622   1.2659   1.2667   1.2671   1.2686   1.2711   1.2724
  1.2746   1.2767   1.2773   1.2789   1.2830   1.2847   1.2862   1.2866
  1.2908   1.2919   1.2945   1.2975   1.2984   1.3003   1.3006   1.3019
  1.3039   1.3075   1.3087   1.3108   1.3124   1.3148   1.3184   1.3196
  1.3212   1.3225   1.3244   1.3265   1.3272   1.3297   1.3318   1.3327
  1.3335   1.3355   1.3388   1.3392   1.3403   1.3423   1.3441   1.3462
  1.3477   1.3488   1.3514   1.3526   1.3544   1.3556   1.3569   1.3584
  1.3601   1.3641   1.3644   1.3647   1.3666   1.3670   1.3692   1.3700
  1.3704   1.3736   1.3739   1.3757   1.3770   1.3777   1.3789   1.3808
  1.3818   1.3833   1.3843   1.3859   1.3872   1.3882   1.3907   1.3908
  1.3927   1.3938   1.3952   1.3969   1.3979   1.4002   1.4007   1.4029
  1.4040   1.4062   1.4073   1.4080   1.4091   1.4102   1.4126   1.4130
  1.4151   1.4163   1.4178   1.4188   1.4189   1.4208   1.4211   1.4247
  1.4249   1.4268   1.4285   1.4292   1.4312   1.4322   1.4335   1.4344
  1.4372   1.4390   1.4419   1.4427   1.4438   1.4454   1.4484   1.4489
  1.4503   1.4532   1.4538   1.4554   1.4571   1.4584   1.4621   1.4627
  1.4631   1.4642   1.4685   1.4692   1.4712   1.4740   1.4757   1.4768
  1.4776   1.4817   1.4829   1.4843   1.4852   1.4880   1.4891   1.4902
  1.4936   1.4945   1.4960   1.4982   1.4988   1.5015   1.5056   1.5076
  1.5097   1.5104   1.5128   1.5150   1.5170   1.5222   1.5240   1.5256
  1.5288   1.5318   1.5341   1.5351   1.5401   1.5407   1.5487   1.5512
  1.5555   1.5574   1.5583   1.5600   1.5638   1.5666   1.5693   1.5739
  1.5757   1.5767   1.5806   1.5857   1.5913   1.5926   1.5969   1.5993
  1.6016   1.6056   1.6082   1.6126   1.6183   1.6224   1.6254   1.6273
  1.6294   1.6327   1.6333   1.6353   1.6371   1.6392   1.6428   1.6438
  1.6448   1.6455   1.6462   1.6483   1.6496   1.6535   1.6549   1.6576
  1.6595   1.6609   1.6643   1.6648   1.6663   1.6670   1.6698   1.6714
  1.6724   1.6729   1.6744   1.6764   1.6766   1.6786   1.6798   1.6821
  1.6828   1.6830   1.6854   1.6859   1.6862   1.6873   1.6885   1.6898
  1.6932   1.6939   1.6945   1.6961   1.6981   1.6983   1.6987   1.7010
  1.7020   1.7023   1.7045   1.7066   1.7075   1.7087   1.7101   1.7125
  1.7134   1.7149   1.7150   1.7165   1.7170   1.7175   1.7220   1.7227
  1.7232   1.7244   1.7265   1.7281   1.7305   1.7315   1.7323   1.7328
  1.7335   1.7350   1.7361   1.7365   1.7376   1.7388   1.7396   1.7410
  1.7426   1.7449   1.7464   1.7484   1.7493   1.7501   1.7510   1.7541
  1.7550   1.7565   1.7577   1.7592   1.7600   1.7634   1.7641   1.7661
  1.7670   1.7705   1.7724   1.7739   1.7751   1.7793   1.7808   1.7823
  1.7838   1.7863   1.7872   1.7883   1.7899   1.7936   1.7958   1.7972
  1.8014   1.8028   1.8050   1.8088   1.8107   1.8127   1.8146   1.8175
  1.8184   1.8208   1.8245   1.8254   1.8291   1.8295   1.8326   1.8335
  1.8364   1.8400   1.8438   1.8451   1.8470   1.8494   1.8537   1.8546
  1.8557   1.8587   1.8607   1.8626   1.8641   1.8667   1.8684   1.8688
  1.8712   1.8717   1.8728   1.8743   1.8766   1.8776   1.8784   1.8792
  1.8811   1.8829   1.8834   1.8841   1.8857   1.8867   1.8881   1.8898
  1.8908   1.8920   1.8923   1.8932   1.8944   1.8963   1.8982   1.8998
  1.9008   1.9028   1.9035   1.9047   1.9054   1.9071   1.9075   1.9087
  1.9106   1.9118   1.9143   1.9168   1.9207   1.9215   1.9221   1.9245
  1.9249   1.9287   1.9296   1.9324   1.9331   1.9336   1.9346   1.9357
  1.9377   1.9382   1.9400   1.9424   1.9446   1.9475   1.9525   1.9553
  1.9556   1.9611   1.9640   1.9658   1.9685   1.9717   1.9770   1.9911
  1.9943   1.9958   2.0073   2.0085   2.0145   2.0197   2.0269   2.0285
  2.0315   2.0327   2.0344   2.0377   2.0389   2.0419   2.0446   2.0457
  2.0461   2.0469   2.0481   2.0489   2.0504   2.0509   2.0516   2.0542
  2.0572   2.0586   2.0591   2.0592   2.0603   2.0638   2.0655   2.0670
  2.0684   2.0707   2.0729   2.0752   2.0777   2.0806   2.0815   2.0824
  2.0828   2.0864   2.0888   2.0913   2.0929   2.0960   2.0964   2.0988
  2.1006   2.1009   2.1027   2.1050   2.1061   2.1096   2.1106   2.1135
  2.1156   2.1193   2.1245   2.1253   2.1264   2.1279   2.1302   2.1345
  2.1360   2.1375   2.1403   2.1410   2.1432   2.1456   2.1471   2.1484
  2.1523   2.1557   2.1592   2.1597   2.1626   2.1666   2.1749   2.1789
  2.1810   2.1837   2.1848   2.1867   2.1902   2.1920   2.1928   2.1937
  2.1974   2.1983   2.2027   2.2037   2.2056   2.2062   2.2080   2.2086
  2.2101   2.2106   2.2124   2.2129   2.2146   2.2152   2.2170   2.2180
  2.2195   2.2196   2.2200   2.2218   2.2235   2.2240   2.2254   2.2265
  2.2270   2.2285   2.2311   2.2315   2.2321   2.2330   2.2349   2.2367
  2.2374   2.2380   2.2396   2.2399   2.2416   2.2424   2.2431   2.2446
  2.2451   2.2456   2.2474   2.2485   2.2495   2.2500   2.2512   2.2517
  2.2524   2.2536   2.2546   2.2564   2.2569   2.2580   2.2589   2.2603
  2.2610   2.2624   2.2627   2.2642   2.2651   2.2655   2.2663   2.2670
  2.2681   2.2698   2.2708   2.2712   2.2723   2.2740   2.2753   2.2758
  2.2769   2.2779   2.2784   2.2799   2.2804   2.2819   2.2821   2.2826
  2.2834   2.2852   2.2853   2.2875   2.2886   2.2893   2.2900   2.2908
  2.2933   2.2945   2.2954   2.2958   2.2983   2.2988   2.2999   2.3011
  2.3015   2.3027   2.3033   2.3043   2.3061   2.3068   2.3086   2.3101
  2.3113   2.3119   2.3132   2.3154   2.3167   2.3174   2.3186   2.3199
  2.3216   2.3231   2.3254   2.3260   2.3267   2.3276   2.3290   2.3304
  2.3322   2.3330   2.3338   2.3361   2.3364   2.3383   2.3395   2.3405
  2.3438   2.3452   2.3456   2.3468   2.3488   2.3496   2.3518   2.3527
  2.3549   2.3575   2.3598   2.3607   2.3626   2.3635   2.3664   2.3680
  2.3718   2.3737   2.3772   2.3795   2.3802   2.3837   2.3905   2.3929
  2.3958   2.3976   2.4019   2.4131   2.4208   2.4237   2.4426   2.4500
  2.4846   2.5319   2.5401   2.5709   2.6457   2.7081   2.7388   2.7734
  2.7910   2.8021   2.8121   2.8123   2.8195   2.8211   2.8231   2.8267
  2.8283   2.8288   2.8324   2.8355   2.8371   2.8394   2.8414   2.8431
  2.8454   2.8527   2.8535   2.8566   2.8640   2.8664   2.8667   2.8774
  2.8788   2.8827   2.8897   2.8926   2.8972   2.8991   2.9037   2.9095
  2.9334   3.0702   3.2294   3.9277   3.9368   3.9450   3.9470   3.9472
  3.9482   3.9500   3.9544   3.9561   3.9577   3.9665   3.9702   3.9729
  3.9743   3.9784   3.9846   3.9865   3.9885   3.9904   3.9914   4.0015
  4.0031   4.0083   4.0094   4.0140   4.0187   4.0286   4.0349   4.1658
  4.1878   4.2043   4.2056   4.2072   4.2127   4.2163   4.2198   4.2253
  4.2255   4.2314   4.2328   4.2371   4.2418   4.2455   4.2483   4.2496
  4.2528   4.2567   4.2583   4.2622   4.2632   4.2679   4.2700   4.2736
  4.2746   4.2772   4.2782   4.2815   4.2822   4.2858   4.2866   4.2896
  4.2915   4.2935   4.2969   4.2983   4.3008   4.3023   4.3034   4.3060
  4.3096   4.3131   4.3160   4.3213   4.3231   4.3248   4.3280   4.3307
  4.3362   4.3408   4.3425   4.3439   4.3459   4.3478   4.3505   4.3556
  4.3603   4.3618   4.3644   4.3662   4.3702   4.3716   4.3762   4.3813
  4.3852   4.3933   4.3968   4.4035   4.4119   4.4147   4.4170   4.4230
  4.4311   4.4355   4.4402   4.4571   4.4658   4.4722   4.4741   4.4905
  4.4938   4.5269   4.5367   4.5453   4.6004   4.6047   4.6412   4.7082
  4.7142   4.7582   4.7844   4.8465
 --------------------------------------------------------------

          Ground-State Mulliken Net Atomic Charges

     Atom                 Charge (a.u.)
  ----------------------------------------
      1 C                    -0.342961
      2 C                    -0.803634
      3 C                    -0.861588
      4 C                    -0.436550
      5 C                    -0.119155
      6 C                    -0.282426
      7 H                     0.219004
      8 H                     0.199821
      9 H                     0.193862
     10 H                     0.231061
     11 H                     0.225199
     12 H                     0.240404
     13 H                     0.253532
     14 H                     0.207538
     15 H                     0.230946
     16 H                     0.180326
     17 H                     0.217573
     18 N                    -0.106127
     19 H                     0.563857
     20 C                    -0.035391
     21 H                     0.190196
     22 O                    -0.211816
     23 C                    -0.720866
     24 H                     0.276037
     25 H                     0.242074
     26 H                     0.254223
     27 S                     0.618939
     28 C                    -0.825613
     29 H                     0.236301
     30 H                     0.271245
     31 H                     0.246797
     32 O                    -0.588614
     33 C                    -1.040981
     34 H                     0.220068
     35 H                     0.277484
     36 H                     0.306985
     37 S                     1.300057
     38 C                    -1.053856
     39 H                     0.245609
     40 H                     0.254125
     41 H                     0.268180
     42 O                    -0.699385
     43 C                    -0.906076
     44 H                     0.235582
     45 H                     0.247484
     46 H                     0.261204
     47 S                     0.959287
     48 C                    -0.964608
     49 H                     0.274819
     50 H                     0.256593
     51 H                     0.249741
     52 O                    -0.608818
     53 C                    -0.946249
     54 H                     0.267021
     55 H                     0.219691
     56 H                     0.263946
     57 S                     0.674038
     58 C                    -0.959952
     59 H                     0.298755
     60 H                     0.265141
     61 H                     0.330602
     62 O                    -0.620980
     63 C                    -0.863219
     64 H                     0.246849
     65 H                     0.232604
     66 H                     0.275076
     67 S                     0.946946
     68 C                    -0.755263
     69 H                     0.240214
     70 H                     0.199172
     71 H                     0.244537
     72 O                    -0.713199
     73 C                    -0.543351
     74 H                     0.278188
     75 H                     0.256015
     76 H                     0.248889
     77 S                     0.518302
     78 C                    -0.753233
     79 H                     0.231704
     80 H                     0.264811
     81 H                     0.288834
     82 O                    -0.698233
     83 C                    -1.101780
     84 H                     0.224575
     85 H                     0.282181
     86 H                     0.298372
     87 S                     1.361319
     88 C                    -1.058012
     89 H                     0.273341
     90 H                     0.254365
     91 H                     0.264439
     92 O                    -0.746480
     93 C                    -1.285603
     94 H                     0.295919
     95 H                     0.249880
     96 H                     0.270391
     97 S                     0.935212
     98 C                    -0.716779
     99 H                     0.306374
    100 H                     0.239833
    101 H                     0.292845
    102 O                    -0.670090
    103 C                    -0.940514
    104 H                     0.261370
    105 H                     0.271821
    106 H                     0.226759
    107 S                     0.938316
    108 C                    -0.878670
    109 H                     0.258044
    110 H                     0.268598
    111 H                     0.294400
    112 O                    -0.628356
    113 C                    -0.886410
    114 H                     0.277173
    115 H                     0.240837
    116 H                     0.250434
    117 S                     1.003243
    118 C                    -0.832165
    119 H                     0.212576
    120 H                     0.255085
    121 H                     0.257243
    122 O                    -0.697423
    123 C                    -0.815053
    124 H                     0.254893
    125 H                     0.249628
    126 H                     0.244462
    127 S                     0.752747
    128 C                    -0.743445
    129 H                     0.246647
    130 H                     0.247992
    131 H                     0.254427
    132 O                    -0.717422
    133 C                    -0.851014
    134 H                     0.238958
    135 H                     0.256347
    136 H                     0.329935
    137 S                     0.833990
    138 C                    -0.797530
    139 H                     0.266963
    140 H                     0.235661
    141 H                     0.236828
    142 O                    -0.669173
    143 C                    -0.876931
    144 H                     0.243930
    145 H                     0.205898
    146 H                     0.299949
    147 S                     0.950642
    148 C                    -0.859600
    149 H                     0.284272
    150 H                     0.218368
    151 H                     0.284933
    152 O                    -0.715178
    153 C                    -0.888783
    154 H                     0.235989
    155 H                     0.261584
    156 H                     0.261328
    157 S                     0.637218
    158 C                    -0.929627
    159 H                     0.262283
    160 H                     0.278981
    161 H                     0.231155
    162 O                    -0.437668
    163 C                    -0.885108
    164 H                     0.254859
    165 H                     0.245578
    166 H                     0.255944
    167 S                     0.823862
    168 C                    -0.794293
    169 H                     0.245136
    170 H                     0.269121
    171 H                     0.296884
    172 O                    -0.735186
    173 C                    -0.850469
    174 H                     0.236083
    175 H                     0.240197
    176 H                     0.269196
    177 S                     0.898410
    178 C                    -0.834077
    179 H                     0.214138
    180 H                     0.294926
    181 H                     0.264130
    182 O                    -0.745061
    183 C                    -0.972270
    184 H                     0.249620
    185 H                     0.214366
    186 H                     0.291503
    187 S                     1.241148
    188 C                    -1.110249
    189 H                     0.268197
    190 H                     0.255502
    191 H                     0.238276
    192 O                    -0.733787
    193 C                    -0.744948
    194 H                     0.271450
    195 H                     0.247403
    196 H                     0.275455
    197 S                     0.639474
    198 C                    -1.005744
    199 H                     0.238001
    200 H                     0.307923
    201 H                     0.313720
    202 O                    -0.547523
    203 C                    -0.865375
    204 H                     0.227990
    205 H                     0.228586
    206 H                     0.257175
    207 S                     1.114544
    208 C                    -0.920733
    209 H                     0.203868
    210 H                     0.289036
    211 H                     0.254830
    212 O                    -0.737204
    213 C                    -0.859812
    214 H                     0.251052
    215 H                     0.238326
    216 H                     0.268631
    217 S                     0.981901
    218 C                    -0.930530
    219 H                     0.249460
    220 H                     0.246618
    221 H                     0.267338
    222 O                    -0.717655
    223 C                    -0.920021
    224 H                     0.265829
    225 H                     0.220052
    226 H                     0.241161
    227 S                     1.005157
    228 C                    -0.795499
    229 H                     0.261401
    230 H                     0.254982
    231 H                     0.218306
    232 O                    -0.728733
    233 C                    -0.895682
    234 H                     0.230246
    235 H                     0.281131
    236 H                     0.241432
    237 S                     0.994983
    238 C                    -0.843849
    239 H                     0.244865
    240 H                     0.259304
    241 H                     0.224867
    242 O                    -0.713665
    243 C                    -0.526773
    244 H                     0.275868
    245 H                     0.234721
    246 H                     0.250406
    247 S                     0.445715
    248 C                    -0.836392
    249 H                     0.316346
    250 H                     0.262612
    251 H                     0.217263
    252 O                    -0.632034
    253 C                    -1.099555
    254 H                     0.236643
    255 H                     0.311553
    256 H                     0.258997
    257 S                     1.130647
    258 C                    -1.137827
    259 H                     0.282150
    260 H                     0.249244
    261 H                     0.254940
[...]
    2   3.0895688   3.0075877   1.6882653   4.2169991   1.6334279   2.5981931
    3   1.5600332   0.8126743   2.5233276   0.9026374   0.0782844  -0.5171627
          229         230         231         232         233         234
    1   1.3340951   1.2476035   1.6496482  -1.6515370  -3.1240683  -3.2335450
    2   1.8228555   4.4619799   2.3290902   3.6499657  -1.5830004   0.2590875
    3  -2.4459705  -0.5099308   1.3429343  -1.9642254  -0.0320069  -0.0181795
          235         236         237         238         239         240
    1  -2.2694374  -3.7131740  -1.6789308  -1.7249018  -0.4773532  -1.8078342
    2  -2.8446933  -2.2356930  -2.4743123  -0.2680063  -0.7039721   0.4916047
    3  -1.5592630   1.3403886   1.6853728   2.0970860   3.0749954   0.3542308
          241         242         243         244         245         246
    1  -3.5714706   0.3660229   0.3432006   0.5740864   1.3918265  -0.7721557
    2  -0.4494338  -2.2233501   1.3572777  -0.7061067   2.9056523   2.3576197
    3   2.5181487  -0.6212866   1.3039608   0.4342061   0.5220810   2.5809902
          247         248         249         250         251         252
    1  -1.5043504  -1.7699368  -2.7007757   0.2997070  -2.1924243   0.0730038
    2   2.1245722  -0.0685472   0.7334840  -1.0795462   0.2264075   1.2168048
    3   0.7002349   0.1714871  -1.1065216  -0.2979084   1.7046181  -1.9847459
          253         254         255         256         257         258
    1  -1.6400844  -0.0870630  -1.5102591  -3.5954457  -0.7651970  -0.1357158
    2   2.0512145   1.9905213   1.9286988   2.0363224   0.2017215   0.5634989
    3  -1.2022411   0.0891252  -3.1318045  -0.8066922  -0.6272983  -2.4857584
          259         260         261         262         263         264
    1  -1.3746795   1.2153468  -0.5419672  -3.7553775   2.0051090   1.0013678
    2   1.6402200   1.3994612  -1.0622831  -0.5725907  -0.0068117  -1.2906175
    3  -3.7670235  -1.0311148  -2.4372358  -2.5624361   2.9269713   4.0899624
          265         266         267         268         269         270
    1   2.3417760   2.4142703   0.6989736  -0.5143395  -0.5955967   0.9688058
    2  -0.7746387   1.8409508   1.7319811   0.8735627  -1.3737852   1.8890395
    3   1.4478581   3.2296991   2.1287746   3.6583307   3.7708142   4.0071808
          271         272         273         274         275         276
    1  -1.8962417  -0.6358126  -0.0907151  -0.7262036   0.1301175   0.2471196
    2   1.9625914  -1.1230729  -2.1369222  -2.7128366  -3.6844075  -0.3565406
    3   2.7822309   1.2920204   0.5039285  -1.0647168   1.8978686   0.5682958
          277         278         279         280         281         282
    1   1.9176038   2.3435768   2.2784469   3.8202817   0.6201313   1.4414690
    2  -1.9546196  -0.6418668   0.3919508  -1.0999319  -1.3367782  -3.9566721
    3   0.4118789  -1.4227784   0.0901060  -2.1267675  -2.1129153  -1.7012630
          283         284         285         286         287         288
    1  -0.3658238  -0.9142700   0.4682953  -0.2202014   1.1493243   1.5452454
    2   0.0043498  -0.5379512   1.7852086  -0.9361891  -1.6910381  -0.1708305
    3   0.9227972   2.7786867   0.4515585  -0.5119268   1.7493886   2.8734204
          289         290         291         292         293         294
    1  -0.0725350   3.1414809   1.7745918   2.9773211  -0.5707947  -2.1542508
    2  -0.6846442  -1.4892533   1.4719501  -0.0283004   2.8522576   2.6981156
    3   3.5044330   3.1885233   1.5604247  -0.2474086   2.3074249   1.1665770
          295         296         297         298         299         300
    1  -0.3341889   0.6406237   1.2300508   0.7269100   0.9484934  -0.8389267
    2   1.6829349   4.1347223   1.4779807   2.4862611   0.4696858   3.5502224
    3   3.5668908   2.0460201   1.4727202  -0.1058631  -1.2849336   0.2877550
          301         302
    1   2.0318192  -1.1092068
    2   3.0773163  -0.4443718
    3   0.7075874   0.1720633
 EField
            1           2           3           4           5           6
    1   0.0000699  -0.0006148   0.0006001  -0.0009111   0.0026906   0.0009081
    2  -0.0060161  -0.0099058  -0.0061193  -0.0048374  -0.0077106  -0.0059679
    3  -0.0029284   0.0048156   0.0048098  -0.0027214  -0.0040825  -0.0015243
            7           8           9          10          11          12
    1  -0.0048959  -0.0060380   0.0048260  -0.0045511  -0.0035156  -0.0019483
    2  -0.0033521  -0.0114618  -0.0055108  -0.0042160  -0.0033231  -0.0010040
    3   0.0057155   0.0036398  -0.0085503  -0.0051103  -0.0028023  -0.0033942
           13          14          15          16          17          18
    1   0.0039954   0.0053914   0.0002978   0.0039778   0.0117453  -0.0004885
    2  -0.0151304  -0.0058675  -0.0082254  -0.0046796  -0.0059736  -0.0184180
    3  -0.0059216  -0.0044583  -0.0037818   0.0049021   0.0058285   0.0121404
           19          20          21          22          23          24
    1  -0.0095801  -0.0033905  -0.0100093  -0.0014236   0.0000456   0.0198532
    2  -0.0344211  -0.0133426  -0.0086436  -0.0138559  -0.0063006  -0.0175681
    3   0.0256937   0.0087646   0.0110451   0.0070856  -0.0055912   0.0072459
           25          26          27          28          29          30
    1  -0.0190799  -0.0044905   0.0057354  -0.0036813  -0.0263723   0.0007076
    2  -0.0264807   0.0127097  -0.0124922   0.0044602  -0.0098577   0.0282392
    3   0.0087924  -0.0288159   0.0587283  -0.0027448   0.0133991   0.0054840
           31          32          33          34          35          36
    1  -0.0113193   0.0825457   0.0056635  -0.0073889   0.0308418  -0.0045118
    2  -0.0047416   0.0438722  -0.0087935  -0.0241829   0.0094305  -0.0300442
    3  -0.0290389  -0.0568383   0.0044477  -0.0174940  -0.0037875   0.0218602
           37          38          39          40          41          42
    1  -0.0488225   0.0041310  -0.0239545  -0.0110932   0.0357150   0.0750356
    2  -0.0142227   0.0009301  -0.0219260   0.0218681   0.0044897   0.0745821
    3   0.0269959  -0.0058700  -0.0115799  -0.0194899  -0.0102945   0.0308748
           43          44          45          46          47          48
    1  -0.0006047  -0.0232821  -0.0126188   0.0005105   0.0157896  -0.0014491
    2  -0.0021090  -0.0222377   0.0190373  -0.0230100  -0.0408954   0.0007010
    3  -0.0046249   0.0114990  -0.0199487  -0.0299630   0.0378710   0.0047148
           49          50          51          52          53          54
    1  -0.0126890   0.0074660  -0.0136895   0.0713626   0.0011569   0.0220615
    2  -0.0134812   0.0238602   0.0191835   0.0616157   0.0053748   0.0264345
    3   0.0303671   0.0244906  -0.0189313  -0.0559975   0.0048108   0.0006143
           55          56          57          58          59          60
    1  -0.0296494   0.0011882  -0.0347140  -0.0101682  -0.0463685  -0.0076282
    2   0.0074029  -0.0130975   0.0337512  -0.0061389  -0.0005945  -0.0126989
    3   0.0090561   0.0176942  -0.0382452  -0.0002794   0.0039063  -0.0301700
           61          62          63          64          65          66
    1   0.0163179   0.1039263  -0.0044010  -0.0227144  -0.0054340   0.0151064
    2  -0.0088737  -0.0200611   0.0014654  -0.0207031   0.0320977  -0.0127675
    3   0.0020571  -0.0351221  -0.0082558   0.0065576  -0.0086581  -0.0235709
           67          68          69          70          71          72
    1   0.0078688  -0.0009759  -0.0093186  -0.0320201   0.0196050   0.0881504
    2  -0.0611732   0.0017179   0.0270331  -0.0123868   0.0003694   0.0625923
    3   0.0187069   0.0017284  -0.0129215   0.0119732   0.0216919  -0.0206522
           73          74          75          76          77          78
    1  -0.0023461  -0.0042600  -0.0219018   0.0237517   0.0104421   0.0039241
    2   0.0052092   0.0234430  -0.0206380   0.0253211  -0.0446412   0.0061156
    3  -0.0033575  -0.0241675   0.0121080   0.0042896   0.0322111  -0.0062543
           79          80          81          82          83          84
    1   0.0311126   0.0122329  -0.0059093  -0.0692792   0.0024520   0.0372505
    2   0.0107856  -0.0224205   0.0243404  -0.0062816  -0.0063465   0.0028051
    3   0.0143021  -0.0171564  -0.0237674  -0.0865779   0.0068443   0.0003069
           85          86          87          88          89          90
    1  -0.0313038  -0.0016508   0.0188480  -0.0082292  -0.0027822  -0.0028320
    2   0.0010420  -0.0249900   0.0441329   0.0028338  -0.0304080   0.0219269
    3   0.0228620  -0.0150981  -0.0051313   0.0039831  -0.0004674   0.0266630
           91          92          93          94          95          96
    1  -0.0121738  -0.0210267   0.0059441   0.0207525   0.0009895   0.0218776
    2   0.0115052  -0.0777873   0.0028939  -0.0098783   0.0319226   0.0123316
    3  -0.0240641  -0.0737683  -0.0009636  -0.0175366  -0.0155153   0.0183609
           97          98          99         100         101         102
    1  -0.0439262   0.0024621   0.0315487  -0.0057110  -0.0305611   0.0411601
    2   0.0068506   0.0052536   0.0007242   0.0356842  -0.0123778  -0.0988094
    3  -0.0319011   0.0108843   0.0159526   0.0019129   0.0098916   0.0268732
          103         104         105         106         107         108
    1   0.0011187  -0.0139331   0.0260736  -0.0001489   0.0304787  -0.0105105
    2   0.0031858  -0.0163684  -0.0146079   0.0289877   0.0218641   0.0066058
    3   0.0062775   0.0227003   0.0040003   0.0073686  -0.0444750   0.0045381
          109         110         111         112         113         114
    1  -0.0186627  -0.0209784   0.0112207  -0.0306483   0.0057294   0.0081473
    2  -0.0021066  -0.0165784   0.0342369  -0.1047451   0.0055802   0.0217859
    3  -0.0204742   0.0174091   0.0013208   0.0043252  -0.0043805   0.0259400
          115         116         117         118         119         120
    1   0.0204739  -0.0187638  -0.0370460   0.0061203   0.0182175  -0.0069543
    2  -0.0064093   0.0112992   0.0173819  -0.0012840   0.0134146  -0.0193666
    3  -0.0288463  -0.0237430   0.0424157   0.0015668   0.0237162   0.0176732
          121         122         123         124         125         126
    1   0.0148294  -0.0293486  -0.0041578  -0.0119095  -0.0222983   0.0135772
    2  -0.0118218  -0.0753553   0.0067408  -0.0037391   0.0059119   0.0284715
    3  -0.0263689  -0.0755395  -0.0026926  -0.0276616   0.0228063  -0.0071770
          127         128         129         130         131         132
    1  -0.0294909   0.0065612   0.0197635  -0.0191615   0.0278479   0.0495986
    2  -0.0455566   0.0048557   0.0232620   0.0041748  -0.0150502  -0.0069208
    3   0.0226976   0.0023204  -0.0151233   0.0275123   0.0074938  -0.0985665
          133         134         135         136         137         138
    1  -0.0045502  -0.0241028  -0.0038153   0.0157657   0.0026068  -0.0042656
    2   0.0016865  -0.0283853   0.0367807  -0.0126714  -0.0526462   0.0038271
    3  -0.0122778  -0.0100159   0.0045899  -0.0292196   0.0075266   0.0039533
          139         140         141         142         143         144
    1  -0.0067016  -0.0338134   0.0176077   0.0830399   0.0071305  -0.0011655
    2   0.0273919  -0.0093580   0.0025033   0.0700446  -0.0030132   0.0227788
    3  -0.0081878   0.0067376   0.0252996  -0.0001728   0.0061438   0.0242878
          145         146         147         148         149         150
    1  -0.0216920   0.0311772  -0.0379926   0.0048192   0.0307411  -0.0188794
    2  -0.0190732  -0.0129565   0.0382658  -0.0050252  -0.0153151  -0.0110953
    3   0.0122679  -0.0064438  -0.0035132  -0.0059887   0.0007762   0.0138091
          151         152         153         154         155         156
    1   0.0017011   0.1052180  -0.0049621  -0.0210644  -0.0017833  -0.0079036
    2   0.0019672   0.0188539   0.0005724   0.0257166   0.0026824  -0.0318216
    3  -0.0347464  -0.0345497  -0.0031042   0.0134429  -0.0309828  -0.0099123
          157         158         159         160         161         162
    1  -0.0004426   0.0028869   0.0329840   0.0014230  -0.0175622   0.0664343
    2  -0.0127522   0.0056671   0.0033509   0.0117847   0.0220714  -0.0568805
    3   0.0542818  -0.0029304   0.0015675  -0.0276795   0.0135595  -0.0683697
          163         164         165         166         167         168
    1  -0.0091308  -0.0028783   0.0102309  -0.0144600   0.0438618   0.0000968
    2   0.0013461   0.0121106   0.0164397  -0.0263550   0.0335013  -0.0055023
    3  -0.0015738   0.0372720  -0.0293679  -0.0219219   0.0027468  -0.0111227
          169         170         171         172         173         174
    1   0.0227966  -0.0219895  -0.0023163  -0.0255802  -0.0070359  -0.0056702
    2  -0.0224208  -0.0233509   0.0138909  -0.0726623   0.0016000  -0.0046645
    3   0.0088498  -0.0016977  -0.0331505   0.0794907  -0.0017540  -0.0334909
          175         176         177         178         179         180
    1  -0.0328248   0.0014418   0.0433863  -0.0008334  -0.0116736   0.0068415
    2   0.0065838   0.0291363  -0.0069697  -0.0050311  -0.0251536  -0.0327330
    3   0.0127012   0.0017217  -0.0230153   0.0049202  -0.0237626   0.0224233
          181         182         183         184         185         186
    1  -0.0246125  -0.0186500  -0.0065834  -0.0179279   0.0234660  -0.0132655
    2   0.0021718   0.0517844   0.0077878   0.0000461   0.0184948   0.0173813
    3   0.0191532   0.0966078   0.0003967   0.0282115   0.0072582  -0.0249551
          187         188         189         190         191         192
    1   0.0295479   0.0092112   0.0168722  -0.0227108   0.0304267  -0.0923190
    2  -0.0257982   0.0019604  -0.0184083   0.0084347   0.0124432  -0.0302472
    3   0.0281349  -0.0071664  -0.0203751  -0.0148978   0.0016866  -0.0523871
          193         194         195         196         197         198
    1   0.0002089  -0.0021918  -0.0310998   0.0147148   0.0001159   0.0018187
    2  -0.0031752  -0.0332487   0.0029363  -0.0095188  -0.0015069   0.0061562
    3  -0.0045776  -0.0026042   0.0047291  -0.0293928   0.0512395  -0.0048242
          199         200         201         202         203         204
    1  -0.0309640   0.0168200   0.0206381   0.1009278  -0.0037785  -0.0090497
    2   0.0018312   0.0155552  -0.0157351  -0.0098462  -0.0022507  -0.0060694
    3   0.0002558   0.0250607  -0.0244429  -0.0726050   0.0007173   0.0347866
          205         206         207         208         209         210
    1  -0.0297976   0.0117432   0.0499230  -0.0019877  -0.0292520   0.0077267
    2  -0.0021847  -0.0277262   0.0064508   0.0056268  -0.0069677   0.0221805
    3  -0.0137822   0.0001413   0.0373878   0.0021872  -0.0053732   0.0207085
          211         212         213         214         215         216
    1   0.0090245   0.0138959  -0.0001606  -0.0149661   0.0257047  -0.0266564
    2   0.0141866  -0.0247465   0.0071441   0.0253504   0.0135359  -0.0095061
    3  -0.0228567  -0.1058374   0.0011461   0.0220486  -0.0056130  -0.0200831
          217         218         219         220         221         222
    1  -0.0453744   0.0067762   0.0216083  -0.0140650   0.0130208   0.0647265
    2  -0.0342853   0.0040023   0.0206371   0.0138597  -0.0293895  -0.0229535
    3   0.0143990   0.0057014  -0.0106426   0.0275547  -0.0014151  -0.0860635
          223         224         225         226         227         228
    1  -0.0011549  -0.0283399   0.0014716   0.0097251  -0.0193839   0.0042072
    2   0.0029467   0.0181448  -0.0125066   0.0326677  -0.0577223   0.0070329
    3   0.0026571   0.0046931   0.0328042   0.0044431   0.0075871  -0.0020280
          229         230         231         232         233         234
    1   0.0173701   0.0101499   0.0171306  -0.0460717  -0.0054515  -0.0036761
    2  -0.0110492   0.0336792  -0.0140912   0.0658512  -0.0013243   0.0300121
    3  -0.0230941  -0.0164645   0.0205515  -0.0765797  -0.0043765  -0.0080292
          235         236         237         238         239         240
    1   0.0078077  -0.0291806  -0.0006762  -0.0011806   0.0243760   0.0034622
    2  -0.0146514  -0.0108977  -0.0418402   0.0076043  -0.0052753   0.0192028
    3  -0.0271477   0.0142891   0.0353589  -0.0008938   0.0212825  -0.0253069
          241         242         243         244         245         246
    1  -0.0288785   0.0814432   0.0033452   0.0128198   0.0263323  -0.0157889
    2   0.0160037   0.0038879  -0.0019240  -0.0259349   0.0117659  -0.0018376
    3   0.0191260  -0.0762022   0.0056326   0.0057350  -0.0095829   0.0337756
          247         248         249         250         251         252
    1  -0.0358498  -0.0056082  -0.0247541   0.0141059  -0.0165939   0.0409458
    2   0.0387000  -0.0080707  -0.0112854  -0.0233599  -0.0110138  -0.0039344
    3   0.0184424  -0.0033929  -0.0209748  -0.0116705   0.0275706  -0.1003957
          253         254         255         256         257         258
    1  -0.0024848   0.0139303   0.0018235  -0.0256774   0.0233483   0.0045199
    2   0.0113763   0.0164188   0.0113595   0.0048200  -0.0166050  -0.0022068
    3  -0.0031100   0.0244896  -0.0308911   0.0164216   0.0435584  -0.0076846
          259         260         261         262         263         264
    1  -0.0195201   0.0345125   0.0136846  -0.0922775   0.0099496  -0.0056999
    2   0.0139994   0.0055943  -0.0249816  -0.0342646  -0.0059212  -0.0277305
    3  -0.0221781   0.0062374  -0.0085429  -0.0487115   0.0010355   0.0175815
          265         266         267         268         269         270
    1   0.0265332   0.0251253   0.0089710  -0.0041244  -0.0044423   0.0148920
    2  -0.0155967   0.0218167   0.0483057   0.0000440  -0.0294314   0.0132148
    3  -0.0144441   0.0061111  -0.0185674   0.0058445   0.0080909   0.0283860
          271         272         273         274         275         276
    1  -0.0301082  -0.0517756  -0.0112464  -0.0204736  -0.0124962   0.0003756
    2   0.0128374  -0.0820579  -0.0001535  -0.0165948  -0.0152785   0.0283934
    3   0.0005680  -0.0527620  -0.0003983  -0.0216932   0.0249301   0.0198156
          277         278         279         280         281         282
    1   0.0420365  -0.0057323   0.0067920   0.0258884  -0.0215963   0.0048061
    2   0.0022598   0.0075447   0.0295369  -0.0105057   0.0055661  -0.0872401
    3   0.0485623  -0.0034649   0.0176801  -0.0122375  -0.0266398  -0.0672403
          283         284         285         286         287         288
    1  -0.0084355  -0.0274607  -0.0007766  -0.0249095  -0.0084936   0.0021593
    2   0.0039552  -0.0017925   0.0310444  -0.0118426  -0.0528337   0.0038814
    3  -0.0077224   0.0161689  -0.0077904  -0.0272122   0.0135809   0.0056783
          289         290         291         292         293         294
    1  -0.0234261   0.0254719   0.0037197   0.0704786  -0.0060597  -0.0312153
    2   0.0055425  -0.0062064   0.0256069   0.0398783   0.0035971  -0.0008151
    3   0.0217936   0.0215000  -0.0121050  -0.0708855   0.0043806  -0.0059984
          295         296         297         298         299         300
    1  -0.0092636   0.0134185   0.0500509   0.0015560  -0.0030238  -0.0272266
    2  -0.0135996   0.0305883  -0.0163961   0.0040088  -0.0169778   0.0159430
    3   0.0284579   0.0027262   0.0234778  -0.0035467  -0.0132549   0.0017916
          301         302
    1   0.0267857  -0.0711501
    2   0.0200910  -0.0780659
    3   0.0058924  -0.0386115
  --- DONE ESP SUMMARY ---
 Total job time:  39.11s(wall), 97.03s(cpu) 
 Thu Jul 21 10:31:08 2022

        *************************************************************
        *                                                           *
        *  Thank you very much for using Q-Chem.  Have a nice day.  *
        *                                                           *
        *************************************************************


