                  Welcome to Q-Chem
     A Quantum Leap Into The Future Of Chemistry


 Q-Chem 5.2 (devel), Q-Chem, Inc., Pleasanton, CA (2019)

 Yihan Shao,  Zhengting Gan,  E. Epifanovsky,  A. T. B. Gilbert,  M. Wormit,  
 J. Kussmann,  A. W. Lange,  A. Behn,  Jia Deng,  Xintian Feng,  D. Ghosh,  
 M. Goldey,  P. R. Horn,  L. D. Jacobson,  I. Kaliman,  T. Kus,  A. Landau,  
 Jie Liu,  E. I. Proynov,  R. M. Richard,  R. P. Steele,  E. J. Sundstrom,  
 H. L. Woodcock III,  P. M. Zimmerman,  D. Zuev,  B. Alam,  B. Albrecht,  
 E. Alguire,  S. A. Baeppler,  D. Barton,  Z. Benda,  Y. A. Bernard,  
 E. J. Berquist,  K. B. Bravaya,  H. Burton,  K. Carter-Fenk,  D. Casanova,  
 Chun-Min Chang,  Yunqing Chen,  A. Chien,  K. D. Closser,  M. P. Coons,  
 S. Coriani,  S. Dasgupta,  A. L. Dempwolff,  M. Diedenhofen,  Hainam Do,  
 R. G. Edgar,  Po-Tung Fang,  S. Faraji,  S. Fatehi,  Qingguo Feng,  
 J. Fosso-Tande,  J. Gayvert,  Qinghui Ge,  A. Ghysels,  G. Gidofalvi,  
 J. Gomes,  J. Gonthier,  A. Gunina,  D. Hait,  M. W. D. Hanson-Heine,  
 P. H. P. Harbach,  A. W. Hauser,  M. F. Herbst,  J. E. Herr,  
 E. G. Hohenstein,  Z. C. Holden,  Kerwin Hui,  B. C. Huynh,  T.-C. Jagau,  
 Hyunjun Ji,  B. Kaduk,  K. Khistyaev,  Jaehoon Kim,  P. Klunzinger,  K. Koh,  
 D. Kosenkov,  L. Koulias,  T. Kowalczyk,  C. M. Krauter,  A. Kunitsa,  
 Ka Un Lao,  A. Laurent,  K. V. Lawler,  Joonho Lee,  D. Lefrancois,  
 S. Lehtola,  D. S. Levine,  Yi-Pei Li,  You-Sheng Lin,  Fenglai Liu,  
 Kuan-Yu Liu,  E. Livshits,  M. Loipersberger,  A. Luenser,  P. Manohar,  
 E. Mansoor,  S. F. Manzer,  Shan-Ping Mao,  Yuezhi Mao,  N. Mardirossian,  
 A. V. Marenich,  T. Markovich,  L. A. Martinez-Martinez,  S. A. Maurer,  
 N. J. Mayhall,  S. C. McKenzie,  J.-M. Mewes,  P. Morgante,  A. F. Morrison,  
 J. W. Mullinax,  K. Nanda,  T. S. Nguyen-Beck,  R. Olivares-Amaya,  
 J. A. Parkhill,  S. K. Paul,  F. Pavosevic,  Zheng Pei,  T. M. Perrine,  
 F. Plasser,  P. Pokhilko,  S. Prager,  A. Prociuk,  E. Ramos,  B. Rana,  
 D. R. Rehn,  F. Rob,  M. Scheurer,  M. Schneider,  N. Sergueev,  
 S. M. Sharada,  S. Sharma,  D. W. Small,  T. Stauch,  C. J. Stein,  
 T. Stein,  Yu-Chuan Su,  S. P. Veccham,  Zhen Tao,  A. J. W. Thom,  
 A. Tkatchenko,  T. Tsuchimochi,  N. M. Tubman,  L. Vogt,  M. L. Vidal,  
 O. Vydrov,  M. A. Watson,  J. Wenzel,  M. de Wergifosse,  T. A. Wesolowski,  
 A. White,  J. Witte,  A. Yamada,  Jun Yang,  K. Yao,  S. Yeganeh,  
 S. R. Yost,  Zhi-Qiang You,  A. Zech,  Igor Ying Zhang,  Xing Zhang,  
 Yan Zhao,  Ying Zhu,  B. R. Brooks,  G. K. L. Chan,  C. J. Cramer,  
 M. S. Gordon,  W. J. Hehre,  A. Klamt,  M. W. Schmidt,  C. D. Sherrill,  
 D. G. Truhlar,  A. Aspuru-Guzik,  R. Baer,  A. T. Bell,  N. A. Besley,  
 Jeng-Da Chai,  A. E. DePrince, III,  R. A. DiStasio Jr.,  A. Dreuw,  
 B. D. Dunietz,  T. R. Furlani,  Chao-Ping Hsu,  Yousung Jung,  Jing Kong,  
 D. S. Lambrecht,  WanZhen Liang,  C. Ochsenfeld,  V. A. Rassolov,  
 L. V. Slipchenko,  J. E. Subotnik,  T. Van Voorhis,  J. M. Herbert,  
 A. I. Krylov,  P. M. W. Gill,  M. Head-Gordon

 Contributors to earlier versions of Q-Chem not listed above: 
 R. D. Adamson,  B. Austin,  J. Baker,  G. J. O. Beran,  K. Brandhorst,  
 S. T. Brown,  E. F. C. Byrd,  A. K. Chakraborty,  C.-L. Cheng,  
 Siu Hung Chien,  D. M. Chipman,  D. L. Crittenden,  H. Dachsel,  
 R. J. Doerksen,  A. D. Dutoi,  L. Fusti-Molnar,  W. A. Goddard III,  
 A. Golubeva-Zadorozhnaya,  S. R. Gwaltney,  G. Hawkins,  A. Heyden,  
 S. Hirata,  G. Kedziora,  F. J. Keil,  C. Kelley,  Jihan Kim,  R. A. King,  
 R. Z. Khaliullin,  P. P. Korambath,  W. Kurlancheek,  A. M. Lee,  M. S. Lee,  
 S. V. Levchenko,  Ching Yeh Lin,  D. Liotard,  R. C. Lochan,  I. Lotan,  
 P. E. Maslen,  N. Nair,  D. P. O'Neill,  D. Neuhauser,  E. Neuscamman,  
 C. M. Oana,  R. Olson,  B. Peters,  R. Peverati,  P. A. Pieniazek,  
 Y. M. Rhee,  J. Ritchie,  M. A. Rohrdanz,  E. Rosta,  N. J. Russ,  
 H. F. Schaefer III,  N. E. Schultz,  N. Shenvi,  A. C. Simmonett,  A. Sodt,  
 D. Stuck,  K. S. Thanthiriwatte,  V. Vanovschi,  Tao Wang,  A. Warshel,  
 C. F. Williams,  Q. Wu,  X. Xu,  W. Zhang

 Please cite Q-Chem as follows:
 Y. Shao et al., Mol. Phys. 113, 184-215 (2015)
 DOI: 10.1080/00268976.2014.952696

 Q-Chem 5.2.2 for Intel X86 EM64T Linux

 Parts of Q-Chem use Armadillo 9.800.1 (Horizon Scraper).
 http://arma.sourceforge.net/

 Q-Chem begins on Fri Dec  3 10:57:05 2021  

Host: node003
0

     Scratch files written to /home/ymao90/scratch/r7.00_frame_0059_spade_B3LYP_dp20211203023736//

Checking the input file for inconsistencies... 	...done.

--------------------------------------------------------------
User input:
--------------------------------------------------------------
$molecule
0 1
--
0 1
C    24.00800   22.23000   27.03400  
C    25.35100   22.94800   27.25000  
C    26.40900   22.37100   26.29600  
C    25.95000   22.46000   24.83100  
C    24.53200   21.92700   24.56800  
C    23.51300   22.44600   25.59500  
H    27.39000   22.84500   26.41800  
H    25.25600   24.02600   27.07600  
H    24.02900   21.14300   27.17800  
H    23.33700   22.67300   27.78000  
H    26.14400   23.45700   24.41800  
H    26.55400   21.73300   24.27500  
H    24.16900   22.24400   23.58200  
H    24.44900   20.83300   24.57400  
H    23.41500   23.52900   25.45100  
H    22.47500   22.09400   25.56100  
H    26.63700   21.34200   26.60100  
N    25.82800   22.68100   28.60600  
H    26.53100   21.97700   28.79600  
C    25.33800   23.29000   29.74300  
H    25.89700   22.98600   30.64700  
O    24.54900   24.21600   29.79800  
--
0 1
C    25.77100   27.22000   29.95000  
H    24.83700   27.13800   30.51200  
H    26.53800   26.55500   30.35300  
H    26.01500   28.28400   29.88500  
S    25.33700   26.70200   28.27400  
C    26.97400   27.16300   27.66400  
H    26.95900   27.70500   26.71400  
H    27.46700   27.71900   28.46600  
H    27.57300   26.26200   27.51200  
O    24.51100   27.89800   27.91500  
C    32.61400   27.46400   28.46000  
H    32.81200   26.48600   28.01300  
H    33.54800   27.97800   28.70000  
H    32.10400   27.32800   29.41700  
S    31.71800   28.55000   27.32800  
C    30.36800   27.52900   26.69300  
H    29.69300   28.08100   26.03600  
H    30.91700   26.76600   26.13500  
H    29.76800   27.11900   27.50900  
O    32.62600   28.67700   26.14500  
C    28.74900   24.34800   29.64500  
H    28.34100   24.46500   28.63800  
H    29.09200   23.32900   29.84300  
H    27.94400   24.53800   30.36000  
S    30.05000   25.57100   29.91800  
C    30.30600   25.26600   31.68100  
H    29.62900   25.93400   32.21900  
H    30.12100   24.19500   31.80000  
H    31.37400   25.41000   31.86200  
O    29.42400   26.93000   29.86600  
C    20.71400   26.18900   35.01700  
H    21.03500   26.46300   34.00900  
H    19.94800   25.41100   34.97700  
H    20.24800   27.10000   35.40200  
S    22.20200   25.61300   35.86400  
C    22.11100   23.99000   35.07500  
H    22.59500   23.19300   35.64500  
H    21.04400   23.77400   34.97300  
H    22.58300   24.05900   34.09200  
O    21.59800   25.54900   37.23300  
C    30.43400   22.28200   25.83500  
H    30.85800   22.55900   26.80300  
H    29.40200   21.94300   25.95700  
H    31.04700   21.50000   25.38100  
S    30.48200   23.77200   24.81300  
C    31.88900   24.57500   25.61400  
H    32.74700   23.90000   25.56800  
H    32.17700   25.50500   25.11700  
H    31.57800   24.68900   26.65600  
O    29.37200   24.60300   25.37800  
C    23.12400   21.15600   30.29700  
H    24.12400   20.86000   29.97200  
H    22.39900   20.37200   30.06400  
H    22.85800   22.12500   29.86600  
S    23.17700   21.16200   32.10400  
C    21.41500   21.56200   32.08400  
H    21.15000   21.72200   33.13300  
H    21.20900   22.40600   31.42200  
H    20.82600   20.67400   31.84000  
O    23.89100   22.39700   32.55600  
C    30.52800   20.07000   28.54700  
H    30.19300   19.78700   27.54600  
H    31.23300   20.90200   28.47800  
H    30.95200   19.22100   29.08800  
S    29.23700   20.54500   29.71900  
C    28.74800   18.82100   29.94400  
H    27.82500   18.80200   30.52900  
H    28.44900   18.58100   28.92000  
H    29.52700   18.21700   30.41600  
O    28.11600   21.17100   28.94900  
C    23.54500   21.23100   18.89400  
H    23.53800   20.96400   17.83400  
H    22.93100   22.09300   19.16600  
H    24.61600   21.37400   19.06200  
S    23.01100   19.70400   19.70000  
C    23.54500   20.26900   21.33200  
H    23.31000   19.40200   21.95400  
H    24.59200   20.57600   21.27700  
H    22.83800   21.04000   21.64800  
O    23.96900   18.67600   19.18600  
C    26.74400   20.92500   33.93200  
H    27.53600   21.67500   33.87900  
H    27.18300   19.95300   33.68900  
H    25.85100   21.25500   33.39500  
S    26.56700   20.57000   35.69500  
C    26.03300   22.25100   36.08800  
H    26.75500   22.96600   35.68700  
H    25.02100   22.42500   35.71300  
H    26.14800   22.39200   37.16600  
O    27.94300   20.45200   36.27400  
C    17.80300   21.09900   22.75100  
H    18.29900   20.12900   22.83900  
H    17.21000   21.27700   23.65100  
H    17.21500   21.21600   21.83700  
S    19.00800   22.44500   22.80000  
C    17.86900   23.72400   22.22200  
H    18.30000   24.71600   22.37800  
H    17.67300   23.66600   21.14800  
H    16.93400   23.68100   22.78600  
O    19.81100   22.22600   21.55500  
C    24.27000   13.49300   23.09500  
H    24.03700   12.88800   22.21500  
H    25.32500   13.28500   23.28600  
H    23.62500   13.28200   23.95200  
S    24.22600   15.27100   22.77400  
C    24.60100   15.82800   24.45200  
H    24.24100   16.86000   24.42400  
H    24.04200   15.27900   25.21500  
H    25.68100   15.83100   24.61900  
O    22.76500   15.44700   22.50000  
C    21.26000   27.70800   23.46700  
H    20.37600   28.07900   22.94300  
H    21.75300   28.60400   23.85100  
H    21.85900   27.10600   22.77900  
S    20.55600   26.89800   24.92100  
C    22.08600   26.27500   25.65400  
H    21.75900   25.65000   26.48900  
H    22.65900   25.77100   24.87100  
H    22.59700   27.19300   25.95400  
O    19.93700   25.61500   24.45800  
C    27.96700   25.81400   22.09900  
H    29.01800   25.94700   21.83000  
H    27.57300   24.79500   22.11100  
H    27.33800   26.48400   21.50800  
S    27.86700   26.60700   23.72000  
C    26.07400   26.47500   23.89800  
H    25.53500   27.08000   23.16400  
H    25.93100   25.40600   23.72300  
H    25.73300   26.62200   24.92600  
O    28.10100   28.02100   23.29000  
C    27.90000   15.57900   30.71200  
H    28.12700   14.52000   30.86000  
H    27.98500   15.84900   29.65700  
H    28.50100   16.26000   31.32200  
S    26.20300   15.80900   31.28800  
C    25.29300   15.01700   29.94300  
H    25.54300   13.95800   30.04900  
H    24.20700   15.09300   30.04300  
H    25.65800   15.57500   29.07700  
O    25.93700   17.26700   31.07800  
C    21.62900   18.54100   23.98400  
H    22.34700   19.36600   23.98000  
H    21.96000   17.50600   23.86900  
H    20.84900   18.77600   23.25600  
S    20.79100   18.57000   25.58400  
C    19.75600   17.17700   25.08100  
H    18.93100   16.87000   25.72900  
H    19.30600   17.44700   24.12200  
H    20.41100   16.33200   24.85900  
O    19.75300   19.63200   25.39200  
C    27.97400   17.85600   18.80100  
H    28.53500   17.30500   18.04200  
H    27.59400   18.76600   18.33000  
H    28.68000   18.20900   19.55700  
S    26.57000   17.00700   19.55800  
C    26.50300   18.18900   20.92300  
H    27.45400   18.18000   21.46300  
H    26.24800   19.17400   20.52300  
H    25.73900   17.97500   21.67400  
O    27.19200   15.78400   20.15600  
C    27.66700   22.11900   21.11600  
H    26.60200   22.36100   21.11800  
H    27.63700   21.04200   21.29900  
H    28.18900   22.68900   21.88900  
S    28.29000   22.44000   19.45000  
C    26.86300   23.33000   18.78900  
H    26.88000   24.36000   19.15200  
H    26.97100   23.28300   17.70200  
H    25.99900   22.73500   19.09500  
O    28.10600   21.03700   18.95900  
C    21.96900   25.02000   31.73700  
H    21.47600   24.49400   32.55900  
H    22.48400   24.17600   31.27100  
H    22.69400   25.75100   32.10400  
S    20.72400   25.73400   30.64000  
C    21.93100   26.38200   29.46200  
H    22.82600   26.68300   30.01200  
H    22.19500   25.52700   28.83400  
H    21.43300   27.18100   28.90800  
O    20.43800   27.03000   31.33400  
C    30.21500   18.54500   25.19200  
H    30.34600   17.97700   24.26700  
H    31.03200   19.26000   25.32000  
H    29.99300   17.99700   26.11100  
S    28.78900   19.63300   24.97200  
C    27.59200   18.36400   24.50300  
H    27.51000   17.71400   25.37800  
H    26.58400   18.65500   24.19700  
H    27.94100   17.65700   23.74700  
O    28.96300   20.31400   23.65000  
C    18.50000   20.17200   30.16400  
H    17.48300   20.34600   29.80500  
H    18.47800   19.77300   31.18100  
H    19.01800   21.13300   30.21500  
S    19.43300   19.07300   29.07400  
C    18.28700   17.68100   29.19700  
H    18.81400   16.75600   28.95100  
H    17.99500   17.71300   30.25000  
H    17.42800   18.00900   28.60600  
O    20.56100   18.54200   29.90400  
C    17.49200   22.97800   27.13500  
H    17.72200   21.91100   27.19900  
H    16.81700   23.22800   27.95800  
H    17.16200   23.25100   26.12900  
S    19.04900   23.79600   27.54700  
C    19.96300   22.89900   26.27200  
H    19.31300   22.52700   25.47600  
H    20.65300   23.64700   25.87300  
H    20.50000   22.06200   26.72400  
O    19.45100   23.11500   28.81800  
C    22.06400   24.43300   21.61700  
H    21.78300   24.59300   22.66100  
H    21.31300   24.83500   20.93200  
H    22.07300   23.35400   21.44500  
S    23.70700   25.18300   21.64200  
C    23.71100   25.49200   19.86100  
H    22.68400   25.77200   19.61300  
H    24.28600   26.41100   19.72300  
H    24.14900   24.62800   19.35400  
O    24.64900   24.03700   21.84500  
C    27.33400   27.01800   34.62000  
H    27.03000   28.05400   34.45400  
H    26.83800   26.47600   35.42900  
H    28.40300   27.11200   34.82900  
S    27.09500   26.19600   33.02900  
C    25.33900   25.82500   33.23100  
H    25.21900   25.10500   32.41800  
H    25.17000   25.40000   34.22300  
H    24.64600   26.65300   33.05700  
O    27.71100   24.84000   33.18000  
C    23.39200   17.99000   28.27600  
H    23.15000   19.04800   28.40500  
H    22.52400   17.57400   27.76000  
H    23.55300   17.52100   29.25000  
S    24.83200   17.87100   27.19000  
C    25.75300   18.98500   28.27500  
H    26.78800   19.03400   27.92600  
H    25.37900   20.00300   28.13700  
H    25.70600   18.66700   29.31900  
O    24.53400   18.69100   25.97400  
C    34.94200   22.81300   28.40500  
H    35.53900   22.48800   29.26100  
H    34.86500   21.91800   27.78200  
H    35.53100   23.61200   27.94800  
S    33.35100   23.48200   28.94000  
C    34.22900   24.50800   30.14100  
H    34.73500   25.30500   29.59000  
H    33.48200   25.03500   30.74100  
H    34.87200   23.82800   30.70500  
O    32.92100   22.40000   29.88100  
$end

$rem
JOBTYPE  SP
METHOD  B3LYP
BASIS  6-31+G(D)
SYMMETRY  FALSE
SYM_IGNORE  TRUE
MEM_TOTAL  16000
MEM_STATIC  8000
MAX_SUB_FILE_NUM  16000
BASIS_LIN_DEP_THRESH  6
THRESH  14
SCF_CONVERGENCE  8
GEN_SCFMAN  TRUE
SCF_GUESS  SAD
FD_MAT_VEC_PROD  FALSE
XC_GRID  000075000302
NL_GRID  1
MAX_SCF_CYCLES  200
ENV_METHOD  B3LYP
GEN_SCFMAN_EMBED  TRUE
SPADE_PARTITION  TRUE
$end

$development
embedding_early_stop  1
$end

--------------------------------------------------------------
 ----------------------------------------------------------------
             Standard Nuclear Orientation (Angstroms)
    I     Atom           X                Y                Z
 ----------------------------------------------------------------
    1      C      24.0080000000    22.2300000000    27.0340000000
    2      C      25.3510000000    22.9480000000    27.2500000000
    3      C      26.4090000000    22.3710000000    26.2960000000
    4      C      25.9500000000    22.4600000000    24.8310000000
    5      C      24.5320000000    21.9270000000    24.5680000000
    6      C      23.5130000000    22.4460000000    25.5950000000
    7      H      27.3900000000    22.8450000000    26.4180000000
    8      H      25.2560000000    24.0260000000    27.0760000000
    9      H      24.0290000000    21.1430000000    27.1780000000
   10      H      23.3370000000    22.6730000000    27.7800000000
   11      H      26.1440000000    23.4570000000    24.4180000000
   12      H      26.5540000000    21.7330000000    24.2750000000
   13      H      24.1690000000    22.2440000000    23.5820000000
   14      H      24.4490000000    20.8330000000    24.5740000000
   15      H      23.4150000000    23.5290000000    25.4510000000
   16      H      22.4750000000    22.0940000000    25.5610000000
   17      H      26.6370000000    21.3420000000    26.6010000000
   18      N      25.8280000000    22.6810000000    28.6060000000
   19      H      26.5310000000    21.9770000000    28.7960000000
   20      C      25.3380000000    23.2900000000    29.7430000000
   21      H      25.8970000000    22.9860000000    30.6470000000
   22      O      24.5490000000    24.2160000000    29.7980000000
   23      C      25.7710000000    27.2200000000    29.9500000000
   24      H      24.8370000000    27.1380000000    30.5120000000
   25      H      26.5380000000    26.5550000000    30.3530000000
   26      H      26.0150000000    28.2840000000    29.8850000000
   27      S      25.3370000000    26.7020000000    28.2740000000
   28      C      26.9740000000    27.1630000000    27.6640000000
   29      H      26.9590000000    27.7050000000    26.7140000000
   30      H      27.4670000000    27.7190000000    28.4660000000
   31      H      27.5730000000    26.2620000000    27.5120000000
   32      O      24.5110000000    27.8980000000    27.9150000000
   33      C      32.6140000000    27.4640000000    28.4600000000
   34      H      32.8120000000    26.4860000000    28.0130000000
   35      H      33.5480000000    27.9780000000    28.7000000000
   36      H      32.1040000000    27.3280000000    29.4170000000
   37      S      31.7180000000    28.5500000000    27.3280000000
   38      C      30.3680000000    27.5290000000    26.6930000000
   39      H      29.6930000000    28.0810000000    26.0360000000
   40      H      30.9170000000    26.7660000000    26.1350000000
   41      H      29.7680000000    27.1190000000    27.5090000000
   42      O      32.6260000000    28.6770000000    26.1450000000
   43      C      28.7490000000    24.3480000000    29.6450000000
   44      H      28.3410000000    24.4650000000    28.6380000000
   45      H      29.0920000000    23.3290000000    29.8430000000
   46      H      27.9440000000    24.5380000000    30.3600000000
   47      S      30.0500000000    25.5710000000    29.9180000000
   48      C      30.3060000000    25.2660000000    31.6810000000
   49      H      29.6290000000    25.9340000000    32.2190000000
   50      H      30.1210000000    24.1950000000    31.8000000000
   51      H      31.3740000000    25.4100000000    31.8620000000
   52      O      29.4240000000    26.9300000000    29.8660000000
   53      C      20.7140000000    26.1890000000    35.0170000000
   54      H      21.0350000000    26.4630000000    34.0090000000
   55      H      19.9480000000    25.4110000000    34.9770000000
   56      H      20.2480000000    27.1000000000    35.4020000000
   57      S      22.2020000000    25.6130000000    35.8640000000
   58      C      22.1110000000    23.9900000000    35.0750000000
   59      H      22.5950000000    23.1930000000    35.6450000000
   60      H      21.0440000000    23.7740000000    34.9730000000
   61      H      22.5830000000    24.0590000000    34.0920000000
   62      O      21.5980000000    25.5490000000    37.2330000000
   63      C      30.4340000000    22.2820000000    25.8350000000
   64      H      30.8580000000    22.5590000000    26.8030000000
   65      H      29.4020000000    21.9430000000    25.9570000000
   66      H      31.0470000000    21.5000000000    25.3810000000
   67      S      30.4820000000    23.7720000000    24.8130000000
   68      C      31.8890000000    24.5750000000    25.6140000000
   69      H      32.7470000000    23.9000000000    25.5680000000
   70      H      32.1770000000    25.5050000000    25.1170000000
   71      H      31.5780000000    24.6890000000    26.6560000000
   72      O      29.3720000000    24.6030000000    25.3780000000
   73      C      23.1240000000    21.1560000000    30.2970000000
   74      H      24.1240000000    20.8600000000    29.9720000000
   75      H      22.3990000000    20.3720000000    30.0640000000
   76      H      22.8580000000    22.1250000000    29.8660000000
   77      S      23.1770000000    21.1620000000    32.1040000000
   78      C      21.4150000000    21.5620000000    32.0840000000
   79      H      21.1500000000    21.7220000000    33.1330000000
   80      H      21.2090000000    22.4060000000    31.4220000000
   81      H      20.8260000000    20.6740000000    31.8400000000
   82      O      23.8910000000    22.3970000000    32.5560000000
   83      C      30.5280000000    20.0700000000    28.5470000000
   84      H      30.1930000000    19.7870000000    27.5460000000
   85      H      31.2330000000    20.9020000000    28.4780000000
   86      H      30.9520000000    19.2210000000    29.0880000000
   87      S      29.2370000000    20.5450000000    29.7190000000
   88      C      28.7480000000    18.8210000000    29.9440000000
   89      H      27.8250000000    18.8020000000    30.5290000000
   90      H      28.4490000000    18.5810000000    28.9200000000
   91      H      29.5270000000    18.2170000000    30.4160000000
   92      O      28.1160000000    21.1710000000    28.9490000000
   93      C      23.5450000000    21.2310000000    18.8940000000
   94      H      23.5380000000    20.9640000000    17.8340000000
   95      H      22.9310000000    22.0930000000    19.1660000000
   96      H      24.6160000000    21.3740000000    19.0620000000
   97      S      23.0110000000    19.7040000000    19.7000000000
   98      C      23.5450000000    20.2690000000    21.3320000000
   99      H      23.3100000000    19.4020000000    21.9540000000
  100      H      24.5920000000    20.5760000000    21.2770000000
  101      H      22.8380000000    21.0400000000    21.6480000000
  102      O      23.9690000000    18.6760000000    19.1860000000
  103      C      26.7440000000    20.9250000000    33.9320000000
  104      H      27.5360000000    21.6750000000    33.8790000000
  105      H      27.1830000000    19.9530000000    33.6890000000
  106      H      25.8510000000    21.2550000000    33.3950000000
  107      S      26.5670000000    20.5700000000    35.6950000000
  108      C      26.0330000000    22.2510000000    36.0880000000
  109      H      26.7550000000    22.9660000000    35.6870000000
  110      H      25.0210000000    22.4250000000    35.7130000000
  111      H      26.1480000000    22.3920000000    37.1660000000
  112      O      27.9430000000    20.4520000000    36.2740000000
  113      C      17.8030000000    21.0990000000    22.7510000000
  114      H      18.2990000000    20.1290000000    22.8390000000
  115      H      17.2100000000    21.2770000000    23.6510000000
  116      H      17.2150000000    21.2160000000    21.8370000000
  117      S      19.0080000000    22.4450000000    22.8000000000
  118      C      17.8690000000    23.7240000000    22.2220000000
  119      H      18.3000000000    24.7160000000    22.3780000000
  120      H      17.6730000000    23.6660000000    21.1480000000
  121      H      16.9340000000    23.6810000000    22.7860000000
  122      O      19.8110000000    22.2260000000    21.5550000000
  123      C      24.2700000000    13.4930000000    23.0950000000
  124      H      24.0370000000    12.8880000000    22.2150000000
  125      H      25.3250000000    13.2850000000    23.2860000000
  126      H      23.6250000000    13.2820000000    23.9520000000
  127      S      24.2260000000    15.2710000000    22.7740000000
  128      C      24.6010000000    15.8280000000    24.4520000000
  129      H      24.2410000000    16.8600000000    24.4240000000
  130      H      24.0420000000    15.2790000000    25.2150000000
  131      H      25.6810000000    15.8310000000    24.6190000000
  132      O      22.7650000000    15.4470000000    22.5000000000
  133      C      21.2600000000    27.7080000000    23.4670000000
  134      H      20.3760000000    28.0790000000    22.9430000000
  135      H      21.7530000000    28.6040000000    23.8510000000
  136      H      21.8590000000    27.1060000000    22.7790000000
  137      S      20.5560000000    26.8980000000    24.9210000000
  138      C      22.0860000000    26.2750000000    25.6540000000
  139      H      21.7590000000    25.6500000000    26.4890000000
  140      H      22.6590000000    25.7710000000    24.8710000000
  141      H      22.5970000000    27.1930000000    25.9540000000
  142      O      19.9370000000    25.6150000000    24.4580000000
  143      C      27.9670000000    25.8140000000    22.0990000000
  144      H      29.0180000000    25.9470000000    21.8300000000
  145      H      27.5730000000    24.7950000000    22.1110000000
  146      H      27.3380000000    26.4840000000    21.5080000000
  147      S      27.8670000000    26.6070000000    23.7200000000
  148      C      26.0740000000    26.4750000000    23.8980000000
  149      H      25.5350000000    27.0800000000    23.1640000000
  150      H      25.9310000000    25.4060000000    23.7230000000
  151      H      25.7330000000    26.6220000000    24.9260000000
  152      O      28.1010000000    28.0210000000    23.2900000000
  153      C      27.9000000000    15.5790000000    30.7120000000
  154      H      28.1270000000    14.5200000000    30.8600000000
  155      H      27.9850000000    15.8490000000    29.6570000000
  156      H      28.5010000000    16.2600000000    31.3220000000
  157      S      26.2030000000    15.8090000000    31.2880000000
  158      C      25.2930000000    15.0170000000    29.9430000000
  159      H      25.5430000000    13.9580000000    30.0490000000
  160      H      24.2070000000    15.0930000000    30.0430000000
  161      H      25.6580000000    15.5750000000    29.0770000000
  162      O      25.9370000000    17.2670000000    31.0780000000
  163      C      21.6290000000    18.5410000000    23.9840000000
  164      H      22.3470000000    19.3660000000    23.9800000000
  165      H      21.9600000000    17.5060000000    23.8690000000
  166      H      20.8490000000    18.7760000000    23.2560000000
  167      S      20.7910000000    18.5700000000    25.5840000000
  168      C      19.7560000000    17.1770000000    25.0810000000
  169      H      18.9310000000    16.8700000000    25.7290000000
  170      H      19.3060000000    17.4470000000    24.1220000000
  171      H      20.4110000000    16.3320000000    24.8590000000
  172      O      19.7530000000    19.6320000000    25.3920000000
  173      C      27.9740000000    17.8560000000    18.8010000000
  174      H      28.5350000000    17.3050000000    18.0420000000
  175      H      27.5940000000    18.7660000000    18.3300000000
  176      H      28.6800000000    18.2090000000    19.5570000000
  177      S      26.5700000000    17.0070000000    19.5580000000
  178      C      26.5030000000    18.1890000000    20.9230000000
  179      H      27.4540000000    18.1800000000    21.4630000000
  180      H      26.2480000000    19.1740000000    20.5230000000
  181      H      25.7390000000    17.9750000000    21.6740000000
  182      O      27.1920000000    15.7840000000    20.1560000000
  183      C      27.6670000000    22.1190000000    21.1160000000
  184      H      26.6020000000    22.3610000000    21.1180000000
  185      H      27.6370000000    21.0420000000    21.2990000000
  186      H      28.1890000000    22.6890000000    21.8890000000
  187      S      28.2900000000    22.4400000000    19.4500000000
  188      C      26.8630000000    23.3300000000    18.7890000000
  189      H      26.8800000000    24.3600000000    19.1520000000
  190      H      26.9710000000    23.2830000000    17.7020000000
  191      H      25.9990000000    22.7350000000    19.0950000000
  192      O      28.1060000000    21.0370000000    18.9590000000
  193      C      21.9690000000    25.0200000000    31.7370000000
  194      H      21.4760000000    24.4940000000    32.5590000000
  195      H      22.4840000000    24.1760000000    31.2710000000
  196      H      22.6940000000    25.7510000000    32.1040000000
  197      S      20.7240000000    25.7340000000    30.6400000000
  198      C      21.9310000000    26.3820000000    29.4620000000
  199      H      22.8260000000    26.6830000000    30.0120000000
  200      H      22.1950000000    25.5270000000    28.8340000000
  201      H      21.4330000000    27.1810000000    28.9080000000
  202      O      20.4380000000    27.0300000000    31.3340000000
  203      C      30.2150000000    18.5450000000    25.1920000000
  204      H      30.3460000000    17.9770000000    24.2670000000
  205      H      31.0320000000    19.2600000000    25.3200000000
  206      H      29.9930000000    17.9970000000    26.1110000000
  207      S      28.7890000000    19.6330000000    24.9720000000
  208      C      27.5920000000    18.3640000000    24.5030000000
  209      H      27.5100000000    17.7140000000    25.3780000000
  210      H      26.5840000000    18.6550000000    24.1970000000
  211      H      27.9410000000    17.6570000000    23.7470000000
  212      O      28.9630000000    20.3140000000    23.6500000000
  213      C      18.5000000000    20.1720000000    30.1640000000
  214      H      17.4830000000    20.3460000000    29.8050000000
  215      H      18.4780000000    19.7730000000    31.1810000000
  216      H      19.0180000000    21.1330000000    30.2150000000
  217      S      19.4330000000    19.0730000000    29.0740000000
  218      C      18.2870000000    17.6810000000    29.1970000000
  219      H      18.8140000000    16.7560000000    28.9510000000
  220      H      17.9950000000    17.7130000000    30.2500000000
  221      H      17.4280000000    18.0090000000    28.6060000000
  222      O      20.5610000000    18.5420000000    29.9040000000
  223      C      17.4920000000    22.9780000000    27.1350000000
  224      H      17.7220000000    21.9110000000    27.1990000000
  225      H      16.8170000000    23.2280000000    27.9580000000
  226      H      17.1620000000    23.2510000000    26.1290000000
  227      S      19.0490000000    23.7960000000    27.5470000000
  228      C      19.9630000000    22.8990000000    26.2720000000
  229      H      19.3130000000    22.5270000000    25.4760000000
  230      H      20.6530000000    23.6470000000    25.8730000000
  231      H      20.5000000000    22.0620000000    26.7240000000
  232      O      19.4510000000    23.1150000000    28.8180000000
  233      C      22.0640000000    24.4330000000    21.6170000000
  234      H      21.7830000000    24.5930000000    22.6610000000
  235      H      21.3130000000    24.8350000000    20.9320000000
  236      H      22.0730000000    23.3540000000    21.4450000000
  237      S      23.7070000000    25.1830000000    21.6420000000
  238      C      23.7110000000    25.4920000000    19.8610000000
  239      H      22.6840000000    25.7720000000    19.6130000000
  240      H      24.2860000000    26.4110000000    19.7230000000
  241      H      24.1490000000    24.6280000000    19.3540000000
  242      O      24.6490000000    24.0370000000    21.8450000000
  243      C      27.3340000000    27.0180000000    34.6200000000
  244      H      27.0300000000    28.0540000000    34.4540000000
  245      H      26.8380000000    26.4760000000    35.4290000000
  246      H      28.4030000000    27.1120000000    34.8290000000
  247      S      27.0950000000    26.1960000000    33.0290000000
  248      C      25.3390000000    25.8250000000    33.2310000000
  249      H      25.2190000000    25.1050000000    32.4180000000
  250      H      25.1700000000    25.4000000000    34.2230000000
  251      H      24.6460000000    26.6530000000    33.0570000000
  252      O      27.7110000000    24.8400000000    33.1800000000
  253      C      23.3920000000    17.9900000000    28.2760000000
  254      H      23.1500000000    19.0480000000    28.4050000000
  255      H      22.5240000000    17.5740000000    27.7600000000
  256      H      23.5530000000    17.5210000000    29.2500000000
  257      S      24.8320000000    17.8710000000    27.1900000000
  258      C      25.7530000000    18.9850000000    28.2750000000
  259      H      26.7880000000    19.0340000000    27.9260000000
  260      H      25.3790000000    20.0030000000    28.1370000000
  261      H      25.7060000000    18.6670000000    29.3190000000
  262      O      24.5340000000    18.6910000000    25.9740000000
  263      C      34.9420000000    22.8130000000    28.4050000000
  264      H      35.5390000000    22.4880000000    29.2610000000
  265      H      34.8650000000    21.9180000000    27.7820000000
  266      H      35.5310000000    23.6120000000    27.9480000000
  267      S      33.3510000000    23.4820000000    28.9400000000
  268      C      34.2290000000    24.5080000000    30.1410000000
  269      H      34.7350000000    25.3050000000    29.5900000000
  270      H      33.4820000000    25.0350000000    30.7410000000
  271      H      34.8720000000    23.8280000000    30.7050000000
  272      O      32.9210000000    22.4000000000    29.8810000000
 ----------------------------------------------------------------
 Nuclear Repulsion Energy =       43113.35802822 hartrees
 There are      560 alpha and      560 beta electrons
 Requested basis set is 6-31+G(d)
 There are 896 shells and 2497 basis functions

 Total QAlloc Memory Limit  16000 MB
 Mega-Array Size      7821 MB
 MEM_STATIC part      8000 MB
 A cutoff of  1.0D-14 yielded 162548 shell pairs
 There are   1400859 function pairs
 Smallest overlap matrix eigenvalue = 4.54E-07
 Linear dependence detected in AO basis
 Tighter screening thresholds may be required for diffuse basis sets
 Use S2THRESH > 14 and THRESH = 14 in case of SCF convergence issues
 Number of orthogonalized atomic orbitals = 2494
 Maximum deviation from orthogonality = 1.147E-10

 Scale SEOQF with 1.000000e-03/1.000000e-03/1.000000e-03

 Standard Electronic Orientation quadrupole field applied
 Nucleus-field energy     =    -0.0000002320 hartrees
 Guess from superposition of atomic densities
 Warning:  Energy on first SCF cycle will be non-variational
 SAD guess density has 1120.000002 electrons

 -----------------------------------------------------------------------
  General SCF calculation program by
  Eric Jon Sundstrom, Paul Horn, Yuezhi Mao, Dmitri Zuev, Alec White,
  David Stuck, Shaama M.S., Shane Yost, Joonho Lee, David Small,
  Daniel Levine, Susi Lehtola, Hugh Burton, Evgeny Epifanovsky,
  Bang C. Huynh
 -----------------------------------------------------------------------
=================================================
        Doing projection-based embedding         
      F. Manby et al. JCTC, 8, 2564 (2012)       
=================================================

****************************************************
   Low-level SCF calculation for the whole system   
****************************************************
----------------------------------------------
 Summary of the low-level theory: 
 Exchange:     0.2000 Hartree-Fock + 0.0800 Slater + 0.7200 B88
 Correlation:  0.1900 VWN1RPA + 0.8100 LYP
 Using Euler-Maclaurin-Lebedev (75,302) quadrature formula
----------------------------------------------
 using 16 threads for integral computing
 -------------------------------------------------------
 OpenMP Integral computing Module                
 Release: version 2.0, May 2017, Q-Chem Inc. Pleasanton 
 -------------------------------------------------------
 A restricted SCF calculation will be
 performed using DIIS
 SCF converges when DIIS error is below 1.0e-08
 ---------------------------------------
  Cycle       Energy         DIIS error
 ---------------------------------------
    1  -14252.4499765055      1.40e-02  
    2  -14229.7799419821      2.60e-03  
    3  -14216.8204254980      5.02e-03  
    4  -14233.3362118006      1.13e-03  
    5  -14234.2774212639      1.75e-04  
    6  -14234.2918922833      1.19e-04  
    7  -14234.3000241994      5.22e-05  
    8  -14234.3016915890      1.19e-05  
    9  -14234.3017788889      4.33e-06  
   10  -14234.3017900360      1.74e-06  
   11  -14234.3017918267      5.52e-07  
   12  -14234.3017920041      1.96e-07  
   13  -14234.3017920276      5.55e-08  
   14  -14234.3017920291      2.68e-08  
   15  -14234.3017920295      8.49e-09  Convergence criterion met
 ---------------------------------------
 SCF time:   CPU 159444.71s  wall 10047.00s 
 SCF   energy in the final basis set =   -14234.3017920295
 Total energy in the final basis set =   -14234.3017920295

****************************************************
             Start embedding calculation            
****************************************************
----------------------------------------------
 Summary of the high-level theory: 
 Exchange:     0.2000 Hartree-Fock + 0.0800 Slater + 0.7200 B88
 Correlation:  0.1900 VWN1RPA + 0.8100 LYP
 Using Euler-Maclaurin-Lebedev (75,302) quadrature formula
----------------------------------------------
Doing R-in-R Embedding Calculation
Number of fragments: 2
Embedded fragment(s): 1 
NOcc for each fragment
           35
          525
NBasis for each fragment
          197
         2300
Variational space of the embedded problem: 
NOcc (active)  = 35
NOcc (fixed)   = 525
NVir (total)   = 1934
Read converged orbitals from disk
=========================================================
       Doing SPADE partition for the orbital space       
     D. CLaudino and N. Mayhall JCTC 15, 1053 (2019)     
=========================================================
SPADE singular values:
 1.0000 1.0000 1.0000 1.0000 1.0000 1.0000 1.0000 1.0000 1.0000 0.9999
 0.9997 0.9997 0.9996 0.9995 0.9994 0.9993 0.9990 0.9989 0.9972 0.9966
 0.9962 0.9955 0.9952 0.9948 0.9942 0.9934 0.9933 0.9922 0.9913 0.9909
 0.9902 0.9893 0.9866 0.9826 0.9752 0.2538 0.2167 0.1845 0.1747 0.1525
 0.1466 0.1425 0.1331 0.1266 0.1185 0.1086 0.1007 0.0946 0.0845 0.0745
 0.0681 0.0630 0.0558 0.0546 0.0515 0.0460 0.0435 0.0397 0.0378 0.0362
 0.0342 0.0328 0.0298 0.0292 0.0278 0.0260 0.0254 0.0242 0.0238 0.0220
 0.0209 0.0188 0.0184 0.0166 0.0160 0.0148 0.0142 0.0131 0.0129 0.0118
 0.0110 0.0106 0.0101 0.0099 0.0095 0.0091 0.0083 0.0078 0.0076 0.0072
 0.0071 0.0069 0.0065 0.0060 0.0057 0.0056 0.0054 0.0048 0.0046 0.0044
 0.0044 0.0039 0.0038 0.0037 0.0035 0.0035 0.0032 0.0030 0.0030 0.0028
 0.0027 0.0027 0.0025 0.0024 0.0022 0.0021 0.0021 0.0020 0.0020 0.0018
 0.0018 0.0017 0.0017 0.0016 0.0016 0.0015 0.0015 0.0014 0.0014 0.0013
 0.0012 0.0012 0.0011 0.0011 0.0010 0.0010 0.0010 0.0010 0.0009 0.0008
 0.0008 0.0008 0.0008 0.0007 0.0007 0.0007 0.0006 0.0006 0.0006 0.0005
 0.0005 0.0005 0.0005 0.0005 0.0004 0.0004 0.0004 0.0004 0.0004 0.0003
 0.0003 0.0003 0.0003 0.0003 0.0003 0.0003 0.0003 0.0003 0.0002 0.0002
 0.0002 0.0002 0.0002 0.0002 0.0002 0.0002 0.0002 0.0002 0.0002 0.0002
 0.0002 0.0001 0.0001 0.0001 0.0001 0.0001 0.0001 0.0001 0.0001 0.0001
 0.0001 0.0001 0.0001 0.0001 0.0001 0.0001 0.0001
Early stop requested!
525 environment occs will be part of frozen-core in future post-HF calculations
 
 --------------------------------------------------------------
 
                    Orbital Energies (a.u.)
 --------------------------------------------------------------
 
 Alpha MOs
 -- Occupied --
 -0.5199  -0.6034  -0.4476  -0.5510  -0.5161  -0.5072  -0.5063  -0.5102
 -0.5062  -0.4788  -0.4622  -0.4393  -0.5133  -0.4766  -0.4639  -0.4505
 -0.5914  -0.4575  -0.5395  -0.4619  -0.5190  -0.5059  -0.4930  -0.6050
 -0.5840  -0.6049  -0.5649  -0.5461  -0.6409  -0.5758  -0.6646  -0.6590
 -0.6325  -0.6031  -0.5643  -0.5968  -0.6574  -0.5970  -0.5911  -0.5087
 -0.5655  -0.5457  -0.5012  -0.6309  -0.6196  -0.5188  -0.5717  -0.5941
 -0.5951  -0.6401  -0.6050  -0.5235  -0.6605  -0.6379  -0.5564  -0.6935
 -0.5803  -0.5955  -0.7491  -0.8785  -0.7778  -0.8343  -0.6863  -0.7648
 -0.8771  -0.9318  -0.7442  -0.7326  -0.8533  -0.8187  -0.8325  -0.9151
 -0.6866  -0.9809  -1.0578  -0.8227  -0.9858  -0.9240  -0.9491  -0.8585
 -0.8904  -1.0896  -1.0053  -1.3324  -1.2768  -0.7972  -1.3093  -1.1358
 -1.1920  -1.4889  -1.4255  -0.9071  -1.4782  -2.5124  -1.1886  -1.2875
 -1.6382  -1.6670  -0.9638  -2.0265  -2.6870  -1.0440  -1.2512  -1.4265
 -1.2467  -3.4465  -1.6802  -3.6900  -1.3810  -1.5196  -1.5636  -1.1757
 -1.3316  -1.2161  -1.9417  -1.6290  -1.2642  -2.0597  -1.1236  -1.4197
 -1.3600  -1.2689  -1.0582  -1.0215  -1.4497  -1.2658  -1.7850  -1.3258
 -1.5114  -1.0871  -1.3676  -1.2778  -1.3409  -1.5440  -1.7132  -1.3268
 -1.4755  -1.3796  -1.7238  -1.3380  -1.1100  -1.7039  -1.7039  -1.6342
 -1.6500  -1.5360  -1.3534  -1.7490  -1.5516  -1.5356  -2.2313  -1.8595
 -2.3802  -1.8191  -2.0171  -1.6414  -2.5306  -2.1551  -1.6923  -1.9878
 -2.1613  -1.9588  -5.9758  -5.8630  -5.9558  -5.9685  -5.5540  -5.9843
 -5.9734  -5.9307  -5.9258  -5.9761  -5.9592  -5.9611 -17.8658  -2.2539
 -1.4500 -27.1816 -11.2347 -37.0662 -11.5379  -2.3101  -5.2862 -11.1265
 -7.3235  -7.4819  -3.5400  -3.6551  -2.8335  -7.0134  -1.4332  -3.2804
 -4.3838  -1.4625  -8.7201  -1.1994  -3.8115  -1.3431  -3.4428  -1.4271
-64.4455  -8.0966  -1.9848  -6.9543  -1.2165 -74.8231 -19.3556  -7.4824
 -2.1659  -7.2885 -13.4700  -6.0898  -5.7804  -5.9762  -1.7791  -4.3085
 -4.1804 -13.1932  -6.7798  -4.5768  -1.4381  -2.2045  -8.5381  -8.8358
 -1.3178  -6.2816  -1.2107  -2.1078  -7.1676  -8.2271  -1.3412 -45.5580
-28.9258 -11.6868 -67.8270  -1.7990  -7.4537  -6.0317 -11.4093  -3.9449
 -1.5338  -8.9149  -5.9657 -20.5295  -7.5370 -15.4072  -7.5440  -1.3832
 -6.6926  -1.8973  -2.7952  -4.6103  -6.2598  -1.9727  -7.0677  -0.9388
 -5.4432  -9.7677 -52.6150 -22.8776  -8.0748  -7.7096  -2.8354  -5.4434
-41.1859 -27.2767  -3.1751 -14.1164 -10.2350  -3.1066  -7.3095  -7.7362
-14.1675  -1.4739  -5.1331  -8.8872  -5.6140  -3.8881  -4.6540  -2.5751
-51.0585  -3.2225 -48.7528 -46.3794  -4.2180 -12.7515  -3.4082  -6.1948
 -3.9723  -7.5029  -5.2353  -2.8870  -8.1433  -7.4984  -9.4453  -9.6671
 -3.3494  -4.0779  -5.7415 -10.1789 -11.8708  -7.6545  -2.6894  -7.4929
 -4.2920 -15.9305 -23.5870  -7.9372  -6.0721 -13.9232  -5.9828  -8.7659
-14.2253  -9.7797  -6.8733  -4.8054  -7.3191  -8.4625  -6.3210  -6.9215
 -9.1548  -6.5775  -9.8660  -9.0416 -13.9910  -4.5434  -7.0666  -6.5425
-11.5725 -15.1530  -4.6606 -12.8562  -3.3632  -8.4373  -5.0972  -7.2550
 -4.3764  -8.1821 -12.5883  -7.1110  -3.1297 -11.6772 -11.9996  -3.9562
 -4.0123 -10.1038  -7.2734  -2.6192  -3.2924 -19.3235 -16.6057  -5.3690
 -6.7412 -19.0906  -6.9551 -20.7048 -10.2738  -6.2260  -8.3511 -12.2648
 -5.1185  -5.7412  -6.0656  -4.4195  -7.6175  -4.3382  -3.6884  -6.6831
 -3.9014  -7.2424  -3.2873  -9.1903  -7.0261  -7.2422  -6.5014 -20.3155
 -1.6643 -13.1116  -9.4751  -8.1092 -12.3673  -8.1377 -14.2245 -10.3476
 -7.5048  -5.5845  -6.7961  -7.3729  -4.8738  -7.3799  -7.6780 -10.5516
 -6.7933  -5.4282  -6.3111  -8.2063  -4.8583  -5.4789  -8.8579 -15.8007
 -7.1947  -4.9380  -6.8680  -9.1531  -5.6955 -11.8766  -3.2568  -6.7898
-10.6171 -18.6017 -13.2407  -5.8133  -7.2041  -6.4614  -6.8039 -10.5950
 -5.9810  -3.8071  -2.6370  -1.9612 -12.5474  -8.4056 -14.0019  -5.4662
 -5.6179 -37.4934  -7.8484 -18.2122  -4.5447  -9.7638 -12.1423 -18.5287
 -8.2377 -13.9066  -6.5803  -6.3215 -14.2352 -12.3022 -14.5853 -10.1549
 -9.0792 -10.0115 -10.8366  -7.4023 -30.3338 -12.0312 -22.5277  -8.7640
-12.6380 -39.4502  -8.6588  -7.7686 -12.6511  -1.9717  -9.4880  -1.7462
 -2.0400  -9.5072  -5.5793  -8.8210 -51.5942 -14.6276  -1.6356 -31.7179
 -1.9240 -55.5624 -10.1031  -9.5445  -2.7564  -2.0600 -18.3629 -66.4608
-65.9326  -3.6334 -67.3301 -14.3135  -1.5727 -17.9570 -15.7188  -7.2527
-15.4535 -10.8173  -9.0375 -16.9978  -9.3076 -13.2668  -8.6718 -11.8953
 -5.2583  -5.7108 -12.7430  -8.0535  -8.6339 -32.2524 -45.6009  -8.1975
-11.1093 -16.4638  -5.9878 -14.7973 -53.3824 -10.8869 -11.9878 -21.5889
-13.2991  -4.1411  -7.6886 -12.8111  -9.1774  -9.6295  -6.9689  -7.5921
 -3.3276  -8.3392  -7.4907  -4.7461  -7.9055  -8.0066  -4.1781  -3.9394
-32.7820  -8.8972  -8.8190  -4.8072  -2.6513 -10.2843 -10.4379 -10.5432
-14.0296 -13.4101 -14.3661 -10.0919 -10.2908 -10.5489  -0.7519  -0.6836
 -0.8118  -0.7290  -0.6426  -0.7219  -0.6727  -0.4778  -0.7547  -0.4698
 -0.4561  -0.4685  -0.4357  -0.4836  -0.4150  -0.4160  -0.4288  -0.4097
 -0.4413  -0.4242  -0.3869  -0.4498  -0.4993  -0.4784  -0.5372  -0.6224
 -- Virtual --
 -0.0482  -0.0397  -0.0347  -0.0327  -0.0290  -0.0274  -0.0269  -0.0245
 -0.0222  -0.0216  -0.0203  -0.0170  -0.0164  -0.0152  -0.0139  -0.0135
 -0.0126  -0.0117  -0.0108  -0.0096  -0.0081  -0.0079  -0.0062  -0.0054
 -0.0042  -0.0031  -0.0024  -0.0015  -0.0008   0.0005   0.0008   0.0010
  0.0020   0.0022   0.0035   0.0044   0.0052   0.0058   0.0065   0.0069
  0.0081   0.0088   0.0097   0.0101   0.0106   0.0123   0.0135   0.0140
  0.0145   0.0153   0.0167   0.0177   0.0184   0.0186   0.0193   0.0208
  0.0211   0.0223   0.0229   0.0232   0.0237   0.0244   0.0254   0.0261
  0.0266   0.0271   0.0278   0.0288   0.0293   0.0296   0.0299   0.0306
  0.0314   0.0316   0.0324   0.0331   0.0334   0.0344   0.0350   0.0359
  0.0368   0.0380   0.0381   0.0386   0.0389   0.0399   0.0402   0.0412
  0.0419   0.0425   0.0432   0.0444   0.0446   0.0455   0.0463   0.0468
  0.0476   0.0481   0.0490   0.0498   0.0508   0.0510   0.0512   0.0523
  0.0528   0.0535   0.0543   0.0548   0.0557   0.0560   0.0568   0.0574
  0.0579   0.0589   0.0594   0.0598   0.0611   0.0613   0.0623   0.0630
  0.0635   0.0644   0.0648   0.0661   0.0662   0.0670   0.0673   0.0675
  0.0680   0.0697   0.0703   0.0713   0.0721   0.0728   0.0738   0.0741
  0.0747   0.0756   0.0766   0.0777   0.0781   0.0789   0.0800   0.0805
  0.0815   0.0818   0.0823   0.0825   0.0829   0.0834   0.0844   0.0846
  0.0863   0.0864   0.0876   0.0880   0.0887   0.0897   0.0900   0.0904
  0.0909   0.0921   0.0927   0.0933   0.0938   0.0954   0.0959   0.0965
  0.0975   0.0989   0.0994   0.1001   0.1003   0.1011   0.1018   0.1027
  0.1040   0.1041   0.1047   0.1056   0.1057   0.1065   0.1075   0.1078
  0.1085   0.1093   0.1097   0.1110   0.1116   0.1127   0.1129   0.1133
  0.1147   0.1154   0.1158   0.1170   0.1171   0.1178   0.1180   0.1187
  0.1198   0.1200   0.1209   0.1213   0.1218   0.1223   0.1232   0.1241
  0.1245   0.1255   0.1262   0.1263   0.1273   0.1281   0.1283   0.1289
  0.1296   0.1307   0.1317   0.1319   0.1324   0.1328   0.1337   0.1341
  0.1348   0.1361   0.1368   0.1371   0.1377   0.1387   0.1400   0.1413
  0.1421   0.1425   0.1427   0.1436   0.1444   0.1449   0.1454   0.1455
  0.1463   0.1467   0.1470   0.1485   0.1486   0.1495   0.1507   0.1509
  0.1510   0.1525   0.1527   0.1530   0.1537   0.1542   0.1550   0.1555
  0.1559   0.1568   0.1573   0.1579   0.1588   0.1591   0.1603   0.1608
  0.1612   0.1615   0.1627   0.1635   0.1639   0.1647   0.1656   0.1659
  0.1664   0.1671   0.1680   0.1686   0.1692   0.1701   0.1709   0.1713
  0.1718   0.1722   0.1730   0.1734   0.1742   0.1745   0.1761   0.1767
  0.1769   0.1778   0.1779   0.1787   0.1794   0.1799   0.1803   0.1809
  0.1815   0.1828   0.1832   0.1838   0.1842   0.1843   0.1852   0.1855
  0.1860   0.1869   0.1880   0.1883   0.1885   0.1891   0.1897   0.1910
  0.1915   0.1926   0.1926   0.1936   0.1944   0.1953   0.1954   0.1967
  0.1972   0.1979   0.1987   0.1989   0.1997   0.2000   0.2009   0.2019
  0.2026   0.2029   0.2036   0.2044   0.2048   0.2058   0.2066   0.2073
  0.2076   0.2084   0.2088   0.2097   0.2100   0.2105   0.2115   0.2125
  0.2128   0.2132   0.2140   0.2149   0.2157   0.2161   0.2168   0.2178
  0.2181   0.2190   0.2197   0.2199   0.2214   0.2223   0.2228   0.2230
  0.2238   0.2242   0.2244   0.2249   0.2264   0.2266   0.2267   0.2285
  0.2290   0.2298   0.2308   0.2316   0.2328   0.2329   0.2332   0.2341
  0.2349   0.2358   0.2370   0.2382   0.2386   0.2389   0.2396   0.2402
  0.2412   0.2423   0.2431   0.2437   0.2445   0.2452   0.2465   0.2467
  0.2470   0.2476   0.2493   0.2496   0.2505   0.2507   0.2518   0.2525
  0.2530   0.2542   0.2551   0.2559   0.2566   0.2574   0.2580   0.2587
  0.2590   0.2592   0.2608   0.2618   0.2623   0.2627   0.2637   0.2644
  0.2651   0.2656   0.2669   0.2691   0.2698   0.2705   0.2715   0.2719
  0.2724   0.2730   0.2737   0.2751   0.2752   0.2759   0.2766   0.2782
  0.2789   0.2798   0.2807   0.2812   0.2821   0.2832   0.2835   0.2849
  0.2853   0.2859   0.2873   0.2881   0.2893   0.2897   0.2907   0.2912
  0.2917   0.2924   0.2931   0.2936   0.2945   0.2955   0.2961   0.2964
  0.2972   0.2982   0.2999   0.3011   0.3019   0.3019   0.3027   0.3038
  0.3048   0.3052   0.3062   0.3069   0.3075   0.3094   0.3103   0.3108
  0.3109   0.3118   0.3124   0.3131   0.3139   0.3146   0.3153   0.3162
  0.3175   0.3176   0.3188   0.3194   0.3197   0.3212   0.3217   0.3230
  0.3241   0.3245   0.3253   0.3261   0.3274   0.3281   0.3293   0.3306
  0.3310   0.3327   0.3330   0.3341   0.3354   0.3364   0.3374   0.3389
  0.3397   0.3410   0.3420   0.3422   0.3433   0.3436   0.3446   0.3452
  0.3467   0.3468   0.3474   0.3491   0.3494   0.3511   0.3517   0.3522
  0.3525   0.3535   0.3545   0.3557   0.3575   0.3583   0.3591   0.3600
  0.3606   0.3609   0.3620   0.3626   0.3644   0.3654   0.3657   0.3675
  0.3689   0.3693   0.3697   0.3704   0.3713   0.3721   0.3728   0.3738
  0.3748   0.3767   0.3771   0.3773   0.3784   0.3792   0.3800   0.3816
  0.3824   0.3833   0.3837   0.3843   0.3845   0.3864   0.3871   0.3888
  0.3892   0.3904   0.3914   0.3917   0.3924   0.3935   0.3943   0.3961
  0.3970   0.3974   0.3985   0.3993   0.4008   0.4016   0.4024   0.4030
  0.4043   0.4055   0.4056   0.4076   0.4085   0.4106   0.4118   0.4119
  0.4127   0.4148   0.4152   0.4158   0.4163   0.4177   0.4179   0.4186
  0.4211   0.4218   0.4229   0.4234   0.4238   0.4259   0.4267   0.4270
  0.4291   0.4300   0.4312   0.4329   0.4336   0.4358   0.4364   0.4371
  0.4383   0.4401   0.4402   0.4420   0.4429   0.4435   0.4451   0.4462
  0.4495   0.4505   0.4510   0.4526   0.4534   0.4546   0.4551   0.4570
  0.4580   0.4585   0.4598   0.4612   0.4623   0.4637   0.4649   0.4660
  0.4671   0.4688   0.4705   0.4718   0.4723   0.4738   0.4758   0.4771
  0.4781   0.4806   0.4818   0.4841   0.4855   0.4864   0.4870   0.4899
  0.4903   0.4928   0.4937   0.4961   0.4974   0.4987   0.5015   0.5030
  0.5033   0.5047   0.5058   0.5070   0.5097   0.5114   0.5143   0.5155
  0.5174   0.5189   0.5204   0.5214   0.5237   0.5251   0.5284   0.5301
  0.5313   0.5331   0.5334   0.5350   0.5355   0.5390   0.5406   0.5444
  0.5450   0.5471   0.5477   0.5485   0.5551   0.5561   0.5578   0.5589
  0.5600   0.5609   0.5630   0.5647   0.5663   0.5682   0.5697   0.5720
  0.5735   0.5758   0.5772   0.5787   0.5797   0.5811   0.5819   0.5824
  0.5851   0.5860   0.5875   0.5899   0.5906   0.5927   0.5941   0.5947
  0.5970   0.5974   0.5991   0.5994   0.6008   0.6027   0.6044   0.6056
  0.6071   0.6079   0.6092   0.6106   0.6129   0.6144   0.6151   0.6162
  0.6171   0.6179   0.6196   0.6208   0.6224   0.6233   0.6247   0.6255
  0.6268   0.6277   0.6294   0.6307   0.6312   0.6330   0.6340   0.6345
  0.6372   0.6374   0.6380   0.6399   0.6414   0.6422   0.6452   0.6455
  0.6465   0.6485   0.6500   0.6515   0.6519   0.6536   0.6538   0.6546
  0.6548   0.6559   0.6580   0.6597   0.6600   0.6612   0.6617   0.6625
  0.6629   0.6641   0.6648   0.6657   0.6680   0.6706   0.6716   0.6720
  0.6729   0.6739   0.6752   0.6769   0.6781   0.6791   0.6800   0.6808
  0.6833   0.6846   0.6855   0.6875   0.6889   0.6891   0.6905   0.6919
  0.6930   0.6940   0.6943   0.6973   0.6975   0.6990   0.6998   0.7000
  0.7016   0.7045   0.7053   0.7074   0.7079   0.7100   0.7119   0.7124
  0.7142   0.7162   0.7171   0.7178   0.7199   0.7215   0.7219   0.7230
  0.7249   0.7269   0.7279   0.7287   0.7302   0.7328   0.7337   0.7341
  0.7361   0.7374   0.7379   0.7390   0.7406   0.7446   0.7450   0.7478
  0.7484   0.7518   0.7522   0.7546   0.7549   0.7565   0.7586   0.7599
  0.7610   0.7612   0.7649   0.7667   0.7678   0.7699   0.7734   0.7739
  0.7754   0.7785   0.7790   0.7805   0.7823   0.7839   0.7860   0.7889
  0.7902   0.7917   0.7932   0.7937   0.7949   0.7979   0.7991   0.8005
  0.8025   0.8031   0.8048   0.8058   0.8082   0.8094   0.8097   0.8125
  0.8130   0.8147   0.8156   0.8173   0.8189   0.8211   0.8231   0.8242
  0.8263   0.8272   0.8295   0.8304   0.8318   0.8339   0.8343   0.8367
  0.8389   0.8397   0.8405   0.8422   0.8438   0.8449   0.8467   0.8478
  0.8486   0.8505   0.8524   0.8538   0.8542   0.8555   0.8563   0.8578
  0.8589   0.8605   0.8615   0.8622   0.8640   0.8652   0.8675   0.8684
  0.8690   0.8714   0.8727   0.8747   0.8757   0.8776   0.8793   0.8801
  0.8804   0.8826   0.8829   0.8851   0.8857   0.8875   0.8881   0.8883
  0.8898   0.8907   0.8923   0.8934   0.8942   0.8956   0.8957   0.8974
  0.8997   0.9005   0.9022   0.9049   0.9065   0.9067   0.9075   0.9090
  0.9106   0.9124   0.9127   0.9148   0.9159   0.9170   0.9173   0.9198
  0.9203   0.9223   0.9227   0.9235   0.9244   0.9263   0.9286   0.9291
  0.9310   0.9316   0.9325   0.9336   0.9349   0.9369   0.9374   0.9391
  0.9399   0.9423   0.9432   0.9434   0.9448   0.9458   0.9475   0.9495
  0.9504   0.9512   0.9522   0.9535   0.9556   0.9562   0.9568   0.9590
  0.9603   0.9611   0.9624   0.9628   0.9640   0.9651   0.9661   0.9668
  0.9689   0.9712   0.9715   0.9726   0.9737   0.9750   0.9759   0.9773
  0.9784   0.9791   0.9796   0.9811   0.9817   0.9833   0.9846   0.9859
  0.9867   0.9885   0.9891   0.9910   0.9920   0.9929   0.9937   0.9946
  0.9953   0.9969   0.9983   0.9996   1.0005   1.0017   1.0021   1.0056
  1.0059   1.0067   1.0079   1.0090   1.0105   1.0118   1.0127   1.0136
  1.0156   1.0171   1.0179   1.0193   1.0204   1.0216   1.0220   1.0226
  1.0237   1.0250   1.0265   1.0281   1.0297   1.0306   1.0332   1.0344
  1.0345   1.0356   1.0371   1.0388   1.0411   1.0423   1.0428   1.0443
  1.0452   1.0461   1.0464   1.0470   1.0486   1.0508   1.0519   1.0534
  1.0541   1.0546   1.0579   1.0593   1.0606   1.0623   1.0629   1.0640
  1.0656   1.0667   1.0673   1.0692   1.0726   1.0731   1.0765   1.0765
  1.0782   1.0800   1.0810   1.0818   1.0827   1.0841   1.0862   1.0871
  1.0879   1.0912   1.0914   1.0931   1.0948   1.0958   1.0976   1.0981
  1.0987   1.1020   1.1037   1.1046   1.1072   1.1079   1.1094   1.1117
  1.1127   1.1128   1.1142   1.1159   1.1166   1.1182   1.1206   1.1221
  1.1230   1.1252   1.1269   1.1282   1.1287   1.1304   1.1329   1.1335
  1.1350   1.1371   1.1384   1.1395   1.1411   1.1434   1.1451   1.1456
  1.1471   1.1486   1.1491   1.1499   1.1507   1.1527   1.1545   1.1556
  1.1566   1.1574   1.1608   1.1611   1.1625   1.1631   1.1653   1.1657
  1.1680   1.1692   1.1707   1.1719   1.1728   1.1740   1.1761   1.1788
  1.1795   1.1809   1.1824   1.1831   1.1863   1.1876   1.1898   1.1906
  1.1930   1.1940   1.1950   1.1963   1.1975   1.1994   1.2044   1.2070
  1.2078   1.2088   1.2100   1.2121   1.2134   1.2147   1.2161   1.2191
  1.2198   1.2218   1.2239   1.2253   1.2282   1.2304   1.2317   1.2328
  1.2357   1.2378   1.2402   1.2418   1.2434   1.2439   1.2457   1.2484
  1.2494   1.2516   1.2530   1.2567   1.2601   1.2622   1.2636   1.2647
  1.2692   1.2702   1.2705   1.2721   1.2766   1.2811   1.2834   1.2840
  1.2870   1.2913   1.2917   1.2953   1.2972   1.3019   1.3044   1.3063
  1.3083   1.3087   1.3146   1.3163   1.3178   1.3203   1.3233   1.3235
  1.3260   1.3271   1.3293   1.3314   1.3326   1.3377   1.3380   1.3387
  1.3408   1.3430   1.3458   1.3464   1.3493   1.3507   1.3546   1.3575
  1.3602   1.3610   1.3628   1.3636   1.3650   1.3664   1.3689   1.3704
  1.3736   1.3755   1.3770   1.3778   1.3806   1.3828   1.3846   1.3852
  1.3869   1.3895   1.3910   1.3916   1.3928   1.3935   1.3947   1.3953
  1.3970   1.3994   1.4020   1.4033   1.4036   1.4061   1.4072   1.4085
  1.4097   1.4115   1.4117   1.4129   1.4161   1.4167   1.4188   1.4205
  1.4214   1.4218   1.4241   1.4268   1.4276   1.4292   1.4308   1.4317
  1.4331   1.4341   1.4360   1.4381   1.4388   1.4402   1.4413   1.4444
  1.4465   1.4481   1.4497   1.4502   1.4519   1.4534   1.4575   1.4602
  1.4616   1.4626   1.4641   1.4669   1.4685   1.4697   1.4701   1.4725
  1.4742   1.4743   1.4794   1.4802   1.4821   1.4857   1.4869   1.4896
  1.4915   1.4947   1.4961   1.4965   1.4990   1.5000   1.5040   1.5048
  1.5065   1.5076   1.5108   1.5145   1.5163   1.5176   1.5195   1.5220
  1.5238   1.5250   1.5291   1.5331   1.5380   1.5382   1.5422   1.5440
  1.5464   1.5475   1.5497   1.5519   1.5538   1.5585   1.5596   1.5612
  1.5657   1.5721   1.5743   1.5754   1.5806   1.5829   1.5855   1.5877
  1.5930   1.5969   1.5990   1.6046   1.6090   1.6126   1.6178   1.6232
  1.6266   1.6335   1.6351   1.6363   1.6393   1.6416   1.6481   1.6505
  1.6539   1.6578   1.6588   1.6621   1.6629   1.6640   1.6651   1.6678
  1.6705   1.6713   1.6720   1.6730   1.6747   1.6777   1.6789   1.6807
  1.6812   1.6820   1.6854   1.6870   1.6878   1.6887   1.6903   1.6914
  1.6948   1.6958   1.6969   1.6987   1.7000   1.7033   1.7034   1.7043
  1.7050   1.7069   1.7098   1.7104   1.7121   1.7133   1.7153   1.7169
  1.7174   1.7191   1.7199   1.7212   1.7224   1.7248   1.7266   1.7280
  1.7285   1.7296   1.7315   1.7321   1.7339   1.7345   1.7351   1.7363
  1.7372   1.7388   1.7410   1.7432   1.7440   1.7468   1.7484   1.7502
  1.7517   1.7529   1.7545   1.7564   1.7595   1.7606   1.7614   1.7634
  1.7647   1.7672   1.7679   1.7694   1.7714   1.7726   1.7737   1.7746
  1.7766   1.7790   1.7801   1.7821   1.7842   1.7856   1.7872   1.7882
  1.7932   1.7955   1.7960   1.7973   1.8001   1.8031   1.8048   1.8056
  1.8073   1.8099   1.8122   1.8149   1.8176   1.8204   1.8232   1.8249
  1.8260   1.8284   1.8331   1.8361   1.8391   1.8447   1.8467   1.8480
  1.8492   1.8508   1.8544   1.8577   1.8591   1.8603   1.8616   1.8655
  1.8686   1.8695   1.8727   1.8730   1.8770   1.8797   1.8811   1.8825
  1.8836   1.8857   1.8880   1.8911   1.8915   1.8927   1.8938   1.8948
  1.8960   1.8980   1.8985   1.8992   1.9012   1.9024   1.9038   1.9054
  1.9063   1.9076   1.9084   1.9102   1.9105   1.9123   1.9128   1.9141
  1.9175   1.9184   1.9201   1.9214   1.9225   1.9247   1.9265   1.9279
  1.9300   1.9316   1.9329   1.9336   1.9368   1.9387   1.9396   1.9442
  1.9456   1.9481   1.9489   1.9507   1.9541   1.9562   1.9591   1.9604
  1.9649   1.9663   1.9693   1.9720   1.9756   1.9818   1.9842   1.9891
  1.9933   1.9971   1.9995   2.0141   2.0177   2.0253   2.0310   2.0329
  2.0447   2.0454   2.0507   2.0538   2.0560   2.0571   2.0601   2.0618
  2.0640   2.0645   2.0651   2.0657   2.0664   2.0679   2.0690   2.0692
  2.0697   2.0726   2.0737   2.0763   2.0773   2.0821   2.0826   2.0845
  2.0850   2.0866   2.0876   2.0893   2.0907   2.0915   2.0931   2.0945
  2.0958   2.0976   2.0979   2.0995   2.1001   2.1018   2.1040   2.1049
  2.1059   2.1080   2.1091   2.1112   2.1116   2.1126   2.1172   2.1263
  2.1289   2.1304   2.1317   2.1368   2.1398   2.1426   2.1461   2.1482
  2.1580   2.1654   2.1710   2.1743   2.1801   2.1824   2.1830   2.1836
  2.1840   2.1861   2.1883   2.1899   2.1915   2.1947   2.1971   2.1982
  2.2006   2.2013   2.2046   2.2058   2.2099   2.2110   2.2145   2.2157
  2.2175   2.2182   2.2215   2.2231   2.2238   2.2260   2.2271   2.2275
  2.2302   2.2313   2.2325   2.2343   2.2359   2.2365   2.2369   2.2382
  2.2396   2.2417   2.2442   2.2446   2.2477   2.2480   2.2487   2.2508
  2.2511   2.2515   2.2525   2.2550   2.2556   2.2563   2.2571   2.2585
  2.2595   2.2618   2.2622   2.2643   2.2653   2.2661   2.2669   2.2675
  2.2681   2.2687   2.2699   2.2705   2.2709   2.2727   2.2735   2.2737
  2.2753   2.2755   2.2759   2.2777   2.2800   2.2801   2.2813   2.2838
  2.2843   2.2864   2.2872   2.2887   2.2904   2.2920   2.2925   2.2934
  2.2937   2.2953   2.2957   2.2962   2.2987   2.2996   2.3008   2.3024
  2.3028   2.3032   2.3041   2.3054   2.3071   2.3079   2.3091   2.3098
  2.3104   2.3117   2.3119   2.3135   2.3165   2.3173   2.3201   2.3205
  2.3224   2.3235   2.3238   2.3253   2.3262   2.3282   2.3288   2.3299
  2.3311   2.3320   2.3340   2.3353   2.3364   2.3393   2.3420   2.3430
  2.3444   2.3460   2.3509   2.3535   2.3567   2.3575   2.3592   2.3608
  2.3620   2.3643   2.3675   2.3706   2.3714   2.3737   2.3748   2.3777
  2.3812   2.3833   2.3849   2.3871   2.3898   2.3900   2.3993   2.4008
  2.4028   2.4058   2.4069   2.4200   2.4250   2.4374   2.4622   2.4895
  2.5061   2.5269   2.5318   2.5586   2.6179   2.6984   2.7231   2.7531
  2.7910   2.8058   2.8209   2.8242   2.8253   2.8312   2.8363   2.8373
  2.8413   2.8460   2.8483   2.8490   2.8507   2.8561   2.8572   2.8617
  2.8617   2.8623   2.8654   2.8660   2.8670   2.8686   2.8720   2.8742
  2.8792   2.8881   2.8905   2.8934   2.9061   2.9259   2.9734   3.0950
  3.2834   3.9403   3.9499   3.9567   3.9651   3.9716   3.9752   3.9773
  3.9779   3.9800   3.9807   3.9830   3.9863   3.9873   3.9901   3.9949
  3.9980   3.9994   4.0011   4.0055   4.0082   4.0094   4.0135   4.0199
  4.0296   4.0543   4.1819   4.2157   4.2159   4.2259   4.2270   4.2361
  4.2411   4.2468   4.2511   4.2539   4.2551   4.2565   4.2606   4.2616
  4.2642   4.2665   4.2683   4.2699   4.2752   4.2810   4.2827   4.2841
  4.2892   4.2908   4.2939   4.2980   4.3010   4.3030   4.3051   4.3078
  4.3103   4.3114   4.3176   4.3185   4.3214   4.3234   4.3249   4.3264
  4.3317   4.3349   4.3370   4.3442   4.3451   4.3453   4.3475   4.3537
  4.3567   4.3633   4.3646   4.3650   4.3708   4.3740   4.3772   4.3827
  4.3833   4.3902   4.3942   4.4061   4.4091   4.4122   4.4198   4.4202
  4.4287   4.4315   4.4362   4.4476   4.4550   4.4707   4.4876   4.5061
  4.5176   4.5339   4.5430   4.5574   4.5756   4.5871   4.6029   4.6136
  4.6561   4.6775   4.7273   4.7988   4.8121   5.0137
 --------------------------------------------------------------
 
          Ground-State Mulliken Net Atomic Charges

     Atom                 Charge (a.u.)
  ----------------------------------------
      1 C                     0.125027
      2 C                    -0.065749
      3 C                    -0.134565
      4 C                    -0.812865
      5 C                    -0.923586
      6 C                    -0.579394
      7 H                     0.250909
      8 H                     0.224088
      9 H                     0.227261
     10 H                     0.215807
     11 H                     0.210222
     12 H                     0.220159
     13 H                     0.246991
     14 H                     0.237965
     15 H                     0.191667
     16 H                     0.204778
     17 H                     0.253153
     18 N                     0.030276
     19 H                     0.540065
     20 C                    -0.916410
     21 H                     0.182325
     22 O                    -0.031180
     23 C                    -1.030717
     24 H                     0.248737
     25 H                     0.257653
     26 H                     0.273596
     27 S                     1.579629
     28 C                    -1.417577
     29 H                     0.273120
     30 H                     0.299511
     31 H                     0.255595
     32 O                    -0.645318
     33 C                    -0.758509
     34 H                     0.224953
     35 H                     0.249686
     36 H                     0.245542
     37 S                     0.743364
     38 C                    -0.724363
     39 H                     0.284178
     40 H                     0.229585
     41 H                     0.267531
     42 O                    -0.677904
     43 C                    -0.989116
     44 H                     0.286584
     45 H                     0.248430
     46 H                     0.310283
     47 S                     0.646573
     48 C                    -0.821365
     49 H                     0.261975
     50 H                     0.278857
     51 H                     0.227756
     52 O                    -0.584790
     53 C                    -0.842287
     54 H                     0.273475
     55 H                     0.231576
     56 H                     0.260366
     57 S                     0.944389
     58 C                    -0.868559
     59 H                     0.251444
     60 H                     0.226913
     61 H                     0.280961
     62 O                    -0.724603
     63 C                    -0.959128
     64 H                     0.241799
     65 H                     0.294956
     66 H                     0.231322
     67 S                     0.981698
     68 C                    -0.883366
     69 H                     0.235065
     70 H                     0.290308
     71 H                     0.270576
     72 O                    -0.686485
     73 C                    -0.870606
     74 H                     0.264893
     75 H                     0.282452
     76 H                     0.302427
     77 S                     0.858609
     78 C                    -0.965597
     79 H                     0.244350
     80 H                     0.280037
     81 H                     0.271271
     82 O                    -0.597706
     83 C                    -0.798716
     84 H                     0.253034
     85 H                     0.289844
     86 H                     0.229119
     87 S                     0.933829
     88 C                    -0.898720
     89 H                     0.320210
     90 H                     0.232292
     91 H                     0.230966
     92 O                    -0.688112
     93 C                    -0.853738
     94 H                     0.258958
     95 H                     0.235442
     96 H                     0.242896
     97 S                     0.836761
     98 C                    -0.932527
     99 H                     0.250229
    100 H                     0.254508
    101 H                     0.271183
    102 O                    -0.644181
    103 C                    -0.779927
    104 H                     0.271701
    105 H                     0.222943
    106 H                     0.278237
    107 S                     0.819884
    108 C                    -0.846069
    109 H                     0.262360
    110 H                     0.228027
    111 H                     0.248632
    112 O                    -0.713081
    113 C                    -0.925616
    114 H                     0.271663
    115 H                     0.232600
    116 H                     0.246848
    117 S                     1.187451
    118 C                    -0.961613
    119 H                     0.284093
    120 H                     0.267140
    121 H                     0.225323
    122 O                    -0.710749
    123 C                    -0.846221
    124 H                     0.263881
    125 H                     0.229359
    126 H                     0.236400
    127 S                     0.829111
    128 C                    -0.808640
    129 H                     0.296910
    130 H                     0.239076
    131 H                     0.242090
    132 O                    -0.661350
    133 C                    -0.853609
    134 H                     0.253548
    135 H                     0.254597
    136 H                     0.245982
    137 S                     0.966488
    138 C                    -0.933251
    139 H                     0.257169
    140 H                     0.255941
    141 H                     0.292180
    142 O                    -0.715968
    143 C                    -1.033763
    144 H                     0.253413
    145 H                     0.246740
    146 H                     0.248058
    147 S                     1.126531
    148 C                    -0.940957
    149 H                     0.256448
    150 H                     0.249234
    151 H                     0.260718
    152 O                    -0.716431
    153 C                    -0.800932
    154 H                     0.242829
    155 H                     0.244034
    156 H                     0.258025
    157 S                     0.904668
    158 C                    -0.768330
    159 H                     0.233127
    160 H                     0.270754
    161 H                     0.247037
    162 O                    -0.749839
    163 C                    -0.911873
    164 H                     0.278177
    165 H                     0.274946
    166 H                     0.270747
    167 S                     0.919959
    168 C                    -0.827716
    169 H                     0.242797
    170 H                     0.259806
    171 H                     0.254310
    172 O                    -0.698401
    173 C                    -0.926649
    174 H                     0.236939
    175 H                     0.282370
    176 H                     0.250303
    177 S                     1.110563
    178 C                    -0.929339
    179 H                     0.239534
    180 H                     0.255657
    181 H                     0.235913
    182 O                    -0.714255
    183 C                    -1.056571
    184 H                     0.279452
    185 H                     0.327674
    186 H                     0.247273
    187 S                     1.044009
    188 C                    -0.790136
    189 H                     0.241338
    190 H                     0.255274
    191 H                     0.227607
    192 O                    -0.756389
    193 C                    -1.117589
    194 H                     0.247382
    195 H                     0.302361
    196 H                     0.249778
    197 S                     1.117063
    198 C                    -0.903865
    199 H                     0.244472
    200 H                     0.248206
    201 H                     0.266253
    202 O                    -0.717963
    203 C                    -0.768725
    204 H                     0.278065
    205 H                     0.251546
    206 H                     0.236143
    207 S                     0.582485
    208 C                    -0.904123
    209 H                     0.217531
    210 H                     0.321863
    211 H                     0.285901
    212 O                    -0.549650
    213 C                    -0.940134
    214 H                     0.242655
    215 H                     0.254904
    216 H                     0.323622
    217 S                     0.961015
    218 C                    -0.857801
    219 H                     0.254514
    220 H                     0.247181
    221 H                     0.237589
    222 O                    -0.711664
    223 C                    -0.971475
    224 H                     0.276650
    225 H                     0.248495
    226 H                     0.236904
    227 S                     1.110569
    228 C                    -0.974308
    229 H                     0.251497
    230 H                     0.279113
    231 H                     0.290393
    232 O                    -0.721790
    233 C                    -0.962525
    234 H                     0.284601
    235 H                     0.248437
    236 H                     0.319664
    237 S                     0.810846
    238 C                    -0.890162
    239 H                     0.232977
    240 H                     0.250844
    241 H                     0.272529
    242 O                    -0.697704
    243 C                    -0.923945
    244 H                     0.248568
    245 H                     0.248872
    246 H                     0.254247
    247 S                     0.644352
    248 C                    -0.705347
    249 H                     0.308868
    250 H                     0.249609
    251 H                     0.248373
    252 O                    -0.600855
    253 C                    -0.647813
    254 H                     0.295200
    255 H                     0.258634
    256 H                     0.278882
    257 S                     0.160750
    258 C                    -0.906218
    259 H                     0.232830
    260 H                     0.307070
    261 H                     0.320693
    262 O                    -0.527094
    263 C                    -0.982730
    264 H                     0.258337
    265 H                     0.248322
    266 H                     0.246497
    267 S                     1.147831
    268 C                    -0.862158
    269 H                     0.243187
    270 H                     0.255146
    271 H                     0.251356
    272 O                    -0.738502
  ----------------------------------------
  Sum of atomic charges =     0.000000

 -----------------------------------------------------------------
                    Cartesian Multipole Moments
 -----------------------------------------------------------------
    Charge (ESU x 10^10)
                 0.0000
    Dipole Moment (Debye)
         X      -0.3988      Y     -14.3773      Z      -1.4095
       Tot      14.4518
    Quadrupole Moments (Debye-Ang)
        XX    -795.3910     XY    -394.0848     YY   -1565.5028
        XZ      38.4375     YZ    -533.2824     ZZ   -1174.4007
    Octopole Moments (Debye-Ang^2)
       XXX  -59403.9903    XXY  -28555.3633    XYY  -41021.8257
       YYY  -84490.3540    XXZ  -18107.8437    XYZ  -11815.4537
       YYZ  -47445.7602    XZZ  -25445.8118    YZZ  -42085.5563
       ZZZ  -93569.1588
    Hexadecapole Moments (Debye-Ang^3)
      XXXX ************   XXXY ************   XXYY ************
      XYYY ************   YYYY ************   XXXZ ************
      XXYZ -741504.1998   XYYZ ************   YYYZ ************
      XXZZ ************   XYZZ -951843.1771   YYZZ ************
      XZZZ ************   YZZZ ************   ZZZZ ************
 -----------------------------------------------------------------
Archival summary:
[...]
    2  -0.0046968   0.0006852  -0.0228841   0.0090606   0.0287579  -0.0786129
    3   0.0000365   0.0059698   0.0261780   0.0099933   0.0113382  -0.0395481
          103         104         105         106         107         108
    1   0.0050350   0.0236550   0.0106679  -0.0262270  -0.0439959   0.0022289
    2   0.0028502   0.0233914  -0.0241906   0.0070710  -0.0368333   0.0069369
    3  -0.0081520  -0.0088526  -0.0356471  -0.0166749   0.0081764   0.0023597
          109         110         111         112         113         114
    1   0.0208178  -0.0278256  -0.0060177   0.1000654  -0.0038693   0.0156199
    2   0.0194650   0.0080004   0.0005464  -0.0115902  -0.0056026  -0.0248902
    3  -0.0206779  -0.0088876   0.0336311   0.0450684  -0.0005162   0.0024250
          115         116         117         118         119         120
    1  -0.0268932  -0.0163521   0.0205813  -0.0043296   0.0169584  -0.0014187
    2  -0.0070437  -0.0037730   0.0083492   0.0077921   0.0265277  -0.0142002
    3   0.0253170  -0.0268296   0.0506014  -0.0036108   0.0126837  -0.0314230
          121         122         123         124         125         126
    1  -0.0309046   0.0581562   0.0017051  -0.0153324   0.0326281  -0.0200671
    2   0.0026694  -0.0164237  -0.0064724  -0.0094481  -0.0158574  -0.0102207
    3   0.0142238  -0.0916697   0.0009963  -0.0268327   0.0132506   0.0209045
          127         128         129         130         131         132
    1   0.0431400  -0.0017269  -0.0035787  -0.0144512   0.0306271  -0.1059869
    2   0.0164642   0.0055628   0.0345652  -0.0163247  -0.0002687   0.0113645
    3  -0.0391495   0.0049903   0.0113779   0.0224636   0.0073471  -0.0263027
          133         134         135         136         137         138
    1   0.0016630  -0.0238938   0.0236894   0.0193748  -0.0226912   0.0076337
    2   0.0037899   0.0109873   0.0274818  -0.0186359   0.0362810   0.0013888
    3  -0.0062837  -0.0226380   0.0033588  -0.0133608   0.0333551   0.0005687
          139         140         141         142         143         144
    1   0.0013021   0.0172079   0.0299019  -0.0464438  -0.0022617   0.0276375
    2  -0.0168912  -0.0216041   0.0182576  -0.0936823  -0.0018225  -0.0023746
    3   0.0207955  -0.0179369   0.0228367  -0.0323365  -0.0035879  -0.0151211
          145         146         147         148         149         150
    1  -0.0088308  -0.0130448   0.0301358  -0.0042884  -0.0109506  -0.0190764
    2  -0.0307896   0.0174458  -0.0278085  -0.0045721   0.0200221  -0.0367120
    3  -0.0026174  -0.0243368   0.0448787  -0.0004866  -0.0186974  -0.0099635
          151         152         153         154         155         156
    1  -0.0065811   0.0189231   0.0053287   0.0190290   0.0048611   0.0199925
    2   0.0129507   0.1035326  -0.0003235  -0.0288335   0.0097937   0.0134211
    3   0.0262357  -0.0307272  -0.0037139   0.0048042  -0.0314570   0.0174403
          157         158         159         160         161         162
    1  -0.0089256  -0.0015187   0.0072033  -0.0290238   0.0040576  -0.0207130
    2  -0.0262190  -0.0015545  -0.0347597   0.0093420   0.0041728   0.1075194
    3   0.0519047  -0.0061579  -0.0147155   0.0072679  -0.0362291  -0.0113878
          163         164         165         166         167         168
    1   0.0035665   0.0303817   0.0248361  -0.0201190   0.0315143  -0.0028124
    2  -0.0001895   0.0137964  -0.0241066   0.0062852  -0.0076936  -0.0073634
    3  -0.0078125  -0.0002245  -0.0214038  -0.0228733   0.0384878  -0.0064160
          169         170         171         172         173         174
    1  -0.0182174  -0.0138793   0.0138524  -0.0757022   0.0063975   0.0091511
    2  -0.0029962   0.0119758  -0.0341206   0.0764044   0.0095664  -0.0250961
    3   0.0257013  -0.0254353  -0.0060055  -0.0131772  -0.0025750  -0.0189901
          175         176         177         178         179         180
    1  -0.0067210   0.0206126  -0.0477974   0.0010682   0.0304757  -0.0005370
    2   0.0318030   0.0080673  -0.0008601   0.0065895   0.0020500   0.0270980
    3  -0.0133940   0.0224088  -0.0341880   0.0057141   0.0088203  -0.0135455
          181         182         183         184         185         186
    1  -0.0271119   0.0441856  -0.0054629  -0.0315599   0.0199121   0.0148499
    2  -0.0152692  -0.0910451  -0.0039766   0.0173223  -0.0289231   0.0066299
    3   0.0135473   0.0413934   0.0114893   0.0098671   0.0036766   0.0272911
          187         188         189         190         191         192
    1   0.0464137  -0.0051874  -0.0064406   0.0003893  -0.0267134  -0.0107028
    2   0.0267585  -0.0002434   0.0305386   0.0006874  -0.0084982  -0.1043812
    3   0.0002708  -0.0012218   0.0110018  -0.0316236   0.0070940  -0.0334953
          193         194         195         196         197         198
    1   0.0003471  -0.0224730   0.0180708   0.0105703  -0.0381755  -0.0003828
    2  -0.0060556  -0.0036258  -0.0177360   0.0267096  -0.0312107   0.0051770
    3   0.0075961   0.0273788  -0.0093652   0.0129166  -0.0197983  -0.0057295
          199         200         201         202         203         204
    1   0.0132706   0.0081417  -0.0095925  -0.0244408   0.0027714   0.0066730
    2   0.0255097  -0.0151041   0.0287072   0.0975256  -0.0017987  -0.0200858
    3   0.0105909  -0.0307501  -0.0149010   0.0500466  -0.0030041  -0.0224070
          205         206         207         208         209         210
    1   0.0304141   0.0052660  -0.0171040  -0.0079293  -0.0151527  -0.0257706
    2   0.0104797  -0.0263162   0.0274871  -0.0079211  -0.0195558   0.0242093
    3   0.0046189   0.0236425   0.0464180  -0.0018028   0.0294406   0.0016999
          211         212         213         214         215         216
    1   0.0190414   0.0091133  -0.0015687  -0.0306603  -0.0005091   0.0106157
    2  -0.0093264   0.0509689   0.0078192   0.0074722  -0.0174324   0.0304036
    3  -0.0297757  -0.0965445   0.0071465  -0.0104260   0.0291333  -0.0070962
          217         218         219         220         221         222
    1   0.0049436  -0.0041576   0.0100704  -0.0090884  -0.0306715   0.0826061
    2   0.0195356  -0.0021285  -0.0259773  -0.0129654  -0.0092584  -0.0414571
    3  -0.0549591   0.0035733  -0.0104718   0.0302619  -0.0227433   0.0589556
          223         224         225         226         227         228
    1  -0.0042569   0.0042019  -0.0278200  -0.0166107  -0.0006389   0.0071006
    2  -0.0051642  -0.0322312   0.0076396   0.0097079   0.0535358  -0.0064715
    3   0.0006889  -0.0009768   0.0166228  -0.0258061  -0.0128261  -0.0096420
          229         230         231         232         233         234
    1  -0.0099454   0.0197129   0.0111813   0.0281050  -0.0079253  -0.0296668
    2  -0.0119353   0.0111250  -0.0259945  -0.0474781  -0.0095445  -0.0059416
    3  -0.0228500  -0.0246907   0.0129385   0.0921723   0.0039155   0.0264622
          235         236         237         238         239         240
    1  -0.0216918   0.0046685  -0.0025220   0.0010880  -0.0262972   0.0242641
    2   0.0143193  -0.0312663   0.0459522   0.0019964   0.0005256   0.0221364
    3  -0.0149765  -0.0028885   0.0271686  -0.0052908  -0.0210766  -0.0136876
          241         242         243         244         245         246
    1   0.0084954   0.0694923   0.0030172  -0.0176486  -0.0138120   0.0329658
    2  -0.0234078  -0.0844963   0.0025866   0.0326353  -0.0114690  -0.0055438
    3  -0.0154167   0.0184497   0.0067469   0.0066169   0.0254968   0.0072060
          247         248         249         250         251         252
    1   0.0120284  -0.0056231  -0.0114313  -0.0042778  -0.0149764   0.0484653
    2   0.0363603  -0.0050899  -0.0305997  -0.0195814   0.0301882  -0.1005043
    3  -0.0415069   0.0030638  -0.0071601   0.0270730   0.0003179   0.0098633
          253         254         255         256         257         258
    1  -0.0092850  -0.0057044  -0.0253391   0.0033629   0.0226210   0.0078018
    2   0.0034719   0.0276628  -0.0143296  -0.0110419  -0.0486277   0.0117694
    3   0.0036395   0.0038981  -0.0095186   0.0278893   0.0035916   0.0062106
          259         260         261         262         263         264
    1   0.0286100  -0.0069039   0.0033437  -0.0190346   0.0089651   0.0086970
    2   0.0107312   0.0276647  -0.0080667   0.0620409  -0.0038448  -0.0118828
    3  -0.0072499  -0.0051473   0.0306159  -0.0892176  -0.0010586   0.0296260
          265         266         267         268         269         270
    1  -0.0067533   0.0197170  -0.0256988   0.0027360   0.0259559  -0.0185036
    2  -0.0213598   0.0185807   0.0235113   0.0050775   0.0239094   0.0081586
    3  -0.0236406  -0.0237006  -0.0333278   0.0051384  -0.0097791   0.0242100
          271         272
    1   0.0143351  -0.0315058
    2  -0.0134139  -0.0796395
    3   0.0218421   0.0707357
  --- DONE ESP SUMMARY ---
Archival summary:
1\1\node003\SP\ProcedureUnspecified\6-31+G*\252550h22\ymao90\FriDec313:53:582021FriDec313:53:582021\0\\#,ProcedureUnspecified,6-31+G*,\\0,1\S\O,1,1.49662\C,1,1.80734,2,104.568\H,3,1.09237,1,111.863,2,158.164,0\H,3,1.09327,1,108.895,2,33.645,0\H,3,1.09336,1,108.566,2,-78.9724,0\C,1,1.80753,2,107.066,3,94.868,0\H,7,1.09212,1,108.919,2,61.7104,0\H,7,1.09296,1,112.943,2,-173.177,0\H,7,1.09296,1,108.122,2,-51.156,0\H,6,1.98801,3,128.397,1,-121.459,0\C,11,1.09342,6,130.294,3,-43.736,0\H,12,1.0929,11,118.559,6,159.679,0\H,12,1.09294,11,105.457,6,34.4287,0\S,12,1.80608,11,99.6069,6,-77.5983,0\O,15,1.49714,12,105.098,11,47.9084,0\Gh,16,1.78473,15,153.882,12,85.6059,0\Gh,17,1.01288,16,161.148,15,113.65,0\Gh,18,1.37976,17,113.496,16,-103.023,0\Gh,19,1.10549,18,111.895,17,7.23887,0\Gh,19,1.21779,18,127.08,17,175.442,0\Gh,18,1.46204,17,121.827,16,80.0715,0\Gh,22,1.09608,18,110.801,17,-137.569,0\Gh,22,1.53701,18,106.411,17,-18.8665,0\Gh,24,1.09632,22,112.617,18,-61.3288,0\Gh,24,1.0972,22,108.818,18,49.6379,0\Gh,24,1.5378,22,111.353,18,174.079,0\Gh,27,1.09646,24,111.017,22,82.3085,0\Gh,27,1.09658,24,106.276,22,-160.108,0\Gh,27,1.53752,24,114.719,22,-49.3796,0\Gh,30,1.09716,27,114.488,24,-75.0207,0\Gh,30,1.09748,27,111.014,24,165.618,0\Gh,30,1.53703,27,112.339,24,46.5281,0\Gh,33,1.09659,30,119.897,27,-176.221,0\Gh,33,1.09692,30,107.752,27,66.3557,0\Gh,33,1.53701,30,111.383,27,-50.5705,0\Gh,36,1.0967,33,105.568,30,-66.5128,0\Gh,36,1.09682,33,112.519,30,174.92,0\C,15,1.80718,12,91.336,11,-61.2852,0\H,39,1.09236,15,99.229,12,-44.6314,0\H,39,1.09271,15,107.561,12,-161.208,0\H,39,1.09285,15,116.302,12,75.3673,0\H,28,2.08014,27,163.678,24,-102.972,0\C,43,1.09263,28,148.188,27,104.434,0\H,44,1.09301,43,103.969,28,-45.0494,0\H,44,1.0933,43,111.676,28,-168.14,0\S,44,1.80664,43,100.696,28,72.2446,0\O,47,1.49635,44,104.629,43,153.666,0\C,47,1.80734,44,96.3857,43,53.1,0\H,49,1.09258,47,112.297,44,-59.309,0\H,49,1.09262,47,100.616,44,59.638,0\H,49,1.093,47,102.741,44,173.411,0\H,50,2.20544,49,142.071,47,-113.354,0\C,53,1.09312,50,115.832,49,-123.711,0\H,54,1.09215,53,110.415,50,-41.0511,0\H,54,1.09285,53,114.115,50,-154.021,0\S,54,1.80741,53,113.242,50,79.3756,0\O,57,1.49778,54,95.3628,53,144.207,0\C,57,1.80703,54,98.7687,53,-110.552,0\H,59,1.09223,57,109.305,54,78.6293,0\H,59,1.09277,57,104.701,54,-45.836,0\H,59,1.09336,57,105.337,54,-161.242,0\H,61,1.94064,59,160.144,57,-87.366,0\C,63,1.09349,61,142.403,59,-106.068,0\H,64,1.09271,63,114.138,61,-30.2299,0\H,64,1.09313,63,100.789,61,94.2134,0\S,64,1.80735,63,109.351,61,-157.799,0\O,67,1.49624,64,103.775,63,-52.0633,0\C,67,1.80771,64,92.9384,63,58.9583,0\H,69,1.09247,67,108.995,64,-53.6484,0\H,69,1.09261,67,101.677,64,-178.087,0\H,69,1.09277,67,106.886,64,72.2788,0\H,38,2.20933,36,132.426,33,150.018,0\C,73,1.09338,38,122.634,36,-14.2555,0\H,74,1.09236,73,110.217,38,40.7643,0\H,74,1.09296,73,112.973,38,-83.3327,0\S,74,1.80779,73,113.466,38,159.139,0\O,77,1.49644,74,108.581,73,-44.2173,0\C,77,1.80694,74,87.7696,73,62.5673,0\H,79,1.09225,77,111.203,74,-50.329,0\H,79,1.09316,77,110.368,74,75.9097,0\H,79,1.09372,77,104.953,74,-175.271,0\H,80,2.18662,79,123.874,77,-40.3151,0\C,83,1.09303,80,108.715,79,-108.405,0\H,84,1.09301,83,110.307,80,153.307,0\H,84,1.09335,83,99.294,80,36.0099,0\S,84,1.80644,83,111.779,80,-79.5823,0\O,87,1.49768,84,101.083,83,-166.041,0\C,87,1.80678,84,94.4321,83,-68.1578,0\H,89,1.09239,87,106.764,84,-158.625,0\H,89,1.09276,87,108.529,84,-33.7726,0\H,89,1.09321,87,104.795,84,81.2616,0\H,86,1.9403,84,116.398,83,78.4568,0\C,93,1.09263,86,118.588,84,151.135,0\H,94,1.09287,93,108.903,86,144.135,0\H,94,1.09341,93,110.493,86,23.6048,0\S,94,1.80691,93,108.323,86,-91.5074,0\O,97,1.49769,94,109.904,93,-178.411,0\C,97,1.80647,94,92.3028,93,84.0233,0\H,99,1.09254,97,111.569,94,40.5849,0\H,99,1.09279,97,105.693,94,-79.6008,0\H,99,1.0933,97,116.851,94,165.38,0\H,91,2.12159,89,162.559,87,153.041,0\C,103,1.09313,91,134.815,89,7.69566,0\H,104,1.09221,103,111.386,91,-123.545,0\H,104,1.09355,103,107.109,91,107.051,0\S,104,1.80711,103,104.484,91,-5.23604,0\O,107,1.49719,104,97.2329,103,70.5599,0\C,107,1.80676,104,91.283,103,173.252,0\H,109,1.09257,107,109.469,104,103.89,0\H,109,1.09334,107,106.896,104,-10.3984,0\H,109,1.09384,107,114.031,104,-136.072,0\H,71,2.24351,69,128.253,67,-136.534,0\C,113,1.09369,71,107.289,69,138.072,0\H,114,1.09252,113,107.698,71,-64.675,0\H,114,1.09271,113,121.014,71,63.6673,0\S,114,1.8064,113,107.198,71,-176.982,0\O,117,1.49738,114,102.674,113,81.0342,0\C,117,1.80684,114,90.3885,113,177.833,0\H,119,1.09194,117,108.035,114,60.1772,0\H,119,1.09306,117,118.937,114,-172.398,0\H,119,1.0932,117,106.834,114,-52.3955,0\H,25,2.25261,24,127.109,22,153.733,0\C,123,1.09308,25,137.896,24,166.013,0\H,124,1.09243,123,110.742,25,-166.668,0\H,124,1.09249,123,110.253,25,72.1288,0\S,124,1.80745,123,110.111,25,-44.9261,0\O,127,1.49729,124,102.972,123,44.9966,0\C,127,1.80722,124,97.8367,123,146.585,0\H,129,1.09266,127,108.554,124,57.2559,0\H,129,1.09309,127,112.435,124,175.97,0\H,129,1.09338,127,104.316,124,-59.0139,0\H,131,2.05281,129,97.7838,127,87.6962,0\C,133,1.09313,131,171.958,129,133.457,0\H,134,1.09178,133,110.869,131,107.318,0\H,134,1.09268,133,113.271,131,-131.818,0\S,134,1.80781,133,101.447,131,-12.7046,0\O,137,1.49669,134,102.905,133,43.4767,0\C,137,1.80655,134,104.534,133,-65.1545,0\H,139,1.09277,137,106.187,134,168.541,0\H,139,1.09291,137,113.082,134,-76.3886,0\H,139,1.09339,137,111.799,134,47.5407,0\H,125,2.24088,124,136.312,123,-28.1821,0\C,143,1.09321,125,131.451,124,42.5838,0\H,144,1.09277,143,112.417,125,-109.151,0\H,144,1.09335,143,110.444,125,116.221,0\S,144,1.8071,143,102.135,125,1.86765,0\O,147,1.49724,144,106.836,143,68.5736,0\C,147,1.80641,144,97.5592,143,171.075,0\H,149,1.09233,147,115.003,144,-46.9623,0\H,149,1.09288,147,119.79,144,-174.869,0\H,149,1.09309,147,105.047,144,63.2811,0\H,110,2.25542,109,140.74,107,-57.4085,0\C,153,1.0928,110,132.259,109,-40.5473,0\H,154,1.09326,153,112.571,110,-176.008,0\H,154,1.09332,153,108.007,110,67.3932,0\S,154,1.80634,153,109.614,110,-50.3901,0\O,157,1.49715,154,107.95,153,64.2901,0\C,157,1.80741,154,97.7691,153,172.077,0\H,159,1.0927,157,106.819,154,-90.1793,0\H,159,1.09276,157,106.126,154,145.098,0\H,159,1.09336,157,104.33,154,33.3303,0\O,4,2.25997,3,156.898,1,55.7369,0\S,163,1.49687,4,136.949,3,-11.8298,0\C,164,1.80676,163,103.476,4,-37.0786,0\H,165,1.09295,164,101.411,163,51.362,0\H,165,1.09324,164,113.688,163,-68.5934,0\H,165,1.09326,164,103.725,163,176.051,0\C,164,1.80679,163,104.251,4,67.5035,0\H,169,1.09231,164,110.459,163,-60.4047,0\H,169,1.09312,164,105.974,163,179.603,0\H,169,1.0941,164,105.008,163,58.1379,0\H,34,2.29221,33,143.546,30,168.411,0\C,173,1.09236,34,101.708,33,96.8093,0\H,174,1.09293,173,109.447,34,94.9762,0\H,174,1.09307,173,111.411,34,-26.9335,0\S,174,1.80711,173,109.696,34,-141.197,0\O,177,1.49693,174,103.734,173,4.33974,0\C,177,1.80641,174,92.8806,173,-99.4376,0\H,179,1.09337,177,104.886,174,167.94,0\H,179,1.09337,177,110.912,174,-65.2551,0\H,179,1.09338,177,104.314,174,54.5033,0\H,70,2.29705,69,122.407,67,-55.8107,0\C,183,1.09327,70,126.724,69,-57.0031,0\H,184,1.09247,183,105.36,70,6.01642,0\H,184,1.09366,183,113.01,70,-108.665,0\S,184,1.80689,183,108.762,70,129.393,0\O,187,1.49674,184,104.366,183,168.706,0\C,187,1.80695,184,92.174,183,64.4849,0\H,189,1.09286,187,107.555,184,-75.1945,0\H,189,1.09289,187,116.931,184,163.979,0\H,189,1.09297,187,111.338,184,38.9692,0\H,85,2.35205,84,160.564,83,-36.9395,0\C,193,1.09367,85,107.457,84,6.29069,0\H,194,1.09236,193,109.938,85,-89.2365,0\H,194,1.0926,193,108.115,85,35.4441,0\S,194,1.8061,193,116.28,85,145.811,0\O,197,1.49699,194,101.697,193,-173.753,0\C,197,1.80668,194,97.0991,193,78.6407,0\H,199,1.09237,197,105.121,194,-84.549,0\H,199,1.09282,197,111.482,194,43.373,0\H,199,1.09329,197,109.683,194,165.679,0\H,176,2.36954,174,141.096,173,-92.6063,0\C,203,1.09306,176,115.112,174,-158.398,0\H,204,1.09263,203,114.241,176,-179.809,0\H,204,1.09336,203,116.121,176,-50.4147,0\S,204,1.8073,203,104.695,176,68.7924,0\O,207,1.49787,204,100.367,203,-63.6106,0\C,207,1.80716,204,98.6869,203,-173.035,0\H,209,1.09239,207,105.107,204,-72.8605,0\H,209,1.09255,207,102.879,204,177.694,0\H,209,1.09295,207,118.235,204,57.3403,0\H,2,2.4168,1,97.4773,3,156.652,0\C,213,1.09335,2,131.206,1,-22.483,0\H,214,1.09284,213,109.07,2,-52.2704,0\H,214,1.09364,213,108.868,2,72.1518,0\S,214,1.80736,213,101.467,2,-168.731,0\O,217,1.49685,214,109.647,213,-56.9114,0\C,217,1.80728,214,97.6567,213,-160.339,0\H,219,1.09214,217,104.001,214,-69.5276,0\H,219,1.09303,217,113.35,214,178.23,0\H,219,1.09316,217,108.347,214,51.3221,0\H,161,2.4168,159,139.042,157,-35.5287,0\C,223,1.0935,161,157.688,159,-41.8459,0\H,224,1.09268,223,114.753,161,-87.185,0\H,224,1.09309,223,103.97,161,144.81,0\S,224,1.8072,223,107.841,161,30.6685,0\O,227,1.49703,224,97.594,223,-75.6864,0\C,227,1.80695,224,88.8073,223,-175.486,0\H,229,1.09278,227,109.129,224,-65.4659,0\H,229,1.09306,227,111.046,224,49.2154,0\H,229,1.0932,227,114.194,224,166.369,0\H,78,2.41861,77,95.8405,74,-110.908,0\C,233,1.09303,78,167.176,77,-149.285,0\H,234,1.09205,233,111.182,78,-59.285,0\H,234,1.09387,233,119.145,78,174.217,0\S,234,1.80708,233,117.297,78,61.0913,0\O,237,1.49751,234,107.619,233,-167.116,0\C,237,1.80703,234,93.3466,233,-60.101,0\H,239,1.09239,237,109.495,234,-52.6493,0\H,239,1.09318,237,110.306,234,71.6005,0\H,239,1.09325,237,107.659,234,-162.788,0\H,72,2.44561,69,147.774,67,-76.7065,0\C,243,1.09266,72,157.498,69,-80.4186,0\H,244,1.09293,243,107.28,72,-68.3573,0\H,244,1.09308,243,105.675,72,172.452,0\S,244,1.80626,243,113.873,72,40.352,0\O,247,1.49729,244,104.853,243,-17.4088,0\C,247,1.80761,244,93.4028,243,89.3516,0\H,249,1.09281,247,105.625,244,147.419,0\H,249,1.09299,247,105.383,244,37.1438,0\H,249,1.09334,247,108.826,244,-90.649,0\H,178,2.46321,177,143.168,174,-80.0749,0\C,253,1.09291,178,139.852,177,11.5601,0\H,254,1.09245,253,108.452,178,-50.039,0\H,254,1.09269,253,106.69,178,-168.727,0\S,254,1.80732,253,108.552,178,72.216,0\O,257,1.49775,254,105.674,253,80.094,0\C,257,1.80724,254,95.7373,253,-178.235,0\H,259,1.09264,257,109.323,254,-157.343,0\H,259,1.09304,257,103.321,254,72.8743,0\H,259,1.0932,257,102.262,254,-38.7905,0\O,243,2.53005,72,81.6168,69,139.269,0\S,263,1.4976,243,116.765,72,110.043,0\C,264,1.80725,263,103.065,243,-161.581,0\H,265,1.0924,264,102.606,263,-178.957,0\H,265,1.09301,264,110.867,263,64.8599,0\H,265,1.09308,264,107.555,263,-60.3656,0\C,264,1.80755,263,100.108,243,100.154,0\H,269,1.09278,264,110.374,263,-88.6863,0\H,269,1.09278,264,110.259,263,152.782,0\H,269,1.09328,264,112.927,263,28.5199,0\\\@

 Total job time:  38.25s(wall), 131.84s(cpu) 
 Fri Dec  3 13:53:58 2021

        *************************************************************
        *                                                           *
        *  Thank you very much for using Q-Chem.  Have a nice day.  *
        *                                                           *
        *************************************************************


