                  Welcome to Q-Chem
     A Quantum Leap Into The Future Of Chemistry


 Q-Chem 6.0 (devel), Q-Chem, Inc., Pleasanton, CA (2022)

 E. Epifanovsky,  A. T. B. Gilbert,  Xintian Feng,  Joonho Lee,  Yuezhi Mao,  
 N. Mardirossian,  P. Pokhilko,  A. White,  M. Wormit,  M. P. Coons,  
 A. L. Dempwolff,  Zhengting Gan,  D. Hait,  P. R. Horn,  L. D. Jacobson,  
 I. Kaliman,  J. Kussmann,  A. W. Lange,  Ka Un Lao,  D. S. Levine,  Jie Liu,  
 S. C. McKenzie,  A. F. Morrison,  K. Nanda,  F. Plasser,  D. R. Rehn,  
 M. L. Vidal,  Zhi-Qiang You,  Ying Zhu,  B. Alam,  B. Albrecht,  
 A. Aldossary,  E. Alguire,  J. H. Andersen,  V. Athavale,  D. Barton,  
 K. Begam,  A. Behn,  N. Bellonzi,  Y. A. Bernard,  E. J. Berquist,  
 H. Burton,  A. Carreras,  K. Carter-Fenk,  Romit Chakraborty,  
 Chandrima Chakravarty,  Junhan Chen,  A. D. Chien,  K. D. Closser,  
 V. Cofer-Shabica,  L. Cunha,  S. Dasgupta,  Jia Deng,  M. de Wergifosse,  
 M. Diedenhofen,  Hainam Do,  S. Ehlert,  Po-Tung Fang,  S. Fatehi,  
 Qingguo Feng,  T. Friedhoff,  B. Ganoe,  J. Gayvert,  Qinghui Ge,  
 G. Gidofalvi,  M. Goldey,  J. Gomes,  C. Gonzalez-Espinoza,  S. Gulania,  
 A. Gunina,  J. A. Gyamfi,  M. W. D. Hanson-Heine,  P. H. P. Harbach,  
 A. W. Hauser,  M. F. Herbst,  M. Hernandez Vera,  M. Hodecker,  
 Z. C. Holden,  S. Houck,  Xunkun Huang,  Kerwin Hui,  B. C. Huynh,  
 K. Ikeda,  M. Ivanov,  Hyunjun Ji,  Zuxin Jin,  Hanjie Jiang,  B. Kaduk,  
 S. Kaehler,  R. Kang,  K. Khistyaev,  Jaehoon Kim,  Yongbin Kim,  
 P. Klunzinger,  Z. Koczor-Benda,  Joong Hoon Koh,  D. Kosenkov,  
 Saikiran Kotaru,  L. Koulias,  T. Kowalczyk,  C. M. Krauter,  K. Kue,  
 A. Kunitsa,  T. Kus,  A. Landau,  K. V. Lawler,  D. Lefrancois,  S. Lehtola,  
 Rain Li,  Shaozhi Li,  Yi-Pei Li,  Jiashu Liang,  M. Liebenthal,  
 Hung-Hsuan Lin,  You-Sheng Lin,  Fenglai Liu,  Kuan-Yu Liu,  
 M. Loipersberger,  A. Luenser,  C. Malbon,  A. Manjanath,  P. Manohar,  
 E. Mansoor,  S. F. Manzer,  Shan-Ping Mao,  A. V. Marenich,  T. Markovich,  
 S. Mason,  F. Matz,  S. A. Maurer,  P. F. McLaughlin,  M. F. S. J. Menger,  
 J.-M. Mewes,  S. A. Mewes,  P. Morgante,  Mohammad Mostafanejad,  
 J. W. Mullinax,  K. J. Oosterbaan,  G. Paran,  V. Parravicini,  
 Alexander C. Paul,  Suranjan K. Paul,  F. Pavosevic,  Zheng Pei,  S. Prager,  
 E. I. Proynov,  E. Ramos,  B. Rana,  A. E. Rask,  A. Rettig,  R. M. Richard,  
 F. Rob,  E. Rossomme,  T. Scheele,  M. Scheurer,  M. Schneider,  
 P. E. Schneider,  N. Sergueev,  S. M. Sharada,  Hengyuan Shen,  
 W. Skomorowski,  D. W. Small,  C. J. Stein,  Yingli Su,  Yu-Chuan Su,  
 E. J. Sundstrom,  Zhen Tao,  J. Thirman,  Hung-Yi Tsai,  T. Tsuchimochi,  
 N. M. Tubman,  C. Utku,  S. P. Veccham,  O. Vydrov,  J. Wenzel,  
 Jonathan Wong,  J. Witte,  A. Yamada,  Chou-Hsun Yang,  Kun Yao,  
 S. Yeganeh,  S. R. Yost,  A. Zech,  F. Zeller,  Igor Ying Zhang,  
 Xing Zhang,  Yu Zhang,  D. Zuev,  A. Aspuru-Guzik,  A. T. Bell,  
 N. A. Besley,  K. B. Bravaya,  B. R. Brooks,  D. Casanova,  Jeng-Da Chai,  
 Hsing-Ta Chen,  S. Coriani,  C. J. Cramer,  A. E. DePrince, III,  
 R. A. DiStasio Jr.,  A. Dreuw,  B. D. Dunietz,  T. R. Furlani,  
 W. A. Goddard III,  S. Grimme,  S. Hammes-Schiffer,  T. Head-Gordon,  
 W. J. Hehre,  Chao-Ping Hsu,  T.-C. Jagau,  Yousung Jung,  A. Klamt,  
 Jing Kong,  D. S. Lambrecht,  Xiangyuan Li,  WanZhen Liang,  N. J. Mayhall,  
 C. W. McCurdy,  J. B. Neaton,  T. Neudecker,  C. Ochsenfeld,  
 J. A. Parkhill,  R. Peverati,  V. A. Rassolov,  Haisheng Ren,  Yihan Shao,  
 L. V. Slipchenko,  R. P. Steele,  J. E. Subotnik,  A. J. W. Thom,  
 A. Tkatchenko,  D. G. Truhlar,  T. Van Voorhis,  Fan Wang,  
 T. A. Wesolowski,  K. B. Whaley,  H. L. Woodcock III,  P. M. Zimmerman,  
 S. Faraji,  P. M. W. Gill,  M. Head-Gordon,  J. M. Herbert,  A. I. Krylov

 Contributors to earlier versions of Q-Chem not listed above: 
 R. D. Adamson,  B. Austin,  R. Baer,  J. Baker,  G. J. O. Beran,  
 K. Brandhorst,  S. T. Brown,  E. F. C. Byrd,  Arup K. Chakraborty,  
 G. K. L. Chan,  Chun-Min Chang,  Yunqing Chen,  C.-L. Cheng,  
 Siu Hung Chien,  D. M. Chipman,  D. L. Crittenden,  H. Dachsel,  
 R. J. Doerksen,  A. D. Dutoi,  R. G. Edgar,  J. Fosso-Tande,  
 L. Fusti-Molnar,  D. Ghosh,  A. Ghysels,  A. Golubeva-Zadorozhnaya,  
 J. Gonthier,  M. S. Gordon,  S. R. Gwaltney,  G. Hawkins,  J. E. Herr,  
 A. Heyden,  S. Hirata,  E. G. Hohenstein,  G. Kedziora,  F. J. Keil,  
 C. Kelley,  Jihan Kim,  R. A. King,  R. Z. Khaliullin,  P. P. Korambath,  
 W. Kurlancheek,  A. Laurent,  A. M. Lee,  M. S. Lee,  S. V. Levchenko,  
 Ching Yeh Lin,  D. Liotard,  E. Livshits,  R. C. Lochan,  I. Lotan,  
 L. A. Martinez-Martinez,  P. E. Maslen,  N. Nair,  D. P. O'Neill,  
 D. Neuhauser,  E. Neuscamman,  C. M. Oana,  R. Olivares-Amaya,  R. Olson,  
 T. M. Perrine,  B. Peters,  P. A. Pieniazek,  A. Prociuk,  Y. M. Rhee,  
 J. Ritchie,  M. A. Rohrdanz,  E. Rosta,  N. J. Russ,  H. F. Schaefer III,  
 M. W. Schmidt,  N. E. Schultz,  S. Sharma,  N. Shenvi,  C. D. Sherrill,  
 A. C. Simmonett,  A. Sodt,  T. Stein,  D. Stuck,  K. S. Thanthiriwatte,  
 V. Vanovschi,  L. Vogt,  Tao Wang,  A. Warshel,  M. A. Watson,  
 C. F. Williams,  Q. Wu,  X. Xu,  Jun Yang,  W. Zhang,  Yan Zhao

   Please cite Q-Chem as follows:
  "Software for the frontiers of quantum chemistry:
   An overview of developments in the Q-Chem 5 package"
   J. Chem. Phys. 155, 084801 (2021)
   https://doi.org/10.1063/5.0055522 (open access)

 Q-Chem 6.0.0 for Intel X86 EM64T Linux

 Parts of Q-Chem use Armadillo 9.900.5 (Nocturnal Misbehaviour).
 http://arma.sourceforge.net/

 Q-Chem begins on Thu Jul 21 03:14:49 2022  

 Host: nid00535
0

     Scratch files written to /global/cscratch1/sd/ymao90/r7.00_frame_0004_spade_B3LYP_dp20220721031328//
 Processing $rem in /global/homes/y/ymao90/my_qchem/qchem_embedding_5p4/config/preferences:
 Processing $rem in /global/homes/y/ymao90/.qchemrc:
 No nuclear gradient supported for projection-based embedding or EMFT. Set max ideriv = 0.

 Checking the input file for inconsistencies... 	...done.

--------------------------------------------------------------
User input:
--------------------------------------------------------------
$molecule
0 1
--
0 1
C    19.56300   21.62900   27.47100  
C    20.08100   20.75100   28.62200  
C    20.54700   19.35300   28.18600  
C    21.63200   19.57200   27.12000  
C    21.20200   20.46200   25.94200  
C    20.63100   21.82000   26.38100  
H    20.70900   18.68400   29.04000  
H    20.98900   21.28800   28.92400  
H    18.62900   21.17600   27.11500  
H    19.33500   22.65000   27.80000  
H    22.57100   19.94000   27.55300  
H    21.90600   18.54600   26.84500  
H    21.99900   20.63200   25.20700  
H    20.43600   19.99100   25.31300  
H    21.38400   22.47800   26.83100  
H    20.05200   22.31500   25.59200  
H    19.71300   18.83900   27.69200  
N    19.08100   20.61000   29.68000  
H    18.10600   20.49400   29.43200  
C    19.35000   20.79400   31.02000  
H    18.46900   20.77100   31.68600  
O    20.50200   20.93200   31.39200  
--
0 1
C    17.47100   25.37500   22.13300  
H    16.52900   25.87000   22.38300  
H    17.15700   24.41700   21.71000  
H    18.05400   25.26700   23.05200  
S    18.24500   26.44100   20.89600  
C    18.36000   27.81000   22.07000  
H    19.09600   27.75300   22.87500  
H    18.53600   28.64300   21.38500  
H    17.35300   27.89900   22.48600  
O    17.10300   26.89800   20.04200  
C    19.44100   27.24800   31.82000  
H    20.16600   27.23100   31.00200  
H    19.89900   27.16400   32.80900  
H    18.82300   26.34800   31.77100  
S    18.41100   28.71200   31.56700  
C    17.22600   28.32000   32.87400  
H    16.37400   29.00400   32.89600  
H    16.83900   27.31400   32.69100  
H    17.66200   28.41100   33.87200  
O    17.78100   28.44400   30.23700  
C    24.08700   15.51900   29.23700  
H    23.74900   14.66100   29.82300  
H    24.68000   15.33600   28.33700  
H    24.58500   16.25900   29.86800  
S    22.58400   16.34700   28.67100  
C    21.44400   15.84300   29.98000  
H    20.61900   16.55800   29.92200  
H    21.18500   14.80000   29.78000  
H    21.98800   15.92900   30.92300  
O    22.12500   15.56000   27.48300  
C    25.85700   19.40500   26.88200  
H    25.59300   20.36800   27.32600  
H    25.68700   19.37700   25.80200  
H    25.15700   18.69100   27.32100  
S    27.58000   18.97900   27.22300  
C    28.31700   20.28700   26.21800  
H    28.21200   21.16100   26.86600  
H    29.37000   20.01200   26.11100  
H    27.79800   20.26100   25.25700  
O    27.79900   17.79200   26.33800  
C    20.83800   20.92800   36.50300  
H    21.21400   20.47500   37.42400  
H    19.82400   21.32000   36.61100  
H    20.83700   20.14300   35.74300  
S    21.93600   22.26000   35.96800  
C    21.57000   22.08900   34.20700  
H    20.92100   22.95400   34.04500  
H    22.50600   22.23800   33.66200  
H    21.05000   21.15300   33.98500  
O    23.22600   21.55700   36.25500  
C    19.23600   24.79700   35.62000  
H    19.14400   23.81400   36.08900  
H    20.17800   24.87400   35.07100  
H    19.13200   25.52800   36.42600  
S    17.89500   25.02200   34.43000  
C    16.74200   23.97700   35.34700  
H    16.95400   24.13100   36.40800  
H    15.68700   24.16100   35.12900  
H    17.03400   22.96300   35.06000  
O    18.45400   24.02600   33.46100  
C    16.94600   18.30100   33.68900  
H    17.43200   17.42200   34.12000  
H    15.87400   18.40100   33.87400  
H    17.08700   18.26300   32.60500  
S    17.64000   19.76900   34.48300  
C    17.14700   19.16700   36.11400  
H    17.28700   20.03300   36.76600  
H    16.14000   18.75800   36.00000  
H    17.83100   18.39900   36.48400  
O    16.57200   20.80600   34.32500  
C    14.20900   20.56500   31.13600  
H    13.12500   20.43400   31.10100  
H    14.77000   20.01400   31.89600  
H    14.45600   21.61900   31.28100  
S    14.74900   20.14400   29.46400  
C    14.07700   18.46900   29.38000  
H    14.74200   17.89900   28.72500  
H    14.01300   18.01400   30.37200  
H    13.06500   18.46200   28.96800  
O    16.22000   19.91500   29.62100  
C    21.40100   16.82200   23.81500  
H    21.84800   17.02700   22.83900  
H    22.08300   17.26100   24.54700  
H    21.33600   15.74200   23.96900  
S    19.71500   17.46100   23.93000  
C    19.43000   16.89200   25.62200  
H    18.45400   17.18200   26.01800  
H    19.52800   15.80900   25.51300  
H    20.35700   17.10100   26.16200  
O    18.96700   16.50900   23.04900  
C    26.85000   21.32000   29.98200  
H    27.09100   20.28600   29.72300  
H    26.74200   21.95600   29.10000  
H    27.66600   21.71400   30.59400  
S    25.27000   21.62100   30.80600  
C    24.06400   20.79200   29.74600  
H    23.96600   19.77000   30.11900  
H    23.12300   21.34100   29.83800  
H    24.46200   20.95200   28.74000  
O    25.04700   23.07600   30.53800  
C    21.86200   24.33800   31.41100  
H    22.21700   25.36900   31.34400  
H    21.00300   24.26500   32.08400  
H    22.73500   23.73200   31.66900  
S    21.28200   23.90800   29.75400  
C    22.52400   24.92900   28.92900  
H    23.51700   24.48300   29.01700  
H    22.38800   24.91600   27.84500  
H    22.53500   25.94600   29.33100  
O    20.12400   24.79000   29.40500  
C    18.73500   26.61300   27.27500  
H    18.04800   26.80900   26.44800  
H    18.83600   25.52700   27.35200  
H    18.38600   27.00400   28.23400  
S    20.43100   27.18400   27.02300  
C    19.97600   28.90000   27.36200  
H    19.18600   29.18100   26.66000  
H    19.70700   29.18700   28.38200  
H    20.89100   29.44400   27.11500  
O    20.61500   27.12100   25.53900  
C    11.90700   24.55000   29.34400  
H    10.84500   24.80800   29.31000  
H    12.54200   25.28600   29.84400  
H    12.19300   24.43500   28.29500  
S    12.20900   23.01500   30.24700  
C    11.69900   21.90400   28.91600  
H    11.69900   20.88600   29.31300  
H    10.74300   22.17000   28.45700  
H    12.37900   21.90300   28.06100  
O    11.33100   22.88600   31.45300  
C    21.47700   17.78900   33.63900  
H    21.11100   16.76200   33.56500  
H    21.16400   18.24300   34.58300  
H    21.01700   18.36000   32.82700  
S    23.27700   17.73200   33.50000  
C    23.60500   19.50500   33.37700  
H    22.76700   20.00300   32.88200  
H    23.62900   19.82800   34.42100  
H    24.56100   19.59600   32.85600  
O    23.40400   17.20600   32.10500  
C    23.76400   26.87500   22.52600  
H    23.74000   25.84100   22.17500  
H    24.30900   27.54300   21.85400  
H    24.31800   26.87800   23.46900  
S    22.12100   27.53600   22.88600  
C    21.35800   25.89900   22.82500  
H    21.77500   25.23800   22.06100  
H    21.75700   25.54600   23.78000  
H    20.27400   25.94000   22.95500  
O    21.75300   28.42000   21.73600  
C    27.23100   17.31100   23.20700  
H    27.62800   16.40200   23.66700  
H    27.81600   17.49200   22.30200  
H    27.28400   18.07000   23.99200  
S    25.47800   17.13900   22.80500  
C    25.74100   16.79600   21.05000  
H    24.80400   16.66000   20.50500  
H    26.39200   17.57700   20.64800  
H    26.26200   15.84100   20.94300  
O    25.06200   18.57300   22.70000  
C    20.10900   19.01400   20.55100  
H    19.75800   19.14900   19.52400  
H    20.70000   18.09500   20.57800  
H    19.22400   18.87600   21.17600  
S    21.18100   20.41300   20.94900  
C    22.36600   19.43900   21.90500  
H    23.30700   19.99400   21.94400  
H    22.20500   19.29200   22.97600  
H    22.71000   18.54700   21.37400  
O    20.50100   20.94500   22.17200  
C    23.78200   23.82700   25.15000  
H    22.89000   24.44600   25.02600  
H    23.77100   23.35200   26.13500  
H    24.60100   24.54700   25.08200  
S    23.98300   22.73100   23.72800  
C    25.77800   22.67800   23.92700  
H    25.94800   22.68300   25.00700  
H    26.15000   21.71800   23.56200  
H    26.33200   23.46200   23.40500  
O    23.73000   23.76700   22.67700  
C    23.12800   12.86900   24.34800  
H    22.68400   13.75800   24.80400  
H    22.79200   12.84500   23.30800  
H    23.05000   11.89100   24.82900  
S    24.88100   13.30000   24.27700  
C    24.86300   14.86900   25.17200  
H    24.71300   14.61800   26.22500  
H    25.75800   15.40100   24.84000  
H    23.98600   15.42100   24.82300  
O    25.14000   13.78800   22.88500  
C    16.83100   23.94700   26.52900  
H    17.76400   23.99700   25.96200  
H    16.76400   24.55200   27.43600  
H    16.63600   22.88500   26.70000  
S    15.64300   24.67200   25.37700  
C    14.27100   24.60800   26.55200  
H    14.41200   23.73900   27.19900  
H    14.33900   25.45200   27.24300  
H    13.31500   24.42600   26.05500  
O    15.43200   23.57100   24.38500  
C    17.86200   16.72700   29.16500  
H    17.58900   17.77900   29.28100  
H    18.15100   16.30100   30.13000  
H    18.77400   16.69100   28.56500  
S    16.52700   15.79500   28.38000  
C    17.38200   14.24100   28.03100  
H    18.02400   14.36100   27.15500  
H    18.02400   14.02700   28.88900  
H    16.72400   13.38400   27.86800  
O    16.23000   16.38100   27.03500  
C    16.72000   23.47000   30.25900  
H    15.83200   22.86600   30.05100  
H    17.49700   23.44700   29.49100  
H    17.11300   23.11500   31.21500  
S    16.35400   25.20500   30.60400  
C    15.13200   24.93300   31.90700  
H    14.64400   25.82700   32.30300  
H    14.28900   24.33900   31.54500  
H    15.60500   24.36900   32.71500  
O    15.40700   25.59900   29.51300  
C    28.87300   24.28400   28.81800  
H    27.96000   24.10800   29.39200  
H    29.48800   23.38300   28.89300  
H    29.45800   25.14300   29.15700  
S    28.25900   24.49300   27.13100  
C    27.52200   26.11200   27.45100  
H    27.15500   26.59400   26.54100  
H    26.71400   25.95700   28.17100  
H    28.28600   26.67400   27.99400  
O    27.11600   23.53100   27.04300  
C    17.24600   20.75400   23.93000  
H    18.20100   20.93900   24.42800  
H    17.35400   19.87000   23.29700  
H    17.11100   21.59200   23.24100  
S    15.87200   20.64500   25.09900  
C    16.61000   19.16900   25.83600  
H    17.35300   19.37500   26.61100  
H    15.79400   18.65000   26.34700  
H    16.90200   18.43600   25.08000  
O    14.81300   19.99100   24.26800  
$end

$rem
JOBTYPE  SP
METHOD  B3LYP
BASIS  6-31+G(D)
SYMMETRY  FALSE
SYM_IGNORE  TRUE
MEM_TOTAL  12000
MEM_STATIC  4000
BASIS_LIN_DEP_THRESH  6
THRESH  14
SCF_CONVERGENCE  8
FD_MAT_VEC_PROD  FALSE
XC_GRID  000075000302
NL_GRID  1
MAX_SCF_CYCLES  200
ENV_METHOD  B3LYP
GEN_SCFMAN_EMBED  TRUE
SPADE_PARTITION  TRUE
EMBEDDING_EARLY_STOP  TRUE
$end

--------------------------------------------------------------
 ----------------------------------------------------------------
             Standard Nuclear Orientation (Angstroms)
    I     Atom           X                Y                Z
 ----------------------------------------------------------------
    1      C      19.5630000000    21.6290000000    27.4710000000
    2      C      20.0810000000    20.7510000000    28.6220000000
    3      C      20.5470000000    19.3530000000    28.1860000000
    4      C      21.6320000000    19.5720000000    27.1200000000
    5      C      21.2020000000    20.4620000000    25.9420000000
    6      C      20.6310000000    21.8200000000    26.3810000000
    7      H      20.7090000000    18.6840000000    29.0400000000
    8      H      20.9890000000    21.2880000000    28.9240000000
    9      H      18.6290000000    21.1760000000    27.1150000000
   10      H      19.3350000000    22.6500000000    27.8000000000
   11      H      22.5710000000    19.9400000000    27.5530000000
   12      H      21.9060000000    18.5460000000    26.8450000000
   13      H      21.9990000000    20.6320000000    25.2070000000
   14      H      20.4360000000    19.9910000000    25.3130000000
   15      H      21.3840000000    22.4780000000    26.8310000000
   16      H      20.0520000000    22.3150000000    25.5920000000
   17      H      19.7130000000    18.8390000000    27.6920000000
   18      N      19.0810000000    20.6100000000    29.6800000000
   19      H      18.1060000000    20.4940000000    29.4320000000
   20      C      19.3500000000    20.7940000000    31.0200000000
   21      H      18.4690000000    20.7710000000    31.6860000000
   22      O      20.5020000000    20.9320000000    31.3920000000
   23      C      17.4710000000    25.3750000000    22.1330000000
   24      H      16.5290000000    25.8700000000    22.3830000000
   25      H      17.1570000000    24.4170000000    21.7100000000
   26      H      18.0540000000    25.2670000000    23.0520000000
   27      S      18.2450000000    26.4410000000    20.8960000000
   28      C      18.3600000000    27.8100000000    22.0700000000
   29      H      19.0960000000    27.7530000000    22.8750000000
   30      H      18.5360000000    28.6430000000    21.3850000000
   31      H      17.3530000000    27.8990000000    22.4860000000
   32      O      17.1030000000    26.8980000000    20.0420000000
   33      C      19.4410000000    27.2480000000    31.8200000000
   34      H      20.1660000000    27.2310000000    31.0020000000
   35      H      19.8990000000    27.1640000000    32.8090000000
   36      H      18.8230000000    26.3480000000    31.7710000000
   37      S      18.4110000000    28.7120000000    31.5670000000
   38      C      17.2260000000    28.3200000000    32.8740000000
   39      H      16.3740000000    29.0040000000    32.8960000000
   40      H      16.8390000000    27.3140000000    32.6910000000
   41      H      17.6620000000    28.4110000000    33.8720000000
   42      O      17.7810000000    28.4440000000    30.2370000000
   43      C      24.0870000000    15.5190000000    29.2370000000
   44      H      23.7490000000    14.6610000000    29.8230000000
   45      H      24.6800000000    15.3360000000    28.3370000000
   46      H      24.5850000000    16.2590000000    29.8680000000
   47      S      22.5840000000    16.3470000000    28.6710000000
   48      C      21.4440000000    15.8430000000    29.9800000000
   49      H      20.6190000000    16.5580000000    29.9220000000
   50      H      21.1850000000    14.8000000000    29.7800000000
   51      H      21.9880000000    15.9290000000    30.9230000000
   52      O      22.1250000000    15.5600000000    27.4830000000
   53      C      25.8570000000    19.4050000000    26.8820000000
   54      H      25.5930000000    20.3680000000    27.3260000000
   55      H      25.6870000000    19.3770000000    25.8020000000
   56      H      25.1570000000    18.6910000000    27.3210000000
   57      S      27.5800000000    18.9790000000    27.2230000000
   58      C      28.3170000000    20.2870000000    26.2180000000
   59      H      28.2120000000    21.1610000000    26.8660000000
   60      H      29.3700000000    20.0120000000    26.1110000000
   61      H      27.7980000000    20.2610000000    25.2570000000
   62      O      27.7990000000    17.7920000000    26.3380000000
   63      C      20.8380000000    20.9280000000    36.5030000000
   64      H      21.2140000000    20.4750000000    37.4240000000
   65      H      19.8240000000    21.3200000000    36.6110000000
   66      H      20.8370000000    20.1430000000    35.7430000000
   67      S      21.9360000000    22.2600000000    35.9680000000
   68      C      21.5700000000    22.0890000000    34.2070000000
   69      H      20.9210000000    22.9540000000    34.0450000000
   70      H      22.5060000000    22.2380000000    33.6620000000
   71      H      21.0500000000    21.1530000000    33.9850000000
   72      O      23.2260000000    21.5570000000    36.2550000000
   73      C      19.2360000000    24.7970000000    35.6200000000
   74      H      19.1440000000    23.8140000000    36.0890000000
   75      H      20.1780000000    24.8740000000    35.0710000000
   76      H      19.1320000000    25.5280000000    36.4260000000
   77      S      17.8950000000    25.0220000000    34.4300000000
   78      C      16.7420000000    23.9770000000    35.3470000000
   79      H      16.9540000000    24.1310000000    36.4080000000
   80      H      15.6870000000    24.1610000000    35.1290000000
   81      H      17.0340000000    22.9630000000    35.0600000000
   82      O      18.4540000000    24.0260000000    33.4610000000
   83      C      16.9460000000    18.3010000000    33.6890000000
   84      H      17.4320000000    17.4220000000    34.1200000000
   85      H      15.8740000000    18.4010000000    33.8740000000
   86      H      17.0870000000    18.2630000000    32.6050000000
   87      S      17.6400000000    19.7690000000    34.4830000000
   88      C      17.1470000000    19.1670000000    36.1140000000
   89      H      17.2870000000    20.0330000000    36.7660000000
   90      H      16.1400000000    18.7580000000    36.0000000000
   91      H      17.8310000000    18.3990000000    36.4840000000
   92      O      16.5720000000    20.8060000000    34.3250000000
   93      C      14.2090000000    20.5650000000    31.1360000000
   94      H      13.1250000000    20.4340000000    31.1010000000
   95      H      14.7700000000    20.0140000000    31.8960000000
   96      H      14.4560000000    21.6190000000    31.2810000000
   97      S      14.7490000000    20.1440000000    29.4640000000
   98      C      14.0770000000    18.4690000000    29.3800000000
   99      H      14.7420000000    17.8990000000    28.7250000000
  100      H      14.0130000000    18.0140000000    30.3720000000
  101      H      13.0650000000    18.4620000000    28.9680000000
  102      O      16.2200000000    19.9150000000    29.6210000000
  103      C      21.4010000000    16.8220000000    23.8150000000
  104      H      21.8480000000    17.0270000000    22.8390000000
  105      H      22.0830000000    17.2610000000    24.5470000000
  106      H      21.3360000000    15.7420000000    23.9690000000
  107      S      19.7150000000    17.4610000000    23.9300000000
  108      C      19.4300000000    16.8920000000    25.6220000000
  109      H      18.4540000000    17.1820000000    26.0180000000
  110      H      19.5280000000    15.8090000000    25.5130000000
  111      H      20.3570000000    17.1010000000    26.1620000000
  112      O      18.9670000000    16.5090000000    23.0490000000
  113      C      26.8500000000    21.3200000000    29.9820000000
  114      H      27.0910000000    20.2860000000    29.7230000000
  115      H      26.7420000000    21.9560000000    29.1000000000
  116      H      27.6660000000    21.7140000000    30.5940000000
  117      S      25.2700000000    21.6210000000    30.8060000000
  118      C      24.0640000000    20.7920000000    29.7460000000
  119      H      23.9660000000    19.7700000000    30.1190000000
  120      H      23.1230000000    21.3410000000    29.8380000000
  121      H      24.4620000000    20.9520000000    28.7400000000
  122      O      25.0470000000    23.0760000000    30.5380000000
  123      C      21.8620000000    24.3380000000    31.4110000000
  124      H      22.2170000000    25.3690000000    31.3440000000
  125      H      21.0030000000    24.2650000000    32.0840000000
  126      H      22.7350000000    23.7320000000    31.6690000000
  127      S      21.2820000000    23.9080000000    29.7540000000
  128      C      22.5240000000    24.9290000000    28.9290000000
  129      H      23.5170000000    24.4830000000    29.0170000000
  130      H      22.3880000000    24.9160000000    27.8450000000
  131      H      22.5350000000    25.9460000000    29.3310000000
  132      O      20.1240000000    24.7900000000    29.4050000000
  133      C      18.7350000000    26.6130000000    27.2750000000
  134      H      18.0480000000    26.8090000000    26.4480000000
  135      H      18.8360000000    25.5270000000    27.3520000000
  136      H      18.3860000000    27.0040000000    28.2340000000
  137      S      20.4310000000    27.1840000000    27.0230000000
  138      C      19.9760000000    28.9000000000    27.3620000000
  139      H      19.1860000000    29.1810000000    26.6600000000
  140      H      19.7070000000    29.1870000000    28.3820000000
  141      H      20.8910000000    29.4440000000    27.1150000000
  142      O      20.6150000000    27.1210000000    25.5390000000
  143      C      11.9070000000    24.5500000000    29.3440000000
  144      H      10.8450000000    24.8080000000    29.3100000000
  145      H      12.5420000000    25.2860000000    29.8440000000
  146      H      12.1930000000    24.4350000000    28.2950000000
  147      S      12.2090000000    23.0150000000    30.2470000000
  148      C      11.6990000000    21.9040000000    28.9160000000
  149      H      11.6990000000    20.8860000000    29.3130000000
  150      H      10.7430000000    22.1700000000    28.4570000000
  151      H      12.3790000000    21.9030000000    28.0610000000
  152      O      11.3310000000    22.8860000000    31.4530000000
  153      C      21.4770000000    17.7890000000    33.6390000000
  154      H      21.1110000000    16.7620000000    33.5650000000
  155      H      21.1640000000    18.2430000000    34.5830000000
  156      H      21.0170000000    18.3600000000    32.8270000000
  157      S      23.2770000000    17.7320000000    33.5000000000
  158      C      23.6050000000    19.5050000000    33.3770000000
  159      H      22.7670000000    20.0030000000    32.8820000000
  160      H      23.6290000000    19.8280000000    34.4210000000
  161      H      24.5610000000    19.5960000000    32.8560000000
  162      O      23.4040000000    17.2060000000    32.1050000000
  163      C      23.7640000000    26.8750000000    22.5260000000
  164      H      23.7400000000    25.8410000000    22.1750000000
  165      H      24.3090000000    27.5430000000    21.8540000000
  166      H      24.3180000000    26.8780000000    23.4690000000
  167      S      22.1210000000    27.5360000000    22.8860000000
  168      C      21.3580000000    25.8990000000    22.8250000000
  169      H      21.7750000000    25.2380000000    22.0610000000
  170      H      21.7570000000    25.5460000000    23.7800000000
  171      H      20.2740000000    25.9400000000    22.9550000000
  172      O      21.7530000000    28.4200000000    21.7360000000
  173      C      27.2310000000    17.3110000000    23.2070000000
  174      H      27.6280000000    16.4020000000    23.6670000000
  175      H      27.8160000000    17.4920000000    22.3020000000
  176      H      27.2840000000    18.0700000000    23.9920000000
  177      S      25.4780000000    17.1390000000    22.8050000000
  178      C      25.7410000000    16.7960000000    21.0500000000
  179      H      24.8040000000    16.6600000000    20.5050000000
  180      H      26.3920000000    17.5770000000    20.6480000000
  181      H      26.2620000000    15.8410000000    20.9430000000
  182      O      25.0620000000    18.5730000000    22.7000000000
  183      C      20.1090000000    19.0140000000    20.5510000000
  184      H      19.7580000000    19.1490000000    19.5240000000
  185      H      20.7000000000    18.0950000000    20.5780000000
  186      H      19.2240000000    18.8760000000    21.1760000000
  187      S      21.1810000000    20.4130000000    20.9490000000
  188      C      22.3660000000    19.4390000000    21.9050000000
  189      H      23.3070000000    19.9940000000    21.9440000000
  190      H      22.2050000000    19.2920000000    22.9760000000
  191      H      22.7100000000    18.5470000000    21.3740000000
  192      O      20.5010000000    20.9450000000    22.1720000000
  193      C      23.7820000000    23.8270000000    25.1500000000
  194      H      22.8900000000    24.4460000000    25.0260000000
  195      H      23.7710000000    23.3520000000    26.1350000000
  196      H      24.6010000000    24.5470000000    25.0820000000
  197      S      23.9830000000    22.7310000000    23.7280000000
  198      C      25.7780000000    22.6780000000    23.9270000000
  199      H      25.9480000000    22.6830000000    25.0070000000
  200      H      26.1500000000    21.7180000000    23.5620000000
  201      H      26.3320000000    23.4620000000    23.4050000000
  202      O      23.7300000000    23.7670000000    22.6770000000
  203      C      23.1280000000    12.8690000000    24.3480000000
  204      H      22.6840000000    13.7580000000    24.8040000000
  205      H      22.7920000000    12.8450000000    23.3080000000
  206      H      23.0500000000    11.8910000000    24.8290000000
  207      S      24.8810000000    13.3000000000    24.2770000000
  208      C      24.8630000000    14.8690000000    25.1720000000
  209      H      24.7130000000    14.6180000000    26.2250000000
  210      H      25.7580000000    15.4010000000    24.8400000000
  211      H      23.9860000000    15.4210000000    24.8230000000
  212      O      25.1400000000    13.7880000000    22.8850000000
  213      C      16.8310000000    23.9470000000    26.5290000000
  214      H      17.7640000000    23.9970000000    25.9620000000
  215      H      16.7640000000    24.5520000000    27.4360000000
  216      H      16.6360000000    22.8850000000    26.7000000000
  217      S      15.6430000000    24.6720000000    25.3770000000
  218      C      14.2710000000    24.6080000000    26.5520000000
  219      H      14.4120000000    23.7390000000    27.1990000000
  220      H      14.3390000000    25.4520000000    27.2430000000
  221      H      13.3150000000    24.4260000000    26.0550000000
  222      O      15.4320000000    23.5710000000    24.3850000000
  223      C      17.8620000000    16.7270000000    29.1650000000
  224      H      17.5890000000    17.7790000000    29.2810000000
  225      H      18.1510000000    16.3010000000    30.1300000000
  226      H      18.7740000000    16.6910000000    28.5650000000
  227      S      16.5270000000    15.7950000000    28.3800000000
  228      C      17.3820000000    14.2410000000    28.0310000000
  229      H      18.0240000000    14.3610000000    27.1550000000
  230      H      18.0240000000    14.0270000000    28.8890000000
  231      H      16.7240000000    13.3840000000    27.8680000000
  232      O      16.2300000000    16.3810000000    27.0350000000
  233      C      16.7200000000    23.4700000000    30.2590000000
  234      H      15.8320000000    22.8660000000    30.0510000000
  235      H      17.4970000000    23.4470000000    29.4910000000
  236      H      17.1130000000    23.1150000000    31.2150000000
  237      S      16.3540000000    25.2050000000    30.6040000000
  238      C      15.1320000000    24.9330000000    31.9070000000
  239      H      14.6440000000    25.8270000000    32.3030000000
  240      H      14.2890000000    24.3390000000    31.5450000000
  241      H      15.6050000000    24.3690000000    32.7150000000
  242      O      15.4070000000    25.5990000000    29.5130000000
  243      C      28.8730000000    24.2840000000    28.8180000000
  244      H      27.9600000000    24.1080000000    29.3920000000
  245      H      29.4880000000    23.3830000000    28.8930000000
  246      H      29.4580000000    25.1430000000    29.1570000000
  247      S      28.2590000000    24.4930000000    27.1310000000
  248      C      27.5220000000    26.1120000000    27.4510000000
  249      H      27.1550000000    26.5940000000    26.5410000000
  250      H      26.7140000000    25.9570000000    28.1710000000
  251      H      28.2860000000    26.6740000000    27.9940000000
  252      O      27.1160000000    23.5310000000    27.0430000000
  253      C      17.2460000000    20.7540000000    23.9300000000
  254      H      18.2010000000    20.9390000000    24.4280000000
  255      H      17.3540000000    19.8700000000    23.2970000000
  256      H      17.1110000000    21.5920000000    23.2410000000
  257      S      15.8720000000    20.6450000000    25.0990000000
  258      C      16.6100000000    19.1690000000    25.8360000000
  259      H      17.3530000000    19.3750000000    26.6110000000
  260      H      15.7940000000    18.6500000000    26.3470000000
  261      H      16.9020000000    18.4360000000    25.0800000000
  262      O      14.8130000000    19.9910000000    24.2680000000
 ----------------------------------------------------------------
 Nuclear Repulsion Energy =       40026.53579855 hartrees
 There are      539 alpha and      539 beta electrons
 Requested basis set is 6-31+G(d)
 There are 863 shells and 2405 basis functions

 Total QAlloc Memory Limit  12000 MB
 Mega-Array Size      3911 MB
 MEM_STATIC part      4000 MB

 A cutoff of  1.0D-14 yielded 151793 shell pairs
 There are   1305617 function pairs
 Smallest overlap matrix eigenvalue = 4.00E-07
 Linear dependence detected in AO basis
 Tighter screening thresholds may be required for diffuse basis sets
 Use S2THRESH > 14 and THRESH = 14 in case of SCF convergence issues
 Number of orthogonalized atomic orbitals = 2403
 Maximum deviation from orthogonality = 1.719E-10

 Scale SEOQF with 1.000000e-03/1.000000e-03/1.000000e-03

 Standard Electronic Orientation quadrupole field applied
 Nucleus-field energy     =    -0.0000003850 hartrees
 Guess from superposition of atomic densities
 Warning:  Energy on first SCF cycle will be non-variational
 SAD guess density has 1078.000002 electrons

 -----------------------------------------------------------------------
  General SCF calculation program by
  Eric Jon Sundstrom, Paul Horn, Yuezhi Mao, Dmitri Zuev, Alec White,
  David Stuck, Shaama M.S., Shane Yost, Joonho Lee, David Small,
  Daniel Levine, Susi Lehtola, Hugh Burton, Evgeny Epifanovsky,
  Bang C. Huynh
 -----------------------------------------------------------------------
=================================================
        Doing projection-based embedding         
      F. Manby et al. JCTC, 8, 2564 (2012)       
=================================================

****************************************************
   Low-level SCF calculation for the whole system   
****************************************************
----------------------------------------------
 Summary of the low-level theory: 
 Exchange:     0.2000 Hartree-Fock + 0.0800 Slater + 0.7200 B88
 Correlation:  0.1900 VWN1RPA + 0.8100 LYP
 Using Euler-Maclaurin-Lebedev (75,302) quadrature formula
----------------------------------------------
 using 16 threads for integral computing
 -------------------------------------------------------
 OpenMP Integral computing Module                
 Release: version 1.0, May 2013, Q-Chem Inc. Pittsburgh 
 -------------------------------------------------------
 A restricted SCF calculation will be
 performed using DIIS
 SCF converges when DIIS error is below 1.0e-08
 ---------------------------------------
  Cycle       Energy         DIIS error
 ---------------------------------------
    1  -13698.4774229986      1.43e-02  
    2  -13676.7313914736      2.65e-03  
    3  -13655.1234349696      5.59e-03  
    4  -13653.5834517596      3.54e-03  
    5  -13680.1513777221      1.19e-03  
    6  -13681.0654022574      2.45e-04  
    7  -13681.0768826789      2.09e-04  
    8  -13681.1028404508      5.50e-05  
    9  -13681.1044372004      2.85e-05  
   10  -13681.1048596694      1.16e-05  
   11  -13681.1049556122      5.97e-06  
   12  -13681.1049774181      2.56e-06  
   13  -13681.1049814553      9.74e-07  
   14  -13681.1049820393      3.16e-07  
   15  -13681.1049821004      1.15e-07  
   16  -13681.1049821085      4.24e-08  
   17  -13681.1049821094      1.62e-08  
   18  -13681.1049821096      4.04e-09  Convergence criterion met
 ---------------------------------------
 SCF time:   CPU 252684.85s  wall 17952.00s 
 SCF   energy in the final basis set =   -13681.1049821096
 Total energy in the final basis set =   -13681.1049821096

****************************************************
             Start embedding calculation            
****************************************************
----------------------------------------------
 Summary of the high-level theory: 
 Exchange:     0.2000 Hartree-Fock + 0.0800 Slater + 0.7200 B88
 Correlation:  0.1900 VWN1RPA + 0.8100 LYP
 Using Euler-Maclaurin-Lebedev (75,302) quadrature formula
----------------------------------------------
Doing R-in-R Embedding Calculation
Number of fragments: 2
Embedded fragment(s): 1 
NOcc for each fragment
           35
          504
NBasis for each fragment
          197
         2208
Variational space of the embedded problem: 
NOcc (active)  = 35
NOcc (fixed)   = 504
NVir (total)   = 1864
Read converged orbitals from disk
=========================================================
       Doing SPADE partition for the orbital space       
     D. Claudino and N. Mayhall JCTC 15, 1053 (2019)     
=========================================================
SPADE singular values:
 1.0000 1.0000 1.0000 1.0000 1.0000 1.0000 1.0000 1.0000 1.0000 0.9999
 0.9998 0.9997 0.9997 0.9996 0.9995 0.9992 0.9991 0.9990 0.9984 0.9980
 0.9974 0.9970 0.9955 0.9952 0.9948 0.9944 0.9933 0.9931 0.9928 0.9922
 0.9908 0.9901 0.9887 0.9864 0.9775 0.2398 0.1925 0.1771 0.1755 0.1468
 0.1398 0.1318 0.1266 0.1169 0.1045 0.1010 0.0899 0.0857 0.0760 0.0693
 0.0649 0.0564 0.0541 0.0507 0.0471 0.0418 0.0407 0.0383 0.0380 0.0334
 0.0309 0.0281 0.0273 0.0259 0.0242 0.0227 0.0225 0.0210 0.0208 0.0193
 0.0181 0.0172 0.0165 0.0159 0.0148 0.0142 0.0126 0.0121 0.0117 0.0111
 0.0109 0.0100 0.0096 0.0086 0.0085 0.0077 0.0075 0.0073 0.0068 0.0064
 0.0063 0.0059 0.0057 0.0055 0.0054 0.0053 0.0051 0.0050 0.0046 0.0042
 0.0039 0.0036 0.0035 0.0034 0.0032 0.0031 0.0029 0.0027 0.0026 0.0024
 0.0023 0.0023 0.0021 0.0020 0.0020 0.0019 0.0018 0.0017 0.0017 0.0017
 0.0015 0.0014 0.0014 0.0014 0.0013 0.0012 0.0012 0.0011 0.0011 0.0011
 0.0010 0.0010 0.0010 0.0009 0.0008 0.0008 0.0008 0.0008 0.0008 0.0007
 0.0007 0.0006 0.0006 0.0006 0.0006 0.0005 0.0005 0.0005 0.0005 0.0004
 0.0004 0.0004 0.0004 0.0004 0.0004 0.0003 0.0003 0.0003 0.0003 0.0003
 0.0003 0.0003 0.0003 0.0002 0.0002 0.0002 0.0002 0.0002 0.0002 0.0002
 0.0002 0.0002 0.0002 0.0002 0.0002 0.0002 0.0002 0.0001 0.0001 0.0001
 0.0001 0.0001 0.0001 0.0001 0.0001 0.0001 0.0001 0.0001 0.0001 0.0001
 0.0001 0.0001 0.0001 0.0001 0.0001 0.0001 0.0001
Early stop requested; no embedded SCF will be performed

 504 environment occs will be part of frozen-core in future post-HF calculations

 --------------------------------------------------------------

                    Orbital Energies (a.u.)
 --------------------------------------------------------------

 Alpha MOs
 -- Occupied --
-89.0449 -89.0357 -89.0291 -89.0289 -89.0275 -89.0250 -89.0225 -89.0188
-89.0157 -89.0107 -89.0093 -89.0075 -89.0071 -89.0051 -88.9937 -88.9913
-88.9912 -88.9811 -88.9809 -88.9781 -88.9759 -88.9634 -88.9481 -88.9423
-19.1554 -19.1478 -19.1460 -19.1436 -19.1400 -19.1396 -19.1352 -19.1339
-19.1312 -19.1288 -19.1270 -19.1253 -19.1196 -19.1094 -19.1065 -19.1020
-19.0993 -19.0973 -19.0942 -19.0935 -19.0723 -19.0708 -19.0653 -19.0647
-10.2607 -10.2596 -10.2544 -10.2513 -10.2494 -10.2478 -10.2445 -10.2437
-10.2430 -10.2417 -10.2393 -10.2382 -10.2374 -10.2361 -10.2351 -10.2351
-10.2337 -10.2330 -10.2315 -10.2313 -10.2311 -10.2302 -10.2227 -10.2222
-10.2218 -10.2207 -10.2172 -10.2150 -10.2141 -10.2120 -10.2057 -10.2048
-10.2043 -10.2032 -10.2009 -10.1976 -10.1968 -10.1966 -10.1907 -10.1822
-10.1813 -10.1774 -10.1741 -10.1670 -10.1652 -10.1634 -10.1632 -10.1606
 -8.0907  -8.0823  -8.0754  -8.0751  -8.0731  -8.0714  -8.0688  -8.0649
 -8.0614  -8.0567  -8.0550  -8.0532  -8.0524  -8.0497  -8.0387  -8.0387
 -8.0376  -8.0265  -8.0261  -8.0236  -8.0217  -8.0081  -7.9942  -7.9882
 -6.0549  -6.0537  -6.0485  -6.0464  -6.0452  -6.0400  -6.0398  -6.0395
 -6.0385  -6.0382  -6.0377  -6.0361  -6.0357  -6.0345  -6.0332  -6.0327
 -6.0324  -6.0320  -6.0304  -6.0292  -6.0289  -6.0280  -6.0259  -6.0258
 -6.0248  -6.0226  -6.0212  -6.0199  -6.0192  -6.0185  -6.0182  -6.0176
 -6.0168  -6.0165  -6.0155  -6.0142  -6.0140  -6.0130  -6.0123  -6.0103
 -6.0101  -6.0072  -6.0030  -6.0030  -6.0019  -6.0018  -6.0018  -6.0005
 -5.9964  -5.9959  -5.9951  -5.9908  -5.9904  -5.9897  -5.9893  -5.9879
 -5.9866  -5.9858  -5.9848  -5.9839  -5.9835  -5.9812  -5.9794  -5.9723
 -5.9712  -5.9661  -5.9583  -5.9572  -5.9528  -5.9518  -5.9513  -5.9452
 -1.0684  -1.0595  -1.0561  -1.0559  -1.0553  -1.0501  -1.0468  -1.0403
 -1.0382  -1.0375  -1.0343  -1.0319  -1.0317  -1.0232  -1.0180  -1.0169
 -1.0133  -1.0049  -1.0027  -1.0026  -0.9916  -0.9816  -0.9734  -0.9683
 -0.8462  -0.8338  -0.8313  -0.8293  -0.8270  -0.8267  -0.8249  -0.8177
 -0.8173  -0.8160  -0.8152  -0.8111  -0.8047  -0.8005  -0.7997  -0.7906
 -0.7882  -0.7856  -0.7855  -0.7764  -0.7677  -0.7619  -0.7617  -0.7602
 -0.7588  -0.7572  -0.7562  -0.7550  -0.7547  -0.7529  -0.7497  -0.7483
 -0.7477  -0.7454  -0.7377  -0.7374  -0.7325  -0.7302  -0.7267  -0.7161
 -0.7147  -0.7119  -0.7104  -0.6976  -0.6949  -0.6810  -0.6750  -0.6713
 -0.6571  -0.6503  -0.6441  -0.6418  -0.6372  -0.6356  -0.6343  -0.6316
 -0.6298  -0.6259  -0.6223  -0.6196  -0.6193  -0.6180  -0.6088  -0.6085
 -0.6021  -0.5958  -0.5958  -0.5898  -0.5885  -0.5774  -0.5627  -0.5576
 -0.5343  -0.5165  -0.5163  -0.5124  -0.5107  -0.5090  -0.5062  -0.5058
 -0.5048  -0.5036  -0.5035  -0.5032  -0.5024  -0.4995  -0.4986  -0.4976
 -0.4956  -0.4955  -0.4942  -0.4921  -0.4906  -0.4902  -0.4887  -0.4881
 -0.4875  -0.4868  -0.4856  -0.4854  -0.4848  -0.4827  -0.4825  -0.4805
 -0.4796  -0.4790  -0.4779  -0.4770  -0.4764  -0.4759  -0.4752  -0.4709
 -0.4694  -0.4685  -0.4681  -0.4680  -0.4676  -0.4675  -0.4667  -0.4640
 -0.4629  -0.4607  -0.4596  -0.4592  -0.4592  -0.4589  -0.4572  -0.4556
 -0.4555  -0.4548  -0.4544  -0.4522  -0.4521  -0.4519  -0.4511  -0.4508
 -0.4492  -0.4489  -0.4469  -0.4444  -0.4439  -0.4431  -0.4422  -0.4413
 -0.4411  -0.4406  -0.4400  -0.4397  -0.4376  -0.4372  -0.4366  -0.4359
 -0.4356  -0.4350  -0.4335  -0.4331  -0.4321  -0.4319  -0.4315  -0.4294
 -0.4292  -0.4283  -0.4280  -0.4269  -0.4266  -0.4258  -0.4254  -0.4248
 -0.4242  -0.4236  -0.4235  -0.4228  -0.4217  -0.4202  -0.4200  -0.4199
 -0.4176  -0.4168  -0.4166  -0.4152  -0.4151  -0.4136  -0.4126  -0.4114
 -0.4113  -0.4099  -0.4074  -0.4072  -0.4055  -0.4043  -0.4031  -0.4026
 -0.4022  -0.4002  -0.3994  -0.3986  -0.3973  -0.3964  -0.3958  -0.3939
 -0.3938  -0.3924  -0.3917  -0.3905  -0.3894  -0.3888  -0.3885  -0.3879
 -0.3858  -0.3850  -0.3815  -0.3807  -0.3767  -0.3753  -0.3751  -0.3744
 -0.3728  -0.3726  -0.3719  -0.3696  -0.3673  -0.3662  -0.3637  -0.3618
 -0.3614  -0.3594  -0.3569  -0.3554  -0.3518  -0.3487  -0.3469  -0.3443
 -0.3403  -0.3394  -0.3361  -0.3348  -0.3292  -0.3266  -0.3149  -0.3116
 -0.3100  -0.3083  -0.3078  -0.3063  -0.3034  -0.3000  -0.2958  -0.2931
 -0.2927  -0.2895  -0.2878  -0.2873  -0.2872  -0.2793  -0.2762  -0.2720
 -0.2719  -0.2711  -0.2706  -0.2688  -0.2653  -0.2634  -0.2606  -0.2595
 -0.2563  -0.2561  -0.2550  -0.2534  -0.2516  -0.2503  -0.2492  -0.2486
 -0.2462  -0.2378  -0.2374  -0.2326  -0.2297  -0.2273  -0.2262  -0.2258
 -0.2249  -0.2234  -0.2216  -0.2196  -0.2078  -0.2016  -0.1929  -0.1812
-12.0808 -12.8624 -15.7420 -11.4912 -10.7223 -10.8097 -10.3823 -10.0768
-10.0519  -0.7739  -0.7518  -0.8549  -0.6220  -0.7865  -0.5820  -0.6018
 -0.7006  -0.6111  -0.4970  -0.4464  -0.4578  -0.4183  -0.4486  -0.4924
 -0.4617  -0.4281  -0.4400  -0.4152  -0.4510  -0.4904  -0.5032  -0.4313
 -0.5124  -0.5962  -0.5350
 -- Virtual --
 -0.0545  -0.0491  -0.0460  -0.0376  -0.0336  -0.0323  -0.0310  -0.0287
 -0.0280  -0.0254  -0.0237  -0.0232  -0.0224  -0.0192  -0.0188  -0.0156
 -0.0151  -0.0144  -0.0139  -0.0124  -0.0116  -0.0104  -0.0092  -0.0088
 -0.0070  -0.0065  -0.0060  -0.0048  -0.0036  -0.0019  -0.0007  -0.0006
  0.0002   0.0008   0.0018   0.0029   0.0038   0.0044   0.0051   0.0064
  0.0070   0.0082   0.0092   0.0094   0.0102   0.0116   0.0119   0.0129
  0.0139   0.0154   0.0156   0.0159   0.0165   0.0174   0.0179   0.0199
  0.0205   0.0210   0.0219   0.0230   0.0232   0.0243   0.0247   0.0258
  0.0269   0.0276   0.0288   0.0291   0.0304   0.0309   0.0321   0.0323
  0.0330   0.0335   0.0344   0.0352   0.0356   0.0359   0.0370   0.0379
  0.0385   0.0387   0.0398   0.0409   0.0417   0.0419   0.0430   0.0440
  0.0447   0.0452   0.0463   0.0467   0.0470   0.0481   0.0500   0.0504
  0.0508   0.0518   0.0525   0.0533   0.0538   0.0551   0.0555   0.0561
  0.0566   0.0576   0.0580   0.0583   0.0597   0.0602   0.0606   0.0614
  0.0622   0.0624   0.0634   0.0642   0.0647   0.0650   0.0658   0.0671
  0.0674   0.0686   0.0693   0.0696   0.0709   0.0712   0.0717   0.0722
  0.0728   0.0735   0.0743   0.0760   0.0761   0.0770   0.0771   0.0773
  0.0786   0.0796   0.0803   0.0808   0.0812   0.0817   0.0820   0.0829
  0.0834   0.0847   0.0854   0.0856   0.0870   0.0879   0.0882   0.0891
  0.0893   0.0899   0.0909   0.0921   0.0926   0.0935   0.0938   0.0952
  0.0953   0.0973   0.0975   0.0981   0.0986   0.0991   0.1011   0.1013
  0.1014   0.1026   0.1028   0.1039   0.1041   0.1048   0.1050   0.1060
  0.1069   0.1071   0.1074   0.1079   0.1094   0.1097   0.1101   0.1114
  0.1122   0.1127   0.1131   0.1135   0.1148   0.1151   0.1159   0.1164
  0.1173   0.1177   0.1182   0.1196   0.1207   0.1211   0.1214   0.1222
  0.1231   0.1239   0.1243   0.1248   0.1256   0.1263   0.1268   0.1271
  0.1289   0.1290   0.1301   0.1306   0.1317   0.1320   0.1328   0.1332
  0.1344   0.1345   0.1348   0.1351   0.1359   0.1367   0.1372   0.1378
  0.1388   0.1393   0.1396   0.1411   0.1418   0.1426   0.1431   0.1436
  0.1455   0.1458   0.1463   0.1471   0.1474   0.1479   0.1488   0.1497
  0.1508   0.1511   0.1517   0.1519   0.1522   0.1534   0.1535   0.1544
  0.1549   0.1553   0.1563   0.1570   0.1578   0.1579   0.1588   0.1595
  0.1603   0.1609   0.1616   0.1620   0.1625   0.1637   0.1642   0.1654
  0.1660   0.1663   0.1666   0.1675   0.1676   0.1690   0.1696   0.1704
  0.1711   0.1716   0.1723   0.1734   0.1739   0.1746   0.1748   0.1753
  0.1760   0.1770   0.1775   0.1780   0.1785   0.1800   0.1805   0.1806
  0.1814   0.1818   0.1828   0.1833   0.1834   0.1850   0.1853   0.1860
  0.1866   0.1869   0.1873   0.1884   0.1895   0.1902   0.1908   0.1917
  0.1918   0.1931   0.1935   0.1945   0.1947   0.1960   0.1963   0.1971
  0.1980   0.1988   0.1994   0.2003   0.2011   0.2016   0.2021   0.2023
  0.2037   0.2042   0.2052   0.2052   0.2064   0.2069   0.2076   0.2082
  0.2092   0.2104   0.2114   0.2116   0.2119   0.2128   0.2138   0.2141
  0.2145   0.2154   0.2159   0.2171   0.2172   0.2179   0.2189   0.2198
  0.2206   0.2214   0.2222   0.2227   0.2239   0.2245   0.2253   0.2255
  0.2262   0.2272   0.2279   0.2284   0.2290   0.2299   0.2301   0.2308
  0.2314   0.2320   0.2328   0.2335   0.2339   0.2348   0.2351   0.2355
  0.2366   0.2370   0.2376   0.2389   0.2399   0.2405   0.2414   0.2418
  0.2426   0.2430   0.2437   0.2442   0.2450   0.2451   0.2460   0.2470
  0.2483   0.2487   0.2503   0.2512   0.2516   0.2520   0.2528   0.2541
  0.2555   0.2559   0.2568   0.2569   0.2578   0.2587   0.2590   0.2601
  0.2611   0.2617   0.2622   0.2632   0.2642   0.2648   0.2662   0.2673
  0.2680   0.2683   0.2690   0.2704   0.2711   0.2720   0.2730   0.2734
  0.2745   0.2751   0.2762   0.2767   0.2768   0.2775   0.2786   0.2796
  0.2810   0.2816   0.2818   0.2827   0.2847   0.2860   0.2867   0.2873
  0.2878   0.2886   0.2888   0.2901   0.2911   0.2925   0.2931   0.2935
  0.2947   0.2958   0.2966   0.2975   0.2985   0.3004   0.3007   0.3018
  0.3021   0.3025   0.3036   0.3042   0.3047   0.3059   0.3065   0.3076
  0.3088   0.3092   0.3097   0.3108   0.3118   0.3124   0.3138   0.3141
  0.3160   0.3166   0.3183   0.3189   0.3204   0.3212   0.3218   0.3226
  0.3235   0.3250   0.3256   0.3269   0.3282   0.3288   0.3298   0.3301
  0.3308   0.3325   0.3328   0.3340   0.3350   0.3356   0.3365   0.3378
  0.3379   0.3384   0.3396   0.3406   0.3432   0.3438   0.3454   0.3467
  0.3477   0.3480   0.3493   0.3503   0.3509   0.3523   0.3537   0.3539
  0.3549   0.3555   0.3567   0.3576   0.3578   0.3593   0.3601   0.3620
  0.3629   0.3639   0.3654   0.3663   0.3667   0.3677   0.3695   0.3698
  0.3710   0.3712   0.3727   0.3738   0.3747   0.3761   0.3766   0.3768
  0.3781   0.3787   0.3795   0.3812   0.3822   0.3827   0.3839   0.3844
  0.3857   0.3858   0.3868   0.3883   0.3892   0.3901   0.3908   0.3922
  0.3933   0.3939   0.3941   0.3953   0.3967   0.3976   0.3987   0.3990
  0.4002   0.4019   0.4023   0.4033   0.4047   0.4063   0.4070   0.4077
  0.4085   0.4097   0.4105   0.4118   0.4125   0.4130   0.4143   0.4146
  0.4157   0.4177   0.4186   0.4199   0.4206   0.4219   0.4228   0.4230
  0.4241   0.4247   0.4251   0.4274   0.4283   0.4296   0.4310   0.4314
  0.4328   0.4340   0.4349   0.4357   0.4365   0.4392   0.4406   0.4413
  0.4421   0.4438   0.4440   0.4448   0.4472   0.4489   0.4491   0.4527
  0.4535   0.4542   0.4549   0.4558   0.4565   0.4580   0.4603   0.4608
  0.4619   0.4629   0.4636   0.4661   0.4670   0.4684   0.4705   0.4712
  0.4726   0.4743   0.4763   0.4775   0.4789   0.4806   0.4812   0.4823
  0.4852   0.4863   0.4873   0.4889   0.4898   0.4915   0.4935   0.4948
  0.4975   0.4983   0.5005   0.5012   0.5023   0.5024   0.5041   0.5053
  0.5071   0.5091   0.5109   0.5116   0.5130   0.5147   0.5152   0.5179
  0.5207   0.5234   0.5246   0.5252   0.5277   0.5287   0.5334   0.5346
  0.5358   0.5372   0.5389   0.5399   0.5429   0.5460   0.5491   0.5500
  0.5521   0.5537   0.5549   0.5582   0.5587   0.5620   0.5625   0.5635
  0.5638   0.5652   0.5672   0.5685   0.5693   0.5726   0.5732   0.5755
  0.5765   0.5785   0.5797   0.5808   0.5826   0.5835   0.5851   0.5883
  0.5884   0.5915   0.5926   0.5937   0.5953   0.5961   0.5978   0.5995
  0.6001   0.6022   0.6038   0.6042   0.6058   0.6070   0.6079   0.6110
  0.6129   0.6146   0.6157   0.6161   0.6182   0.6196   0.6212   0.6226
  0.6241   0.6243   0.6257   0.6265   0.6290   0.6313   0.6316   0.6326
  0.6337   0.6355   0.6371   0.6378   0.6397   0.6414   0.6436   0.6442
  0.6449   0.6455   0.6466   0.6486   0.6490   0.6505   0.6516   0.6532
  0.6551   0.6560   0.6573   0.6600   0.6606   0.6616   0.6631   0.6643
  0.6657   0.6664   0.6669   0.6685   0.6698   0.6713   0.6724   0.6739
  0.6754   0.6771   0.6782   0.6791   0.6822   0.6832   0.6841   0.6846
  0.6858   0.6863   0.6881   0.6894   0.6901   0.6924   0.6934   0.6945
  0.6978   0.6982   0.6992   0.7006   0.7015   0.7025   0.7047   0.7077
  0.7088   0.7090   0.7099   0.7112   0.7139   0.7156   0.7173   0.7178
  0.7189   0.7191   0.7207   0.7234   0.7251   0.7261   0.7275   0.7299
  0.7308   0.7327   0.7330   0.7336   0.7347   0.7350   0.7389   0.7401
  0.7415   0.7419   0.7441   0.7459   0.7480   0.7500   0.7507   0.7521
  0.7534   0.7542   0.7564   0.7571   0.7583   0.7601   0.7625   0.7640
  0.7656   0.7673   0.7691   0.7697   0.7712   0.7724   0.7737   0.7753
  0.7770   0.7778   0.7809   0.7813   0.7838   0.7859   0.7875   0.7891
  0.7902   0.7923   0.7943   0.7952   0.7968   0.7974   0.7990   0.8008
  0.8019   0.8034   0.8041   0.8071   0.8093   0.8109   0.8123   0.8133
  0.8154   0.8174   0.8182   0.8202   0.8208   0.8226   0.8244   0.8268
  0.8277   0.8282   0.8307   0.8326   0.8331   0.8357   0.8369   0.8388
  0.8391   0.8398   0.8418   0.8441   0.8444   0.8451   0.8467   0.8479
  0.8497   0.8522   0.8532   0.8557   0.8571   0.8578   0.8587   0.8592
  0.8607   0.8621   0.8649   0.8650   0.8671   0.8697   0.8721   0.8726
  0.8751   0.8766   0.8775   0.8791   0.8799   0.8815   0.8837   0.8845
  0.8869   0.8880   0.8885   0.8917   0.8935   0.8945   0.8947   0.8962
  0.8977   0.8999   0.9011   0.9020   0.9035   0.9055   0.9063   0.9066
  0.9085   0.9088   0.9109   0.9123   0.9124   0.9150   0.9161   0.9179
  0.9189   0.9199   0.9211   0.9234   0.9247   0.9260   0.9274   0.9282
  0.9289   0.9310   0.9326   0.9333   0.9355   0.9367   0.9372   0.9379
  0.9390   0.9424   0.9424   0.9435   0.9455   0.9460   0.9467   0.9479
  0.9497   0.9505   0.9524   0.9535   0.9548   0.9566   0.9573   0.9587
  0.9595   0.9614   0.9625   0.9632   0.9640   0.9662   0.9663   0.9670
  0.9695   0.9712   0.9715   0.9741   0.9745   0.9770   0.9773   0.9787
  0.9794   0.9806   0.9818   0.9825   0.9844   0.9852   0.9865   0.9873
  0.9892   0.9905   0.9918   0.9923   0.9933   0.9961   0.9973   0.9982
  0.9990   0.9993   1.0022   1.0035   1.0047   1.0052   1.0057   1.0063
  1.0071   1.0079   1.0090   1.0100   1.0122   1.0136   1.0138   1.0155
  1.0175   1.0186   1.0197   1.0208   1.0213   1.0233   1.0247   1.0263
  1.0275   1.0283   1.0286   1.0306   1.0322   1.0329   1.0333   1.0357
  1.0363   1.0376   1.0402   1.0409   1.0429   1.0448   1.0465   1.0474
  1.0497   1.0507   1.0514   1.0533   1.0555   1.0558   1.0569   1.0581
  1.0605   1.0627   1.0630   1.0650   1.0660   1.0679   1.0685   1.0699
  1.0712   1.0732   1.0750   1.0758   1.0764   1.0775   1.0789   1.0791
  1.0803   1.0814   1.0832   1.0850   1.0870   1.0872   1.0906   1.0918
  1.0928   1.0944   1.0963   1.0979   1.1000   1.1009   1.1018   1.1040
  1.1056   1.1066   1.1076   1.1105   1.1121   1.1137   1.1151   1.1174
  1.1188   1.1199   1.1210   1.1222   1.1236   1.1240   1.1248   1.1278
  1.1291   1.1300   1.1323   1.1340   1.1350   1.1353   1.1356   1.1381
  1.1386   1.1406   1.1423   1.1433   1.1438   1.1462   1.1483   1.1499
  1.1505   1.1533   1.1543   1.1563   1.1572   1.1607   1.1619   1.1627
  1.1632   1.1647   1.1664   1.1670   1.1695   1.1704   1.1714   1.1727
  1.1738   1.1772   1.1786   1.1803   1.1824   1.1838   1.1848   1.1873
  1.1892   1.1899   1.1917   1.1931   1.1954   1.1966   1.1985   1.1995
  1.2017   1.2038   1.2066   1.2089   1.2104   1.2125   1.2147   1.2193
  1.2205   1.2220   1.2235   1.2253   1.2271   1.2287   1.2314   1.2342
  1.2344   1.2363   1.2401   1.2421   1.2427   1.2467   1.2490   1.2503
  1.2508   1.2527   1.2534   1.2571   1.2598   1.2607   1.2620   1.2659
  1.2684   1.2709   1.2713   1.2739   1.2748   1.2774   1.2792   1.2819
  1.2856   1.2858   1.2902   1.2931   1.2940   1.2958   1.2967   1.3014
  1.3032   1.3060   1.3077   1.3098   1.3101   1.3112   1.3153   1.3215
  1.3221   1.3246   1.3277   1.3287   1.3313   1.3366   1.3383   1.3419
  1.3436   1.3447   1.3463   1.3467   1.3486   1.3518   1.3534   1.3543
  1.3566   1.3591   1.3598   1.3618   1.3639   1.3667   1.3681   1.3702
  1.3704   1.3723   1.3750   1.3777   1.3789   1.3803   1.3824   1.3842
  1.3865   1.3872   1.3899   1.3928   1.3944   1.3959   1.3970   1.3974
  1.4000   1.4019   1.4043   1.4050   1.4058   1.4065   1.4096   1.4112
  1.4131   1.4142   1.4153   1.4176   1.4182   1.4198   1.4205   1.4238
  1.4254   1.4271   1.4290   1.4318   1.4321   1.4327   1.4344   1.4355
  1.4363   1.4377   1.4404   1.4430   1.4453   1.4458   1.4465   1.4497
  1.4507   1.4535   1.4540   1.4558   1.4580   1.4600   1.4619   1.4645
  1.4657   1.4684   1.4697   1.4715   1.4752   1.4770   1.4802   1.4821
  1.4830   1.4850   1.4866   1.4895   1.4901   1.4926   1.4963   1.4991
  1.5030   1.5042   1.5060   1.5092   1.5103   1.5147   1.5177   1.5189
  1.5223   1.5256   1.5261   1.5281   1.5294   1.5308   1.5327   1.5350
  1.5379   1.5395   1.5427   1.5456   1.5487   1.5535   1.5567   1.5588
  1.5625   1.5645   1.5680   1.5691   1.5742   1.5754   1.5792   1.5819
  1.5892   1.5921   1.5946   1.5975   1.5980   1.6002   1.6113   1.6138
  1.6231   1.6275   1.6294   1.6344   1.6392   1.6403   1.6427   1.6456
  1.6498   1.6521   1.6531   1.6575   1.6587   1.6617   1.6630   1.6654
  1.6689   1.6691   1.6702   1.6726   1.6739   1.6750   1.6765   1.6769
  1.6778   1.6802   1.6805   1.6838   1.6842   1.6868   1.6892   1.6907
  1.6922   1.6928   1.6934   1.6954   1.6969   1.6981   1.6992   1.6995
  1.7025   1.7032   1.7043   1.7064   1.7078   1.7084   1.7112   1.7127
  1.7135   1.7142   1.7152   1.7166   1.7183   1.7202   1.7230   1.7242
  1.7260   1.7277   1.7278   1.7307   1.7310   1.7320   1.7357   1.7368
  1.7387   1.7413   1.7424   1.7445   1.7459   1.7469   1.7490   1.7513
  1.7545   1.7552   1.7561   1.7579   1.7601   1.7620   1.7629   1.7648
  1.7663   1.7676   1.7685   1.7701   1.7714   1.7755   1.7772   1.7803
  1.7814   1.7827   1.7835   1.7872   1.7877   1.7906   1.7928   1.7937
  1.7945   1.8017   1.8028   1.8043   1.8064   1.8091   1.8107   1.8128
  1.8145   1.8156   1.8169   1.8187   1.8249   1.8257   1.8290   1.8334
  1.8352   1.8375   1.8419   1.8481   1.8483   1.8508   1.8542   1.8556
  1.8561   1.8612   1.8624   1.8640   1.8653   1.8680   1.8688   1.8705
  1.8729   1.8739   1.8749   1.8762   1.8788   1.8810   1.8820   1.8839
  1.8857   1.8888   1.8902   1.8907   1.8924   1.8951   1.8959   1.8977
  1.8989   1.8996   1.9031   1.9046   1.9055   1.9065   1.9110   1.9111
  1.9121   1.9137   1.9140   1.9167   1.9182   1.9200   1.9225   1.9236
  1.9255   1.9280   1.9290   1.9295   1.9318   1.9324   1.9357   1.9380
  1.9398   1.9416   1.9431   1.9432   1.9447   1.9492   1.9495   1.9533
  1.9558   1.9565   1.9585   1.9600   1.9615   1.9654   1.9741   1.9752
  1.9829   1.9883   1.9952   1.9999   2.0031   2.0129   2.0252   2.0270
  2.0285   2.0309   2.0402   2.0412   2.0434   2.0475   2.0482   2.0489
  2.0546   2.0551   2.0579   2.0598   2.0627   2.0651   2.0682   2.0702
  2.0716   2.0731   2.0737   2.0739   2.0761   2.0774   2.0785   2.0794
  2.0807   2.0828   2.0839   2.0857   2.0877   2.0885   2.0905   2.0916
  2.0925   2.0942   2.0976   2.1000   2.1006   2.1007   2.1066   2.1101
  2.1126   2.1178   2.1199   2.1220   2.1295   2.1296   2.1327   2.1366
  2.1378   2.1389   2.1399   2.1411   2.1432   2.1459   2.1471   2.1527
  2.1572   2.1582   2.1629   2.1676   2.1698   2.1714   2.1727   2.1771
  2.1775   2.1815   2.1822   2.1887   2.1920   2.1966   2.1975   2.2027
  2.2053   2.2093   2.2111   2.2140   2.2152   2.2169   2.2195   2.2229
  2.2230   2.2253   2.2264   2.2280   2.2298   2.2311   2.2326   2.2361
  2.2364   2.2375   2.2391   2.2402   2.2412   2.2428   2.2431   2.2445
  2.2458   2.2468   2.2489   2.2504   2.2509   2.2523   2.2532   2.2537
  2.2561   2.2564   2.2582   2.2595   2.2610   2.2617   2.2631   2.2642
  2.2652   2.2664   2.2678   2.2684   2.2696   2.2703   2.2707   2.2724
  2.2737   2.2739   2.2751   2.2770   2.2788   2.2793   2.2799   2.2807
  2.2832   2.2841   2.2850   2.2859   2.2867   2.2881   2.2891   2.2895
  2.2906   2.2913   2.2918   2.2930   2.2944   2.2960   2.2971   2.2997
  2.3004   2.3010   2.3021   2.3045   2.3058   2.3064   2.3072   2.3090
  2.3096   2.3107   2.3119   2.3130   2.3140   2.3148   2.3161   2.3174
  2.3197   2.3203   2.3222   2.3231   2.3234   2.3244   2.3248   2.3280
  2.3293   2.3315   2.3320   2.3336   2.3347   2.3370   2.3386   2.3398
  2.3403   2.3422   2.3448   2.3475   2.3498   2.3519   2.3534   2.3544
  2.3569   2.3591   2.3615   2.3622   2.3688   2.3735   2.3765   2.3769
  2.3831   2.3839   2.3894   2.3910   2.3969   2.3991   2.4001   2.4051
  2.4070   2.4123   2.4172   2.4204   2.4257   2.4310   2.4447   2.4570
  2.4882   2.5368   2.5586   2.5786   2.6537   2.7287   2.7646   2.7821
  2.7939   2.8132   2.8150   2.8163   2.8234   2.8251   2.8263   2.8319
  2.8336   2.8344   2.8368   2.8396   2.8405   2.8462   2.8498   2.8589
  2.8640   2.8691   2.8706   2.8735   2.8837   2.8857   2.8894   2.8912
  2.8956   2.8967   2.9002   2.9175   2.9434   3.0916   3.2328   3.9365
  3.9459   3.9471   3.9497   3.9573   3.9611   3.9640   3.9651   3.9657
  3.9681   3.9710   3.9830   3.9892   3.9914   4.0021   4.0057   4.0083
  4.0149   4.0172   4.0227   4.0268   4.0314   4.0374   4.0445   4.1868
  4.2036   4.2172   4.2251   4.2278   4.2317   4.2413   4.2445   4.2472
  4.2491   4.2509   4.2535   4.2576   4.2603   4.2607   4.2639   4.2647
  4.2714   4.2756   4.2798   4.2843   4.2854   4.2870   4.2904   4.2923
  4.2945   4.2993   4.2996   4.3023   4.3070   4.3092   4.3136   4.3164
  4.3170   4.3201   4.3228   4.3266   4.3268   4.3293   4.3320   4.3323
  4.3395   4.3410   4.3485   4.3512   4.3540   4.3572   4.3595   4.3653
  4.3666   4.3715   4.3721   4.3748   4.3758   4.3823   4.3885   4.3925
  4.4000   4.4004   4.4072   4.4159   4.4166   4.4221   4.4353   4.4524
  4.4604   4.4651   4.4684   4.4747   4.4965   4.5028   4.5176   4.5324
  4.5684   4.5772   4.5969   4.6931   4.7099   4.7286   4.7828   4.8617
 --------------------------------------------------------------

          Ground-State Mulliken Net Atomic Charges

     Atom                 Charge (a.u.)
  ----------------------------------------
      1 C                    -0.351665
      2 C                    -0.487972
      3 C                    -0.387447
      4 C                    -0.689196
      5 C                    -0.666759
      6 C                     0.035225
      7 H                     0.204147
      8 H                     0.225814
      9 H                     0.207143
     10 H                     0.256558
     11 H                     0.195849
     12 H                     0.203107
     13 H                     0.229611
     14 H                     0.247215
     15 H                     0.199452
     16 H                     0.237661
     17 H                     0.243898
     18 N                     0.141933
     19 H                     0.511004
     20 C                    -0.254359
     21 H                     0.168294
     22 O                    -0.291532
     23 C                    -0.793345
     24 H                     0.258427
     25 H                     0.259065
     26 H                     0.220138
     27 S                     0.887931
     28 C                    -0.827759
     29 H                     0.251586
     30 H                     0.263420
     31 H                     0.228165
     32 O                    -0.749836
     33 C                    -0.749062
     34 H                     0.270177
     35 H                     0.230237
     36 H                     0.317876
     37 S                     0.698146
     38 C                    -0.783760
     39 H                     0.258982
     40 H                     0.251298
     41 H                     0.235782
     42 O                    -0.642625
     43 C                    -0.945086
     44 H                     0.252608
     45 H                     0.255500
     46 H                     0.278197
     47 S                     0.955587
     48 C                    -0.946158
     49 H                     0.228335
     50 H                     0.259293
     51 H                     0.302573
     52 O                    -0.642620
     53 C                    -0.835397
     54 H                     0.224819
     55 H                     0.295140
     56 H                     0.272584
     57 S                     0.672883
     58 C                    -0.730126
     59 H                     0.245166
     60 H                     0.258880
     61 H                     0.254275
     62 O                    -0.706729
     63 C                    -0.872527
     64 H                     0.271548
     65 H                     0.212944
     66 H                     0.223030
     67 S                     1.000564
     68 C                    -1.000599
     69 H                     0.258952
     70 H                     0.287174
     71 H                     0.271314
     72 O                    -0.722914
     73 C                    -0.836600
     74 H                     0.249788
     75 H                     0.255326
     76 H                     0.241672
     77 S                     0.838977
     78 C                    -0.875388
     79 H                     0.239613
     80 H                     0.253250
     81 H                     0.346454
     82 O                    -0.723485
     83 C                    -0.859908
     84 H                     0.237962
     85 H                     0.259406
     86 H                     0.276092
     87 S                     0.821477
     88 C                    -0.843186
     89 H                     0.248997
     90 H                     0.249366
     91 H                     0.239357
     92 O                    -0.675495
     93 C                    -0.767110
     94 H                     0.237872
     95 H                     0.277068
     96 H                     0.273020
     97 S                     0.808998
     98 C                    -0.837741
     99 H                     0.284323
    100 H                     0.254026
    101 H                     0.258508
    102 O                    -0.768828
    103 C                    -0.899713
    104 H                     0.274134
    105 H                     0.258445
    106 H                     0.252299
    107 S                     0.705166
    108 C                    -0.831379
    109 H                     0.278879
    110 H                     0.263678
    111 H                     0.271407
    112 O                    -0.671419
    113 C                    -0.915461
    114 H                     0.247453
    115 H                     0.294579
    116 H                     0.260173
    117 S                     0.779331
    118 C                    -0.844107
    119 H                     0.270840
    120 H                     0.306087
    121 H                     0.222660
    122 O                    -0.671569
    123 C                    -0.806395
    124 H                     0.240808
    125 H                     0.283121
    126 H                     0.281425
    127 S                     0.354912
    128 C                    -0.761270
    129 H                     0.293531
    130 H                     0.267760
    131 H                     0.253175
    132 O                    -0.461446
    133 C                    -0.882280
    134 H                     0.259779
    135 H                     0.265063
    136 H                     0.308559
    137 S                     0.822677
    138 C                    -0.839015
    139 H                     0.262422
    140 H                     0.259169
    141 H                     0.236226
    142 O                    -0.619284
    143 C                    -0.781443
    144 H                     0.260699
    145 H                     0.276742
    146 H                     0.251950
    147 S                     0.771885
    148 C                    -0.883679
    149 H                     0.226152
    150 H                     0.262926
    151 H                     0.282807
    152 O                    -0.628098
    153 C                    -0.916200
    154 H                     0.253114
    155 H                     0.223265
    156 H                     0.302078
    157 S                     0.989068
    158 C                    -0.912423
    159 H                     0.281759
    160 H                     0.302474
    161 H                     0.257661
    162 O                    -0.770232
    163 C                    -0.939508
    164 H                     0.300645
    165 H                     0.248645
    166 H                     0.210941
    167 S                     0.997764
    168 C                    -0.911582
    169 H                     0.289297
    170 H                     0.235442
    171 H                     0.220564
    172 O                    -0.657212
    173 C                    -0.952301
    174 H                     0.250773
    175 H                     0.230272
    176 H                     0.273895
    177 S                     1.146746
    178 C                    -0.869012
    179 H                     0.247927
    180 H                     0.246577
    181 H                     0.269613
    182 O                    -0.715079
    183 C                    -1.020637
    184 H                     0.235531
    185 H                     0.235656
    186 H                     0.300350
    187 S                     1.286155
    188 C                    -1.144456
    189 H                     0.298589
    190 H                     0.298171
    191 H                     0.220220
    192 O                    -0.759121
    193 C                    -1.217110
    194 H                     0.278206
    195 H                     0.232263
    196 H                     0.270478
    197 S                     1.418714
    198 C                    -1.140985
    199 H                     0.285183
    200 H                     0.255164
    201 H                     0.269324
    202 O                    -0.722460
    203 C                    -0.836865
    204 H                     0.262412
    205 H                     0.286294
    206 H                     0.236961
    207 S                     0.954691
    208 C                    -0.896166
    209 H                     0.228806
    210 H                     0.254212
    211 H                     0.271406
    212 O                    -0.749337
    213 C                    -1.027543
    214 H                     0.267837
    215 H                     0.277165
    216 H                     0.282672
    217 S                     0.873523
    218 C                    -0.971592
    219 H                     0.265031
    220 H                     0.305962
    221 H                     0.256812
    222 O                    -0.673499
    223 C                    -0.876527
    224 H                     0.324307
    225 H                     0.232776
    226 H                     0.283995
    227 S                     0.985017
    228 C                    -1.014301
    229 H                     0.286610
    230 H                     0.228239
    231 H                     0.260448
    232 O                    -0.621652
    233 C                    -0.511120
    234 H                     0.239062
    235 H                     0.292592
    236 H                     0.274778
    237 S                     0.314751
    238 C                    -0.895450
    239 H                     0.263635
    240 H                     0.272925
    241 H                     0.224552
    242 O                    -0.564720
    243 C                    -0.860774
    244 H                     0.279351
    245 H                     0.248833
    246 H                     0.232609
    247 S                     0.940328
    248 C                    -0.840147
    249 H                     0.261255
    250 H                     0.275763
    251 H                     0.226423
    252 O                    -0.728658
    253 C                    -0.979829
    254 H                     0.251363
    255 H                     0.275827
    256 H                     0.286205
    257 S                     1.322527
    258 C                    -1.112758
    259 H                     0.215869
    260 H                     0.276295
    261 H                     0.269735
    262 O                    -0.739325
  ----------------------------------------
  Sum of atomic charges =     0.000000

 -----------------------------------------------------------------
                    Cartesian Multipole Moments
 -----------------------------------------------------------------
    Charge (ESU x 10^10)
                -0.0000
    Dipole Moment (Debye)
         X      12.3113      Y     -10.4615      Z      40.0153
       Tot      43.1536
    Quadrupole Moments (Debye-Ang)
        XX    -317.4111     XY     110.2636     YY   -1332.6911
        XZ    1056.2201     YZ     636.8528     ZZ    1304.0971
    Octopole Moments (Debye-Ang^2)
       XXX  -33815.5799    XXY   -8407.9459    XYY  -18996.0819
       YYY  -72123.8977    XXZ    3744.5846    XYZ   19771.9636
       YYZ  -14453.8904    XZZ   30425.5788    YZZ   23062.0186
       ZZZ   17450.2898
    Hexadecapole Moments (Debye-Ang^3)
      XXXX ************   XXXY -707867.4926   XXYY -611789.6937
      XYYY ************   YYYY ************   XXXZ -712821.1052
      XXYZ   62378.0576   XYYZ -113444.6876   YYYZ ************
      XXZZ   36851.6986   XYZZ  600724.5060   YYZZ -258689.1881
      XZZZ  384896.6909   YZZZ  257593.4353   ZZZZ -759254.7923
 -----------------------------------------------------------------
 Total job time:  18156.48s(wall), 255163.07s(cpu) 
 Thu Jul 21 08:17:25 2022

        *************************************************************
        *                                                           *
        *  Thank you very much for using Q-Chem.  Have a nice day.  *
        *                                                           *
        *************************************************************


 
User input: 2 of 2 
 
                  Welcome to Q-Chem
     A Quantum Leap Into The Future Of Chemistry


 Q-Chem 6.0 (devel), Q-Chem, Inc., Pleasanton, CA (2022)

 E. Epifanovsky,  A. T. B. Gilbert,  Xintian Feng,  Joonho Lee,  Yuezhi Mao,  
 N. Mardirossian,  P. Pokhilko,  A. White,  M. Wormit,  M. P. Coons,  
 A. L. Dempwolff,  Zhengting Gan,  D. Hait,  P. R. Horn,  L. D. Jacobson,  
 I. Kaliman,  J. Kussmann,  A. W. Lange,  Ka Un Lao,  D. S. Levine,  Jie Liu,  
 S. C. McKenzie,  A. F. Morrison,  K. Nanda,  F. Plasser,  D. R. Rehn,  
 M. L. Vidal,  Zhi-Qiang You,  Ying Zhu,  B. Alam,  B. Albrecht,  
 A. Aldossary,  E. Alguire,  J. H. Andersen,  V. Athavale,  D. Barton,  
 K. Begam,  A. Behn,  N. Bellonzi,  Y. A. Bernard,  E. J. Berquist,  
 H. Burton,  A. Carreras,  K. Carter-Fenk,  Romit Chakraborty,  
 Chandrima Chakravarty,  Junhan Chen,  A. D. Chien,  K. D. Closser,  
 V. Cofer-Shabica,  L. Cunha,  S. Dasgupta,  Jia Deng,  M. de Wergifosse,  
 M. Diedenhofen,  Hainam Do,  S. Ehlert,  Po-Tung Fang,  S. Fatehi,  
 Qingguo Feng,  T. Friedhoff,  B. Ganoe,  J. Gayvert,  Qinghui Ge,  
 G. Gidofalvi,  M. Goldey,  J. Gomes,  C. Gonzalez-Espinoza,  S. Gulania,  
 A. Gunina,  J. A. Gyamfi,  M. W. D. Hanson-Heine,  P. H. P. Harbach,  
 A. W. Hauser,  M. F. Herbst,  M. Hernandez Vera,  M. Hodecker,  
 Z. C. Holden,  S. Houck,  Xunkun Huang,  Kerwin Hui,  B. C. Huynh,  
 K. Ikeda,  M. Ivanov,  Hyunjun Ji,  Zuxin Jin,  Hanjie Jiang,  B. Kaduk,  
 S. Kaehler,  R. Kang,  K. Khistyaev,  Jaehoon Kim,  Yongbin Kim,  
 P. Klunzinger,  Z. Koczor-Benda,  Joong Hoon Koh,  D. Kosenkov,  
 Saikiran Kotaru,  L. Koulias,  T. Kowalczyk,  C. M. Krauter,  K. Kue,  
 A. Kunitsa,  T. Kus,  A. Landau,  K. V. Lawler,  D. Lefrancois,  S. Lehtola,  
 Rain Li,  Shaozhi Li,  Yi-Pei Li,  Jiashu Liang,  M. Liebenthal,  
 Hung-Hsuan Lin,  You-Sheng Lin,  Fenglai Liu,  Kuan-Yu Liu,  
 M. Loipersberger,  A. Luenser,  C. Malbon,  A. Manjanath,  P. Manohar,  
 E. Mansoor,  S. F. Manzer,  Shan-Ping Mao,  A. V. Marenich,  T. Markovich,  
 S. Mason,  F. Matz,  S. A. Maurer,  P. F. McLaughlin,  M. F. S. J. Menger,  
 J.-M. Mewes,  S. A. Mewes,  P. Morgante,  Mohammad Mostafanejad,  
 J. W. Mullinax,  K. J. Oosterbaan,  G. Paran,  V. Parravicini,  
 Alexander C. Paul,  Suranjan K. Paul,  F. Pavosevic,  Zheng Pei,  S. Prager,  
 E. I. Proynov,  E. Ramos,  B. Rana,  A. E. Rask,  A. Rettig,  R. M. Richard,  
 F. Rob,  E. Rossomme,  T. Scheele,  M. Scheurer,  M. Schneider,  
 P. E. Schneider,  N. Sergueev,  S. M. Sharada,  Hengyuan Shen,  
 W. Skomorowski,  D. W. Small,  C. J. Stein,  Yingli Su,  Yu-Chuan Su,  
 E. J. Sundstrom,  Zhen Tao,  J. Thirman,  Hung-Yi Tsai,  T. Tsuchimochi,  
 N. M. Tubman,  C. Utku,  S. P. Veccham,  O. Vydrov,  J. Wenzel,  
 Jonathan Wong,  J. Witte,  A. Yamada,  Chou-Hsun Yang,  Kun Yao,  
 S. Yeganeh,  S. R. Yost,  A. Zech,  F. Zeller,  Igor Ying Zhang,  
 Xing Zhang,  Yu Zhang,  D. Zuev,  A. Aspuru-Guzik,  A. T. Bell,  
 N. A. Besley,  K. B. Bravaya,  B. R. Brooks,  D. Casanova,  Jeng-Da Chai,  
 Hsing-Ta Chen,  S. Coriani,  C. J. Cramer,  A. E. DePrince, III,  
 R. A. DiStasio Jr.,  A. Dreuw,  B. D. Dunietz,  T. R. Furlani,  
 W. A. Goddard III,  S. Grimme,  S. Hammes-Schiffer,  T. Head-Gordon,  
 W. J. Hehre,  Chao-Ping Hsu,  T.-C. Jagau,  Yousung Jung,  A. Klamt,  
 Jing Kong,  D. S. Lambrecht,  Xiangyuan Li,  WanZhen Liang,  N. J. Mayhall,  
 C. W. McCurdy,  J. B. Neaton,  T. Neudecker,  C. Ochsenfeld,  
 J. A. Parkhill,  R. Peverati,  V. A. Rassolov,  Haisheng Ren,  Yihan Shao,  
 L. V. Slipchenko,  R. P. Steele,  J. E. Subotnik,  A. J. W. Thom,  
 A. Tkatchenko,  D. G. Truhlar,  T. Van Voorhis,  Fan Wang,  
 T. A. Wesolowski,  K. B. Whaley,  H. L. Woodcock III,  P. M. Zimmerman,  
 S. Faraji,  P. M. W. Gill,  M. Head-Gordon,  J. M. Herbert,  A. I. Krylov

 Contributors to earlier versions of Q-Chem not listed above: 
 R. D. Adamson,  B. Austin,  R. Baer,  J. Baker,  G. J. O. Beran,  
 K. Brandhorst,  S. T. Brown,  E. F. C. Byrd,  Arup K. Chakraborty,  
 G. K. L. Chan,  Chun-Min Chang,  Yunqing Chen,  C.-L. Cheng,  
 Siu Hung Chien,  D. M. Chipman,  D. L. Crittenden,  H. Dachsel,  
 R. J. Doerksen,  A. D. Dutoi,  R. G. Edgar,  J. Fosso-Tande,  
 L. Fusti-Molnar,  D. Ghosh,  A. Ghysels,  A. Golubeva-Zadorozhnaya,  
 J. Gonthier,  M. S. Gordon,  S. R. Gwaltney,  G. Hawkins,  J. E. Herr,  
 A. Heyden,  S. Hirata,  E. G. Hohenstein,  G. Kedziora,  F. J. Keil,  
 C. Kelley,  Jihan Kim,  R. A. King,  R. Z. Khaliullin,  P. P. Korambath,  
 W. Kurlancheek,  A. Laurent,  A. M. Lee,  M. S. Lee,  S. V. Levchenko,  
 Ching Yeh Lin,  D. Liotard,  E. Livshits,  R. C. Lochan,  I. Lotan,  
 L. A. Martinez-Martinez,  P. E. Maslen,  N. Nair,  D. P. O'Neill,  
 D. Neuhauser,  E. Neuscamman,  C. M. Oana,  R. Olivares-Amaya,  R. Olson,  
 T. M. Perrine,  B. Peters,  P. A. Pieniazek,  A. Prociuk,  Y. M. Rhee,  
 J. Ritchie,  M. A. Rohrdanz,  E. Rosta,  N. J. Russ,  H. F. Schaefer III,  
 M. W. Schmidt,  N. E. Schultz,  S. Sharma,  N. Shenvi,  C. D. Sherrill,  
 A. C. Simmonett,  A. Sodt,  T. Stein,  D. Stuck,  K. S. Thanthiriwatte,  
 V. Vanovschi,  L. Vogt,  Tao Wang,  A. Warshel,  M. A. Watson,  
 C. F. Williams,  Q. Wu,  X. Xu,  Jun Yang,  W. Zhang,  Yan Zhao

   Please cite Q-Chem as follows:
  "Software for the frontiers of quantum chemistry:
   An overview of developments in the Q-Chem 5 package"
   J. Chem. Phys. 155, 084801 (2021)
   https://doi.org/10.1063/5.0055522 (open access)

 Q-Chem 6.0.0 for Intel X86 EM64T Linux

 Parts of Q-Chem use Armadillo 9.900.5 (Nocturnal Misbehaviour).
 http://arma.sourceforge.net/

 Q-Chem begins on Thu Jul 21 08:17:25 2022  

 Host: nid00535
0

[...]
          145         146         147         148         149         150
    1  -1.5860901  -2.2251134  -1.8575402  -3.0058013  -2.9992726  -4.2843537
    2   3.0397258   1.2591521   0.3192194  -0.9527679  -2.5231935  -0.0506229
    3   0.8379359  -2.1894695   0.4211246  -1.0693042   0.2295458  -1.4449644
          151         152         153         154         155         156
    1  -1.7246205  -3.5762941  -0.9684246  -1.0693832  -0.6637731  -1.2169418
    2  -0.4594246   0.0131959  -1.5672017  -3.5005632  -0.9257796  -0.3959372
    3  -2.2663324   2.7557082   1.8269910   1.6420413   3.3749364   0.0435754
          157         158         159         160         161         162
    1   1.3197680   1.6002108  -0.3266461   1.7541716   3.2692870   1.3364303
    2  -1.6041064   0.3207029   0.5630568   0.0937772  -0.1839676  -2.2755672
    3   2.5060557   1.6011937   0.4703891   3.3719293   0.9704414  -0.3413814
          163         164         165         166         167         168
    1   2.4706947   1.7773356   2.7325912   2.8936849   0.8214400  -0.2278810
    2   1.3166337  -0.0935543   2.4745396   1.7476739   1.9895844   0.0203222
    3  -1.6658667  -2.6278778  -2.6435299   0.4009200  -0.5828473  -1.6303363
          169         170         171         172         173         174
    1   0.6264719   0.6750632  -1.6066569   0.0880072   3.1892098   3.2233374
    2  -0.5406035  -0.0404318   0.5110055   3.2577933  -0.7505701  -2.5661492
    3  -3.2721744   0.3339177  -1.1665041  -3.0748604  -0.9609177  -0.1549806
          175         176         177         178         179         180
    1   3.5715064   2.6549135   0.9993250   1.2705889  -0.6671179   2.4934100
    2  -0.2644974   0.5288625  -1.5677388  -1.1943325  -1.3418947   0.5746238
    3  -2.6987275  -0.0192465  -1.1069090  -3.2682709  -3.5627640  -3.3603322
          181         182         183         184         185         186
    1   2.1403207   0.6427684  -1.2369615  -1.4059336   0.2921791  -2.5865990
    2  -2.7299964   1.4734574  -1.4881168  -0.6843055  -2.8365485  -1.1839248
    3  -2.6267541  -1.6115080  -2.9415474  -4.3078485  -2.7829489  -1.7383415
          187         188         189         190         191         192
    1   0.3227815   1.1389045   2.3487936   0.4231708   1.1160076  -1.2293215
    2   0.2588338  -0.9035485   0.6208289  -0.6721912  -2.1857566   1.0170553
    3  -3.2558437  -1.5261781  -1.8962674   0.4522228  -3.0382599  -0.2793225
          193         194         195         196         197         198
    1   0.7363423  -0.6339962   0.7223372   2.5174293   0.7715584   2.8681352
    2   1.3045636   1.8558103   0.0096096   2.6986829  -0.4845805   0.3782187
    3   0.4087433  -0.2847064   1.3746787  -0.2493530  -1.0463138  -1.3242319
          199         200         201         202         203         204
    1   2.3513647   2.8072626   3.2787547   0.7408174  -1.1021806  -1.3688196
    2   0.3707146  -1.1660378   1.9216816   1.7651821  -2.7681457  -1.2248024
    3   0.5528603  -2.0822185  -2.3582177  -3.2985752  -0.5017649   0.1873697
          205         206         207         208         209         210
    1  -1.2407763  -0.5010208   1.1997148   1.1521180   1.0483765   2.8867343
    2  -2.4632202  -4.0633019  -2.8086166  -0.9810979  -2.1099476  -0.7073656
    3  -2.6861022   0.4577061   0.0369275   0.5689252   1.9632398  -0.1691510
          211         212         213         214         215         216
    1  -0.7099554   1.3204169  -0.0261710   1.3568244  -0.6783308  -0.7070042
    2  -0.4623160  -1.5673348   0.2220195   0.3866821   1.5310639  -1.4357236
    3  -0.6218747  -3.1201211  -0.0167752  -1.4461555   0.8972433   0.1083887
          217         218         219         220         221         222
    1  -1.4818045  -3.0602350  -2.2690176  -2.3613809  -4.2173051  -2.1012631
    2   1.9729277   1.2126395  -0.7034406   2.9566628   0.7053332  -0.6114791
    3  -1.1788404  -0.2862762   0.4797368   0.3957142  -1.6109940  -3.0119944
          223         224         225         226         227         228
    1   0.1269981  -0.5028647   0.0518876   1.2034153  -1.6602774  -0.4390059
    2  -1.0997596   0.3360300  -2.2897907  -1.3119128  -2.2956144  -3.4986335
    3   1.2787111   1.0498721   2.7527985  -0.1676522   0.9348650  -0.0397137
          229         230         231         232         233         234
    1   0.4440973   0.5312224  -1.8729176  -2.0634485  -0.4696709  -2.1380899
    2  -2.8264541  -3.3073903  -4.0590613  -1.2290574  -0.8484272  -1.0035275
    3  -1.6563970   1.8003785  -0.2842792  -2.1863882   0.2879417   0.0972342
          235         236         237         238         239         240
    1   0.7645006   0.0846385  -0.5710164  -2.5390453  -3.0070557  -3.3366034
    2  -0.4140773  -1.0942752   1.4156841   1.0295817   2.8303618   0.0871489
    3  -0.9719236   2.1244597   0.9602995   2.2067817   2.3162139   1.2919051
          241         242         243         244         245         246
    1  -1.5209116  -2.8172394   2.8231251   0.9979859   3.6747072   3.2704680
    2  -0.1611217   2.2747839   0.8101495   0.8051203  -0.9002278   2.3264527
    3   3.0064845  -1.2616444   1.6921268   2.4274657   1.1259668   1.6294076
          247         248         249         250         251         252
    1   2.8555824   1.2454807   0.8966190  -0.0029351   2.7326865   0.4570078
    2   1.3216386   2.8709211   2.9863211   2.1489224   3.1612810  -0.3540188
    3  -0.6788617   0.1044456  -1.6748654   1.5727611   1.0979030  -0.4386488
          253         254         255         256         257         258
    1  -0.1170060   1.2561596  -0.7740123  -0.9051065  -1.4672483  -0.7363957
    2  -0.1381295   0.2713807  -1.7754456   1.1623240   0.0756239  -1.6650810
    3  -2.3192546  -0.6170688  -3.1665481  -3.3037564  -0.6506512  -0.3148985
          259         260         261         262
    1   0.6561922  -2.7701024  -0.8521838  -3.6315286
    2  -0.5263964  -2.1365013  -2.5504343  -1.5729556
    3   0.8939362   0.0606210  -2.0934881  -2.6611841
 EField
            1           2           3           4           5           6
    1  -0.0042786  -0.0071611  -0.0047879  -0.0038063  -0.0048975  -0.0041109
    2   0.0006878   0.0020505   0.0034109   0.0011703   0.0025705  -0.0001029
    3  -0.0019636  -0.0040203  -0.0052826  -0.0045280  -0.0081133  -0.0063505
            7           8           9          10          11          12
    1  -0.0022334  -0.0107774  -0.0008564  -0.0023054  -0.0069414  -0.0008991
    2   0.0071024   0.0018799   0.0003757   0.0032231  -0.0018214   0.0016349
    3  -0.0073367  -0.0074869   0.0016903  -0.0005058  -0.0061755  -0.0012136
           13          14          15          16          17          18
    1  -0.0068942  -0.0033770  -0.0071865  -0.0001670  -0.0035392  -0.0163307
    2   0.0030183   0.0060657  -0.0013062  -0.0014948   0.0053434   0.0013308
    3  -0.0098495  -0.0109965  -0.0063484  -0.0078377  -0.0047086  -0.0062512
           19          20          21          22          23          24
    1  -0.0317201  -0.0126011  -0.0114773  -0.0118983  -0.0079697  -0.0288343
    2  -0.0027144   0.0033793   0.0065035   0.0028900  -0.0043948   0.0127378
    3  -0.0018136  -0.0089893  -0.0111894  -0.0093633   0.0038684   0.0069241
           25          26          27          28          29          30
    1  -0.0030251   0.0182178   0.0505860  -0.0006089   0.0238846   0.0098554
    2  -0.0302719  -0.0092828  -0.0193346   0.0080149   0.0011800   0.0313772
    3  -0.0092452   0.0246270  -0.0172666   0.0033858   0.0193238  -0.0090124
           31          32          33          34          35          36
    1  -0.0292597  -0.0822254   0.0012048   0.0188915   0.0208318  -0.0180774
    2   0.0090375   0.0328569  -0.0106024  -0.0060684   0.0079605  -0.0256623
    3   0.0107445  -0.0651669  -0.0025889  -0.0221567   0.0272977  -0.0166286
           37          38          39          40          41          42
    1   0.0305850  -0.0078012  -0.0244634  -0.0119901   0.0173312  -0.0465724
    2   0.0497826  -0.0039303   0.0223548  -0.0272100  -0.0016514  -0.0169362
    3   0.0109223   0.0033530  -0.0094195  -0.0031309   0.0285138  -0.1000260
           43          44          45          46          47          48
    1   0.0056771   0.0044076   0.0177610   0.0190890   0.0068231  -0.0011040
    2  -0.0023475  -0.0320722  -0.0135612   0.0133535   0.0579823  -0.0042664
    3   0.0027115   0.0127563  -0.0215144   0.0255844  -0.0020096   0.0063214
           49          50          51          52          53          54
    1  -0.0282602  -0.0138532   0.0123915  -0.0346073  -0.0085756  -0.0056067
    2   0.0131037  -0.0290513   0.0069802  -0.0560614   0.0022573   0.0318124
    3   0.0015535  -0.0102959   0.0314992  -0.0882750  -0.0057134   0.0006258
           55          56          57          58          59          60
    1  -0.0052079  -0.0151620   0.0146048   0.0021988  -0.0033848   0.0297859
    2   0.0018504  -0.0265941   0.0035849   0.0053613   0.0420982  -0.0062136
    3  -0.0325775   0.0120679   0.0489032  -0.0028740  -0.0010430  -0.0074809
           61          62          63          64          65          66
    1  -0.0108563   0.0184212  -0.0040609   0.0134056  -0.0349403  -0.0001953
    2   0.0096111  -0.0884400  -0.0054956  -0.0045623   0.0063410  -0.0224867
    3  -0.0287101  -0.0645992   0.0046074   0.0298432   0.0098042  -0.0158502
           67          68          69          70          71          72
    1  -0.0122662  -0.0017853  -0.0272514   0.0282538  -0.0122710   0.0969045
    2   0.0486844   0.0046472   0.0224647   0.0058746  -0.0181872  -0.0490839
    3   0.0205497   0.0000838  -0.0178993  -0.0115898  -0.0032364   0.0268449
           73          74          75          76          77          78
    1   0.0035452  -0.0019944   0.0236607   0.0069724  -0.0152393  -0.0048981
    2   0.0013683  -0.0288247   0.0077558   0.0256339   0.0474116  -0.0114217
    3   0.0064649   0.0077193  -0.0116176   0.0265460  -0.0088225   0.0022531
           79          80          81          82          83          84
    1  -0.0052917  -0.0305392  -0.0008345   0.0374511  -0.0066044   0.0038788
    2   0.0009553   0.0029387  -0.0320300  -0.0728367  -0.0036887  -0.0316543
    3   0.0343867  -0.0073671  -0.0146352  -0.0706821  -0.0069411   0.0118062
           85          86          87          88          89          90
    1  -0.0329144   0.0042568   0.0493926  -0.0026564  -0.0122034  -0.0326326
    2  -0.0036858   0.0073563   0.0064599  -0.0025064   0.0225852  -0.0021980
    3   0.0041495  -0.0342232  -0.0079638   0.0062778   0.0234336   0.0073035
           91          92          93          94          95          96
    1   0.0172694  -0.0789806   0.0016908  -0.0312759   0.0140282   0.0029280
    2  -0.0272757   0.0769754   0.0036727  -0.0022860  -0.0188938   0.0279922
    3   0.0134377  -0.0139491   0.0069089   0.0196508   0.0180436   0.0073445
           97          98          99         100         101         102
    1  -0.0218838  -0.0000732   0.0161811   0.0053194  -0.0275013   0.1216033
    2   0.0368444  -0.0094414  -0.0145979  -0.0142328  -0.0008499  -0.0099558
    3  -0.0385393  -0.0021807  -0.0207567   0.0274055  -0.0179408   0.0081916
          103         104         105         106         107         108
    1   0.0062725   0.0041032   0.0184075  -0.0034010  -0.0043873  -0.0003182
    2  -0.0034060   0.0046034   0.0126225  -0.0308080   0.0611423  -0.0044123
    3  -0.0006586  -0.0278627   0.0244927   0.0015329  -0.0046116   0.0056358
          109         110         111         112         113         114
    1  -0.0255753  -0.0103680   0.0176773  -0.0564154   0.0072564   0.0053467
    2   0.0097196  -0.0339957   0.0139425  -0.0676503   0.0015412  -0.0320394
    3   0.0125699  -0.0017455   0.0292806  -0.0653302  -0.0098374  -0.0074770
          115         116         117         118         119         120
    1   0.0059080   0.0204894  -0.0006466  -0.0021679  -0.0042388  -0.0220054
    2   0.0199105   0.0127672  -0.0230206  -0.0018808  -0.0363119   0.0144440
    3  -0.0322795   0.0203347   0.0558183  -0.0099484  -0.0044359  -0.0028740
          121         122         123         124         125         126
    1  -0.0006463  -0.0138818   0.0026930   0.0069492  -0.0240915   0.0268919
    2  -0.0046308   0.1088841   0.0091638   0.0341980   0.0009955  -0.0132811
    3  -0.0350794  -0.0189676   0.0058406   0.0043490   0.0203683   0.0071712
          127         128         129         130         131         132
    1   0.0038815   0.0095808   0.0347570  -0.0181882  -0.0069074  -0.0856996
    2  -0.0509334   0.0034265  -0.0111635   0.0058139   0.0285932   0.0638428
    3  -0.0187938  -0.0073150   0.0117820  -0.0309815   0.0046235  -0.0321005
          133         134         135         136         137         138
    1  -0.0082148  -0.0130607  -0.0010416  -0.0180937   0.0305896  -0.0019543
    2  -0.0072116   0.0150462  -0.0309053   0.0083872  -0.0230250   0.0086972
    3   0.0044884  -0.0265631   0.0092028   0.0270655   0.0393224  -0.0011284
          139         140         141         142         143         144
    1  -0.0214074  -0.0153892   0.0222477   0.0150727  -0.0017214  -0.0311923
    2   0.0095656  -0.0012809   0.0247995  -0.0056788   0.0091576   0.0103800
    3  -0.0206591   0.0303029  -0.0124104  -0.1081716  -0.0040407   0.0090578
          145         146         147         148         149         150
    1   0.0148975   0.0168018   0.0656664  -0.0037728  -0.0101196  -0.0345680
    2   0.0286951  -0.0004819  -0.0042337  -0.0047883  -0.0292807   0.0030793
    3   0.0047981  -0.0280058   0.0043704  -0.0078724   0.0082440  -0.0041018
          151         152         153         154         155         156
    1   0.0294831  -0.0612139  -0.0086718  -0.0101188  -0.0113520  -0.0069635
    2   0.0023909  -0.0096636  -0.0024147  -0.0330764   0.0057443   0.0082613
    3  -0.0210232   0.0909878   0.0006861   0.0013587   0.0331766  -0.0244133
          157         158         159         160         161         162
    1   0.0267141   0.0039182  -0.0083031   0.0141813   0.0302842   0.0122284
    2  -0.0232488   0.0070122   0.0097877   0.0235590   0.0088257  -0.0428053
    3   0.0464626   0.0044825  -0.0164833   0.0330563  -0.0100314  -0.1010198
          163         164         165         166         167         168
    1   0.0057088   0.0028671   0.0073029   0.0174358  -0.0040951  -0.0012749
    2  -0.0072062  -0.0284158   0.0198350  -0.0019043   0.0208700  -0.0090588
    3  -0.0047997  -0.0122165  -0.0243036   0.0280134   0.0598563  -0.0009495
          169         170         171         172         173         174
    1   0.0017854   0.0004131  -0.0256980  -0.0271419   0.0080468   0.0132644
    2  -0.0193760  -0.0210706  -0.0016571   0.0675303   0.0011827  -0.0272260
    3  -0.0250550   0.0276977   0.0005425  -0.0811568   0.0045627   0.0144096
          175         176         177         178         179         180
    1   0.0180752   0.0069180  -0.0270043   0.0034155  -0.0284014   0.0087882
    2   0.0148148   0.0207982  -0.0396861  -0.0037499   0.0035980   0.0278602
    3  -0.0221518   0.0185827   0.0272642  -0.0079742  -0.0137449  -0.0137609
          181         182         183         184         185         186
    1   0.0149264  -0.0321737  -0.0065602  -0.0143720   0.0099620  -0.0199574
    2  -0.0319048   0.1042748  -0.0068786   0.0005286  -0.0289946   0.0059014
    3  -0.0025790  -0.0091369  -0.0014274  -0.0302699  -0.0000812   0.0271407
          187         188         189         190         191         192
    1   0.0176525   0.0109985   0.0284068  -0.0260930   0.0090321  -0.0502849
    2   0.0231313  -0.0032022   0.0175522  -0.0005724  -0.0287597   0.0385722
    3  -0.0340307   0.0035704   0.0010915   0.0238426  -0.0097354   0.0930289
          193         194         195         196         197         198
    1  -0.0023413  -0.0305725   0.0013946   0.0236920  -0.0250868   0.0080305
    2   0.0073193   0.0081021  -0.0148567   0.0191643  -0.0493326  -0.0022059
    3   0.0047607  -0.0068989   0.0277815   0.0011306   0.0036395   0.0021529
          199         200         201         202         203         204
    1   0.0176358   0.0090387   0.0052213  -0.0209735  -0.0068618  -0.0296994
    2   0.0068703  -0.0290941   0.0285548   0.0741544   0.0018987   0.0113383
    3   0.0298964  -0.0162726  -0.0154515  -0.0772151  -0.0031882   0.0220123
          205         206         207         208         209         210
    1  -0.0084614  -0.0135095   0.0334351  -0.0034842   0.0019446   0.0262979
    2  -0.0041904  -0.0239617  -0.0376851   0.0067775   0.0042626   0.0133703
    3  -0.0308350   0.0175572   0.0260555   0.0014357   0.0334502   0.0052969
          211         212         213         214         215         216
    1  -0.0218326   0.0202813   0.0048296   0.0344589   0.0090655  -0.0136816
    2   0.0210082   0.0337870  -0.0048521   0.0016402   0.0127916  -0.0296840
    3  -0.0083841  -0.1028577   0.0048715  -0.0048609   0.0292751   0.0039611
          217         218         219         220         221         222
    1   0.0156253  -0.0039051   0.0078811  -0.0030205  -0.0250039  -0.0150291
    2   0.0507531  -0.0019487  -0.0288665   0.0275263   0.0048698  -0.0795824
    3  -0.0127616   0.0075970   0.0170146   0.0186785  -0.0213078  -0.0749327
          223         224         225         226         227         228
    1   0.0072968  -0.0172509   0.0000393   0.0223355  -0.0462235   0.0070281
    2   0.0094952   0.0351661  -0.0117460   0.0019256  -0.0078107  -0.0060030
    3  -0.0010345   0.0017332   0.0296694  -0.0260067   0.0392655  -0.0047424
          229         230         231         232         233         234
    1   0.0154119   0.0211958  -0.0251024  -0.0251966   0.0032446  -0.0225659
    2   0.0071700  -0.0129043  -0.0185124   0.0429597  -0.0120505  -0.0125078
    3  -0.0283336   0.0235406  -0.0059190  -0.0995869  -0.0005119  -0.0171254
          235         236         237         238         239         240
    1   0.0200766   0.0215970   0.0447147  -0.0064280  -0.0050057  -0.0178773
    2  -0.0084127  -0.0228776   0.0265692  -0.0064097   0.0322755  -0.0207466
    3  -0.0214726   0.0227495   0.0137706   0.0038990   0.0062636  -0.0185952
          241         242         243         244         245         246
    1   0.0085845  -0.0686458  -0.0008779  -0.0242212   0.0189676   0.0161191
    2  -0.0189656   0.0300433  -0.0014729  -0.0005567  -0.0249468   0.0237197
    3   0.0251495  -0.0795729   0.0084444   0.0237459  -0.0001889   0.0141875
          247         248         249         250         251         252
    1   0.0436797  -0.0054811  -0.0085304  -0.0295242   0.0191501  -0.0833081
    2   0.0045654   0.0061706   0.0149723  -0.0048982   0.0302320  -0.0693727
    3  -0.0404363   0.0040087  -0.0246897   0.0156226   0.0078237  -0.0097603
          253         254         255         256         257         258
    1   0.0081339   0.0330558  -0.0037830  -0.0082831  -0.0012941  -0.0006942
    2   0.0032947   0.0044931  -0.0282694   0.0258515   0.0390490  -0.0061136
    3  -0.0077535   0.0145995  -0.0115181  -0.0149249   0.0337449   0.0046374
          259         260         261         262
    1   0.0278127  -0.0208537   0.0090791  -0.0775091
    2   0.0084531  -0.0158985  -0.0135614  -0.0467685
    3   0.0229495   0.0148868  -0.0232339  -0.0613122
  --- DONE ESP SUMMARY ---
 Total job time:  27.85s(wall), 69.75s(cpu) 
 Thu Jul 21 08:17:53 2022

        *************************************************************
        *                                                           *
        *  Thank you very much for using Q-Chem.  Have a nice day.  *
        *                                                           *
        *************************************************************


