                  Welcome to Q-Chem
     A Quantum Leap Into The Future Of Chemistry


 Q-Chem 5.2 (devel), Q-Chem, Inc., Pleasanton, CA (2019)

 Yihan Shao,  Zhengting Gan,  E. Epifanovsky,  A. T. B. Gilbert,  M. Wormit,  
 J. Kussmann,  A. W. Lange,  A. Behn,  Jia Deng,  Xintian Feng,  D. Ghosh,  
 M. Goldey,  P. R. Horn,  L. D. Jacobson,  I. Kaliman,  T. Kus,  A. Landau,  
 Jie Liu,  E. I. Proynov,  R. M. Richard,  R. P. Steele,  E. J. Sundstrom,  
 H. L. Woodcock III,  P. M. Zimmerman,  D. Zuev,  B. Alam,  B. Albrecht,  
 E. Alguire,  S. A. Baeppler,  D. Barton,  Z. Benda,  Y. A. Bernard,  
 E. J. Berquist,  K. B. Bravaya,  H. Burton,  K. Carter-Fenk,  D. Casanova,  
 Chun-Min Chang,  Yunqing Chen,  A. Chien,  K. D. Closser,  M. P. Coons,  
 S. Coriani,  S. Dasgupta,  A. L. Dempwolff,  M. Diedenhofen,  Hainam Do,  
 R. G. Edgar,  Po-Tung Fang,  S. Faraji,  S. Fatehi,  Qingguo Feng,  
 J. Fosso-Tande,  J. Gayvert,  Qinghui Ge,  A. Ghysels,  G. Gidofalvi,  
 J. Gomes,  J. Gonthier,  A. Gunina,  D. Hait,  M. W. D. Hanson-Heine,  
 P. H. P. Harbach,  A. W. Hauser,  M. F. Herbst,  J. E. Herr,  
 E. G. Hohenstein,  Z. C. Holden,  Kerwin Hui,  B. C. Huynh,  T.-C. Jagau,  
 Hyunjun Ji,  B. Kaduk,  K. Khistyaev,  Jaehoon Kim,  P. Klunzinger,  K. Koh,  
 D. Kosenkov,  L. Koulias,  T. Kowalczyk,  C. M. Krauter,  A. Kunitsa,  
 Ka Un Lao,  A. Laurent,  K. V. Lawler,  Joonho Lee,  D. Lefrancois,  
 S. Lehtola,  D. S. Levine,  Yi-Pei Li,  You-Sheng Lin,  Fenglai Liu,  
 Kuan-Yu Liu,  E. Livshits,  M. Loipersberger,  A. Luenser,  P. Manohar,  
 E. Mansoor,  S. F. Manzer,  Shan-Ping Mao,  Yuezhi Mao,  N. Mardirossian,  
 A. V. Marenich,  T. Markovich,  L. A. Martinez-Martinez,  S. A. Maurer,  
 N. J. Mayhall,  S. C. McKenzie,  J.-M. Mewes,  P. Morgante,  A. F. Morrison,  
 J. W. Mullinax,  K. Nanda,  T. S. Nguyen-Beck,  R. Olivares-Amaya,  
 J. A. Parkhill,  S. K. Paul,  F. Pavosevic,  Zheng Pei,  T. M. Perrine,  
 F. Plasser,  P. Pokhilko,  S. Prager,  A. Prociuk,  E. Ramos,  B. Rana,  
 D. R. Rehn,  F. Rob,  M. Scheurer,  M. Schneider,  N. Sergueev,  
 S. M. Sharada,  S. Sharma,  D. W. Small,  T. Stauch,  C. J. Stein,  
 T. Stein,  Yu-Chuan Su,  S. P. Veccham,  Zhen Tao,  A. J. W. Thom,  
 A. Tkatchenko,  T. Tsuchimochi,  N. M. Tubman,  L. Vogt,  M. L. Vidal,  
 O. Vydrov,  M. A. Watson,  J. Wenzel,  M. de Wergifosse,  T. A. Wesolowski,  
 A. White,  J. Witte,  A. Yamada,  Jun Yang,  K. Yao,  S. Yeganeh,  
 S. R. Yost,  Zhi-Qiang You,  A. Zech,  Igor Ying Zhang,  Xing Zhang,  
 Yan Zhao,  Ying Zhu,  B. R. Brooks,  G. K. L. Chan,  C. J. Cramer,  
 M. S. Gordon,  W. J. Hehre,  A. Klamt,  M. W. Schmidt,  C. D. Sherrill,  
 D. G. Truhlar,  A. Aspuru-Guzik,  R. Baer,  A. T. Bell,  N. A. Besley,  
 Jeng-Da Chai,  A. E. DePrince, III,  R. A. DiStasio Jr.,  A. Dreuw,  
 B. D. Dunietz,  T. R. Furlani,  Chao-Ping Hsu,  Yousung Jung,  Jing Kong,  
 D. S. Lambrecht,  WanZhen Liang,  C. Ochsenfeld,  V. A. Rassolov,  
 L. V. Slipchenko,  J. E. Subotnik,  T. Van Voorhis,  J. M. Herbert,  
 A. I. Krylov,  P. M. W. Gill,  M. Head-Gordon

 Contributors to earlier versions of Q-Chem not listed above: 
 R. D. Adamson,  B. Austin,  J. Baker,  G. J. O. Beran,  K. Brandhorst,  
 S. T. Brown,  E. F. C. Byrd,  A. K. Chakraborty,  C.-L. Cheng,  
 Siu Hung Chien,  D. M. Chipman,  D. L. Crittenden,  H. Dachsel,  
 R. J. Doerksen,  A. D. Dutoi,  L. Fusti-Molnar,  W. A. Goddard III,  
 A. Golubeva-Zadorozhnaya,  S. R. Gwaltney,  G. Hawkins,  A. Heyden,  
 S. Hirata,  G. Kedziora,  F. J. Keil,  C. Kelley,  Jihan Kim,  R. A. King,  
 R. Z. Khaliullin,  P. P. Korambath,  W. Kurlancheek,  A. M. Lee,  M. S. Lee,  
 S. V. Levchenko,  Ching Yeh Lin,  D. Liotard,  R. C. Lochan,  I. Lotan,  
 P. E. Maslen,  N. Nair,  D. P. O'Neill,  D. Neuhauser,  E. Neuscamman,  
 C. M. Oana,  R. Olson,  B. Peters,  R. Peverati,  P. A. Pieniazek,  
 Y. M. Rhee,  J. Ritchie,  M. A. Rohrdanz,  E. Rosta,  N. J. Russ,  
 H. F. Schaefer III,  N. E. Schultz,  N. Shenvi,  A. C. Simmonett,  A. Sodt,  
 D. Stuck,  K. S. Thanthiriwatte,  V. Vanovschi,  Tao Wang,  A. Warshel,  
 C. F. Williams,  Q. Wu,  X. Xu,  W. Zhang

 Please cite Q-Chem as follows:
 Y. Shao et al., Mol. Phys. 113, 184-215 (2015)
 DOI: 10.1080/00268976.2014.952696

 Q-Chem 5.2.2 for Intel X86 EM64T Linux

 Parts of Q-Chem use Armadillo 9.800.1 (Horizon Scraper).
 http://arma.sourceforge.net/

 Q-Chem begins on Fri Dec  3 12:08:47 2021  

Host: node026
0

     Scratch files written to /home/ymao90/scratch/r7.00_frame_0006_spade_B3LYP_dp20211203120846//

Checking the input file for inconsistencies... 	...done.

--------------------------------------------------------------
User input:
--------------------------------------------------------------
$molecule
0 1
--
0 1
C    19.64000   22.51600   28.88700  
C    20.50700   21.46800   29.60300  
C    21.40000   20.69800   28.61600  
C    22.29300   21.68900   27.85100  
C    21.43200   22.64600   27.01000  
C    20.52800   23.40200   27.99700  
H    22.01700   19.97500   29.16400  
H    21.09300   21.90000   30.42400  
H    18.84000   22.07300   28.28300  
H    19.13800   23.15500   29.62500  
H    23.00100   22.31700   28.40600  
H    22.88700   21.03600   27.20100  
H    22.10800   23.27900   26.42200  
H    20.82000   22.16100   26.24000  
H    21.17300   24.09200   28.55500  
H    19.93000   24.06100   27.35600  
H    20.88800   20.06000   27.88500  
N    19.65800   20.45000   30.22000  
H    18.79300   20.17000   29.77300  
C    20.00100   19.63100   31.27500  
H    19.21500   18.88800   31.49900  
O    21.08800   19.77800   31.80500  
--
0 1
C    27.30800   24.37600   29.76400  
H    27.15200   23.43700   29.22800  
H    28.21100   24.89200   29.42700  
H    27.22200   24.21500   30.84200  
S    25.78900   25.20900   29.25000  
C    26.35300   26.80700   29.87900  
H    27.24200   26.90700   29.25100  
H    25.57600   27.53500   29.63100  
H    26.51200   26.83800   30.96000  
O    24.76100   24.77700   30.24900  
C    15.96700   28.13600   29.31200  
H    15.89500   28.45800   28.27000  
H    16.82600   28.62100   29.78300  
H    15.96800   27.04900   29.42700  
S    14.51200   28.83400   30.12600  
C    14.92000   28.24300   31.78400  
H    14.13800   28.44300   32.52100  
H    15.08000   27.16600   31.68600  
H    15.83700   28.71800   32.14000  
O    13.49200   27.86400   29.61800  
C    17.84900   24.11800   23.36800  
H    17.74900   23.03900   23.22200  
H    17.52000   24.50400   24.33600  
H    17.41000   24.68900   22.54600  
S    19.65000   24.17400   23.22300  
C    19.75100   25.89700   22.68600  
H    19.16800   26.39800   23.46200  
H    20.81300   26.15400   22.70400  
H    19.34900   25.98200   21.67300  
O    19.89500   23.29200   22.03900  
C    18.13700   21.12100   19.72100  
H    17.53600   21.41900   18.85900  
H    18.23100   21.99100   20.37700  
H    19.16600   20.92300   19.40800  
S    17.30500   19.68800   20.44100  
C    15.93300   20.65600   21.10800  
H    16.22400   20.98900   22.10800  
H    15.60900   21.55800   20.58300  
H    15.11500   19.94000   21.22000  
O    18.13500   19.11900   21.55000  
C    18.15600   26.39800   32.28200  
H    17.13100   26.65000   31.99700  
H    18.73800   26.02300   31.43600  
H    18.13300   25.65900   33.08700  
S    18.88000   27.90600   32.96500  
C    17.79200   28.01000   34.40400  
H    18.07500   27.30200   35.18600  
H    17.74300   29.07300   34.65500  
H    16.76600   27.81300   34.08300  
O    18.28100   29.13200   32.35100  
C    24.26000   16.96500   27.28200  
H    25.02100   17.74100   27.16300  
H    24.72800   15.99800   27.48700  
H    23.55700   16.93000   26.44600  
S    23.25100   17.23100   28.75700  
C    24.42000   16.79700   30.06500  
H    23.88600   16.98500   31.00000  
H    24.82500   15.80500   29.84700  
H    25.29800   17.44800   30.04500  
O    22.35900   16.04200   28.58100  
C    21.36600   12.84600   30.42900  
H    21.05300   13.38700   29.53200  
H    22.45500   12.89100   30.51700  
H    21.10000   11.79400   30.29900  
S    20.71900   13.37400   32.03200  
C    21.54500   14.98000   32.06600  
H    22.57900   14.79400   32.36600  
H    21.48800   15.35700   31.04100  
H    20.98100   15.51500   32.83400  
O    21.31700   12.47800   33.07200  
C    28.72100   18.97700   25.43900  
H    29.11100   19.91900   25.83300  
H    29.56100   18.33000   25.17600  
H    28.02500   19.15300   24.61500  
S    27.99900   17.95700   26.74400  
C    29.51100   17.92600   27.73300  
H    30.36900   17.58100   27.15100  
H    29.62600   18.97000   28.03700  
H    29.39200   17.19900   28.54000  
O    28.09900   16.56300   26.20800  
C    18.45600   22.98900   35.25200  
H    19.14000   22.33400   35.79900  
H    17.52000   22.42500   35.22800  
H    18.67500   23.19700   34.20200  
S    18.22900   24.54600   36.14000  
C    18.08900   23.66800   37.71400  
H    19.09500   23.43800   38.07500  
H    17.42900   24.22900   38.38000  
H    17.61500   22.68500   37.66200  
O    16.84100   24.88700   35.69400  
C    21.43700   21.19300   37.49700  
H    21.80800   21.98000   36.83600  
H    20.91000   20.40300   36.95500  
H    20.82600   21.58500   38.31300  
S    22.97800   20.61600   38.24500  
C    23.60200   22.20900   38.82400  
H    23.60200   22.92200   37.99500  
H    22.96400   22.68500   39.57300  
H    24.60700   21.97100   39.18200  
O    23.79900   20.36400   37.01900  
C    19.28500   18.61400   34.48000  
H    19.53000   17.60700   34.13300  
H    19.22300   19.35400   33.67800  
H    20.00600   18.84900   35.26800  
S    17.70200   18.59400   35.35200  
C    16.70700   18.62700   33.84400  
H    16.69500   17.61500   33.43100  
H    15.71100   19.02300   34.05800  
H    17.09100   19.34900   33.11800  
O    17.61800   20.00900   35.83300  
C    14.95800   18.14200   29.71500  
H    13.87200   18.20600   29.60700  
H    15.38400   17.75400   28.78700  
H    15.24100   17.52200   30.56900  
S    15.66300   19.80200   29.82800  
C    14.95000   20.31200   28.24800  
H    13.90800   20.55600   28.47100  
H    15.37400   21.25700   27.90100  
H    15.06400   19.54400   27.47800  
O    17.13200   19.60700   29.61600  
C    20.81200   16.79500   24.36900  
H    20.90400   17.28200   25.34300  
H    21.79900   16.60000   23.94200  
H    20.22100   17.38700   23.66400  
S    20.10200   15.14100   24.52700  
C    21.57100   14.36900   25.24200  
H    21.58000   13.27800   25.31700  
H    22.52400   14.73000   24.84700  
H    21.50400   14.70700   26.27900  
O    20.09600   14.66700   23.10700  
C    26.02300   20.89900   29.97100  
H    26.93700   20.43400   29.59300  
H    25.29400   20.76500   29.16900  
H    26.09600   21.93700   30.30600  
S    25.52800   19.90500   31.39700  
C    24.03900   20.84000   31.81500  
H    23.33600   20.63500   31.00400  
H    23.61900   20.56600   32.78600  
H    24.36800   21.88100   31.75700  
O    26.51700   20.20000   32.48100  
C    21.56700   22.94800   33.81400  
H    20.78400   23.52200   34.31700  
H    21.27400   21.91200   33.62900  
H    22.49500   23.11100   34.36800  
S    21.72600   23.81700   32.23800  
C    21.86300   25.51000   32.85600  
H    21.58300   26.13600   32.00500  
H    21.14300   25.62600   33.67000  
H    22.83500   25.87900   33.19600  
O    20.28300   23.87500   31.84400  
C    22.31200   28.56600   27.74700  
H    23.28000   29.01600   27.97900  
H    22.29800   28.06000   26.77800  
H    21.56400   29.36100   27.68500  
S    21.87400   27.43100   29.08300  
C    20.28100   26.92700   28.39500  
H    19.75200   27.88000   28.31600  
H    20.41400   26.46000   27.41600  
H    19.78000   26.27200   29.11200  
O    21.25500   28.25800   30.16600  
C    18.06800   13.67700   34.75500  
H    18.22800   12.76700   34.17200  
H    19.00900   14.21000   34.91700  
H    17.65000   13.32600   35.70200  
S    17.03200   14.76500   33.75000  
C    16.21600   13.50200   32.74800  
H    15.61500   13.98200   31.97200  
H    17.04000   12.88400   32.38300  
H    15.49900   12.94600   33.35800  
O    18.01800   15.39600   32.81700  
C    22.68500   17.91600   34.91600  
H    21.75000   17.37600   34.74400  
H    22.60600   18.49500   35.84000  
H    22.96400   18.50500   34.03900  
S    23.98700   16.69200   35.18200  
C    25.38400   17.83800   35.19100  
H    25.63800   18.37400   34.27300  
H    25.28800   18.58900   35.97900  
H    26.20500   17.15900   35.43600  
O    24.13000   16.02300   33.85000  
C    24.40100   29.94000   31.28000  
H    25.11200   30.54200   31.85100  
H    24.94500   29.56500   30.41000  
H    23.48400   30.47500   31.01800  
S    23.91200   28.48400   32.23300  
C    22.95400   29.38800   33.47000  
H    22.57200   28.62400   34.15200  
H    23.73900   29.99500   33.92700  
H    22.16600   29.98900   33.01000  
O    25.24500   28.23700   32.86900  
C    25.12500   26.84800   24.71600  
H    25.40600   27.41200   23.82400  
H    24.91800   27.52400   25.55000  
H    25.84000   26.05800   24.95700  
S    23.59700   25.96100   24.33900  
C    24.35500   24.63100   23.38000  
H    24.44100   24.87600   22.31800  
H    25.32600   24.39200   23.82200  
H    23.76500   23.71100   23.37200  
O    22.89800   26.84300   23.35200  
C    24.11900   19.67000   21.60400  
H    24.87800   19.06500   22.10800  
H    24.10700   19.54400   20.51800  
H    24.22700   20.72900   21.85000  
S    22.55500   19.16900   22.35700  
C    21.76700   20.66900   21.72800  
H    20.68000   20.65900   21.84500  
H    22.08000   21.60400   22.19800  
H    21.91300   20.64800   20.64500  
O    22.83600   19.52000   23.78500  
C    18.17200   30.26700   24.08900  
H    18.68600   31.13600   23.67000  
H    17.95300   29.47400   23.37000  
H    17.32000   30.66700   24.64600  
S    19.31100   29.31800   25.12200  
C    20.53600   29.10100   23.81000  
H    20.11100   28.90400   22.82300  
H    21.20400   29.96500   23.76400  
H    21.17600   28.28200   24.14700  
O    18.73000   27.93900   25.15500  
C    25.79000   21.08800   24.69900  
H    24.76100   21.45500   24.74400  
H    26.11600   20.67500   23.74100  
H    25.71200   20.25300   25.40000  
S    26.92200   22.25500   25.48600  
C    25.74800   22.88700   26.70600  
H    25.50800   22.13400   27.46000  
H    26.20200   23.69900   27.28000  
H    24.87600   23.22400   26.13900  
O    27.22800   23.34900   24.51100  
C    16.71100   23.51800   26.88000  
H    15.88400   22.93300   26.46800  
H    17.59200   23.38900   26.24700  
H    17.07300   23.29200   27.88600  
S    15.98800   25.17400   26.87100  
C    14.86400   24.81900   28.24100  
H    14.17500   25.65000   28.40900  
H    14.16400   24.00800   28.02500  
H    15.43800   24.59400   29.14300  
O    15.12700   25.06500   25.65100  
C    17.39400   14.76300   29.54200  
H    16.81000   15.68400   29.62600  
H    16.83800   13.90400   29.15800  
H    17.85400   14.41400   30.47000  
S    18.72300   15.03300   28.34900  
C    19.16100   16.62900   29.07500  
H    19.45700   16.43900   30.10900  
H    19.97100   17.08600   28.50100  
H    18.33700   17.34700   29.04500  
O    17.95000   15.47300   27.14400  
C    17.21400   22.89000   31.56900  
H    16.69500   22.79500   30.61100  
H    18.02600   23.59400   31.36900  
H    17.61600   21.95700   31.97100  
S    15.94700   23.63800   32.61900  
C    14.77800   22.26400   32.52400  
H    14.18800   22.39400   31.61300  
H    15.38100   21.35400   32.47700  
H    14.03000   22.29400   33.32100  
O    15.22700   24.59800   31.72400  
C    18.63600   20.69200   24.54600  
H    18.75000   21.76500   24.71900  
H    19.63300   20.25400   24.64500  
H    18.17000   20.46900   23.58300  
S    17.55500   19.89600   25.75600  
C    17.47600   18.24700   25.02300  
H    16.96200   17.46900   25.59500  
H    17.01400   18.34700   24.03700  
H    18.53300   18.04900   24.83000  
O    16.21100   20.36000   25.28600  
$end

$rem
JOBTYPE  SP
METHOD  B3LYP
BASIS  6-31+G(D)
SYMMETRY  FALSE
SYM_IGNORE  TRUE
MEM_TOTAL  16000
MEM_STATIC  8000
MAX_SUB_FILE_NUM  16000
BASIS_LIN_DEP_THRESH  6
THRESH  14
SCF_CONVERGENCE  8
GEN_SCFMAN  TRUE
SCF_GUESS  SAD
FD_MAT_VEC_PROD  FALSE
XC_GRID  000075000302
NL_GRID  1
MAX_SCF_CYCLES  200
ENV_METHOD  B3LYP
GEN_SCFMAN_EMBED  TRUE
SPADE_PARTITION  TRUE
$end

$development
embedding_early_stop  1
$end

--------------------------------------------------------------
 ----------------------------------------------------------------
             Standard Nuclear Orientation (Angstroms)
    I     Atom           X                Y                Z
 ----------------------------------------------------------------
    1      C      19.6400000000    22.5160000000    28.8870000000
    2      C      20.5070000000    21.4680000000    29.6030000000
    3      C      21.4000000000    20.6980000000    28.6160000000
    4      C      22.2930000000    21.6890000000    27.8510000000
    5      C      21.4320000000    22.6460000000    27.0100000000
    6      C      20.5280000000    23.4020000000    27.9970000000
    7      H      22.0170000000    19.9750000000    29.1640000000
    8      H      21.0930000000    21.9000000000    30.4240000000
    9      H      18.8400000000    22.0730000000    28.2830000000
   10      H      19.1380000000    23.1550000000    29.6250000000
   11      H      23.0010000000    22.3170000000    28.4060000000
   12      H      22.8870000000    21.0360000000    27.2010000000
   13      H      22.1080000000    23.2790000000    26.4220000000
   14      H      20.8200000000    22.1610000000    26.2400000000
   15      H      21.1730000000    24.0920000000    28.5550000000
   16      H      19.9300000000    24.0610000000    27.3560000000
   17      H      20.8880000000    20.0600000000    27.8850000000
   18      N      19.6580000000    20.4500000000    30.2200000000
   19      H      18.7930000000    20.1700000000    29.7730000000
   20      C      20.0010000000    19.6310000000    31.2750000000
   21      H      19.2150000000    18.8880000000    31.4990000000
   22      O      21.0880000000    19.7780000000    31.8050000000
   23      C      27.3080000000    24.3760000000    29.7640000000
   24      H      27.1520000000    23.4370000000    29.2280000000
   25      H      28.2110000000    24.8920000000    29.4270000000
   26      H      27.2220000000    24.2150000000    30.8420000000
   27      S      25.7890000000    25.2090000000    29.2500000000
   28      C      26.3530000000    26.8070000000    29.8790000000
   29      H      27.2420000000    26.9070000000    29.2510000000
   30      H      25.5760000000    27.5350000000    29.6310000000
   31      H      26.5120000000    26.8380000000    30.9600000000
   32      O      24.7610000000    24.7770000000    30.2490000000
   33      C      15.9670000000    28.1360000000    29.3120000000
   34      H      15.8950000000    28.4580000000    28.2700000000
   35      H      16.8260000000    28.6210000000    29.7830000000
   36      H      15.9680000000    27.0490000000    29.4270000000
   37      S      14.5120000000    28.8340000000    30.1260000000
   38      C      14.9200000000    28.2430000000    31.7840000000
   39      H      14.1380000000    28.4430000000    32.5210000000
   40      H      15.0800000000    27.1660000000    31.6860000000
   41      H      15.8370000000    28.7180000000    32.1400000000
   42      O      13.4920000000    27.8640000000    29.6180000000
   43      C      17.8490000000    24.1180000000    23.3680000000
   44      H      17.7490000000    23.0390000000    23.2220000000
   45      H      17.5200000000    24.5040000000    24.3360000000
   46      H      17.4100000000    24.6890000000    22.5460000000
   47      S      19.6500000000    24.1740000000    23.2230000000
   48      C      19.7510000000    25.8970000000    22.6860000000
   49      H      19.1680000000    26.3980000000    23.4620000000
   50      H      20.8130000000    26.1540000000    22.7040000000
   51      H      19.3490000000    25.9820000000    21.6730000000
   52      O      19.8950000000    23.2920000000    22.0390000000
   53      C      18.1370000000    21.1210000000    19.7210000000
   54      H      17.5360000000    21.4190000000    18.8590000000
   55      H      18.2310000000    21.9910000000    20.3770000000
   56      H      19.1660000000    20.9230000000    19.4080000000
   57      S      17.3050000000    19.6880000000    20.4410000000
   58      C      15.9330000000    20.6560000000    21.1080000000
   59      H      16.2240000000    20.9890000000    22.1080000000
   60      H      15.6090000000    21.5580000000    20.5830000000
   61      H      15.1150000000    19.9400000000    21.2200000000
   62      O      18.1350000000    19.1190000000    21.5500000000
   63      C      18.1560000000    26.3980000000    32.2820000000
   64      H      17.1310000000    26.6500000000    31.9970000000
   65      H      18.7380000000    26.0230000000    31.4360000000
   66      H      18.1330000000    25.6590000000    33.0870000000
   67      S      18.8800000000    27.9060000000    32.9650000000
   68      C      17.7920000000    28.0100000000    34.4040000000
   69      H      18.0750000000    27.3020000000    35.1860000000
   70      H      17.7430000000    29.0730000000    34.6550000000
   71      H      16.7660000000    27.8130000000    34.0830000000
   72      O      18.2810000000    29.1320000000    32.3510000000
   73      C      24.2600000000    16.9650000000    27.2820000000
   74      H      25.0210000000    17.7410000000    27.1630000000
   75      H      24.7280000000    15.9980000000    27.4870000000
   76      H      23.5570000000    16.9300000000    26.4460000000
   77      S      23.2510000000    17.2310000000    28.7570000000
   78      C      24.4200000000    16.7970000000    30.0650000000
   79      H      23.8860000000    16.9850000000    31.0000000000
   80      H      24.8250000000    15.8050000000    29.8470000000
   81      H      25.2980000000    17.4480000000    30.0450000000
   82      O      22.3590000000    16.0420000000    28.5810000000
   83      C      21.3660000000    12.8460000000    30.4290000000
   84      H      21.0530000000    13.3870000000    29.5320000000
   85      H      22.4550000000    12.8910000000    30.5170000000
   86      H      21.1000000000    11.7940000000    30.2990000000
   87      S      20.7190000000    13.3740000000    32.0320000000
   88      C      21.5450000000    14.9800000000    32.0660000000
   89      H      22.5790000000    14.7940000000    32.3660000000
   90      H      21.4880000000    15.3570000000    31.0410000000
   91      H      20.9810000000    15.5150000000    32.8340000000
   92      O      21.3170000000    12.4780000000    33.0720000000
   93      C      28.7210000000    18.9770000000    25.4390000000
   94      H      29.1110000000    19.9190000000    25.8330000000
   95      H      29.5610000000    18.3300000000    25.1760000000
   96      H      28.0250000000    19.1530000000    24.6150000000
   97      S      27.9990000000    17.9570000000    26.7440000000
   98      C      29.5110000000    17.9260000000    27.7330000000
   99      H      30.3690000000    17.5810000000    27.1510000000
  100      H      29.6260000000    18.9700000000    28.0370000000
  101      H      29.3920000000    17.1990000000    28.5400000000
  102      O      28.0990000000    16.5630000000    26.2080000000
  103      C      18.4560000000    22.9890000000    35.2520000000
  104      H      19.1400000000    22.3340000000    35.7990000000
  105      H      17.5200000000    22.4250000000    35.2280000000
  106      H      18.6750000000    23.1970000000    34.2020000000
  107      S      18.2290000000    24.5460000000    36.1400000000
  108      C      18.0890000000    23.6680000000    37.7140000000
  109      H      19.0950000000    23.4380000000    38.0750000000
  110      H      17.4290000000    24.2290000000    38.3800000000
  111      H      17.6150000000    22.6850000000    37.6620000000
  112      O      16.8410000000    24.8870000000    35.6940000000
  113      C      21.4370000000    21.1930000000    37.4970000000
  114      H      21.8080000000    21.9800000000    36.8360000000
  115      H      20.9100000000    20.4030000000    36.9550000000
  116      H      20.8260000000    21.5850000000    38.3130000000
  117      S      22.9780000000    20.6160000000    38.2450000000
  118      C      23.6020000000    22.2090000000    38.8240000000
  119      H      23.6020000000    22.9220000000    37.9950000000
  120      H      22.9640000000    22.6850000000    39.5730000000
  121      H      24.6070000000    21.9710000000    39.1820000000
  122      O      23.7990000000    20.3640000000    37.0190000000
  123      C      19.2850000000    18.6140000000    34.4800000000
  124      H      19.5300000000    17.6070000000    34.1330000000
  125      H      19.2230000000    19.3540000000    33.6780000000
  126      H      20.0060000000    18.8490000000    35.2680000000
  127      S      17.7020000000    18.5940000000    35.3520000000
  128      C      16.7070000000    18.6270000000    33.8440000000
  129      H      16.6950000000    17.6150000000    33.4310000000
  130      H      15.7110000000    19.0230000000    34.0580000000
  131      H      17.0910000000    19.3490000000    33.1180000000
  132      O      17.6180000000    20.0090000000    35.8330000000
  133      C      14.9580000000    18.1420000000    29.7150000000
  134      H      13.8720000000    18.2060000000    29.6070000000
  135      H      15.3840000000    17.7540000000    28.7870000000
  136      H      15.2410000000    17.5220000000    30.5690000000
  137      S      15.6630000000    19.8020000000    29.8280000000
  138      C      14.9500000000    20.3120000000    28.2480000000
  139      H      13.9080000000    20.5560000000    28.4710000000
  140      H      15.3740000000    21.2570000000    27.9010000000
  141      H      15.0640000000    19.5440000000    27.4780000000
  142      O      17.1320000000    19.6070000000    29.6160000000
  143      C      20.8120000000    16.7950000000    24.3690000000
  144      H      20.9040000000    17.2820000000    25.3430000000
  145      H      21.7990000000    16.6000000000    23.9420000000
  146      H      20.2210000000    17.3870000000    23.6640000000
  147      S      20.1020000000    15.1410000000    24.5270000000
  148      C      21.5710000000    14.3690000000    25.2420000000
  149      H      21.5800000000    13.2780000000    25.3170000000
  150      H      22.5240000000    14.7300000000    24.8470000000
  151      H      21.5040000000    14.7070000000    26.2790000000
  152      O      20.0960000000    14.6670000000    23.1070000000
  153      C      26.0230000000    20.8990000000    29.9710000000
  154      H      26.9370000000    20.4340000000    29.5930000000
  155      H      25.2940000000    20.7650000000    29.1690000000
  156      H      26.0960000000    21.9370000000    30.3060000000
  157      S      25.5280000000    19.9050000000    31.3970000000
  158      C      24.0390000000    20.8400000000    31.8150000000
  159      H      23.3360000000    20.6350000000    31.0040000000
  160      H      23.6190000000    20.5660000000    32.7860000000
  161      H      24.3680000000    21.8810000000    31.7570000000
  162      O      26.5170000000    20.2000000000    32.4810000000
  163      C      21.5670000000    22.9480000000    33.8140000000
  164      H      20.7840000000    23.5220000000    34.3170000000
  165      H      21.2740000000    21.9120000000    33.6290000000
  166      H      22.4950000000    23.1110000000    34.3680000000
  167      S      21.7260000000    23.8170000000    32.2380000000
  168      C      21.8630000000    25.5100000000    32.8560000000
  169      H      21.5830000000    26.1360000000    32.0050000000
  170      H      21.1430000000    25.6260000000    33.6700000000
  171      H      22.8350000000    25.8790000000    33.1960000000
  172      O      20.2830000000    23.8750000000    31.8440000000
  173      C      22.3120000000    28.5660000000    27.7470000000
  174      H      23.2800000000    29.0160000000    27.9790000000
  175      H      22.2980000000    28.0600000000    26.7780000000
  176      H      21.5640000000    29.3610000000    27.6850000000
  177      S      21.8740000000    27.4310000000    29.0830000000
  178      C      20.2810000000    26.9270000000    28.3950000000
  179      H      19.7520000000    27.8800000000    28.3160000000
  180      H      20.4140000000    26.4600000000    27.4160000000
  181      H      19.7800000000    26.2720000000    29.1120000000
  182      O      21.2550000000    28.2580000000    30.1660000000
  183      C      18.0680000000    13.6770000000    34.7550000000
  184      H      18.2280000000    12.7670000000    34.1720000000
  185      H      19.0090000000    14.2100000000    34.9170000000
  186      H      17.6500000000    13.3260000000    35.7020000000
  187      S      17.0320000000    14.7650000000    33.7500000000
  188      C      16.2160000000    13.5020000000    32.7480000000
  189      H      15.6150000000    13.9820000000    31.9720000000
  190      H      17.0400000000    12.8840000000    32.3830000000
  191      H      15.4990000000    12.9460000000    33.3580000000
  192      O      18.0180000000    15.3960000000    32.8170000000
  193      C      22.6850000000    17.9160000000    34.9160000000
  194      H      21.7500000000    17.3760000000    34.7440000000
  195      H      22.6060000000    18.4950000000    35.8400000000
  196      H      22.9640000000    18.5050000000    34.0390000000
  197      S      23.9870000000    16.6920000000    35.1820000000
  198      C      25.3840000000    17.8380000000    35.1910000000
  199      H      25.6380000000    18.3740000000    34.2730000000
  200      H      25.2880000000    18.5890000000    35.9790000000
  201      H      26.2050000000    17.1590000000    35.4360000000
  202      O      24.1300000000    16.0230000000    33.8500000000
  203      C      24.4010000000    29.9400000000    31.2800000000
  204      H      25.1120000000    30.5420000000    31.8510000000
  205      H      24.9450000000    29.5650000000    30.4100000000
  206      H      23.4840000000    30.4750000000    31.0180000000
  207      S      23.9120000000    28.4840000000    32.2330000000
  208      C      22.9540000000    29.3880000000    33.4700000000
  209      H      22.5720000000    28.6240000000    34.1520000000
  210      H      23.7390000000    29.9950000000    33.9270000000
  211      H      22.1660000000    29.9890000000    33.0100000000
  212      O      25.2450000000    28.2370000000    32.8690000000
  213      C      25.1250000000    26.8480000000    24.7160000000
  214      H      25.4060000000    27.4120000000    23.8240000000
  215      H      24.9180000000    27.5240000000    25.5500000000
  216      H      25.8400000000    26.0580000000    24.9570000000
  217      S      23.5970000000    25.9610000000    24.3390000000
  218      C      24.3550000000    24.6310000000    23.3800000000
  219      H      24.4410000000    24.8760000000    22.3180000000
  220      H      25.3260000000    24.3920000000    23.8220000000
  221      H      23.7650000000    23.7110000000    23.3720000000
  222      O      22.8980000000    26.8430000000    23.3520000000
  223      C      24.1190000000    19.6700000000    21.6040000000
  224      H      24.8780000000    19.0650000000    22.1080000000
  225      H      24.1070000000    19.5440000000    20.5180000000
  226      H      24.2270000000    20.7290000000    21.8500000000
  227      S      22.5550000000    19.1690000000    22.3570000000
  228      C      21.7670000000    20.6690000000    21.7280000000
  229      H      20.6800000000    20.6590000000    21.8450000000
  230      H      22.0800000000    21.6040000000    22.1980000000
  231      H      21.9130000000    20.6480000000    20.6450000000
  232      O      22.8360000000    19.5200000000    23.7850000000
  233      C      18.1720000000    30.2670000000    24.0890000000
  234      H      18.6860000000    31.1360000000    23.6700000000
  235      H      17.9530000000    29.4740000000    23.3700000000
  236      H      17.3200000000    30.6670000000    24.6460000000
  237      S      19.3110000000    29.3180000000    25.1220000000
  238      C      20.5360000000    29.1010000000    23.8100000000
  239      H      20.1110000000    28.9040000000    22.8230000000
  240      H      21.2040000000    29.9650000000    23.7640000000
  241      H      21.1760000000    28.2820000000    24.1470000000
  242      O      18.7300000000    27.9390000000    25.1550000000
  243      C      25.7900000000    21.0880000000    24.6990000000
  244      H      24.7610000000    21.4550000000    24.7440000000
  245      H      26.1160000000    20.6750000000    23.7410000000
  246      H      25.7120000000    20.2530000000    25.4000000000
  247      S      26.9220000000    22.2550000000    25.4860000000
  248      C      25.7480000000    22.8870000000    26.7060000000
  249      H      25.5080000000    22.1340000000    27.4600000000
  250      H      26.2020000000    23.6990000000    27.2800000000
  251      H      24.8760000000    23.2240000000    26.1390000000
  252      O      27.2280000000    23.3490000000    24.5110000000
  253      C      16.7110000000    23.5180000000    26.8800000000
  254      H      15.8840000000    22.9330000000    26.4680000000
  255      H      17.5920000000    23.3890000000    26.2470000000
  256      H      17.0730000000    23.2920000000    27.8860000000
  257      S      15.9880000000    25.1740000000    26.8710000000
  258      C      14.8640000000    24.8190000000    28.2410000000
  259      H      14.1750000000    25.6500000000    28.4090000000
  260      H      14.1640000000    24.0080000000    28.0250000000
  261      H      15.4380000000    24.5940000000    29.1430000000
  262      O      15.1270000000    25.0650000000    25.6510000000
  263      C      17.3940000000    14.7630000000    29.5420000000
  264      H      16.8100000000    15.6840000000    29.6260000000
  265      H      16.8380000000    13.9040000000    29.1580000000
  266      H      17.8540000000    14.4140000000    30.4700000000
  267      S      18.7230000000    15.0330000000    28.3490000000
  268      C      19.1610000000    16.6290000000    29.0750000000
  269      H      19.4570000000    16.4390000000    30.1090000000
  270      H      19.9710000000    17.0860000000    28.5010000000
  271      H      18.3370000000    17.3470000000    29.0450000000
  272      O      17.9500000000    15.4730000000    27.1440000000
  273      C      17.2140000000    22.8900000000    31.5690000000
  274      H      16.6950000000    22.7950000000    30.6110000000
  275      H      18.0260000000    23.5940000000    31.3690000000
  276      H      17.6160000000    21.9570000000    31.9710000000
  277      S      15.9470000000    23.6380000000    32.6190000000
  278      C      14.7780000000    22.2640000000    32.5240000000
  279      H      14.1880000000    22.3940000000    31.6130000000
  280      H      15.3810000000    21.3540000000    32.4770000000
  281      H      14.0300000000    22.2940000000    33.3210000000
  282      O      15.2270000000    24.5980000000    31.7240000000
  283      C      18.6360000000    20.6920000000    24.5460000000
  284      H      18.7500000000    21.7650000000    24.7190000000
  285      H      19.6330000000    20.2540000000    24.6450000000
  286      H      18.1700000000    20.4690000000    23.5830000000
  287      S      17.5550000000    19.8960000000    25.7560000000
  288      C      17.4760000000    18.2470000000    25.0230000000
  289      H      16.9620000000    17.4690000000    25.5950000000
  290      H      17.0140000000    18.3470000000    24.0370000000
  291      H      18.5330000000    18.0490000000    24.8300000000
  292      O      16.2110000000    20.3600000000    25.2860000000
 ----------------------------------------------------------------
 Nuclear Repulsion Energy =       47806.26702241 hartrees
 There are      602 alpha and      602 beta electrons
 Requested basis set is 6-31+G(d)
 There are 962 shells and 2681 basis functions

 Total QAlloc Memory Limit  16000 MB
 Mega-Array Size      7821 MB
 MEM_STATIC part      8000 MB
 A cutoff of  1.0D-14 yielded 174835 shell pairs
 There are   1517891 function pairs
 Smallest overlap matrix eigenvalue = 5.64E-07
 Linear dependence detected in AO basis
 Tighter screening thresholds may be required for diffuse basis sets
 Use S2THRESH > 14 and THRESH = 14 in case of SCF convergence issues
 Number of orthogonalized atomic orbitals = 2679
 Maximum deviation from orthogonality = 1.388E-10

 Scale SEOQF with 1.000000e-03/1.000000e-03/1.000000e-03

 Standard Electronic Orientation quadrupole field applied
 Nucleus-field energy     =    -0.0000005162 hartrees
 Guess from superposition of atomic densities
 Warning:  Energy on first SCF cycle will be non-variational
 SAD guess density has 1204.000002 electrons

 -----------------------------------------------------------------------
  General SCF calculation program by
  Eric Jon Sundstrom, Paul Horn, Yuezhi Mao, Dmitri Zuev, Alec White,
  David Stuck, Shaama M.S., Shane Yost, Joonho Lee, David Small,
  Daniel Levine, Susi Lehtola, Hugh Burton, Evgeny Epifanovsky,
  Bang C. Huynh
 -----------------------------------------------------------------------
=================================================
        Doing projection-based embedding         
      F. Manby et al. JCTC, 8, 2564 (2012)       
=================================================

****************************************************
   Low-level SCF calculation for the whole system   
****************************************************
----------------------------------------------
 Summary of the low-level theory: 
 Exchange:     0.2000 Hartree-Fock + 0.0800 Slater + 0.7200 B88
 Correlation:  0.1900 VWN1RPA + 0.8100 LYP
 Using Euler-Maclaurin-Lebedev (75,302) quadrature formula
----------------------------------------------
 using 16 threads for integral computing
 -------------------------------------------------------
 OpenMP Integral computing Module                
 Release: version 2.0, May 2017, Q-Chem Inc. Pleasanton 
 -------------------------------------------------------
 A restricted SCF calculation will be
 performed using DIIS
 SCF converges when DIIS error is below 1.0e-08
 ---------------------------------------
  Cycle       Energy         DIIS error
 ---------------------------------------
    1  -15359.9293378952      1.35e-02  
    2  -15335.8200516000      2.52e-03  
    3  -15318.3878266318      5.12e-03  
    4  -15339.3768493993      1.23e-03  
    5  -15340.7037897475      1.96e-04  
    6  -15340.7178288164      1.77e-04  
    7  -15340.7383964950      6.36e-05  
    8  -15340.7413786289      1.47e-05  
    9  -15340.7415293354      6.25e-06  
   10  -15340.7415566566      2.24e-06  
   11  -15340.7415600292      6.52e-07  
   12  -15340.7415603155      2.51e-07  
   13  -15340.7415603620      6.68e-08  
   14  -15340.7415603650      3.39e-08  
   15  -15340.7415603658      8.93e-09  Convergence criterion met
 ---------------------------------------
 SCF time:   CPU 181610.04s  wall 11483.00s 
 SCF   energy in the final basis set =   -15340.7415603658
 Total energy in the final basis set =   -15340.7415603658

****************************************************
             Start embedding calculation            
****************************************************
----------------------------------------------
 Summary of the high-level theory: 
 Exchange:     0.2000 Hartree-Fock + 0.0800 Slater + 0.7200 B88
 Correlation:  0.1900 VWN1RPA + 0.8100 LYP
 Using Euler-Maclaurin-Lebedev (75,302) quadrature formula
----------------------------------------------
Doing R-in-R Embedding Calculation
Number of fragments: 2
Embedded fragment(s): 1 
NOcc for each fragment
           35
          567
NBasis for each fragment
          197
         2484
Variational space of the embedded problem: 
NOcc (active)  = 35
NOcc (fixed)   = 567
NVir (total)   = 2077
Read converged orbitals from disk
=========================================================
       Doing SPADE partition for the orbital space       
     D. CLaudino and N. Mayhall JCTC 15, 1053 (2019)     
=========================================================
SPADE singular values:
 1.0000 1.0000 1.0000 1.0000 1.0000 1.0000 1.0000 1.0000 1.0000 0.9999
 0.9998 0.9997 0.9997 0.9997 0.9995 0.9994 0.9993 0.9992 0.9982 0.9978
 0.9973 0.9971 0.9968 0.9961 0.9958 0.9952 0.9944 0.9940 0.9937 0.9920
 0.9916 0.9903 0.9896 0.9876 0.9793 0.2143 0.1906 0.1771 0.1591 0.1487
 0.1380 0.1318 0.1245 0.1132 0.0965 0.0955 0.0856 0.0771 0.0752 0.0646
 0.0596 0.0559 0.0500 0.0482 0.0428 0.0407 0.0382 0.0342 0.0330 0.0320
 0.0287 0.0261 0.0255 0.0244 0.0212 0.0204 0.0199 0.0186 0.0172 0.0165
 0.0156 0.0148 0.0145 0.0136 0.0125 0.0120 0.0109 0.0098 0.0093 0.0092
 0.0091 0.0088 0.0084 0.0079 0.0074 0.0067 0.0065 0.0062 0.0060 0.0056
 0.0054 0.0051 0.0050 0.0048 0.0046 0.0044 0.0041 0.0039 0.0037 0.0035
 0.0033 0.0032 0.0030 0.0030 0.0028 0.0027 0.0025 0.0025 0.0023 0.0022
 0.0021 0.0020 0.0020 0.0018 0.0017 0.0017 0.0016 0.0016 0.0015 0.0015
 0.0014 0.0013 0.0013 0.0013 0.0012 0.0011 0.0011 0.0011 0.0010 0.0010
 0.0010 0.0010 0.0009 0.0009 0.0008 0.0008 0.0008 0.0008 0.0007 0.0007
 0.0007 0.0007 0.0006 0.0006 0.0006 0.0006 0.0005 0.0005 0.0004 0.0004
 0.0004 0.0004 0.0004 0.0004 0.0003 0.0003 0.0003 0.0003 0.0003 0.0003
 0.0003 0.0003 0.0002 0.0002 0.0002 0.0002 0.0002 0.0002 0.0002 0.0002
 0.0002 0.0002 0.0002 0.0002 0.0002 0.0001 0.0001 0.0001 0.0001 0.0001
 0.0001 0.0001 0.0001 0.0001 0.0001 0.0001 0.0001 0.0001 0.0001 0.0001
 0.0001 0.0001 0.0001 0.0001 0.0001 0.0001 0.0000
Early stop requested!
567 environment occs will be part of frozen-core in future post-HF calculations
 
 --------------------------------------------------------------
 
                    Orbital Energies (a.u.)
 --------------------------------------------------------------
 
 Alpha MOs
 -- Occupied --
 -0.5643  -0.5513  -0.4956  -0.5003  -0.4828  -0.4811  -0.4330  -0.5112
 -0.4068  -0.4663  -0.4470  -0.4910  -0.4008  -0.4426  -0.4704  -0.4423
 -0.4859  -0.4402  -0.4458  -0.5258  -0.4767  -0.6109  -0.4429  -0.6230
 -0.5714  -0.4637  -0.5844  -0.5382  -0.5608  -0.5311  -0.6395  -0.5698
 -0.5819  -0.5149  -0.5216  -0.5066  -0.6314  -0.4847  -0.5737  -0.6177
 -0.5802  -0.4925  -0.5664  -0.5519  -0.5343  -0.5536  -0.6475  -0.5932
 -0.6367  -0.5576  -0.5336  -0.5806  -0.6780  -0.6464  -0.6417  -0.6134
 -0.7431  -0.6808  -0.6050  -0.6295  -1.0512  -0.6254  -0.7108  -0.6711
 -1.0214  -1.0246  -0.8172  -0.6888  -0.7277  -1.4392  -1.2418  -1.1677
 -0.8429  -1.3843  -1.0153  -0.9295  -0.9892  -1.1059  -1.3023  -1.4959
 -1.0850  -1.2533  -0.9935  -2.3718  -1.5509  -1.1725  -1.3462  -2.9955
 -1.4639  -1.4717  -1.0603  -1.0138  -1.1679  -1.9752  -1.0348  -0.9981
 -1.6179  -2.0438  -1.0472  -1.0798  -1.8025  -1.8984  -3.7527  -1.0942
 -1.5600  -1.3228  -1.3548  -1.1036  -1.4741  -1.2891  -1.1888  -1.0486
 -1.5140  -1.3040  -1.3642  -1.1417  -1.0888  -1.3197  -1.5171  -1.2219
 -1.2303  -1.5758  -1.2694  -1.3494  -1.8820  -2.1514  -1.4779  -1.6580
 -1.2449  -1.9507  -1.6990  -1.2145  -1.8128  -1.2307  -1.2236  -1.5972
 -1.3764  -1.5352  -1.7059  -1.6872  -1.5350  -1.2703  -1.3664  -1.5904
 -1.5125  -1.4611  -1.9102  -1.8179  -2.4473  -1.9750  -2.0420  -1.8342
 -1.6020  -2.0589  -1.9019  -1.8147  -1.8730  -1.6948  -1.9083  -1.3035
 -2.4675  -2.2611  -5.9534  -5.9252  -5.9939  -5.9441  -5.9637  -6.0122
 -5.9682  -5.9751  -6.0133  -5.9425  -5.9502  -5.9727  -5.7907  -5.9214
 -5.9315  -5.7881  -6.0223  -6.0000  -5.9713  -5.9453  -6.0044  -5.9927
 -5.9833  -5.9666  -5.9808  -6.0022  -5.9733  -5.9606 -19.5743  -4.4045
 -1.9081 -26.3100  -4.8154  -1.2461  -3.8346  -3.6051  -1.2902 -31.4882
 -8.5657  -1.8376  -5.4290  -2.2141  -9.6089  -5.8239  -1.7011  -2.5295
 -4.8934  -7.2573  -3.7804  -1.9684  -8.5246  -2.3708  -1.8946  -6.6335
 -1.5029  -1.9215 -74.9875  -9.0349 -76.1304  -5.7519 -14.8951  -1.0431
 -2.1804  -5.2884  -1.3093  -5.3354 -11.2484  -1.7401 -10.3914  -2.3891
 -4.4033 -12.4933  -1.7983  -1.3377  -8.6186  -5.3723 -13.2842  -4.5868
 -2.8021  -2.7808  -2.3430 -13.3134 -19.7402  -1.9081  -1.1357  -7.6111
 -1.1432 -75.6059  -5.3513  -1.0396 -73.1702  -2.4710  -2.6162  -5.7062
 -6.2899 -11.7033 -10.7756 -13.6858  -1.8442  -8.3582  -1.4537  -5.0263
-19.8742  -2.4470  -0.9362  -4.4585  -3.4605  -7.3817  -7.3722  -3.2453
 -2.3825 -16.2594  -2.0909  -1.6301 -61.3501  -7.2722  -1.2811 -11.8493
 -1.8837  -3.9038  -2.2993  -4.2115  -6.7727 -53.7665  -8.1020 -18.2661
-13.3933  -1.8220  -4.2073  -8.8812  -1.1781  -9.9527  -1.9737 -17.6464
 -6.3882  -2.4725  -8.8744  -2.7664  -6.7297 -11.0351  -1.9739  -1.5015
 -4.0026 -54.5733 -55.2389 -64.5359  -7.2796  -1.8443  -5.1376  -2.2740
 -3.7457 -10.2766  -4.4494  -3.8843  -7.7845 -12.5396 -18.0174  -1.1156
-13.5195 -12.6591 -14.2055  -1.4736 -12.2974  -4.0025  -6.1348 -28.0301
-11.7425  -8.5412 -13.6080  -6.6445  -7.0679  -3.4998  -8.6318  -6.9855
-13.7115  -2.7541 -11.7026  -1.3674  -5.6765  -9.8486  -5.5721  -3.8934
 -9.3495  -4.6799  -5.5978  -6.9248 -10.5742  -9.3033  -4.0672  -7.9095
-10.4640 -14.7440 -10.9219  -4.8270 -17.1212  -4.6599 -19.6363  -6.7724
 -8.8838 -19.9636  -4.6493  -8.1151  -3.4431  -6.6505  -7.3347  -4.2710
 -5.0216  -7.6652  -5.5850  -8.3294 -31.0905  -9.3752  -9.9239  -3.3265
 -6.1386  -3.9066  -3.4797  -4.7870  -3.8359  -9.0109 -11.2846 -31.2155
 -3.6583 -15.7640  -9.8954  -8.3039  -5.1324  -6.1452  -5.6630  -3.3626
 -5.9528  -3.9100  -2.9287  -4.0947  -2.7718  -7.1607 -12.7403  -1.3651
 -6.3059 -10.1650  -9.9437  -6.2247  -3.5948  -8.8610  -3.9276  -2.0919
 -3.3252  -5.2649  -3.6488  -5.3712  -3.7520  -2.9846  -4.1954  -3.0494
 -2.9790  -9.5930 -12.6398  -6.5266 -11.6472  -1.3216  -0.8211  -2.2915
-24.6922  -6.6561  -3.4558  -4.4546  -6.4086  -8.4923  -4.6159  -9.5012
 -6.3220 -10.8409  -5.3494  -6.3658 -12.5166 -15.4221  -8.0553 -14.4878
 -7.8172  -5.6684  -7.1688  -9.2530  -6.1824  -7.7619  -8.1504  -8.5221
-12.0919  -4.9338  -3.8069  -7.3896 -40.8570  -7.5332  -6.9892  -6.7579
 -6.5869  -3.2800 -14.7958 -33.6256  -4.6091  -2.5283  -7.3468 -19.4165
-13.1679  -8.3002  -7.8632 -10.0556 -30.3571  -3.4969  -2.4569  -3.0814
-29.4136 -27.2053 -13.1175 -12.7549  -7.1342  -3.0431 -11.8292 -28.5281
 -2.9503  -8.5021  -7.4829  -1.6960  -5.4062 -16.7623 -18.1740  -5.3087
 -6.9153  -8.5262 -13.2723  -6.2482 -10.0400 -47.3427 -23.8973 -14.0149
-16.7912 -53.9278  -3.2415  -9.1235 -10.3833  -3.7560  -4.6517 -13.0257
 -2.2994 -11.4567 -76.4768  -1.7278  -2.3025 -73.2121 -10.4651 -70.8956
-24.5147  -2.6772  -7.4199  -3.3237 -10.6386  -5.6563 -12.9271  -3.2681
-19.6331 -12.2992 -16.0416  -2.0543  -7.5968  -6.4138 -11.1325  -5.0571
-31.7753  -8.1398 -39.8660 -10.5753 -19.4012 -14.1622  -3.3037  -4.7943
 -3.3463  -8.2563  -9.1230  -3.7922 -11.1925 -11.0200  -8.5935 -13.3248
-19.1621  -8.4168 -37.5004 -25.0800 -10.3415 -15.0482 -65.8853 -20.0846
 -2.7591 -10.0901 -13.9289  -8.8017  -8.6973  -9.5129  -7.8569 -15.7157
 -5.2848  -8.3594 -20.8856 -20.2543  -4.6203  -3.2593  -5.1879 -10.1997
-10.3107 -17.1900 -12.3563 -10.2814 -11.3902 -11.3712 -10.5890 -10.1878
 -0.8435  -0.8463  -0.8054  -0.6663  -0.8043  -0.6782  -0.7125  -0.4869
 -0.7561  -0.4534  -0.3847  -0.4403  -0.4583  -0.4299  -0.4625  -0.4131
 -0.4249  -0.4054  -0.4462  -0.4775  -0.4746  -0.4618  -0.5455  -0.3928
 -0.5386  -0.5640
 -- Virtual --
 -0.0370  -0.0336  -0.0306  -0.0291  -0.0282  -0.0246  -0.0217  -0.0213
 -0.0184  -0.0178  -0.0164  -0.0156  -0.0140  -0.0132  -0.0111  -0.0104
 -0.0097  -0.0095  -0.0092  -0.0088  -0.0081  -0.0068  -0.0062  -0.0052
 -0.0047  -0.0041  -0.0026  -0.0021  -0.0014  -0.0009   0.0000   0.0012
  0.0016   0.0019   0.0030   0.0039   0.0050   0.0054   0.0065   0.0067
  0.0074   0.0080   0.0097   0.0105   0.0110   0.0116   0.0126   0.0131
  0.0142   0.0149   0.0154   0.0157   0.0164   0.0171   0.0172   0.0182
  0.0188   0.0201   0.0207   0.0211   0.0217   0.0224   0.0236   0.0240
  0.0244   0.0250   0.0256   0.0258   0.0266   0.0274   0.0278   0.0279
  0.0294   0.0297   0.0305   0.0308   0.0319   0.0323   0.0331   0.0334
  0.0336   0.0338   0.0345   0.0346   0.0361   0.0364   0.0370   0.0378
  0.0380   0.0392   0.0399   0.0412   0.0416   0.0424   0.0428   0.0432
  0.0436   0.0445   0.0452   0.0457   0.0460   0.0473   0.0476   0.0483
  0.0488   0.0491   0.0503   0.0507   0.0513   0.0522   0.0535   0.0538
  0.0545   0.0548   0.0555   0.0559   0.0562   0.0575   0.0578   0.0584
  0.0592   0.0599   0.0604   0.0610   0.0621   0.0625   0.0634   0.0637
  0.0640   0.0649   0.0654   0.0662   0.0668   0.0670   0.0683   0.0688
  0.0700   0.0706   0.0712   0.0716   0.0720   0.0730   0.0736   0.0745
  0.0750   0.0759   0.0763   0.0769   0.0774   0.0782   0.0793   0.0794
  0.0796   0.0806   0.0810   0.0815   0.0817   0.0832   0.0837   0.0844
  0.0851   0.0857   0.0873   0.0874   0.0881   0.0894   0.0899   0.0900
  0.0907   0.0911   0.0920   0.0928   0.0936   0.0940   0.0944   0.0953
  0.0959   0.0962   0.0971   0.0977   0.0982   0.0988   0.0995   0.1003
  0.1008   0.1017   0.1025   0.1031   0.1041   0.1045   0.1049   0.1050
  0.1061   0.1064   0.1067   0.1071   0.1078   0.1084   0.1086   0.1095
  0.1106   0.1110   0.1112   0.1120   0.1133   0.1138   0.1140   0.1146
  0.1154   0.1160   0.1167   0.1172   0.1182   0.1187   0.1199   0.1204
  0.1210   0.1218   0.1222   0.1226   0.1234   0.1241   0.1255   0.1258
  0.1265   0.1269   0.1280   0.1284   0.1288   0.1291   0.1293   0.1301
  0.1304   0.1310   0.1314   0.1316   0.1335   0.1338   0.1341   0.1347
  0.1350   0.1364   0.1373   0.1375   0.1378   0.1388   0.1397   0.1400
  0.1410   0.1414   0.1418   0.1426   0.1429   0.1435   0.1440   0.1442
  0.1449   0.1457   0.1466   0.1471   0.1473   0.1484   0.1494   0.1501
  0.1505   0.1507   0.1512   0.1519   0.1524   0.1527   0.1533   0.1538
  0.1538   0.1549   0.1551   0.1562   0.1570   0.1575   0.1579   0.1582
  0.1587   0.1592   0.1596   0.1601   0.1613   0.1616   0.1622   0.1625
  0.1631   0.1636   0.1642   0.1645   0.1652   0.1657   0.1660   0.1673
  0.1674   0.1683   0.1685   0.1694   0.1703   0.1706   0.1712   0.1718
  0.1722   0.1729   0.1732   0.1742   0.1746   0.1750   0.1765   0.1773
  0.1779   0.1785   0.1790   0.1797   0.1799   0.1809   0.1816   0.1818
  0.1824   0.1833   0.1838   0.1843   0.1848   0.1854   0.1858   0.1863
  0.1882   0.1886   0.1888   0.1893   0.1902   0.1906   0.1914   0.1916
  0.1920   0.1929   0.1932   0.1937   0.1947   0.1948   0.1955   0.1961
  0.1971   0.1975   0.1976   0.1983   0.1993   0.1997   0.2001   0.2006
  0.2012   0.2015   0.2026   0.2036   0.2046   0.2048   0.2056   0.2060
  0.2064   0.2068   0.2078   0.2084   0.2091   0.2093   0.2104   0.2110
  0.2118   0.2121   0.2123   0.2128   0.2140   0.2150   0.2153   0.2156
  0.2165   0.2168   0.2170   0.2175   0.2180   0.2189   0.2193   0.2202
  0.2203   0.2211   0.2226   0.2227   0.2238   0.2248   0.2251   0.2258
  0.2263   0.2280   0.2281   0.2286   0.2294   0.2294   0.2301   0.2306
  0.2313   0.2324   0.2325   0.2337   0.2340   0.2342   0.2351   0.2357
  0.2366   0.2370   0.2376   0.2393   0.2400   0.2405   0.2411   0.2423
  0.2424   0.2430   0.2432   0.2439   0.2445   0.2452   0.2455   0.2466
  0.2472   0.2482   0.2489   0.2492   0.2496   0.2503   0.2509   0.2513
  0.2518   0.2524   0.2536   0.2543   0.2549   0.2553   0.2568   0.2573
  0.2577   0.2584   0.2587   0.2593   0.2602   0.2607   0.2613   0.2616
  0.2627   0.2629   0.2645   0.2652   0.2659   0.2667   0.2678   0.2685
  0.2693   0.2700   0.2704   0.2720   0.2728   0.2734   0.2737   0.2741
  0.2750   0.2752   0.2764   0.2768   0.2781   0.2788   0.2799   0.2816
  0.2821   0.2826   0.2827   0.2840   0.2849   0.2853   0.2859   0.2863
  0.2874   0.2882   0.2886   0.2899   0.2908   0.2910   0.2914   0.2929
  0.2935   0.2942   0.2952   0.2965   0.2977   0.2979   0.2988   0.2998
  0.3002   0.3016   0.3025   0.3029   0.3033   0.3041   0.3056   0.3057
  0.3080   0.3081   0.3089   0.3094   0.3104   0.3107   0.3113   0.3114
  0.3127   0.3143   0.3146   0.3157   0.3163   0.3167   0.3187   0.3191
  0.3200   0.3211   0.3215   0.3219   0.3234   0.3247   0.3252   0.3263
  0.3271   0.3272   0.3281   0.3291   0.3299   0.3304   0.3318   0.3325
  0.3329   0.3335   0.3356   0.3364   0.3370   0.3377   0.3382   0.3393
  0.3405   0.3415   0.3418   0.3430   0.3441   0.3452   0.3457   0.3461
  0.3463   0.3482   0.3489   0.3498   0.3508   0.3512   0.3514   0.3518
  0.3530   0.3543   0.3548   0.3555   0.3562   0.3568   0.3574   0.3586
  0.3594   0.3603   0.3610   0.3626   0.3634   0.3636   0.3646   0.3651
  0.3667   0.3677   0.3687   0.3691   0.3701   0.3708   0.3710   0.3726
  0.3733   0.3741   0.3747   0.3763   0.3768   0.3775   0.3783   0.3792
  0.3803   0.3806   0.3814   0.3823   0.3830   0.3837   0.3844   0.3848
  0.3858   0.3866   0.3871   0.3878   0.3886   0.3899   0.3908   0.3913
  0.3921   0.3927   0.3950   0.3959   0.3963   0.3966   0.3975   0.3991
  0.3992   0.4009   0.4010   0.4027   0.4035   0.4038   0.4053   0.4057
  0.4066   0.4075   0.4085   0.4086   0.4092   0.4100   0.4108   0.4119
  0.4133   0.4138   0.4155   0.4159   0.4176   0.4182   0.4191   0.4199
  0.4206   0.4216   0.4236   0.4238   0.4257   0.4266   0.4272   0.4288
  0.4290   0.4291   0.4311   0.4315   0.4316   0.4333   0.4341   0.4368
  0.4378   0.4394   0.4402   0.4410   0.4425   0.4432   0.4443   0.4458
  0.4471   0.4478   0.4502   0.4510   0.4530   0.4541   0.4542   0.4569
  0.4570   0.4580   0.4585   0.4597   0.4625   0.4627   0.4637   0.4656
  0.4660   0.4666   0.4689   0.4699   0.4724   0.4735   0.4743   0.4759
  0.4764   0.4772   0.4792   0.4803   0.4811   0.4830   0.4841   0.4852
  0.4889   0.4901   0.4908   0.4922   0.4945   0.4957   0.4961   0.4987
  0.5005   0.5022   0.5033   0.5038   0.5064   0.5072   0.5099   0.5107
  0.5113   0.5139   0.5151   0.5163   0.5176   0.5197   0.5222   0.5245
  0.5265   0.5279   0.5291   0.5302   0.5322   0.5334   0.5342   0.5353
  0.5364   0.5390   0.5391   0.5426   0.5438   0.5450   0.5456   0.5463
  0.5492   0.5510   0.5518   0.5540   0.5556   0.5564   0.5579   0.5601
  0.5606   0.5624   0.5657   0.5661   0.5674   0.5678   0.5692   0.5708
  0.5725   0.5729   0.5758   0.5767   0.5787   0.5798   0.5814   0.5824
  0.5829   0.5838   0.5841   0.5863   0.5878   0.5894   0.5912   0.5927
  0.5929   0.5948   0.5964   0.5981   0.5993   0.6003   0.6007   0.6013
  0.6032   0.6036   0.6050   0.6061   0.6091   0.6103   0.6108   0.6140
  0.6153   0.6162   0.6173   0.6191   0.6214   0.6224   0.6245   0.6253
  0.6277   0.6293   0.6304   0.6307   0.6311   0.6321   0.6345   0.6349
  0.6357   0.6363   0.6374   0.6384   0.6387   0.6407   0.6420   0.6423
  0.6449   0.6455   0.6473   0.6483   0.6489   0.6498   0.6511   0.6519
  0.6524   0.6541   0.6550   0.6569   0.6577   0.6592   0.6601   0.6609
  0.6622   0.6627   0.6637   0.6651   0.6654   0.6659   0.6670   0.6674
  0.6684   0.6690   0.6695   0.6712   0.6723   0.6740   0.6748   0.6751
  0.6766   0.6771   0.6786   0.6790   0.6807   0.6824   0.6839   0.6845
  0.6855   0.6857   0.6871   0.6876   0.6890   0.6906   0.6917   0.6929
  0.6941   0.6957   0.6966   0.6970   0.6985   0.6990   0.6995   0.7027
  0.7033   0.7043   0.7055   0.7063   0.7090   0.7098   0.7103   0.7110
  0.7121   0.7145   0.7154   0.7163   0.7180   0.7184   0.7196   0.7212
  0.7226   0.7239   0.7250   0.7261   0.7267   0.7280   0.7290   0.7298
  0.7316   0.7329   0.7347   0.7356   0.7375   0.7383   0.7408   0.7411
  0.7421   0.7434   0.7446   0.7450   0.7470   0.7499   0.7501   0.7524
  0.7530   0.7563   0.7566   0.7574   0.7589   0.7603   0.7629   0.7639
  0.7656   0.7683   0.7701   0.7709   0.7738   0.7749   0.7757   0.7785
  0.7801   0.7809   0.7824   0.7828   0.7840   0.7850   0.7862   0.7885
  0.7897   0.7920   0.7925   0.7942   0.7958   0.7978   0.8001   0.8017
  0.8026   0.8050   0.8059   0.8072   0.8084   0.8095   0.8117   0.8122
  0.8132   0.8176   0.8188   0.8193   0.8205   0.8229   0.8234   0.8254
  0.8277   0.8283   0.8292   0.8305   0.8330   0.8342   0.8345   0.8360
  0.8370   0.8374   0.8396   0.8409   0.8416   0.8425   0.8439   0.8453
  0.8465   0.8477   0.8490   0.8507   0.8516   0.8522   0.8539   0.8545
  0.8555   0.8570   0.8594   0.8600   0.8612   0.8628   0.8639   0.8642
  0.8663   0.8666   0.8683   0.8694   0.8710   0.8718   0.8732   0.8743
  0.8758   0.8765   0.8771   0.8784   0.8797   0.8804   0.8817   0.8823
  0.8840   0.8855   0.8872   0.8880   0.8892   0.8907   0.8931   0.8942
  0.8954   0.8963   0.8978   0.8990   0.8994   0.9010   0.9021   0.9043
  0.9053   0.9068   0.9077   0.9087   0.9096   0.9109   0.9120   0.9137
  0.9139   0.9161   0.9165   0.9185   0.9203   0.9214   0.9221   0.9232
  0.9239   0.9256   0.9258   0.9268   0.9282   0.9299   0.9311   0.9314
  0.9330   0.9347   0.9355   0.9379   0.9385   0.9389   0.9403   0.9409
  0.9430   0.9437   0.9452   0.9458   0.9465   0.9481   0.9489   0.9499
  0.9505   0.9521   0.9532   0.9536   0.9556   0.9568   0.9585   0.9599
  0.9599   0.9606   0.9627   0.9634   0.9659   0.9665   0.9670   0.9675
  0.9679   0.9691   0.9712   0.9718   0.9736   0.9744   0.9749   0.9766
  0.9772   0.9781   0.9792   0.9798   0.9813   0.9830   0.9846   0.9857
  0.9866   0.9876   0.9883   0.9890   0.9904   0.9912   0.9925   0.9929
  0.9940   0.9958   0.9975   0.9983   1.0002   1.0006   1.0015   1.0035
  1.0052   1.0069   1.0072   1.0085   1.0092   1.0094   1.0102   1.0116
  1.0127   1.0141   1.0155   1.0168   1.0184   1.0186   1.0215   1.0219
  1.0224   1.0242   1.0262   1.0264   1.0282   1.0291   1.0301   1.0313
  1.0323   1.0348   1.0350   1.0358   1.0372   1.0385   1.0400   1.0408
  1.0416   1.0421   1.0452   1.0459   1.0469   1.0485   1.0510   1.0520
  1.0525   1.0536   1.0556   1.0570   1.0583   1.0591   1.0593   1.0600
  1.0610   1.0628   1.0637   1.0647   1.0649   1.0669   1.0686   1.0689
  1.0708   1.0715   1.0729   1.0747   1.0756   1.0774   1.0788   1.0792
  1.0818   1.0837   1.0839   1.0850   1.0856   1.0866   1.0884   1.0893
  1.0904   1.0917   1.0941   1.0953   1.0956   1.0972   1.0988   1.1004
  1.1020   1.1033   1.1035   1.1053   1.1060   1.1082   1.1106   1.1115
  1.1118   1.1124   1.1150   1.1161   1.1169   1.1183   1.1188   1.1195
  1.1205   1.1233   1.1242   1.1260   1.1264   1.1276   1.1293   1.1303
  1.1313   1.1337   1.1348   1.1370   1.1378   1.1387   1.1395   1.1409
  1.1434   1.1437   1.1444   1.1456   1.1472   1.1484   1.1502   1.1516
  1.1516   1.1534   1.1556   1.1558   1.1565   1.1584   1.1588   1.1607
  1.1619   1.1644   1.1651   1.1669   1.1677   1.1683   1.1693   1.1698
  1.1728   1.1742   1.1767   1.1768   1.1787   1.1796   1.1809   1.1816
  1.1841   1.1858   1.1869   1.1890   1.1902   1.1909   1.1926   1.1944
  1.1959   1.1968   1.1996   1.1998   1.2030   1.2051   1.2073   1.2084
  1.2107   1.2116   1.2127   1.2133   1.2156   1.2173   1.2190   1.2215
  1.2219   1.2239   1.2267   1.2286   1.2293   1.2328   1.2332   1.2353
  1.2368   1.2401   1.2422   1.2450   1.2468   1.2478   1.2500   1.2521
  1.2553   1.2565   1.2590   1.2598   1.2631   1.2638   1.2663   1.2694
  1.2705   1.2743   1.2760   1.2786   1.2831   1.2838   1.2850   1.2866
  1.2903   1.2912   1.2923   1.2970   1.2985   1.3007   1.3040   1.3046
  1.3066   1.3113   1.3120   1.3139   1.3155   1.3193   1.3209   1.3223
  1.3241   1.3285   1.3294   1.3309   1.3339   1.3365   1.3374   1.3386
  1.3402   1.3434   1.3442   1.3464   1.3487   1.3506   1.3511   1.3531
  1.3550   1.3570   1.3588   1.3596   1.3618   1.3628   1.3639   1.3641
  1.3672   1.3683   1.3701   1.3726   1.3740   1.3743   1.3753   1.3776
  1.3778   1.3799   1.3816   1.3839   1.3851   1.3862   1.3881   1.3886
  1.3914   1.3917   1.3942   1.3948   1.3958   1.3980   1.3990   1.4003
  1.4011   1.4028   1.4055   1.4081   1.4089   1.4098   1.4111   1.4116
  1.4117   1.4148   1.4161   1.4168   1.4189   1.4200   1.4212   1.4225
  1.4241   1.4269   1.4273   1.4295   1.4304   1.4309   1.4333   1.4337
  1.4375   1.4387   1.4401   1.4417   1.4435   1.4443   1.4459   1.4471
  1.4491   1.4506   1.4515   1.4557   1.4560   1.4576   1.4585   1.4593
  1.4612   1.4645   1.4652   1.4679   1.4689   1.4702   1.4724   1.4736
  1.4751   1.4761   1.4773   1.4796   1.4824   1.4838   1.4867   1.4875
  1.4881   1.4909   1.4927   1.4945   1.4958   1.4970   1.4999   1.5014
  1.5046   1.5052   1.5067   1.5105   1.5126   1.5132   1.5158   1.5190
  1.5212   1.5224   1.5258   1.5280   1.5298   1.5307   1.5348   1.5351
  1.5375   1.5390   1.5415   1.5434   1.5457   1.5487   1.5517   1.5521
  1.5550   1.5621   1.5626   1.5650   1.5709   1.5740   1.5797   1.5807
  1.5832   1.5883   1.5953   1.5993   1.6025   1.6070   1.6100   1.6185
  1.6191   1.6266   1.6269   1.6331   1.6355   1.6394   1.6449   1.6492
  1.6508   1.6530   1.6575   1.6599   1.6612   1.6631   1.6646   1.6665
  1.6673   1.6680   1.6713   1.6715   1.6724   1.6743   1.6768   1.6779
  1.6798   1.6811   1.6822   1.6845   1.6854   1.6858   1.6864   1.6871
  1.6881   1.6900   1.6913   1.6930   1.6938   1.6955   1.6966   1.6980
  1.6993   1.7002   1.7012   1.7015   1.7027   1.7040   1.7048   1.7062
  1.7075   1.7099   1.7110   1.7117   1.7137   1.7148   1.7158   1.7170
  1.7179   1.7198   1.7210   1.7228   1.7241   1.7253   1.7262   1.7276
  1.7279   1.7290   1.7298   1.7306   1.7319   1.7339   1.7357   1.7364
  1.7372   1.7376   1.7397   1.7410   1.7423   1.7430   1.7432   1.7459
  1.7463   1.7477   1.7495   1.7506   1.7536   1.7539   1.7555   1.7559
  1.7569   1.7598   1.7606   1.7614   1.7635   1.7661   1.7680   1.7692
  1.7697   1.7704   1.7735   1.7746   1.7783   1.7800   1.7823   1.7849
  1.7870   1.7872   1.7904   1.7926   1.7940   1.7946   1.7966   1.7994
  1.7997   1.8013   1.8034   1.8052   1.8078   1.8108   1.8153   1.8189
  1.8222   1.8259   1.8295   1.8327   1.8353   1.8384   1.8418   1.8467
  1.8474   1.8478   1.8497   1.8507   1.8522   1.8551   1.8580   1.8585
  1.8624   1.8632   1.8647   1.8664   1.8678   1.8686   1.8723   1.8730
  1.8762   1.8770   1.8798   1.8801   1.8825   1.8832   1.8844   1.8859
  1.8875   1.8884   1.8912   1.8919   1.8924   1.8937   1.8942   1.8958
  1.8971   1.8977   1.8985   1.9008   1.9013   1.9027   1.9046   1.9052
  1.9060   1.9071   1.9082   1.9116   1.9119   1.9127   1.9144   1.9169
  1.9179   1.9184   1.9202   1.9204   1.9222   1.9225   1.9245   1.9267
  1.9278   1.9293   1.9308   1.9320   1.9338   1.9353   1.9370   1.9420
  1.9437   1.9449   1.9471   1.9481   1.9523   1.9538   1.9570   1.9583
  1.9611   1.9631   1.9701   1.9757   1.9774   1.9843   1.9880   1.9916
  1.9986   2.0058   2.0094   2.0152   2.0377   2.0402   2.0421   2.0461
  2.0475   2.0485   2.0539   2.0548   2.0559   2.0562   2.0592   2.0601
  2.0611   2.0636   2.0645   2.0664   2.0671   2.0702   2.0710   2.0732
  2.0735   2.0759   2.0760   2.0770   2.0772   2.0780   2.0788   2.0799
  2.0815   2.0819   2.0846   2.0859   2.0871   2.0904   2.0910   2.0919
  2.0951   2.0964   2.0979   2.0998   2.1019   2.1030   2.1041   2.1072
  2.1081   2.1093   2.1139   2.1174   2.1184   2.1224   2.1228   2.1253
  2.1266   2.1285   2.1320   2.1328   2.1350   2.1360   2.1409   2.1439
  2.1469   2.1470   2.1509   2.1515   2.1605   2.1651   2.1722   2.1778
  2.1803   2.1817   2.1842   2.1873   2.1946   2.1953   2.1974   2.1981
  2.1984   2.2001   2.2044   2.2087   2.2103   2.2123   2.2142   2.2162
  2.2164   2.2177   2.2183   2.2188   2.2201   2.2207   2.2223   2.2232
  2.2246   2.2262   2.2273   2.2284   2.2300   2.2310   2.2313   2.2321
  2.2323   2.2335   2.2344   2.2361   2.2367   2.2369   2.2383   2.2393
  2.2406   2.2407   2.2422   2.2446   2.2456   2.2465   2.2483   2.2493
  2.2502   2.2512   2.2519   2.2528   2.2536   2.2560   2.2566   2.2579
  2.2585   2.2592   2.2598   2.2603   2.2617   2.2622   2.2628   2.2637
  2.2643   2.2664   2.2673   2.2686   2.2692   2.2707   2.2718   2.2724
  2.2730   2.2746   2.2753   2.2762   2.2792   2.2798   2.2802   2.2822
  2.2835   2.2841   2.2858   2.2871   2.2875   2.2886   2.2887   2.2903
  2.2907   2.2914   2.2919   2.2926   2.2943   2.2951   2.2956   2.2957
  2.2975   2.2979   2.2981   2.3004   2.3020   2.3032   2.3036   2.3047
  2.3051   2.3067   2.3097   2.3114   2.3128   2.3135   2.3137   2.3145
  2.3161   2.3174   2.3187   2.3196   2.3210   2.3217   2.3227   2.3243
  2.3264   2.3269   2.3288   2.3295   2.3304   2.3319   2.3330   2.3336
  2.3342   2.3367   2.3375   2.3386   2.3418   2.3429   2.3460   2.3480
  2.3486   2.3497   2.3510   2.3540   2.3549   2.3569   2.3570   2.3608
  2.3628   2.3663   2.3683   2.3718   2.3750   2.3774   2.3810   2.3816
  2.3841   2.3855   2.3887   2.3910   2.3949   2.3984   2.3991   2.4018
  2.4071   2.4083   2.4265   2.4324   2.4573   2.4728   2.4940   2.5043
  2.5557   2.5886   2.6656   2.7045   2.7545   2.7736   2.8071   2.8133
  2.8189   2.8241   2.8263   2.8290   2.8318   2.8389   2.8422   2.8428
  2.8430   2.8472   2.8499   2.8511   2.8523   2.8564   2.8587   2.8601
  2.8608   2.8612   2.8654   2.8689   2.8698   2.8743   2.8747   2.8773
  2.8808   2.8831   2.8840   2.8906   2.8958   2.9604   3.1096   3.2598
  3.9393   3.9409   3.9463   3.9573   3.9625   3.9709   3.9720   3.9749
  3.9770   3.9776   3.9800   3.9812   3.9842   3.9871   3.9915   3.9938
  3.9954   3.9975   3.9991   4.0030   4.0042   4.0080   4.0115   4.0124
  4.0177   4.0226   4.0295   4.1936   4.2163   4.2219   4.2286   4.2296
  4.2312   4.2328   4.2357   4.2370   4.2410   4.2415   4.2429   4.2477
  4.2523   4.2593   4.2625   4.2639   4.2680   4.2691   4.2727   4.2743
  4.2750   4.2800   4.2815   4.2826   4.2865   4.2889   4.2907   4.2928
  4.2963   4.2984   4.2994   4.3021   4.3043   4.3071   4.3104   4.3121
  4.3165   4.3182   4.3198   4.3234   4.3243   4.3288   4.3293   4.3306
  4.3322   4.3349   4.3367   4.3383   4.3416   4.3431   4.3459   4.3476
  4.3524   4.3563   4.3583   4.3593   4.3662   4.3672   4.3712   4.3793
  4.3802   4.3841   4.3870   4.3915   4.3935   4.3990   4.4023   4.4075
  4.4108   4.4141   4.4174   4.4357   4.4411   4.4499   4.4629   4.4718
  4.4742   4.4894   4.5084   4.5264   4.5331   4.5419   4.5576   4.6020
  4.6876   4.7236   4.7670   4.7981   4.8748
 --------------------------------------------------------------
 
          Ground-State Mulliken Net Atomic Charges

     Atom                 Charge (a.u.)
  ----------------------------------------
      1 C                    -0.372399
      2 C                    -0.197261
      3 C                    -0.727266
      4 C                    -0.611328
      5 C                    -0.345159
      6 C                    -0.247956
      7 H                     0.228719
      8 H                     0.226297
      9 H                     0.221802
     10 H                     0.234002
     11 H                     0.223910
     12 H                     0.195841
     13 H                     0.190482
     14 H                     0.212471
     15 H                     0.229107
     16 H                     0.203662
     17 H                     0.231616
     18 N                    -0.045305
     19 H                     0.533251
     20 C                    -0.365164
     21 H                     0.179034
     22 O                    -0.209342
     23 C                    -0.777704
     24 H                     0.219203
     25 H                     0.244293
     26 H                     0.292770
     27 S                     0.732971
     28 C                    -0.834042
     29 H                     0.206262
     30 H                     0.223098
     31 H                     0.323887
     32 O                    -0.602295
     33 C                    -0.919766
     34 H                     0.255721
     35 H                     0.259707
     36 H                     0.267368
     37 S                     0.857132
     38 C                    -0.786773
     39 H                     0.238544
     40 H                     0.285628
     41 H                     0.271332
     42 O                    -0.731016
     43 C                    -0.817091
     44 H                     0.244577
     45 H                     0.257867
     46 H                     0.255945
     47 S                     1.066960
     48 C                    -1.073378
     49 H                     0.290488
     50 H                     0.303440
     51 H                     0.247888
     52 O                    -0.684761
     53 C                    -0.909710
     54 H                     0.233411
     55 H                     0.297108
     56 H                     0.248648
     57 S                     0.898689
     58 C                    -0.844763
     59 H                     0.286226
     60 H                     0.247344
     61 H                     0.250283
     62 O                    -0.668725
     63 C                    -0.829032
     64 H                     0.279727
     65 H                     0.270698
     66 H                     0.264352
     67 S                     0.689729
     68 C                    -0.854534
     69 H                     0.225008
     70 H                     0.262472
     71 H                     0.278961
     72 O                    -0.650877
     73 C                    -0.808896
     74 H                     0.216026
     75 H                     0.258792
     76 H                     0.276517
     77 S                     0.686460
     78 C                    -0.761881
     79 H                     0.297198
     80 H                     0.260759
     81 H                     0.244357
     82 O                    -0.616604
     83 C                    -0.971748
     84 H                     0.264246
     85 H                     0.255754
     86 H                     0.247347
     87 S                     0.817170
     88 C                    -0.787452
     89 H                     0.319412
     90 H                     0.261209
     91 H                     0.230956
     92 O                    -0.653541
     93 C                    -0.829668
     94 H                     0.248636
     95 H                     0.254662
     96 H                     0.246037
     97 S                     0.949886
     98 C                    -0.858363
     99 H                     0.261588
    100 H                     0.213144
    101 H                     0.265030
    102 O                    -0.736770
    103 C                    -1.150110
    104 H                     0.257742
    105 H                     0.322136
    106 H                     0.273015
    107 S                     1.318148
    108 C                    -1.063360
    109 H                     0.221027
    110 H                     0.256793
    111 H                     0.293362
    112 O                    -0.703108
    113 C                    -0.806688
    114 H                     0.247434
    115 H                     0.265470
    116 H                     0.226381
    117 S                     0.793775
    118 C                    -0.777784
    119 H                     0.248426
    120 H                     0.237250
    121 H                     0.255549
    122 O                    -0.743045
    123 C                    -0.724627
    124 H                     0.268836
    125 H                     0.241560
    126 H                     0.223755
    127 S                     0.786172
    128 C                    -0.845413
    129 H                     0.260435
    130 H                     0.263638
    131 H                     0.245202
    132 O                    -0.736531
    133 C                    -0.816666
    134 H                     0.249304
    135 H                     0.275042
    136 H                     0.248981
    137 S                     0.826487
    138 C                    -0.852409
    139 H                     0.247473
    140 H                     0.291183
    141 H                     0.284400
    142 O                    -0.695025
    143 C                    -0.921294
    144 H                     0.245082
    145 H                     0.239590
    146 H                     0.277369
    147 S                     0.864691
    148 C                    -0.851242
    149 H                     0.254044
    150 H                     0.232057
    151 H                     0.259440
    152 O                    -0.714866
    153 C                    -0.853343
    154 H                     0.249557
    155 H                     0.234200
    156 H                     0.259112
    157 S                     0.721516
    158 C                    -0.825840
    159 H                     0.277491
    160 H                     0.274529
    161 H                     0.255110
    162 O                    -0.660146
    163 C                    -0.596702
    164 H                     0.250618
    165 H                     0.302214
    166 H                     0.255229
    167 S                    -0.170581
    168 C                    -0.333885
    169 H                     0.304257
    170 H                     0.246672
    171 H                     0.252281
    172 O                    -0.511793
    173 C                    -1.105046
    174 H                     0.242481
    175 H                     0.247416
    176 H                     0.279963
    177 S                     1.194020
    178 C                    -1.049844
    179 H                     0.279463
    180 H                     0.254580
    181 H                     0.275314
    182 O                    -0.666728
    183 C                    -0.768756
    184 H                     0.258506
    185 H                     0.271376
    186 H                     0.245426
    187 S                     0.746145
    188 C                    -0.787776
    189 H                     0.257827
    190 H                     0.266021
    191 H                     0.245548
    192 O                    -0.713052
    193 C                    -0.672762
    194 H                     0.218817
    195 H                     0.236961
    196 H                     0.259160
    197 S                     0.698130
    198 C                    -0.812490
    199 H                     0.289640
    200 H                     0.282177
    201 H                     0.234375
    202 O                    -0.723458
    203 C                    -0.845601
    204 H                     0.267577
    205 H                     0.221898
    206 H                     0.245001
    207 S                     0.981114
    208 C                    -0.916865
    209 H                     0.240940
    210 H                     0.250832
    211 H                     0.265421
    212 O                    -0.704814
    213 C                    -0.908876
    214 H                     0.275347
    215 H                     0.239041
    216 H                     0.246675
    217 S                     0.983083
    218 C                    -0.930211
    219 H                     0.276854
    220 H                     0.271871
    221 H                     0.257018
    222 O                    -0.737476
    223 C                    -0.761244
    224 H                     0.238416
    225 H                     0.239869
    226 H                     0.251082
    227 S                     0.848661
    228 C                    -0.817387
    229 H                     0.309433
    230 H                     0.279709
    231 H                     0.221077
    232 O                    -0.697385
    233 C                    -0.846587
    234 H                     0.231458
    235 H                     0.248209
    236 H                     0.252872
    237 S                     0.936307
    238 C                    -0.900086
    239 H                     0.252890
    240 H                     0.235899
    241 H                     0.299758
    242 O                    -0.710037
    243 C                    -0.818010
    244 H                     0.289662
    245 H                     0.266985
    246 H                     0.273346
    247 S                     0.578636
    248 C                    -0.774006
    249 H                     0.249923
    250 H                     0.223005
    251 H                     0.255012
    252 O                    -0.589676
    253 C                    -0.979527
    254 H                     0.302401
    255 H                     0.231661
    256 H                     0.219942
    257 S                     1.008652
    258 C                    -1.046045
    259 H                     0.326790
    260 H                     0.249885
    261 H                     0.258898
    262 O                    -0.709794
    263 C                    -0.876153
    264 H                     0.229022
    265 H                     0.243869
    266 H                     0.265591
    267 S                     0.955701
    268 C                    -0.980010
    269 H                     0.251361
    270 H                     0.287523
    271 H                     0.296613
    272 O                    -0.707971
    273 C                    -1.174359
    274 H                     0.266452
    275 H                     0.324580
    276 H                     0.256130
    277 S                     1.440886
    278 C                    -1.113593
    279 H                     0.274670
    280 H                     0.226165
    281 H                     0.253592
    282 O                    -0.675182
    283 C                    -1.090173
    284 H                     0.232414
    285 H                     0.254722
    286 H                     0.297108
    287 S                     1.205028
    288 C                    -0.918340
    289 H                     0.289556
    290 H                     0.300661
    291 H                     0.210493
    292 O                    -0.681391
  ----------------------------------------
  Sum of atomic charges =     0.000000

 -----------------------------------------------------------------
                    Cartesian Multipole Moments
 -----------------------------------------------------------------
    Charge (ESU x 10^10)
                -0.0000
    Dipole Moment (Debye)
         X       8.0713      Y       7.4909      Z       6.2433
       Tot      12.6585
    Quadrupole Moments (Debye-Ang)
        XX    -640.7283     XY     471.3741     YY    -703.0980
        XZ     300.5913     YZ     266.1047     ZZ    -521.7563
    Octopole Moments (Debye-Ang^2)
       XXX  -49506.1366    XXY   -5519.5769    XYY   -4770.2927
       YYY  -55181.4971    XXZ  -18841.7002    XYZ   13765.6063
       YYZ  -21394.6366    XZZ   -7745.2415    YZZ   -9479.6150
       ZZZ  -61069.6079
    Hexadecapole Moments (Debye-Ang^3)
      XXXX ************   XXXY -859229.4796   XXYY -419124.6362
      XYYY -859604.2166   YYYY ************   XXXZ ************
      XXYZ -184768.4350   XYYZ -171122.0784   YYYZ ************
      XXZZ -969651.5015   XYZZ   16033.4429   YYZZ ************
      XZZZ ************   YZZZ ************   ZZZZ ************
 -----------------------------------------------------------------
Archival summary:
[...]
    2  -0.0070211  -0.0013378  -0.0190487  -0.0151360   0.0332521   0.0033069
    3  -0.0044659  -0.0018772  -0.0241463   0.0229731   0.0421967  -0.0114745
          139         140         141         142         143         144
    1  -0.0336671   0.0209412   0.0048481   0.1295940   0.0041369   0.0036047
    2   0.0033720   0.0202571  -0.0132539  -0.0064726   0.0054077   0.0193506
    3  -0.0018795  -0.0119985  -0.0268929  -0.0137081  -0.0015797   0.0271824
          145         146         147         148         149         150
    1   0.0273209  -0.0175197  -0.0486951   0.0053129  -0.0085082   0.0249735
    2   0.0046378   0.0123035  -0.0045512   0.0002144  -0.0304055   0.0080615
    3  -0.0157110  -0.0200773   0.0343833   0.0053658  -0.0095298  -0.0188441
          151         152         153         154         155         156
    1   0.0096712  -0.0031311   0.0025308   0.0339975  -0.0260430   0.0079656
    2   0.0091739  -0.0360582   0.0050459  -0.0040446   0.0011749   0.0287714
    3   0.0382206  -0.1040206  -0.0029693  -0.0066424  -0.0230408   0.0056358
          157         158         159         160         161         162
    1  -0.0117350   0.0007238  -0.0215703   0.0005403   0.0027657   0.0753759
    2  -0.0561538   0.0106954   0.0033099  -0.0044015   0.0391202   0.0192430
    3  -0.0158096  -0.0023202  -0.0229463   0.0275359   0.0050977   0.0810207
          163         164         165         166         167         168
    1  -0.0035984  -0.0253797  -0.0069983   0.0296959   0.0419507  -0.0009059
    2   0.0051028   0.0098877  -0.0192577  -0.0040555  -0.0158867   0.0120236
    3   0.0072470   0.0149774   0.0001721   0.0212000  -0.0357817   0.0008113
          169         170         171         172         173         174
    1  -0.0117260  -0.0250348   0.0332248  -0.1061584  -0.0026960   0.0278525
    2   0.0210205   0.0077171   0.0029760   0.0035948   0.0064469   0.0142211
    3  -0.0223141   0.0182805   0.0070494  -0.0347882  -0.0042923   0.0022860
          175         176         177         178         179         180
    1   0.0048079  -0.0226470   0.0335523  -0.0086106  -0.0225871  -0.0083716
    2  -0.0158930   0.0238995  -0.0430365  -0.0009156   0.0218209  -0.0164403
    3  -0.0286853   0.0042620   0.0070539  -0.0057191  -0.0018368  -0.0303691
          181         182         183         184         185         186
    1  -0.0137781  -0.0485605   0.0077814   0.0203660   0.0272882  -0.0159737
    2  -0.0193956   0.0592897  -0.0082493  -0.0255164   0.0092218  -0.0027711
    3   0.0180838   0.0788711   0.0028644  -0.0157841   0.0030857   0.0303655
          187         188         189         190         191         192
    1  -0.0392946  -0.0016466  -0.0097904   0.0157463  -0.0181461   0.0708071
    2   0.0310174  -0.0061296   0.0140580  -0.0212335  -0.0227430   0.0475725
    3   0.0316308  -0.0049689  -0.0281730  -0.0211980   0.0185490  -0.0696444
          193         194         195         196         197         198
    1  -0.0016609  -0.0238505   0.0020296   0.0070414  -0.0035586   0.0100106
    2   0.0022489  -0.0190748   0.0258953   0.0137887  -0.0252783   0.0076806
    3   0.0030442  -0.0056506   0.0252426  -0.0174174   0.0486133   0.0020680
          199         200         201         202         203         204
    1   0.0035339  -0.0028710   0.0334469   0.0127325  -0.0001700   0.0176721
    2   0.0089288   0.0232613  -0.0121827  -0.0537056   0.0061453   0.0141496
    3  -0.0319004   0.0274514   0.0061299  -0.0955241  -0.0015067   0.0228068
          205         206         207         208         209         210
    1   0.0136423  -0.0219577  -0.0297808  -0.0012104  -0.0152987   0.0167284
    2  -0.0046968   0.0218210  -0.0373529   0.0048314  -0.0135137   0.0198701
    3  -0.0278329  -0.0166034  -0.0310427   0.0046249   0.0245629   0.0236333
          211         212         213         214         215         216
    1  -0.0274383   0.0981488   0.0066266   0.0090284  -0.0001035   0.0328801
    2   0.0149047  -0.0181628   0.0022093   0.0158104   0.0198986  -0.0115047
    3  -0.0103443   0.0453671  -0.0014537  -0.0267304   0.0233263   0.0104727
          217         218         219         220         221         222
    1  -0.0237544   0.0082600   0.0053083   0.0340309  -0.0236777  -0.0510519
    2  -0.0204928  -0.0077391   0.0184187  -0.0125689  -0.0241306   0.0644663
    3   0.0478740  -0.0062241  -0.0286240   0.0017573   0.0056050  -0.0726765
          223         224         225         226         227         228
    1   0.0046290   0.0255976   0.0048211   0.0085232  -0.0225333  -0.0101775
    2   0.0024939  -0.0157868  -0.0064681   0.0284243  -0.0430414   0.0084191
    3  -0.0014944   0.0080858  -0.0318145   0.0077660  -0.0200678  -0.0018563
          229         230         231         232         233         234
    1  -0.0319764   0.0128751   0.0033015   0.0179738  -0.0054271   0.0149966
    2  -0.0027999   0.0235133   0.0112324   0.0242233   0.0012115   0.0234777
    3   0.0086485   0.0146069  -0.0337916   0.1050971  -0.0052745  -0.0201427
          235         236         237         238         239         240
    1  -0.0239899  -0.0289653   0.0212791   0.0090924  -0.0125652   0.0202751
    2  -0.0128883   0.0010331   0.0266198  -0.0038288  -0.0108955   0.0276319
    3  -0.0275432   0.0149885   0.0421574  -0.0038453  -0.0259590  -0.0062717
          241         242         243         244         245         246
    1   0.0180082  -0.0428413  -0.0106208  -0.0319203   0.0075598  -0.0023913
    2  -0.0294159  -0.1013364  -0.0051833   0.0093455  -0.0019600  -0.0323108
    3  -0.0025293   0.0052650  -0.0024578  -0.0177905  -0.0289404   0.0161876
          247         248         249         250         251         252
    1   0.0453927  -0.0063066  -0.0139298   0.0116481  -0.0300596   0.0287405
    2  -0.0320166   0.0052107  -0.0242100   0.0279280   0.0141388   0.0783528
    3   0.0269900   0.0036429   0.0155113   0.0024836  -0.0064364  -0.0724644
          253         254         255         256         257         258
    1  -0.0003284  -0.0165744   0.0219302   0.0057695   0.0344822  -0.0074159
    2  -0.0095525  -0.0275431   0.0002838  -0.0194330   0.0399991  -0.0003094
    3   0.0003902  -0.0099726  -0.0214260   0.0314789   0.0118640   0.0085139
          259         260         261         262         263         264
    1  -0.0124035  -0.0136471   0.0081903  -0.0632737  -0.0024216  -0.0168571
    2   0.0322927  -0.0295721  -0.0037311  -0.0071980  -0.0010335   0.0231739
    3   0.0104851  -0.0141688   0.0347110  -0.0897067   0.0053296   0.0027281
          265         266         267         268         269         270
    1  -0.0244337   0.0083286   0.0362827   0.0000439   0.0100839   0.0255005
    2  -0.0181697   0.0026508  -0.0314656   0.0136792   0.0067798   0.0084240
    3  -0.0142689   0.0350772   0.0026242   0.0033688   0.0308737  -0.0113776
          271         272         273         274         275         276
    1  -0.0299865  -0.0553448   0.0062195  -0.0098151   0.0285990   0.0117439
    2   0.0225965   0.0319338  -0.0007789  -0.0149228   0.0164202  -0.0277573
    3  -0.0010986  -0.0896615  -0.0109747  -0.0315973  -0.0003385   0.0012264
          277         278         279         280         281         282
    1   0.0186027  -0.0044617  -0.0084039   0.0053657  -0.0141309  -0.0552899
    2   0.0115197  -0.0054645   0.0079323  -0.0343112  -0.0007875   0.0694378
    3   0.0541162  -0.0049240  -0.0316751  -0.0003879   0.0286593  -0.0638073
          283         284         285         286         287         288
    1   0.0033964  -0.0023843   0.0324627  -0.0043628   0.0170629   0.0014463
    2  -0.0006537   0.0272670  -0.0116636  -0.0062997   0.0006442  -0.0077908
    3  -0.0076557   0.0106421  -0.0048928  -0.0309522   0.0532826  -0.0073635
          289         290         291         292
    1  -0.0051434  -0.0147334   0.0262573  -0.0975241
    2  -0.0195655   0.0077009  -0.0279376   0.0318377
    3   0.0245254  -0.0258255  -0.0048792  -0.0343172
  --- DONE ESP SUMMARY ---
Archival summary:
1\1\node026\SP\ProcedureUnspecified\6-31+G*\272754h22\ymao90\FriDec315:32:302021FriDec315:32:302021\0\\#,ProcedureUnspecified,6-31+G*,\\0,1\S\O,1,1.49695\C,1,1.80671,2,99.404\H,3,1.09241,1,109.392,2,69.8463,0\H,3,1.09301,1,107.199,2,-162.283,0\H,3,1.09342,1,102.228,2,-49.6579,0\C,1,1.80747,2,97.2828,3,-100.578,0\H,7,1.09291,1,107.706,2,59.3528,0\H,7,1.09292,1,104.528,2,-58.2067,0\H,7,1.09387,1,119.314,2,-176.438,0\H,6,2.13699,3,127.022,1,88.9372,0\C,11,1.09258,6,100.082,3,118.933,0\H,12,1.09305,11,104.405,6,-157.53,0\H,12,1.09366,11,117.99,6,-43.0593,0\S,12,1.80674,11,109.479,6,84.3186,0\O,15,1.49724,12,99.5749,11,77.6218,0\C,15,1.80775,12,91.0955,11,-174.579,0\H,17,1.09255,15,115.413,12,-33.5699,0\H,17,1.09265,15,109.155,12,-149.248,0\H,17,1.09328,15,108.567,12,81.4625,0\H,2,2.3235,1,170.23,3,-40.9994,0\C,21,1.09314,2,139.644,1,10.4878,0\H,22,1.09256,21,110.119,2,-13.3996,0\H,22,1.09369,21,104.37,2,-137.357,0\S,22,1.80757,21,111.128,2,113.145,0\O,25,1.49701,22,104.786,21,73.437,0\C,25,1.80651,22,96.217,21,173.788,0\H,27,1.09267,25,106.176,22,34.5244,0\H,27,1.09312,25,107.616,22,-84.5892,0\H,27,1.09344,25,112.549,22,161.909,0\Gh,21,2.11443,2,71.5104,1,-95.2126,0\Gh,31,1.09771,21,156.333,2,98.1659,0\Gh,32,1.09593,31,105.784,21,75.8352,0\Gh,32,1.53709,31,109.979,21,-46.6556,0\Gh,34,1.0973,32,112.416,31,-44.6327,0\Gh,34,1.46213,32,110.106,31,72.771,0\Gh,36,1.01313,34,120.132,32,34.2615,0\Gh,36,1.37893,34,126.296,32,-157.287,0\Gh,38,1.10455,36,112.19,34,-175.105,0\Gh,38,1.21823,36,118.891,34,3.24876,0\Gh,34,1.5377,32,111.715,31,-170.924,0\Gh,41,1.09706,34,116.607,32,-65.624,0\Gh,41,1.09714,34,109.632,32,178.878,0\Gh,41,1.53778,34,109.503,32,57.7672,0\Gh,44,1.09624,41,103.047,34,179.081,0\Gh,44,1.09712,41,119.47,34,60.7643,0\Gh,44,1.53768,41,110.365,34,-62.9452,0\Gh,47,1.09666,44,114.913,41,-61.4488,0\Gh,47,1.097,44,107.893,41,-175.529,0\Gh,47,1.53718,44,106.511,41,60.4793,0\Gh,50,1.09671,47,103.94,44,-179.493,0\Gh,50,1.09704,47,106.867,44,71.0194,0\O,37,1.76083,36,158.921,34,-148.185,0\S,53,1.49697,37,150.622,36,65.2957,0\C,54,1.80689,53,107.467,37,102.137,0\H,55,1.09234,54,111.641,53,-61.4397,0\H,55,1.09317,54,105.115,53,-173.557,0\H,55,1.09349,54,112.109,53,62.6157,0\C,54,1.80704,53,104.734,37,-159.95,0\H,59,1.09234,54,103.137,53,-49.8646,0\H,59,1.09261,54,111.799,53,69.6791,0\H,59,1.09323,54,109.874,53,-165.869,0\H,33,2.18308,32,117.733,31,34.7875,0\C,63,1.09277,33,123.437,32,123.638,0\H,64,1.09247,63,103.996,33,-22.7805,0\H,64,1.09357,63,119.125,33,98.9748,0\S,64,1.80697,63,109.066,33,-146.342,0\O,67,1.4972,64,99.6387,63,-159.171,0\C,67,1.80729,64,93.7298,63,-54.05,0\H,69,1.09248,67,111.063,64,-173.543,0\H,69,1.09257,67,109.848,64,63.0669,0\H,69,1.09288,67,113.222,64,-60.7228,0\H,65,2.21367,64,114.487,63,-156.439,0\C,73,1.09282,65,125.238,64,-138.719,0\H,74,1.09291,73,111.146,65,160.342,0\H,74,1.09342,73,116.059,65,30.4912,0\S,74,1.8077,73,111.103,65,-78.2408,0\O,77,1.4966,74,102.023,73,165.452,0\C,77,1.80757,74,96.2593,73,-84.06,0\H,79,1.09228,77,101.322,74,52.3072,0\H,79,1.0928,77,105.877,74,171.002,0\H,79,1.09316,77,109.2,74,-69.7123,0\H,76,2.20592,74,115.964,73,-55.8979,0\C,83,1.09282,76,114.349,74,-179.805,0\H,84,1.09282,83,112.603,76,8.36644,0\H,84,1.09346,83,106.49,76,132.44,0\S,84,1.80728,83,112.884,76,-109.268,0\O,87,1.49751,84,100.966,83,74.9479,0\C,87,1.8063,84,99.007,83,173.61,0\H,89,1.09257,87,101.234,84,48.0481,0\H,89,1.09345,87,107.512,84,-62.2617,0\H,89,1.09392,87,117.234,84,173.61,0\H,90,2.15572,89,155.332,87,-134.82,0\C,93,1.09397,90,103.924,89,-135.353,0\H,94,1.09284,93,112.253,90,-44.1911,0\H,94,1.09294,93,109.429,90,-167.37,0\S,94,1.80687,93,109.842,90,80.19,0\O,97,1.49703,94,102.033,93,56.118,0\C,97,1.80698,94,96.0986,93,161.959,0\H,99,1.09275,97,101.158,94,78.3722,0\H,99,1.09296,97,115.134,94,-36.705,0\H,99,1.09361,97,117.39,94,-169.152,0\H,39,2.22829,38,93.1576,36,-130.795,0\C,103,1.093,39,125.18,38,-130.695,0\H,104,1.09292,103,113.801,39,10.6861,0\H,104,1.09362,103,114.874,39,133.408,0\S,104,1.80739,103,108.169,39,-111.663,0\O,107,1.49688,104,101.17,103,-59.8765,0\C,107,1.80698,104,94.5564,103,44.0513,0\H,109,1.09299,107,110.182,104,-156.986,0\H,109,1.0931,107,107.725,104,78.6656,0\H,109,1.09353,107,111.885,104,-44.0539,0\O,81,2.28951,79,163.83,77,-88.0535,0\S,113,1.49689,81,115.757,79,68.6599,0\C,114,1.80642,113,106.244,81,82.6081,0\H,115,1.09296,114,113.398,113,-98.3521,0\H,115,1.09328,114,112.564,113,18.0124,0\H,115,1.09331,114,108.602,113,142.394,0\C,114,1.80657,113,104.079,81,-175.907,0\H,119,1.09212,114,107.502,113,-30.6479,0\H,119,1.09243,114,104.156,113,-150.392,0\H,119,1.09333,114,107.615,113,88.5514,0\O,118,2.276,115,164.742,114,151.696,0\S,123,1.49703,118,111.176,115,-64.1533,0\C,124,1.80629,123,108.45,118,57.6077,0\H,125,1.09298,124,116.046,123,54.5215,0\H,125,1.09303,124,105.002,123,172.596,0\H,125,1.09341,124,110.793,123,-81.0174,0\C,124,1.80724,123,108.475,118,-46.1022,0\H,129,1.0923,124,111.57,123,-178.567,0\H,129,1.09313,124,110.148,123,-63.6733,0\H,129,1.09336,124,106.01,123,57.6842,0\H,131,2.18308,129,124.065,124,-96.2582,0\C,133,1.09241,131,113.379,129,-164.63,0\H,134,1.09327,133,111.864,131,-81.8992,0\H,134,1.09334,133,110.241,131,147.452,0\S,134,1.80705,133,97.8531,131,36.6896,0\O,137,1.49713,134,104.737,133,86.8025,0\C,137,1.80758,134,92.6516,133,-168.267,0\H,139,1.09303,137,97.7428,134,60.7053,0\H,139,1.09307,137,114.494,134,-63.2128,0\H,139,1.09326,137,106.738,134,177.354,0\H,133,2.12773,131,108.706,129,-34.9148,0\C,143,1.09316,133,123.181,131,62.66,0\H,144,1.09206,143,112.715,133,-77.614,0\H,144,1.09293,143,117.009,133,43.7234,0\S,144,1.80736,143,107.381,133,162.061,0\O,147,1.49673,144,106.383,143,-54.0535,0\C,147,1.80723,144,97.1002,143,54.9367,0\H,149,1.09268,147,105.15,144,69.3035,0\H,149,1.09285,147,113.106,144,-168.905,0\H,149,1.09329,147,103.439,144,-45.4847,0\H,142,2.26405,139,135.815,137,158.016,0\C,153,1.09246,142,136.102,139,-76.2484,0\H,154,1.09269,153,106.335,142,115.816,0\H,154,1.09351,153,113.248,142,-118.658,0\S,154,1.80756,153,106.146,142,-1.46529,0\O,157,1.49746,154,96.6596,153,78.2735,0\C,157,1.80697,154,95.8181,153,-175.539,0\H,159,1.09248,157,100.567,154,-63.2634,0\H,159,1.09259,157,111.675,154,56.7139,0\H,159,1.09304,157,105.233,154,-179.995,0\H,105,2.31411,104,102.897,103,104.657,0\C,163,1.09335,105,144.354,104,-29.4472,0\H,164,1.09265,163,110.998,105,-55.0138,0\H,164,1.09328,163,109.435,105,72.0445,0\S,164,1.80669,163,107.748,105,-172.37,0\O,167,1.49741,164,103.918,163,67.6016,0\C,167,1.80693,164,97.3668,163,172.333,0\H,169,1.09278,167,111.81,164,59.2792,0\H,169,1.09295,167,119.112,164,-66.1161,0\H,169,1.09321,167,100.825,164,175.367,0\O,80,2.33083,79,156.864,77,125.437,0\S,173,1.49676,80,121.343,79,33.8799,0\C,174,1.80693,173,104.584,80,84.4082,0\H,175,1.0926,174,96.9711,173,-37.4578,0\H,175,1.09312,174,109.892,173,-157.005,0\H,175,1.09369,174,113.078,173,85.1444,0\C,174,1.80805,173,99.6959,80,-12.6778,0\H,179,1.09252,174,114.433,173,65.8702,0\H,179,1.09267,174,105.248,173,-57.2624,0\H,179,1.09309,174,110.47,173,-169.322,0\O,85,2.44066,84,148.54,83,136.348,0\S,183,1.49751,85,114.497,84,-164.525,0\C,184,1.80669,183,109.954,85,72.664,0\H,185,1.09227,184,106.112,183,174.163,0\H,185,1.09362,184,113.813,183,53.1168,0\H,185,1.09365,184,115.563,183,-66.5944,0\C,184,1.80674,183,110.553,85,-29.9147,0\H,189,1.0928,184,119.342,183,144.163,0\H,189,1.09285,184,104.786,183,-90.027,0\H,189,1.09342,184,107.38,183,24.3763,0\H,51,2.44807,50,117.821,47,-108.262,0\C,193,1.0928,51,114.625,50,-60.5792,0\H,194,1.09276,193,112.796,51,-10.7315,0\H,194,1.09284,193,111.519,51,-135.602,0\S,194,1.80693,193,110.671,51,111.367,0\O,197,1.49666,194,93.7282,193,167.575,0\C,197,1.80692,194,96.1645,193,60.2661,0\H,199,1.0924,197,108.453,194,179.082,0\H,199,1.09325,197,111.193,194,-56.1242,0\H,199,1.09333,197,109.441,194,60.7805,0\H,106,2.46538,104,150.486,103,52.851,0\C,203,1.09343,106,166.246,104,-82.5846,0\H,204,1.09217,203,111.102,106,145.426,0\H,204,1.09267,203,112.592,106,18.1471,0\S,204,1.80752,203,112.668,106,-95.2894,0\O,207,1.49687,204,100.51,203,68.4284,0\C,207,1.80617,204,98.3752,203,173.206,0\H,209,1.09299,207,113.711,204,62.97,0\H,209,1.09308,207,103.332,204,-172.906,0\H,209,1.09344,207,109.394,204,-52.3314,0\H,168,2.47352,167,134.09,164,-57.853,0\C,213,1.09259,168,132.343,167,42.5893,0\H,214,1.09277,213,112.26,168,-29.317,0\H,214,1.09362,213,111.43,168,104.96,0\S,214,1.80629,213,106.653,168,-140.547,0\O,217,1.49734,214,109.654,213,31.7857,0\C,217,1.80748,214,96.4728,213,-79.2671,0\H,219,1.09287,217,107.431,214,170.74,0\H,219,1.09328,217,118.725,214,-66.4755,0\H,219,1.09348,217,105.849,214,56.734,0\H,216,2.4828,214,123.004,213,-164.541,0\C,223,1.09219,216,130.76,214,-162.49,0\H,224,1.0929,223,111.661,216,-48.345,0\H,224,1.09334,223,110.149,216,-165.389,0\S,224,1.80725,223,107,216,71.7624,0\O,227,1.49772,224,100.886,223,162.875,0\C,227,1.80621,224,92.5794,223,60.8693,0\H,229,1.09292,227,105.055,224,168.96,0\H,229,1.09297,227,107.389,224,-79.4503,0\H,229,1.09378,227,108.525,224,45.8855,0\H,70,2.49166,69,92.0677,67,-73.7421,0\C,233,1.09307,70,120.978,69,147.455,0\H,234,1.09299,233,113.162,70,-53.04,0\H,234,1.09314,233,113.276,70,-178.275,0\S,234,1.80744,233,109.718,70,64.1335,0\O,237,1.49645,234,98.366,233,-45.105,0\C,237,1.80685,234,96.0368,233,60.7441,0\H,239,1.09236,237,110.266,234,64.7797,0\H,239,1.09302,237,113.411,234,-174.567,0\H,239,1.09322,237,105.844,234,-53.6262,0\H,242,2.13766,239,111.419,237,111.581,0\C,243,1.09332,242,173.249,239,78.5421,0\H,244,1.09301,243,109.153,242,47.0587,0\H,244,1.09319,243,112.114,242,169.755,0\S,244,1.80686,243,106.369,242,-68.2024,0\O,247,1.49629,244,111.612,243,-29.6874,0\C,247,1.80701,244,96.1883,243,65.1716,0\H,249,1.09219,247,112.139,244,76.9989,0\H,249,1.09294,247,108.721,244,-44.4455,0\H,249,1.09333,247,105.412,244,-152.693,0\O,231,2.54944,229,133.292,227,115.424,0\S,253,1.49695,231,111.657,229,101.383,0\C,254,1.80694,253,104.268,231,2.70769,0\H,255,1.0926,254,109.583,253,-67.5868,0\H,255,1.09276,254,103.886,253,56.0356,0\H,255,1.09331,254,110.012,253,177.447,0\C,254,1.8075,253,102.87,231,105.011,0\H,259,1.09251,254,106.775,253,-81.2344,0\H,259,1.09304,254,117.119,253,162.102,0\H,259,1.09353,254,106.391,253,37.42,0\H,126,2.59319,125,98.3915,124,70.7469,0\C,263,1.09287,126,144.832,125,-21.7213,0\H,264,1.09242,263,113.801,126,-162.511,0\H,264,1.09302,263,111.114,126,-39.2414,0\S,264,1.80685,263,112.395,126,86.6783,0\O,267,1.49684,264,103.911,263,79.1421,0\C,267,1.80699,264,94.0501,263,177.521,0\H,269,1.09266,267,111.773,264,-53.8512,0\H,269,1.09268,267,108.936,264,-170.152,0\H,269,1.09342,267,102.932,264,65.9613,0\H,126,2.60604,125,129.865,124,-176.65,0\C,273,1.09367,126,106.063,125,75.1158,0\H,274,1.09255,273,111.336,126,7.44758,0\H,274,1.09335,273,113.678,126,131.897,0\S,274,1.80668,273,104.792,126,-105.657,0\O,277,1.49711,274,99.7906,273,59.5025,0\C,277,1.80737,274,90.128,273,162.378,0\H,279,1.09229,277,115.832,274,-70.0523,0\H,279,1.093,277,105.703,274,57.0302,0\H,279,1.09332,277,112.87,274,169.839,0\O,225,2.60747,224,119.685,223,49.0014,0\S,283,1.49678,225,103.376,224,-134.989,0\C,284,1.80678,283,96.8842,225,-122.406,0\H,285,1.09285,284,105.663,283,56.2486,0\H,285,1.09337,284,111.904,283,179.352,0\H,285,1.09368,284,102.481,283,-62.2582,0\C,284,1.80715,283,106.25,225,133.765,0\H,289,1.09303,284,105.177,283,-82.1097,0\H,289,1.0932,284,111.302,283,161.426,0\H,289,1.09344,284,108.25,283,47.9205,0\\\@

 Total job time:  55.71s(wall), 181.16s(cpu) 
 Fri Dec  3 15:32:30 2021

        *************************************************************
        *                                                           *
        *  Thank you very much for using Q-Chem.  Have a nice day.  *
        *                                                           *
        *************************************************************


