                  Welcome to Q-Chem
     A Quantum Leap Into The Future Of Chemistry


 Q-Chem 6.0 (devel), Q-Chem, Inc., Pleasanton, CA (2022)

 E. Epifanovsky,  A. T. B. Gilbert,  Xintian Feng,  Joonho Lee,  Yuezhi Mao,  
 N. Mardirossian,  P. Pokhilko,  A. White,  M. Wormit,  M. P. Coons,  
 A. L. Dempwolff,  Zhengting Gan,  D. Hait,  P. R. Horn,  L. D. Jacobson,  
 I. Kaliman,  J. Kussmann,  A. W. Lange,  Ka Un Lao,  D. S. Levine,  Jie Liu,  
 S. C. McKenzie,  A. F. Morrison,  K. Nanda,  F. Plasser,  D. R. Rehn,  
 M. L. Vidal,  Zhi-Qiang You,  Ying Zhu,  B. Alam,  B. Albrecht,  
 A. Aldossary,  E. Alguire,  J. H. Andersen,  V. Athavale,  D. Barton,  
 K. Begam,  A. Behn,  N. Bellonzi,  Y. A. Bernard,  E. J. Berquist,  
 H. Burton,  A. Carreras,  K. Carter-Fenk,  Romit Chakraborty,  
 Chandrima Chakravarty,  Junhan Chen,  A. D. Chien,  K. D. Closser,  
 V. Cofer-Shabica,  L. Cunha,  S. Dasgupta,  Jia Deng,  M. de Wergifosse,  
 M. Diedenhofen,  Hainam Do,  S. Ehlert,  Po-Tung Fang,  S. Fatehi,  
 Qingguo Feng,  T. Friedhoff,  B. Ganoe,  J. Gayvert,  Qinghui Ge,  
 G. Gidofalvi,  M. Goldey,  J. Gomes,  C. Gonzalez-Espinoza,  S. Gulania,  
 A. Gunina,  J. A. Gyamfi,  M. W. D. Hanson-Heine,  P. H. P. Harbach,  
 A. W. Hauser,  M. F. Herbst,  M. Hernandez Vera,  M. Hodecker,  
 Z. C. Holden,  S. Houck,  Xunkun Huang,  Kerwin Hui,  B. C. Huynh,  
 K. Ikeda,  M. Ivanov,  Hyunjun Ji,  Zuxin Jin,  Hanjie Jiang,  B. Kaduk,  
 S. Kaehler,  R. Kang,  K. Khistyaev,  Jaehoon Kim,  Yongbin Kim,  
 P. Klunzinger,  Z. Koczor-Benda,  Joong Hoon Koh,  D. Kosenkov,  
 Saikiran Kotaru,  L. Koulias,  T. Kowalczyk,  C. M. Krauter,  K. Kue,  
 A. Kunitsa,  T. Kus,  A. Landau,  K. V. Lawler,  D. Lefrancois,  S. Lehtola,  
 Rain Li,  Shaozhi Li,  Yi-Pei Li,  Jiashu Liang,  M. Liebenthal,  
 Hung-Hsuan Lin,  You-Sheng Lin,  Fenglai Liu,  Kuan-Yu Liu,  
 M. Loipersberger,  A. Luenser,  C. Malbon,  A. Manjanath,  P. Manohar,  
 E. Mansoor,  S. F. Manzer,  Shan-Ping Mao,  A. V. Marenich,  T. Markovich,  
 S. Mason,  F. Matz,  S. A. Maurer,  P. F. McLaughlin,  M. F. S. J. Menger,  
 J.-M. Mewes,  S. A. Mewes,  P. Morgante,  Mohammad Mostafanejad,  
 J. W. Mullinax,  K. J. Oosterbaan,  G. Paran,  V. Parravicini,  
 Alexander C. Paul,  Suranjan K. Paul,  F. Pavosevic,  Zheng Pei,  S. Prager,  
 E. I. Proynov,  E. Ramos,  B. Rana,  A. E. Rask,  A. Rettig,  R. M. Richard,  
 F. Rob,  E. Rossomme,  T. Scheele,  M. Scheurer,  M. Schneider,  
 P. E. Schneider,  N. Sergueev,  S. M. Sharada,  Hengyuan Shen,  
 W. Skomorowski,  D. W. Small,  C. J. Stein,  Yingli Su,  Yu-Chuan Su,  
 E. J. Sundstrom,  Zhen Tao,  J. Thirman,  Hung-Yi Tsai,  T. Tsuchimochi,  
 N. M. Tubman,  C. Utku,  S. P. Veccham,  O. Vydrov,  J. Wenzel,  
 Jonathan Wong,  J. Witte,  A. Yamada,  Chou-Hsun Yang,  Kun Yao,  
 S. Yeganeh,  S. R. Yost,  A. Zech,  F. Zeller,  Igor Ying Zhang,  
 Xing Zhang,  Yu Zhang,  D. Zuev,  A. Aspuru-Guzik,  A. T. Bell,  
 N. A. Besley,  K. B. Bravaya,  B. R. Brooks,  D. Casanova,  Jeng-Da Chai,  
 Hsing-Ta Chen,  S. Coriani,  C. J. Cramer,  A. E. DePrince, III,  
 R. A. DiStasio Jr.,  A. Dreuw,  B. D. Dunietz,  T. R. Furlani,  
 W. A. Goddard III,  S. Grimme,  S. Hammes-Schiffer,  T. Head-Gordon,  
 W. J. Hehre,  Chao-Ping Hsu,  T.-C. Jagau,  Yousung Jung,  A. Klamt,  
 Jing Kong,  D. S. Lambrecht,  Xiangyuan Li,  WanZhen Liang,  N. J. Mayhall,  
 C. W. McCurdy,  J. B. Neaton,  T. Neudecker,  C. Ochsenfeld,  
 J. A. Parkhill,  R. Peverati,  V. A. Rassolov,  Haisheng Ren,  Yihan Shao,  
 L. V. Slipchenko,  R. P. Steele,  J. E. Subotnik,  A. J. W. Thom,  
 A. Tkatchenko,  D. G. Truhlar,  T. Van Voorhis,  Fan Wang,  
 T. A. Wesolowski,  K. B. Whaley,  H. L. Woodcock III,  P. M. Zimmerman,  
 S. Faraji,  P. M. W. Gill,  M. Head-Gordon,  J. M. Herbert,  A. I. Krylov

 Contributors to earlier versions of Q-Chem not listed above: 
 R. D. Adamson,  B. Austin,  R. Baer,  J. Baker,  G. J. O. Beran,  
 K. Brandhorst,  S. T. Brown,  E. F. C. Byrd,  Arup K. Chakraborty,  
 G. K. L. Chan,  Chun-Min Chang,  Yunqing Chen,  C.-L. Cheng,  
 Siu Hung Chien,  D. M. Chipman,  D. L. Crittenden,  H. Dachsel,  
 R. J. Doerksen,  A. D. Dutoi,  R. G. Edgar,  J. Fosso-Tande,  
 L. Fusti-Molnar,  D. Ghosh,  A. Ghysels,  A. Golubeva-Zadorozhnaya,  
 J. Gonthier,  M. S. Gordon,  S. R. Gwaltney,  G. Hawkins,  J. E. Herr,  
 A. Heyden,  S. Hirata,  E. G. Hohenstein,  G. Kedziora,  F. J. Keil,  
 C. Kelley,  Jihan Kim,  R. A. King,  R. Z. Khaliullin,  P. P. Korambath,  
 W. Kurlancheek,  A. Laurent,  A. M. Lee,  M. S. Lee,  S. V. Levchenko,  
 Ching Yeh Lin,  D. Liotard,  E. Livshits,  R. C. Lochan,  I. Lotan,  
 L. A. Martinez-Martinez,  P. E. Maslen,  N. Nair,  D. P. O'Neill,  
 D. Neuhauser,  E. Neuscamman,  C. M. Oana,  R. Olivares-Amaya,  R. Olson,  
 T. M. Perrine,  B. Peters,  P. A. Pieniazek,  A. Prociuk,  Y. M. Rhee,  
 J. Ritchie,  M. A. Rohrdanz,  E. Rosta,  N. J. Russ,  H. F. Schaefer III,  
 M. W. Schmidt,  N. E. Schultz,  S. Sharma,  N. Shenvi,  C. D. Sherrill,  
 A. C. Simmonett,  A. Sodt,  T. Stein,  D. Stuck,  K. S. Thanthiriwatte,  
 V. Vanovschi,  L. Vogt,  Tao Wang,  A. Warshel,  M. A. Watson,  
 C. F. Williams,  Q. Wu,  X. Xu,  Jun Yang,  W. Zhang,  Yan Zhao

   Please cite Q-Chem as follows:
  "Software for the frontiers of quantum chemistry:
   An overview of developments in the Q-Chem 5 package"
   J. Chem. Phys. 155, 084801 (2021)
   https://doi.org/10.1063/5.0055522 (open access)

 Q-Chem 6.0.0 for Intel X86 EM64T Linux

 Parts of Q-Chem use Armadillo 9.900.5 (Nocturnal Misbehaviour).
 http://arma.sourceforge.net/

 Q-Chem begins on Thu Jul 21 03:13:28 2022  

 Host: nid00524
0

     Scratch files written to /global/cscratch1/sd/ymao90/r7.00_frame_0056_spade_B3LYP_dp20220721031311//
 Processing $rem in /global/homes/y/ymao90/my_qchem/qchem_embedding_5p4/config/preferences:
 Processing $rem in /global/homes/y/ymao90/.qchemrc:
 No nuclear gradient supported for projection-based embedding or EMFT. Set max ideriv = 0.

 Checking the input file for inconsistencies... 	...done.

--------------------------------------------------------------
User input:
--------------------------------------------------------------
$molecule
0 1
--
0 1
C    25.10500   20.74200   27.15800  
C    25.29300   21.64600   28.38700  
C    26.67300   22.32100   28.31200  
C    26.82500   23.02100   26.95200  
C    26.56700   22.28600   25.62600  
C    25.30400   21.42600   25.79600  
H    26.74000   23.05300   29.12600  
H    24.55300   22.45500   28.39300  
H    25.82200   19.91300   27.13100  
H    24.07900   20.35400   27.13400  
H    26.26700   23.96500   26.91500  
H    27.82100   23.47800   26.97600  
H    26.37800   22.97600   24.79600  
H    27.40200   21.58300   25.51500  
H    24.41500   22.06000   25.68600  
H    25.23700   20.59500   25.08300  
H    27.44800   21.55000   28.40100  
N    25.17000   21.00000   29.69300  
H    25.95300   20.47800   30.06700  
C    23.97700   20.85900   30.37000  
H    23.95000   20.32000   31.33500  
O    23.00900   21.46800   29.95200  
--
0 1
C    24.93000   26.64400   28.44600  
H    24.19400   27.02300   27.73300  
H    25.26200   27.36700   29.19500  
H    25.67200   26.14300   27.81800  
S    24.20400   25.24000   29.32200  
C    23.18700   24.58500   27.98000  
H    22.42200   25.31200   27.69400  
H    23.75900   24.22800   27.12000  
H    22.71800   23.67900   28.37200  
O    23.30200   25.77600   30.39000  
C    24.07100   17.94800   21.06100  
H    24.19600   18.15700   22.12700  
H    24.70000   17.07800   20.85800  
H    24.43700   18.79300   20.47300  
S    22.36400   17.43300   20.76700  
C    22.51500   17.73300   18.99100  
H    23.09200   18.63200   18.75900  
H    22.89900   16.80700   18.55700  
H    21.49400   17.79400   18.60400  
O    21.71700   18.71300   21.19800  
C    21.86100   26.05000   35.52100  
H    20.77200   25.99100   35.45000  
H    22.15600   26.77800   36.28100  
H    22.12900   26.34700   34.50400  
S    22.55900   24.43800   35.94500  
C    21.90600   24.47400   37.63000  
H    20.84800   24.74900   37.65600  
H    22.09400   23.50500   38.09800  
H    22.48300   25.25900   38.12500  
O    24.01700   24.73800   36.10200  
C    29.52300   24.59200   30.46600  
H    30.53100   24.21300   30.65700  
H    28.79200   23.91300   30.91300  
H    29.17200   24.58000   29.43200  
S    29.26600   26.27100   31.08200  
C    29.30300   25.77700   32.81900  
H    30.20100   25.15500   32.86200  
H    29.34900   26.69000   33.41800  
H    28.39300   25.24000   33.09900  
O    27.87200   26.69200   30.73600  
C    30.87000   21.08100   34.26300  
H    30.12400   21.48700   33.57400  
H    30.50100   20.08800   34.53100  
H    30.80900   21.67600   35.17800  
S    32.54700   21.31400   33.63400  
C    32.43500   23.11400   33.51900  
H    32.39300   23.49300   34.54300  
H    33.33900   23.58500   33.12500  
H    31.57700   23.49100   32.95700  
O    32.51100   20.90200   32.19500  
C    31.43300   21.52000   28.60900  
H    30.93800   20.56700   28.81100  
H    32.36300   21.33800   28.06400  
H    31.53600   22.06600   29.55000  
S    30.24900   22.42900   27.59100  
C    30.59100   21.38800   26.15400  
H    30.39800   20.31800   26.26900  
H    30.20400   21.72900   25.19100  
H    31.66300   21.48300   25.96000  
O    30.96600   23.72900   27.39600  
C    22.07500   18.78400   36.83100  
H    22.04600   17.97400   36.09700  
H    23.06200   18.75800   37.29900  
H    21.26800   18.69000   37.56200  
S    21.78700   20.36500   36.00400  
C    20.35900   19.85200   35.02200  
H    19.60800   19.52100   35.74300  
H    20.17000   20.68800   34.34400  
H    20.71400   19.04900   34.37100  
O    22.84600   20.58000   34.96900  
C    31.67900   16.49400   29.16100  
H    30.62100   16.72000   29.00500  
H    31.78000   15.55300   29.70900  
H    32.07400   17.36000   29.69900  
S    32.52600   16.36300   27.57100  
C    31.68500   17.83100   26.93700  
H    30.60900   17.81500   27.12800  
H    32.11200   18.73800   27.37400  
H    31.79600   17.96500   25.85800  
O    31.83500   15.17600   26.97500  
C    28.02000   18.43100   33.35400  
H    27.08800   18.05700   33.78500  
H    28.69500   17.72600   33.84600  
H    28.26300   19.45900   33.63500  
S    27.97400   18.28000   31.55400  
C    29.28300   19.46600   31.17100  
H    29.28100   19.56700   30.08300  
H    29.03000   20.43700   31.60300  
H    30.23300   19.06900   31.53800  
O    26.78300   19.06800   31.10600  
C    23.76600   21.53500   21.49000  
H    23.58100   22.32900   22.21900  
H    23.06900   21.69800   20.66400  
H    23.62700   20.61900   22.07000  
S    25.47500   21.76800   20.95200  
C    25.11800   23.27500   20.02200  
H    24.32600   22.98300   19.32700  
H    24.64300   24.03300   20.65000  
H    25.95900   23.73200   19.49300  
O    25.82400   20.70200   19.96100  
C    27.43900   20.81100   36.78500  
H    27.32900   21.39200   35.86700  
H    27.90100   21.32100   37.63400  
H    27.99900   19.92700   36.46900  
S    25.73300   20.32100   37.12700  
C    25.11400   21.90200   37.74500  
H    25.87000   22.19200   38.47900  
H    25.04300   22.53100   36.85400  
H    24.13900   21.68100   38.18700  
O    25.81200   19.56400   38.41600  
C    25.40100   13.59200   24.13300  
H    26.27100   13.70400   23.48100  
H    25.62800   13.85600   25.16900  
H    25.13600   12.53700   24.23800  
S    24.06300   14.68600   23.60600  
C    22.72200   13.48400   23.75500  
H    22.57900   13.15400   24.78700  
H    21.89800   14.00500   23.26100  
H    22.95500   12.58200   23.18300  
O    24.13500   14.62800   22.11200  
C    27.47500   29.40400   24.11900  
H    28.15100   28.83400   23.47600  
H    27.28800   30.34200   23.58900  
H    27.89100   29.58800   25.11300  
S    25.95900   28.43700   24.29700  
C    25.09300   29.41000   25.55000  
H    25.67200   29.36200   26.47500  
H    25.02400   30.46700   25.28000  
H    24.12200   28.92200   25.66500  
O    26.38500   27.24600   25.09700  
C    29.39200   27.59500   27.40900  
H    28.53100   28.24400   27.22700  
H    29.29600   26.74800   26.72400  
H    29.45500   27.27300   28.45100  
S    30.81500   28.64400   27.03800  
C    30.04700   30.04500   27.88200  
H    30.77000   30.86400   27.92200  
H    29.22500   30.39400   27.25200  
H    29.61700   29.78700   28.85300  
O    30.60900   28.78000   25.56100  
C    23.33000   17.85000   32.90700  
H    22.49100   18.43300   32.51800  
H    23.61400   18.06000   33.94100  
H    24.06100   17.91700   32.09700  
S    22.70500   16.15400   32.88600  
C    24.11800   15.47800   33.78600  
H    24.19600   15.80400   34.82700  
H    23.96700   14.39600   33.80000  
H    25.05700   15.74300   33.29300  
O    22.94600   15.65000   31.49800  
C    21.96300   18.76400   24.67200  
H    21.34900   19.63300   24.92400  
H    22.77100   18.64900   25.39900  
H    22.36100   18.97500   23.67500  
S    20.93600   17.28000   24.74300  
C    19.52400   17.80200   23.74400  
H    19.91500   17.96900   22.73800  
H    18.66200   17.13700   23.64600  
H    19.20300   18.72600   24.23100  
O    20.47200   17.41000   26.16100  
C    29.45800   13.46100   29.81600  
H    29.15100   12.41500   29.73400  
H    29.79800   13.81100   28.83800  
H    30.35200   13.65000   30.41700  
S    28.10300   14.56300   30.27700  
C    26.79000   13.81200   29.28800  
H    26.89200   12.74100   29.48100  
H    25.84700   14.26300   29.60900  
H    26.80800   14.10900   28.23600  
O    28.35700   15.60300   29.23100  
C    28.39500   18.90300   20.61100  
H    28.27800   18.16300   19.81600  
H    27.86800   18.46000   21.46000  
H    27.95000   19.87700   20.39300  
S    30.07500   19.20000   21.20800  
C    29.82000   20.86700   21.85700  
H    29.36600   20.81600   22.85000  
H    30.83600   21.25600   21.74700  
H    29.16500   21.52300   21.27800  
O    30.96200   19.54600   20.05200  
C    28.21200   24.91200   23.02900  
H    27.73400   25.40300   23.88000  
H    28.31100   25.77200   22.36000  
H    27.57100   24.16300   22.55700  
S    29.80100   24.15400   23.43700  
C    30.75900   25.63200   23.84100  
H    30.71600   26.29400   22.97200  
H    30.36200   26.08200   24.75400  
H    31.76900   25.22900   23.94900  
O    30.41900   23.72200   22.14400  
C    19.04200   22.35600   31.79900  
H    19.36500   22.12400   30.78100  
H    19.12000   21.39000   32.30300  
H    18.04900   22.80800   31.86500  
S    20.09400   23.55300   32.65100  
C    21.55300   22.48700   32.63900  
H    22.21000   22.83200   31.83700  
H    22.01100   22.81700   33.57500  
H    21.41700   21.40300   32.60900  
O    19.48500   23.56900   34.01900  
C    28.63200   16.65700   26.05400  
H    28.83700   16.61600   27.12700  
H    28.04500   15.75800   25.85300  
H    29.53700   16.76800   25.45100  
S    27.46900   17.97300   25.63200  
C    26.74000   17.25800   24.14100  
H    27.62800   16.93000   23.59400  
H    26.15100   16.44600   24.57400  
H    26.14400   18.02000   23.63200  
O    28.42500   18.99600   25.10300  
C    20.18500   19.55300   29.35100  
H    20.48600   18.99100   28.46300  
H    19.21500   20.04800   29.26500  
H    20.92500   20.32300   29.58400  
S    20.25800   18.32100   30.67100  
C    18.72300   17.58700   30.06400  
H    17.98800   18.39500   30.06700  
H    19.05100   17.23400   29.08300  
H    18.30400   16.81100   30.71000  
O    19.70200   19.07700   31.83700  
C    18.97900   24.61600   26.22800  
H    18.88400   25.63600   26.60900  
H    19.51600   24.64200   25.27600  
H    17.99100   24.19800   26.01800  
S    19.78300   23.52300   27.42100  
C    19.28300   21.97000   26.64300  
H    18.19800   21.89300   26.53700  
H    19.68100   22.06000   25.62900  
H    19.67700   21.22000   27.33400  
O    18.91500   23.28600   28.61700  
C    21.54000   24.93900   22.80800  
H    22.04200   24.61700   21.89200  
H    20.47000   24.72000   22.79200  
H    21.68000   26.02200   22.74800  
S    22.30800   24.29000   24.30900  
C    24.04100   24.72500   24.04100  
H    24.03400   25.78200   24.32000  
H    24.63700   24.17500   24.77400  
H    24.35100   24.43100   23.03500  
O    22.35500   22.80700   24.10800  
C    25.63800   24.25400   32.92600  
H    26.03600   25.04300   32.28400  
H    24.57800   24.08000   32.72400  
H    25.69100   24.68400   33.93000  
S    26.50200   22.69200   32.64500  
C    25.59300   21.61000   33.77200  
H    26.11500   20.65700   33.66100  
H    25.63800   21.94700   34.81100  
H    24.58200   21.57600   33.35600  
O    27.79500   22.97000   33.34600  
C    22.96800   17.31700   28.25900  
H    22.92400   17.28300   29.35100  
H    23.23800   18.31500   27.90600  
H    22.00100   17.02100   27.84400  
S    24.17900   16.07500   27.75400  
C    25.59500   16.92300   28.49000  
H    26.50100   16.53100   28.02000  
H    25.62400   18.00800   28.35700  
H    25.77100   16.66000   29.53600  
O    24.46500   16.23400   26.29300  
C    33.48000   24.47900   29.70100  
H    33.46100   23.77200   30.53400  
H    32.78900   24.25900   28.88300  
H    34.43800   24.43200   29.17800  
S    33.24700   26.21000   30.16600  
C    34.46600   26.21200   31.50000  
H    34.23700   25.32200   32.09100  
H    35.42100   26.05100   30.99200  
H    34.45800   27.08200   32.16100  
O    32.09100   26.29900   31.11300  
$end

$rem
JOBTYPE  SP
METHOD  B3LYP
BASIS  6-31+G(D)
SYMMETRY  FALSE
SYM_IGNORE  TRUE
MEM_TOTAL  12000
MEM_STATIC  4000
BASIS_LIN_DEP_THRESH  6
THRESH  14
SCF_CONVERGENCE  8
FD_MAT_VEC_PROD  FALSE
XC_GRID  000075000302
NL_GRID  1
MAX_SCF_CYCLES  200
ENV_METHOD  B3LYP
GEN_SCFMAN_EMBED  TRUE
SPADE_PARTITION  TRUE
EMBEDDING_EARLY_STOP  TRUE
$end

--------------------------------------------------------------
 ----------------------------------------------------------------
             Standard Nuclear Orientation (Angstroms)
    I     Atom           X                Y                Z
 ----------------------------------------------------------------
    1      C      25.1050000000    20.7420000000    27.1580000000
    2      C      25.2930000000    21.6460000000    28.3870000000
    3      C      26.6730000000    22.3210000000    28.3120000000
    4      C      26.8250000000    23.0210000000    26.9520000000
    5      C      26.5670000000    22.2860000000    25.6260000000
    6      C      25.3040000000    21.4260000000    25.7960000000
    7      H      26.7400000000    23.0530000000    29.1260000000
    8      H      24.5530000000    22.4550000000    28.3930000000
    9      H      25.8220000000    19.9130000000    27.1310000000
   10      H      24.0790000000    20.3540000000    27.1340000000
   11      H      26.2670000000    23.9650000000    26.9150000000
   12      H      27.8210000000    23.4780000000    26.9760000000
   13      H      26.3780000000    22.9760000000    24.7960000000
   14      H      27.4020000000    21.5830000000    25.5150000000
   15      H      24.4150000000    22.0600000000    25.6860000000
   16      H      25.2370000000    20.5950000000    25.0830000000
   17      H      27.4480000000    21.5500000000    28.4010000000
   18      N      25.1700000000    21.0000000000    29.6930000000
   19      H      25.9530000000    20.4780000000    30.0670000000
   20      C      23.9770000000    20.8590000000    30.3700000000
   21      H      23.9500000000    20.3200000000    31.3350000000
   22      O      23.0090000000    21.4680000000    29.9520000000
   23      C      24.9300000000    26.6440000000    28.4460000000
   24      H      24.1940000000    27.0230000000    27.7330000000
   25      H      25.2620000000    27.3670000000    29.1950000000
   26      H      25.6720000000    26.1430000000    27.8180000000
   27      S      24.2040000000    25.2400000000    29.3220000000
   28      C      23.1870000000    24.5850000000    27.9800000000
   29      H      22.4220000000    25.3120000000    27.6940000000
   30      H      23.7590000000    24.2280000000    27.1200000000
   31      H      22.7180000000    23.6790000000    28.3720000000
   32      O      23.3020000000    25.7760000000    30.3900000000
   33      C      24.0710000000    17.9480000000    21.0610000000
   34      H      24.1960000000    18.1570000000    22.1270000000
   35      H      24.7000000000    17.0780000000    20.8580000000
   36      H      24.4370000000    18.7930000000    20.4730000000
   37      S      22.3640000000    17.4330000000    20.7670000000
   38      C      22.5150000000    17.7330000000    18.9910000000
   39      H      23.0920000000    18.6320000000    18.7590000000
   40      H      22.8990000000    16.8070000000    18.5570000000
   41      H      21.4940000000    17.7940000000    18.6040000000
   42      O      21.7170000000    18.7130000000    21.1980000000
   43      C      21.8610000000    26.0500000000    35.5210000000
   44      H      20.7720000000    25.9910000000    35.4500000000
   45      H      22.1560000000    26.7780000000    36.2810000000
   46      H      22.1290000000    26.3470000000    34.5040000000
   47      S      22.5590000000    24.4380000000    35.9450000000
   48      C      21.9060000000    24.4740000000    37.6300000000
   49      H      20.8480000000    24.7490000000    37.6560000000
   50      H      22.0940000000    23.5050000000    38.0980000000
   51      H      22.4830000000    25.2590000000    38.1250000000
   52      O      24.0170000000    24.7380000000    36.1020000000
   53      C      29.5230000000    24.5920000000    30.4660000000
   54      H      30.5310000000    24.2130000000    30.6570000000
   55      H      28.7920000000    23.9130000000    30.9130000000
   56      H      29.1720000000    24.5800000000    29.4320000000
   57      S      29.2660000000    26.2710000000    31.0820000000
   58      C      29.3030000000    25.7770000000    32.8190000000
   59      H      30.2010000000    25.1550000000    32.8620000000
   60      H      29.3490000000    26.6900000000    33.4180000000
   61      H      28.3930000000    25.2400000000    33.0990000000
   62      O      27.8720000000    26.6920000000    30.7360000000
   63      C      30.8700000000    21.0810000000    34.2630000000
   64      H      30.1240000000    21.4870000000    33.5740000000
   65      H      30.5010000000    20.0880000000    34.5310000000
   66      H      30.8090000000    21.6760000000    35.1780000000
   67      S      32.5470000000    21.3140000000    33.6340000000
   68      C      32.4350000000    23.1140000000    33.5190000000
   69      H      32.3930000000    23.4930000000    34.5430000000
   70      H      33.3390000000    23.5850000000    33.1250000000
   71      H      31.5770000000    23.4910000000    32.9570000000
   72      O      32.5110000000    20.9020000000    32.1950000000
   73      C      31.4330000000    21.5200000000    28.6090000000
   74      H      30.9380000000    20.5670000000    28.8110000000
   75      H      32.3630000000    21.3380000000    28.0640000000
   76      H      31.5360000000    22.0660000000    29.5500000000
   77      S      30.2490000000    22.4290000000    27.5910000000
   78      C      30.5910000000    21.3880000000    26.1540000000
   79      H      30.3980000000    20.3180000000    26.2690000000
   80      H      30.2040000000    21.7290000000    25.1910000000
   81      H      31.6630000000    21.4830000000    25.9600000000
   82      O      30.9660000000    23.7290000000    27.3960000000
   83      C      22.0750000000    18.7840000000    36.8310000000
   84      H      22.0460000000    17.9740000000    36.0970000000
   85      H      23.0620000000    18.7580000000    37.2990000000
   86      H      21.2680000000    18.6900000000    37.5620000000
   87      S      21.7870000000    20.3650000000    36.0040000000
   88      C      20.3590000000    19.8520000000    35.0220000000
   89      H      19.6080000000    19.5210000000    35.7430000000
   90      H      20.1700000000    20.6880000000    34.3440000000
   91      H      20.7140000000    19.0490000000    34.3710000000
   92      O      22.8460000000    20.5800000000    34.9690000000
   93      C      31.6790000000    16.4940000000    29.1610000000
   94      H      30.6210000000    16.7200000000    29.0050000000
   95      H      31.7800000000    15.5530000000    29.7090000000
   96      H      32.0740000000    17.3600000000    29.6990000000
   97      S      32.5260000000    16.3630000000    27.5710000000
   98      C      31.6850000000    17.8310000000    26.9370000000
   99      H      30.6090000000    17.8150000000    27.1280000000
  100      H      32.1120000000    18.7380000000    27.3740000000
  101      H      31.7960000000    17.9650000000    25.8580000000
  102      O      31.8350000000    15.1760000000    26.9750000000
  103      C      28.0200000000    18.4310000000    33.3540000000
  104      H      27.0880000000    18.0570000000    33.7850000000
  105      H      28.6950000000    17.7260000000    33.8460000000
  106      H      28.2630000000    19.4590000000    33.6350000000
  107      S      27.9740000000    18.2800000000    31.5540000000
  108      C      29.2830000000    19.4660000000    31.1710000000
  109      H      29.2810000000    19.5670000000    30.0830000000
  110      H      29.0300000000    20.4370000000    31.6030000000
  111      H      30.2330000000    19.0690000000    31.5380000000
  112      O      26.7830000000    19.0680000000    31.1060000000
  113      C      23.7660000000    21.5350000000    21.4900000000
  114      H      23.5810000000    22.3290000000    22.2190000000
  115      H      23.0690000000    21.6980000000    20.6640000000
  116      H      23.6270000000    20.6190000000    22.0700000000
  117      S      25.4750000000    21.7680000000    20.9520000000
  118      C      25.1180000000    23.2750000000    20.0220000000
  119      H      24.3260000000    22.9830000000    19.3270000000
  120      H      24.6430000000    24.0330000000    20.6500000000
  121      H      25.9590000000    23.7320000000    19.4930000000
  122      O      25.8240000000    20.7020000000    19.9610000000
  123      C      27.4390000000    20.8110000000    36.7850000000
  124      H      27.3290000000    21.3920000000    35.8670000000
  125      H      27.9010000000    21.3210000000    37.6340000000
  126      H      27.9990000000    19.9270000000    36.4690000000
  127      S      25.7330000000    20.3210000000    37.1270000000
  128      C      25.1140000000    21.9020000000    37.7450000000
  129      H      25.8700000000    22.1920000000    38.4790000000
  130      H      25.0430000000    22.5310000000    36.8540000000
  131      H      24.1390000000    21.6810000000    38.1870000000
  132      O      25.8120000000    19.5640000000    38.4160000000
  133      C      25.4010000000    13.5920000000    24.1330000000
  134      H      26.2710000000    13.7040000000    23.4810000000
  135      H      25.6280000000    13.8560000000    25.1690000000
  136      H      25.1360000000    12.5370000000    24.2380000000
  137      S      24.0630000000    14.6860000000    23.6060000000
  138      C      22.7220000000    13.4840000000    23.7550000000
  139      H      22.5790000000    13.1540000000    24.7870000000
  140      H      21.8980000000    14.0050000000    23.2610000000
  141      H      22.9550000000    12.5820000000    23.1830000000
  142      O      24.1350000000    14.6280000000    22.1120000000
  143      C      27.4750000000    29.4040000000    24.1190000000
  144      H      28.1510000000    28.8340000000    23.4760000000
  145      H      27.2880000000    30.3420000000    23.5890000000
  146      H      27.8910000000    29.5880000000    25.1130000000
  147      S      25.9590000000    28.4370000000    24.2970000000
  148      C      25.0930000000    29.4100000000    25.5500000000
  149      H      25.6720000000    29.3620000000    26.4750000000
  150      H      25.0240000000    30.4670000000    25.2800000000
  151      H      24.1220000000    28.9220000000    25.6650000000
  152      O      26.3850000000    27.2460000000    25.0970000000
  153      C      29.3920000000    27.5950000000    27.4090000000
  154      H      28.5310000000    28.2440000000    27.2270000000
  155      H      29.2960000000    26.7480000000    26.7240000000
  156      H      29.4550000000    27.2730000000    28.4510000000
  157      S      30.8150000000    28.6440000000    27.0380000000
  158      C      30.0470000000    30.0450000000    27.8820000000
  159      H      30.7700000000    30.8640000000    27.9220000000
  160      H      29.2250000000    30.3940000000    27.2520000000
  161      H      29.6170000000    29.7870000000    28.8530000000
  162      O      30.6090000000    28.7800000000    25.5610000000
  163      C      23.3300000000    17.8500000000    32.9070000000
  164      H      22.4910000000    18.4330000000    32.5180000000
  165      H      23.6140000000    18.0600000000    33.9410000000
  166      H      24.0610000000    17.9170000000    32.0970000000
  167      S      22.7050000000    16.1540000000    32.8860000000
  168      C      24.1180000000    15.4780000000    33.7860000000
  169      H      24.1960000000    15.8040000000    34.8270000000
  170      H      23.9670000000    14.3960000000    33.8000000000
  171      H      25.0570000000    15.7430000000    33.2930000000
  172      O      22.9460000000    15.6500000000    31.4980000000
  173      C      21.9630000000    18.7640000000    24.6720000000
  174      H      21.3490000000    19.6330000000    24.9240000000
  175      H      22.7710000000    18.6490000000    25.3990000000
  176      H      22.3610000000    18.9750000000    23.6750000000
  177      S      20.9360000000    17.2800000000    24.7430000000
  178      C      19.5240000000    17.8020000000    23.7440000000
  179      H      19.9150000000    17.9690000000    22.7380000000
  180      H      18.6620000000    17.1370000000    23.6460000000
  181      H      19.2030000000    18.7260000000    24.2310000000
  182      O      20.4720000000    17.4100000000    26.1610000000
  183      C      29.4580000000    13.4610000000    29.8160000000
  184      H      29.1510000000    12.4150000000    29.7340000000
  185      H      29.7980000000    13.8110000000    28.8380000000
  186      H      30.3520000000    13.6500000000    30.4170000000
  187      S      28.1030000000    14.5630000000    30.2770000000
  188      C      26.7900000000    13.8120000000    29.2880000000
  189      H      26.8920000000    12.7410000000    29.4810000000
  190      H      25.8470000000    14.2630000000    29.6090000000
  191      H      26.8080000000    14.1090000000    28.2360000000
  192      O      28.3570000000    15.6030000000    29.2310000000
  193      C      28.3950000000    18.9030000000    20.6110000000
  194      H      28.2780000000    18.1630000000    19.8160000000
  195      H      27.8680000000    18.4600000000    21.4600000000
  196      H      27.9500000000    19.8770000000    20.3930000000
  197      S      30.0750000000    19.2000000000    21.2080000000
  198      C      29.8200000000    20.8670000000    21.8570000000
  199      H      29.3660000000    20.8160000000    22.8500000000
  200      H      30.8360000000    21.2560000000    21.7470000000
  201      H      29.1650000000    21.5230000000    21.2780000000
  202      O      30.9620000000    19.5460000000    20.0520000000
  203      C      28.2120000000    24.9120000000    23.0290000000
  204      H      27.7340000000    25.4030000000    23.8800000000
  205      H      28.3110000000    25.7720000000    22.3600000000
  206      H      27.5710000000    24.1630000000    22.5570000000
  207      S      29.8010000000    24.1540000000    23.4370000000
  208      C      30.7590000000    25.6320000000    23.8410000000
  209      H      30.7160000000    26.2940000000    22.9720000000
  210      H      30.3620000000    26.0820000000    24.7540000000
  211      H      31.7690000000    25.2290000000    23.9490000000
  212      O      30.4190000000    23.7220000000    22.1440000000
  213      C      19.0420000000    22.3560000000    31.7990000000
  214      H      19.3650000000    22.1240000000    30.7810000000
  215      H      19.1200000000    21.3900000000    32.3030000000
  216      H      18.0490000000    22.8080000000    31.8650000000
  217      S      20.0940000000    23.5530000000    32.6510000000
  218      C      21.5530000000    22.4870000000    32.6390000000
  219      H      22.2100000000    22.8320000000    31.8370000000
  220      H      22.0110000000    22.8170000000    33.5750000000
  221      H      21.4170000000    21.4030000000    32.6090000000
  222      O      19.4850000000    23.5690000000    34.0190000000
  223      C      28.6320000000    16.6570000000    26.0540000000
  224      H      28.8370000000    16.6160000000    27.1270000000
  225      H      28.0450000000    15.7580000000    25.8530000000
  226      H      29.5370000000    16.7680000000    25.4510000000
  227      S      27.4690000000    17.9730000000    25.6320000000
  228      C      26.7400000000    17.2580000000    24.1410000000
  229      H      27.6280000000    16.9300000000    23.5940000000
  230      H      26.1510000000    16.4460000000    24.5740000000
  231      H      26.1440000000    18.0200000000    23.6320000000
  232      O      28.4250000000    18.9960000000    25.1030000000
  233      C      20.1850000000    19.5530000000    29.3510000000
  234      H      20.4860000000    18.9910000000    28.4630000000
  235      H      19.2150000000    20.0480000000    29.2650000000
  236      H      20.9250000000    20.3230000000    29.5840000000
  237      S      20.2580000000    18.3210000000    30.6710000000
  238      C      18.7230000000    17.5870000000    30.0640000000
  239      H      17.9880000000    18.3950000000    30.0670000000
  240      H      19.0510000000    17.2340000000    29.0830000000
  241      H      18.3040000000    16.8110000000    30.7100000000
  242      O      19.7020000000    19.0770000000    31.8370000000
  243      C      18.9790000000    24.6160000000    26.2280000000
  244      H      18.8840000000    25.6360000000    26.6090000000
  245      H      19.5160000000    24.6420000000    25.2760000000
  246      H      17.9910000000    24.1980000000    26.0180000000
  247      S      19.7830000000    23.5230000000    27.4210000000
  248      C      19.2830000000    21.9700000000    26.6430000000
  249      H      18.1980000000    21.8930000000    26.5370000000
  250      H      19.6810000000    22.0600000000    25.6290000000
  251      H      19.6770000000    21.2200000000    27.3340000000
  252      O      18.9150000000    23.2860000000    28.6170000000
  253      C      21.5400000000    24.9390000000    22.8080000000
  254      H      22.0420000000    24.6170000000    21.8920000000
  255      H      20.4700000000    24.7200000000    22.7920000000
  256      H      21.6800000000    26.0220000000    22.7480000000
  257      S      22.3080000000    24.2900000000    24.3090000000
  258      C      24.0410000000    24.7250000000    24.0410000000
  259      H      24.0340000000    25.7820000000    24.3200000000
  260      H      24.6370000000    24.1750000000    24.7740000000
  261      H      24.3510000000    24.4310000000    23.0350000000
  262      O      22.3550000000    22.8070000000    24.1080000000
  263      C      25.6380000000    24.2540000000    32.9260000000
  264      H      26.0360000000    25.0430000000    32.2840000000
  265      H      24.5780000000    24.0800000000    32.7240000000
  266      H      25.6910000000    24.6840000000    33.9300000000
  267      S      26.5020000000    22.6920000000    32.6450000000
  268      C      25.5930000000    21.6100000000    33.7720000000
  269      H      26.1150000000    20.6570000000    33.6610000000
  270      H      25.6380000000    21.9470000000    34.8110000000
  271      H      24.5820000000    21.5760000000    33.3560000000
  272      O      27.7950000000    22.9700000000    33.3460000000
  273      C      22.9680000000    17.3170000000    28.2590000000
  274      H      22.9240000000    17.2830000000    29.3510000000
  275      H      23.2380000000    18.3150000000    27.9060000000
  276      H      22.0010000000    17.0210000000    27.8440000000
  277      S      24.1790000000    16.0750000000    27.7540000000
  278      C      25.5950000000    16.9230000000    28.4900000000
  279      H      26.5010000000    16.5310000000    28.0200000000
  280      H      25.6240000000    18.0080000000    28.3570000000
  281      H      25.7710000000    16.6600000000    29.5360000000
  282      O      24.4650000000    16.2340000000    26.2930000000
  283      C      33.4800000000    24.4790000000    29.7010000000
  284      H      33.4610000000    23.7720000000    30.5340000000
  285      H      32.7890000000    24.2590000000    28.8830000000
  286      H      34.4380000000    24.4320000000    29.1780000000
  287      S      33.2470000000    26.2100000000    30.1660000000
  288      C      34.4660000000    26.2120000000    31.5000000000
  289      H      34.2370000000    25.3220000000    32.0910000000
  290      H      35.4210000000    26.0510000000    30.9920000000
  291      H      34.4580000000    27.0820000000    32.1610000000
  292      O      32.0910000000    26.2990000000    31.1130000000
 ----------------------------------------------------------------
 Nuclear Repulsion Energy =       48097.23412350 hartrees
 There are      602 alpha and      602 beta electrons
 Requested basis set is 6-31+G(d)
 There are 962 shells and 2681 basis functions

 Total QAlloc Memory Limit  12000 MB
 Mega-Array Size      3911 MB
 MEM_STATIC part      4000 MB

 A cutoff of  1.0D-14 yielded 176084 shell pairs
 There are   1534095 function pairs
 Smallest overlap matrix eigenvalue = 6.48E-07
 Linear dependence detected in AO basis
 Tighter screening thresholds may be required for diffuse basis sets
 Use S2THRESH > 14 and THRESH = 14 in case of SCF convergence issues
 Number of orthogonalized atomic orbitals = 2678
 Maximum deviation from orthogonality = 1.378E-10

 Scale SEOQF with 1.000000e-03/1.000000e-03/1.000000e-03

 Standard Electronic Orientation quadrupole field applied
 Nucleus-field energy     =    -0.0000003771 hartrees
 Guess from superposition of atomic densities
 Warning:  Energy on first SCF cycle will be non-variational
 SAD guess density has 1204.000002 electrons

 -----------------------------------------------------------------------
  General SCF calculation program by
  Eric Jon Sundstrom, Paul Horn, Yuezhi Mao, Dmitri Zuev, Alec White,
  David Stuck, Shaama M.S., Shane Yost, Joonho Lee, David Small,
  Daniel Levine, Susi Lehtola, Hugh Burton, Evgeny Epifanovsky,
  Bang C. Huynh
 -----------------------------------------------------------------------
=================================================
        Doing projection-based embedding         
      F. Manby et al. JCTC, 8, 2564 (2012)       
=================================================

****************************************************
   Low-level SCF calculation for the whole system   
****************************************************
----------------------------------------------
 Summary of the low-level theory: 
 Exchange:     0.2000 Hartree-Fock + 0.0800 Slater + 0.7200 B88
 Correlation:  0.1900 VWN1RPA + 0.8100 LYP
 Using Euler-Maclaurin-Lebedev (75,302) quadrature formula
----------------------------------------------
 using 16 threads for integral computing
 -------------------------------------------------------
 OpenMP Integral computing Module                
 Release: version 1.0, May 2013, Q-Chem Inc. Pittsburgh 
 -------------------------------------------------------
 A restricted SCF calculation will be
 performed using DIIS
 SCF converges when DIIS error is below 1.0e-08
 ---------------------------------------
  Cycle       Energy         DIIS error
 ---------------------------------------
    1  -15359.8701724923      1.35e-02  
    2  -15335.8259471742      2.52e-03  
    3  -15321.7034862701      4.87e-03  
    4  -15339.6961767959      1.09e-03  
    5  -15340.6924252268      1.77e-04  
    6  -15340.7071957785      1.30e-04  
    7  -15340.7185800553      5.38e-05  
    8  -15340.7206773826      1.12e-05  
    9  -15340.7207650027      4.82e-06  
   10  -15340.7207802039      1.89e-06  
   11  -15340.7207826190      5.24e-07  
   12  -15340.7207828093      2.03e-07  
   13  -15340.7207828412      5.76e-08  
   14  -15340.7207828432      2.87e-08  
   15  -15340.7207828439      7.83e-09  Convergence criterion met
 ---------------------------------------
 SCF time:   CPU 274320.16s  wall 19871.00s 
 SCF   energy in the final basis set =   -15340.7207828439
 Total energy in the final basis set =   -15340.7207828439

****************************************************
             Start embedding calculation            
****************************************************
----------------------------------------------
 Summary of the high-level theory: 
 Exchange:     0.2000 Hartree-Fock + 0.0800 Slater + 0.7200 B88
 Correlation:  0.1900 VWN1RPA + 0.8100 LYP
 Using Euler-Maclaurin-Lebedev (75,302) quadrature formula
----------------------------------------------
Doing R-in-R Embedding Calculation
Number of fragments: 2
Embedded fragment(s): 1 
NOcc for each fragment
           35
          567
NBasis for each fragment
          197
         2484
Variational space of the embedded problem: 
NOcc (active)  = 35
NOcc (fixed)   = 567
NVir (total)   = 2076
Read converged orbitals from disk
=========================================================
       Doing SPADE partition for the orbital space       
     D. Claudino and N. Mayhall JCTC 15, 1053 (2019)     
=========================================================
SPADE singular values:
 1.0000 1.0000 1.0000 1.0000 1.0000 1.0000 1.0000 1.0000 1.0000 0.9999
 0.9998 0.9997 0.9996 0.9996 0.9994 0.9994 0.9993 0.9991 0.9986 0.9973
 0.9971 0.9967 0.9960 0.9957 0.9951 0.9945 0.9937 0.9935 0.9931 0.9917
 0.9908 0.9907 0.9890 0.9861 0.9785 0.2261 0.2028 0.1906 0.1630 0.1526
 0.1408 0.1220 0.1184 0.1127 0.1096 0.1039 0.0983 0.0891 0.0829 0.0714
 0.0617 0.0570 0.0546 0.0505 0.0474 0.0422 0.0418 0.0355 0.0329 0.0309
 0.0297 0.0267 0.0266 0.0241 0.0237 0.0228 0.0201 0.0197 0.0194 0.0179
 0.0174 0.0171 0.0150 0.0142 0.0131 0.0125 0.0115 0.0114 0.0103 0.0099
 0.0094 0.0087 0.0084 0.0080 0.0078 0.0072 0.0068 0.0065 0.0064 0.0061
 0.0058 0.0056 0.0053 0.0047 0.0046 0.0042 0.0040 0.0039 0.0035 0.0035
 0.0034 0.0032 0.0029 0.0028 0.0027 0.0026 0.0025 0.0024 0.0023 0.0022
 0.0021 0.0021 0.0020 0.0019 0.0018 0.0018 0.0017 0.0016 0.0016 0.0015
 0.0014 0.0014 0.0013 0.0012 0.0012 0.0011 0.0011 0.0011 0.0010 0.0010
 0.0010 0.0009 0.0009 0.0009 0.0008 0.0008 0.0008 0.0007 0.0007 0.0007
 0.0007 0.0006 0.0006 0.0006 0.0006 0.0005 0.0005 0.0005 0.0005 0.0005
 0.0004 0.0004 0.0004 0.0004 0.0004 0.0003 0.0003 0.0003 0.0003 0.0003
 0.0003 0.0003 0.0003 0.0002 0.0002 0.0002 0.0002 0.0002 0.0002 0.0002
 0.0002 0.0002 0.0002 0.0002 0.0002 0.0002 0.0001 0.0001 0.0001 0.0001
 0.0001 0.0001 0.0001 0.0001 0.0001 0.0001 0.0001 0.0001 0.0001 0.0001
 0.0001 0.0001 0.0001 0.0001 0.0001 0.0001 0.0000
Early stop requested; no embedded SCF will be performed

 567 environment occs will be part of frozen-core in future post-HF calculations

 --------------------------------------------------------------

                    Orbital Energies (a.u.)
 --------------------------------------------------------------

 Alpha MOs
 -- Occupied --
-89.0265 -89.0247 -89.0240 -89.0215 -89.0188 -89.0093 -89.0063 -89.0057
-89.0044 -89.0026 -88.9979 -88.9961 -88.9953 -88.9936 -88.9932 -88.9927
-88.9922 -88.9898 -88.9895 -88.9883 -88.9881 -88.9856 -88.9833 -88.9814
-88.9690 -88.9585 -88.9538 -19.1416 -19.1328 -19.1322 -19.1297 -19.1234
-19.1211 -19.1207 -19.1195 -19.1162 -19.1161 -19.1137 -19.1124 -19.1113
-19.1066 -19.1046 -19.1035 -19.1026 -19.1016 -19.1016 -19.1013 -19.1009
-19.1005 -19.0969 -19.0964 -19.0959 -19.0835 -19.0665 -10.2465 -10.2450
-10.2416 -10.2396 -10.2370 -10.2328 -10.2325 -10.2307 -10.2306 -10.2305
-10.2272 -10.2266 -10.2259 -10.2253 -10.2214 -10.2211 -10.2201 -10.2190
-10.2188 -10.2179 -10.2174 -10.2172 -10.2125 -10.2101 -10.2091 -10.2089
-10.2079 -10.2076 -10.2075 -10.2074 -10.2063 -10.2062 -10.2061 -10.2056
-10.2049 -10.2048 -10.2047 -10.2046 -10.2034 -10.2017 -10.2009 -10.1996
-10.1992 -10.1985 -10.1964 -10.1962 -10.1949 -10.1922 -10.1888 -10.1865
-10.1746 -10.1720 -10.1674 -10.1661  -8.0714  -8.0706  -8.0705  -8.0668
 -8.0651  -8.0552  -8.0523  -8.0515  -8.0493  -8.0477  -8.0439  -8.0413
 -8.0411  -8.0398  -8.0393  -8.0386  -8.0375  -8.0363  -8.0357  -8.0345
 -8.0336  -8.0312  -8.0289  -8.0265  -8.0147  -8.0045  -8.0001  -6.0360
 -6.0348  -6.0347  -6.0347  -6.0337  -6.0336  -6.0313  -6.0300  -6.0294
 -6.0288  -6.0283  -6.0283  -6.0278  -6.0242  -6.0225  -6.0195  -6.0183
 -6.0166  -6.0157  -6.0154  -6.0146  -6.0138  -6.0127  -6.0124  -6.0123
 -6.0109  -6.0098  -6.0090  -6.0081  -6.0071  -6.0069  -6.0057  -6.0056
 -6.0051  -6.0043  -6.0042  -6.0040  -6.0039  -6.0031  -6.0026  -6.0023
 -6.0021  -6.0014  -6.0013  -6.0007  -6.0006  -5.9999  -5.9993  -5.9991
 -5.9989  -5.9989  -5.9987  -5.9982  -5.9975  -5.9975  -5.9967  -5.9966
 -5.9965  -5.9955  -5.9949  -5.9943  -5.9936  -5.9932  -5.9930  -5.9922
 -5.9919  -5.9910  -5.9909  -5.9899  -5.9887  -5.9862  -5.9837  -5.9793
 -5.9777  -5.9717  -5.9688  -5.9675  -5.9644  -5.9632  -5.9619  -5.9575
 -1.0523  -1.0456  -1.0453  -1.0436  -1.0391  -1.0319  -1.0306  -1.0284
 -1.0262  -1.0250  -1.0238  -1.0211  -1.0202  -1.0200  -1.0171  -1.0162
 -1.0161  -1.0156  -1.0152  -1.0137  -1.0128  -1.0114  -1.0058  -1.0048
 -0.9999  -0.9889  -0.9761  -0.8242  -0.8239  -0.8173  -0.8156  -0.8093
 -0.8089  -0.8079  -0.8070  -0.8069  -0.8046  -0.8007  -0.8001  -0.7993
 -0.7957  -0.7939  -0.7930  -0.7910  -0.7904  -0.7870  -0.7868  -0.7855
 -0.7843  -0.7833  -0.7826  -0.7799  -0.7602  -0.7588  -0.7551  -0.7546
 -0.7486  -0.7478  -0.7434  -0.7350  -0.7347  -0.7297  -0.7283  -0.7270
 -0.7266  -0.7231  -0.7225  -0.7223  -0.7207  -0.7179  -0.7169  -0.7163
 -0.7152  -0.7138  -0.7121  -0.7116  -0.7104  -0.7082  -0.7018  -0.6842
 -0.6830  -0.6406  -0.6377  -0.6372  -0.6341  -0.6290  -0.6229  -0.6216
 -0.6177  -0.6156  -0.6156  -0.6143  -0.6094  -0.6080  -0.6053  -0.6051
 -0.6045  -0.6024  -0.6007  -0.6006  -0.5987  -0.5978  -0.5964  -0.5960
 -0.5944  -0.5849  -0.5689  -0.5676  -0.5113  -0.5076  -0.5028  -0.4996
 -0.4990  -0.4951  -0.4912  -0.4897  -0.4888  -0.4870  -0.4861  -0.4852
 -0.4850  -0.4847  -0.4841  -0.4839  -0.4835  -0.4823  -0.4816  -0.4797
 -0.4779  -0.4770  -0.4760  -0.4757  -0.4749  -0.4746  -0.4739  -0.4738
 -0.4735  -0.4731  -0.4712  -0.4706  -0.4703  -0.4700  -0.4694  -0.4692
 -0.4692  -0.4691  -0.4684  -0.4672  -0.4662  -0.4659  -0.4657  -0.4646
 -0.4645  -0.4625  -0.4622  -0.4612  -0.4609  -0.4602  -0.4595  -0.4592
 -0.4588  -0.4577  -0.4576  -0.4567  -0.4563  -0.4557  -0.4554  -0.4552
 -0.4546  -0.4544  -0.4520  -0.4515  -0.4512  -0.4498  -0.4490  -0.4485
 -0.4468  -0.4467  -0.4456  -0.4449  -0.4448  -0.4442  -0.4435  -0.4429
 -0.4425  -0.4421  -0.4414  -0.4386  -0.4370  -0.4363  -0.4354  -0.4353
 -0.4353  -0.4344  -0.4339  -0.4332  -0.4331  -0.4313  -0.4299  -0.4294
 -0.4293  -0.4276  -0.4266  -0.4253  -0.4251  -0.4242  -0.4234  -0.4223
 -0.4220  -0.4216  -0.4205  -0.4196  -0.4194  -0.4189  -0.4181  -0.4175
 -0.4158  -0.4157  -0.4155  -0.4150  -0.4142  -0.4136  -0.4130  -0.4128
 -0.4120  -0.4110  -0.4101  -0.4097  -0.4088  -0.4085  -0.4073  -0.4060
 -0.4044  -0.4039  -0.4034  -0.4026  -0.4023  -0.4019  -0.4017  -0.4002
 -0.3994  -0.3987  -0.3986  -0.3980  -0.3968  -0.3959  -0.3954  -0.3947
 -0.3929  -0.3920  -0.3909  -0.3905  -0.3897  -0.3896  -0.3887  -0.3873
 -0.3871  -0.3855  -0.3849  -0.3839  -0.3823  -0.3822  -0.3814  -0.3804
 -0.3803  -0.3785  -0.3780  -0.3776  -0.3772  -0.3734  -0.3731  -0.3721
 -0.3716  -0.3714  -0.3692  -0.3666  -0.3653  -0.3619  -0.3602  -0.3594
 -0.3592  -0.3583  -0.3579  -0.3568  -0.3561  -0.3542  -0.3536  -0.3511
 -0.3507  -0.3490  -0.3483  -0.3451  -0.3404  -0.3361  -0.3353  -0.3233
 -0.3179  -0.3061  -0.2960  -0.2934  -0.2915  -0.2837  -0.2831  -0.2806
 -0.2804  -0.2764  -0.2752  -0.2751  -0.2742  -0.2705  -0.2689  -0.2670
 -0.2658  -0.2654  -0.2641  -0.2634  -0.2632  -0.2606  -0.2598  -0.2590
 -0.2583  -0.2582  -0.2574  -0.2572  -0.2569  -0.2565  -0.2564  -0.2506
 -0.2482  -0.2478  -0.2442  -0.2440  -0.2434  -0.2415  -0.2375  -0.2373
 -0.2364  -0.2344  -0.2338  -0.2324  -0.2304  -0.2284  -0.2273  -0.2273
 -0.2271  -0.2247  -0.2203  -0.2187  -0.2078  -0.2057  -0.1916 -10.1839
-11.8472 -10.7102 -11.2251 -15.6837 -13.1124 -10.8639 -10.2539 -10.1700
 -0.7320  -0.7303  -0.5224  -0.9338  -0.6775  -0.7616  -0.7330  -0.5600
 -0.6704  -0.4390  -0.4317  -0.4673  -0.3809  -0.4548  -0.4506  -0.4214
 -0.4473  -0.4425  -0.4407  -0.4179  -0.4604  -0.4422  -0.4556  -0.4701
 -0.5379  -0.5309
 -- Virtual --
 -0.0418  -0.0362  -0.0341  -0.0276  -0.0218  -0.0207  -0.0202  -0.0180
 -0.0177  -0.0167  -0.0136  -0.0133  -0.0106  -0.0095  -0.0080  -0.0077
 -0.0067  -0.0054  -0.0048  -0.0041  -0.0039  -0.0029  -0.0021  -0.0012
  0.0000   0.0003   0.0010   0.0019   0.0026   0.0028   0.0032   0.0055
  0.0065   0.0070   0.0078   0.0083   0.0089   0.0101   0.0106   0.0110
  0.0124   0.0131   0.0141   0.0149   0.0151   0.0154   0.0164   0.0170
  0.0174   0.0183   0.0195   0.0206   0.0209   0.0213   0.0220   0.0230
  0.0234   0.0236   0.0248   0.0253   0.0256   0.0259   0.0269   0.0277
  0.0285   0.0289   0.0295   0.0304   0.0310   0.0316   0.0326   0.0332
  0.0340   0.0345   0.0348   0.0354   0.0356   0.0365   0.0368   0.0370
  0.0377   0.0385   0.0394   0.0401   0.0403   0.0412   0.0414   0.0427
  0.0432   0.0442   0.0448   0.0451   0.0457   0.0469   0.0472   0.0473
  0.0483   0.0491   0.0504   0.0507   0.0512   0.0520   0.0522   0.0528
  0.0536   0.0542   0.0550   0.0557   0.0559   0.0566   0.0577   0.0580
  0.0591   0.0595   0.0597   0.0599   0.0608   0.0614   0.0623   0.0635
  0.0637   0.0645   0.0647   0.0654   0.0659   0.0661   0.0669   0.0677
  0.0683   0.0690   0.0691   0.0702   0.0710   0.0720   0.0727   0.0730
  0.0736   0.0739   0.0746   0.0754   0.0759   0.0763   0.0780   0.0783
  0.0789   0.0796   0.0803   0.0808   0.0812   0.0818   0.0826   0.0831
  0.0838   0.0843   0.0853   0.0861   0.0867   0.0872   0.0876   0.0883
  0.0888   0.0895   0.0901   0.0906   0.0917   0.0918   0.0919   0.0926
  0.0938   0.0941   0.0946   0.0955   0.0956   0.0969   0.0970   0.0973
  0.0987   0.0993   0.0999   0.1005   0.1010   0.1021   0.1027   0.1030
  0.1039   0.1040   0.1045   0.1053   0.1059   0.1067   0.1073   0.1080
  0.1084   0.1097   0.1098   0.1103   0.1109   0.1117   0.1129   0.1130
  0.1132   0.1140   0.1145   0.1148   0.1165   0.1170   0.1177   0.1178
  0.1180   0.1191   0.1196   0.1202   0.1212   0.1216   0.1223   0.1231
  0.1241   0.1242   0.1253   0.1256   0.1265   0.1267   0.1276   0.1277
  0.1288   0.1290   0.1295   0.1309   0.1313   0.1322   0.1331   0.1333
  0.1340   0.1348   0.1352   0.1357   0.1361   0.1365   0.1379   0.1382
  0.1385   0.1388   0.1400   0.1408   0.1412   0.1415   0.1418   0.1428
  0.1435   0.1437   0.1450   0.1451   0.1459   0.1462   0.1473   0.1481
  0.1488   0.1498   0.1501   0.1504   0.1506   0.1515   0.1529   0.1530
  0.1534   0.1545   0.1546   0.1548   0.1558   0.1565   0.1570   0.1580
  0.1586   0.1590   0.1598   0.1601   0.1609   0.1611   0.1617   0.1624
  0.1630   0.1635   0.1640   0.1642   0.1648   0.1652   0.1665   0.1671
  0.1672   0.1678   0.1684   0.1695   0.1704   0.1707   0.1715   0.1721
  0.1729   0.1735   0.1739   0.1743   0.1747   0.1757   0.1762   0.1767
  0.1771   0.1774   0.1783   0.1789   0.1790   0.1799   0.1806   0.1808
  0.1817   0.1823   0.1826   0.1834   0.1840   0.1843   0.1847   0.1853
  0.1860   0.1863   0.1870   0.1882   0.1889   0.1895   0.1900   0.1903
  0.1911   0.1916   0.1924   0.1927   0.1933   0.1938   0.1944   0.1950
  0.1954   0.1961   0.1968   0.1975   0.1983   0.1985   0.1989   0.1998
  0.2001   0.2008   0.2013   0.2022   0.2030   0.2032   0.2042   0.2044
  0.2052   0.2057   0.2064   0.2067   0.2073   0.2078   0.2079   0.2087
  0.2098   0.2106   0.2110   0.2120   0.2131   0.2136   0.2143   0.2145
  0.2152   0.2160   0.2163   0.2167   0.2183   0.2189   0.2191   0.2204
  0.2207   0.2213   0.2225   0.2232   0.2239   0.2242   0.2249   0.2253
  0.2257   0.2264   0.2273   0.2280   0.2288   0.2293   0.2294   0.2301
  0.2306   0.2315   0.2321   0.2327   0.2338   0.2341   0.2346   0.2349
  0.2361   0.2363   0.2370   0.2375   0.2381   0.2396   0.2397   0.2410
  0.2411   0.2419   0.2421   0.2436   0.2441   0.2445   0.2456   0.2460
  0.2472   0.2476   0.2480   0.2482   0.2501   0.2503   0.2513   0.2516
  0.2519   0.2526   0.2542   0.2546   0.2552   0.2555   0.2566   0.2572
  0.2577   0.2582   0.2593   0.2603   0.2609   0.2622   0.2624   0.2625
  0.2641   0.2648   0.2656   0.2659   0.2666   0.2673   0.2677   0.2686
  0.2702   0.2704   0.2711   0.2718   0.2720   0.2727   0.2735   0.2740
  0.2748   0.2757   0.2767   0.2771   0.2776   0.2782   0.2783   0.2799
  0.2807   0.2813   0.2826   0.2832   0.2839   0.2841   0.2854   0.2861
  0.2864   0.2874   0.2882   0.2888   0.2897   0.2911   0.2918   0.2931
  0.2935   0.2942   0.2944   0.2950   0.2964   0.2975   0.2982   0.2986
  0.3000   0.3009   0.3017   0.3025   0.3032   0.3041   0.3047   0.3056
  0.3059   0.3064   0.3066   0.3081   0.3083   0.3091   0.3101   0.3106
  0.3116   0.3119   0.3135   0.3149   0.3157   0.3167   0.3176   0.3180
  0.3184   0.3202   0.3205   0.3210   0.3222   0.3224   0.3243   0.3251
  0.3256   0.3262   0.3273   0.3281   0.3291   0.3301   0.3312   0.3315
  0.3323   0.3331   0.3336   0.3342   0.3352   0.3381   0.3386   0.3389
  0.3404   0.3412   0.3419   0.3421   0.3427   0.3433   0.3434   0.3450
  0.3461   0.3469   0.3471   0.3489   0.3500   0.3504   0.3514   0.3516
  0.3519   0.3526   0.3548   0.3554   0.3564   0.3565   0.3578   0.3588
  0.3590   0.3594   0.3612   0.3617   0.3631   0.3635   0.3641   0.3654
  0.3663   0.3664   0.3685   0.3688   0.3691   0.3699   0.3705   0.3712
  0.3721   0.3727   0.3747   0.3749   0.3758   0.3764   0.3778   0.3785
  0.3794   0.3801   0.3812   0.3819   0.3823   0.3831   0.3837   0.3858
  0.3866   0.3870   0.3879   0.3889   0.3895   0.3896   0.3910   0.3914
  0.3931   0.3947   0.3953   0.3963   0.3975   0.3982   0.3988   0.3995
  0.3999   0.4011   0.4022   0.4025   0.4031   0.4041   0.4052   0.4059
  0.4066   0.4081   0.4092   0.4093   0.4105   0.4111   0.4125   0.4129
  0.4137   0.4148   0.4156   0.4164   0.4173   0.4184   0.4193   0.4199
  0.4208   0.4218   0.4222   0.4229   0.4239   0.4259   0.4260   0.4275
  0.4292   0.4296   0.4304   0.4317   0.4326   0.4333   0.4345   0.4352
  0.4361   0.4383   0.4399   0.4406   0.4411   0.4420   0.4438   0.4441
  0.4454   0.4466   0.4473   0.4492   0.4498   0.4503   0.4523   0.4540
  0.4553   0.4557   0.4575   0.4585   0.4601   0.4612   0.4615   0.4633
  0.4641   0.4662   0.4664   0.4672   0.4680   0.4690   0.4696   0.4719
  0.4737   0.4749   0.4772   0.4779   0.4791   0.4815   0.4832   0.4836
  0.4846   0.4863   0.4870   0.4888   0.4901   0.4910   0.4923   0.4939
  0.4948   0.4962   0.4981   0.4991   0.5004   0.5023   0.5037   0.5063
  0.5080   0.5082   0.5094   0.5115   0.5130   0.5152   0.5172   0.5183
  0.5200   0.5218   0.5228   0.5233   0.5240   0.5257   0.5278   0.5303
  0.5323   0.5327   0.5349   0.5362   0.5376   0.5384   0.5401   0.5406
  0.5427   0.5433   0.5469   0.5471   0.5503   0.5519   0.5525   0.5549
  0.5560   0.5576   0.5593   0.5601   0.5626   0.5647   0.5664   0.5681
  0.5685   0.5687   0.5703   0.5726   0.5748   0.5757   0.5780   0.5787
  0.5815   0.5825   0.5832   0.5843   0.5853   0.5869   0.5879   0.5896
  0.5918   0.5937   0.5945   0.5955   0.5968   0.5988   0.6019   0.6025
  0.6029   0.6037   0.6058   0.6072   0.6074   0.6097   0.6110   0.6122
  0.6136   0.6145   0.6163   0.6169   0.6183   0.6193   0.6204   0.6215
  0.6224   0.6231   0.6259   0.6264   0.6276   0.6285   0.6317   0.6329
  0.6338   0.6345   0.6353   0.6373   0.6382   0.6391   0.6403   0.6412
  0.6434   0.6438   0.6447   0.6451   0.6476   0.6486   0.6490   0.6502
  0.6514   0.6524   0.6533   0.6549   0.6556   0.6570   0.6578   0.6584
  0.6598   0.6616   0.6619   0.6633   0.6639   0.6658   0.6667   0.6671
  0.6694   0.6701   0.6706   0.6716   0.6730   0.6749   0.6760   0.6783
  0.6786   0.6801   0.6808   0.6823   0.6832   0.6844   0.6846   0.6859
  0.6872   0.6878   0.6893   0.6902   0.6916   0.6928   0.6929   0.6951
  0.6956   0.6970   0.6981   0.6987   0.6995   0.7011   0.7021   0.7036
  0.7053   0.7066   0.7075   0.7083   0.7089   0.7099   0.7101   0.7128
  0.7136   0.7150   0.7152   0.7169   0.7184   0.7195   0.7202   0.7212
  0.7213   0.7230   0.7248   0.7251   0.7258   0.7278   0.7293   0.7310
  0.7325   0.7334   0.7341   0.7351   0.7361   0.7372   0.7383   0.7399
  0.7420   0.7431   0.7447   0.7458   0.7467   0.7494   0.7497   0.7520
  0.7535   0.7564   0.7567   0.7576   0.7587   0.7599   0.7606   0.7629
  0.7633   0.7654   0.7680   0.7693   0.7715   0.7723   0.7746   0.7755
  0.7763   0.7780   0.7789   0.7813   0.7837   0.7853   0.7868   0.7884
  0.7898   0.7914   0.7925   0.7934   0.7957   0.7966   0.7980   0.7985
  0.8007   0.8016   0.8036   0.8057   0.8071   0.8075   0.8095   0.8102
  0.8128   0.8141   0.8149   0.8159   0.8165   0.8195   0.8210   0.8237
  0.8244   0.8252   0.8261   0.8274   0.8285   0.8294   0.8311   0.8319
  0.8335   0.8361   0.8367   0.8383   0.8405   0.8422   0.8428   0.8446
  0.8453   0.8459   0.8470   0.8501   0.8515   0.8526   0.8531   0.8547
  0.8568   0.8599   0.8616   0.8619   0.8633   0.8645   0.8656   0.8673
  0.8678   0.8680   0.8707   0.8719   0.8731   0.8747   0.8755   0.8780
  0.8782   0.8791   0.8803   0.8818   0.8828   0.8831   0.8837   0.8843
  0.8858   0.8871   0.8885   0.8887   0.8910   0.8925   0.8945   0.8956
  0.8964   0.8969   0.8978   0.8995   0.9002   0.9015   0.9017   0.9052
  0.9056   0.9061   0.9078   0.9089   0.9090   0.9113   0.9118   0.9120
  0.9125   0.9142   0.9150   0.9167   0.9184   0.9192   0.9199   0.9206
  0.9218   0.9238   0.9255   0.9271   0.9276   0.9286   0.9307   0.9313
  0.9328   0.9336   0.9347   0.9356   0.9365   0.9380   0.9400   0.9408
  0.9425   0.9436   0.9451   0.9459   0.9464   0.9481   0.9484   0.9487
  0.9510   0.9512   0.9513   0.9530   0.9542   0.9571   0.9582   0.9590
  0.9600   0.9611   0.9616   0.9622   0.9631   0.9644   0.9664   0.9668
  0.9679   0.9695   0.9705   0.9730   0.9746   0.9749   0.9756   0.9766
  0.9769   0.9780   0.9796   0.9801   0.9812   0.9818   0.9832   0.9856
  0.9863   0.9869   0.9873   0.9883   0.9893   0.9909   0.9920   0.9932
  0.9940   0.9942   0.9963   0.9968   0.9973   0.9982   0.9991   1.0004
  1.0008   1.0022   1.0031   1.0033   1.0045   1.0049   1.0062   1.0077
  1.0087   1.0096   1.0101   1.0118   1.0133   1.0140   1.0160   1.0171
  1.0178   1.0193   1.0198   1.0207   1.0223   1.0238   1.0243   1.0252
  1.0253   1.0271   1.0284   1.0301   1.0306   1.0337   1.0344   1.0348
  1.0363   1.0368   1.0386   1.0388   1.0394   1.0400   1.0413   1.0425
  1.0428   1.0445   1.0466   1.0477   1.0499   1.0504   1.0513   1.0532
  1.0539   1.0542   1.0556   1.0574   1.0578   1.0583   1.0595   1.0602
  1.0616   1.0645   1.0647   1.0655   1.0670   1.0684   1.0692   1.0695
  1.0727   1.0730   1.0748   1.0761   1.0773   1.0784   1.0802   1.0816
  1.0828   1.0847   1.0856   1.0865   1.0892   1.0903   1.0924   1.0940
  1.0962   1.0981   1.1005   1.1009   1.1016   1.1030   1.1053   1.1071
  1.1075   1.1093   1.1105   1.1121   1.1131   1.1144   1.1173   1.1179
  1.1193   1.1197   1.1200   1.1226   1.1232   1.1253   1.1258   1.1283
  1.1290   1.1319   1.1328   1.1340   1.1355   1.1367   1.1371   1.1382
  1.1387   1.1403   1.1425   1.1434   1.1445   1.1452   1.1465   1.1491
  1.1516   1.1521   1.1529   1.1538   1.1551   1.1564   1.1572   1.1582
  1.1600   1.1617   1.1631   1.1648   1.1654   1.1667   1.1685   1.1691
  1.1706   1.1711   1.1719   1.1725   1.1754   1.1756   1.1774   1.1818
  1.1819   1.1825   1.1838   1.1861   1.1869   1.1887   1.1907   1.1923
  1.1926   1.1943   1.1963   1.1970   1.1993   1.2003   1.2034   1.2041
  1.2056   1.2069   1.2083   1.2089   1.2126   1.2147   1.2152   1.2186
  1.2203   1.2214   1.2233   1.2239   1.2255   1.2284   1.2286   1.2309
  1.2333   1.2351   1.2386   1.2399   1.2435   1.2442   1.2448   1.2484
  1.2490   1.2505   1.2529   1.2541   1.2550   1.2568   1.2597   1.2612
  1.2637   1.2649   1.2662   1.2706   1.2712   1.2753   1.2773   1.2789
  1.2806   1.2818   1.2863   1.2880   1.2922   1.2930   1.2984   1.3002
  1.3014   1.3039   1.3049   1.3102   1.3116   1.3150   1.3172   1.3189
  1.3201   1.3221   1.3250   1.3264   1.3286   1.3312   1.3340   1.3364
  1.3378   1.3398   1.3413   1.3432   1.3469   1.3487   1.3491   1.3508
  1.3513   1.3555   1.3571   1.3593   1.3603   1.3615   1.3619   1.3631
  1.3665   1.3671   1.3708   1.3727   1.3747   1.3755   1.3761   1.3768
  1.3786   1.3798   1.3811   1.3833   1.3847   1.3850   1.3867   1.3871
  1.3892   1.3901   1.3905   1.3932   1.3940   1.3966   1.3998   1.4018
  1.4021   1.4030   1.4038   1.4042   1.4061   1.4085   1.4106   1.4112
  1.4122   1.4136   1.4150   1.4169   1.4180   1.4193   1.4212   1.4224
  1.4253   1.4258   1.4277   1.4287   1.4307   1.4321   1.4328   1.4348
  1.4354   1.4366   1.4384   1.4411   1.4433   1.4446   1.4464   1.4488
  1.4492   1.4497   1.4511   1.4515   1.4545   1.4573   1.4587   1.4602
  1.4614   1.4636   1.4639   1.4652   1.4667   1.4676   1.4685   1.4706
  1.4717   1.4730   1.4745   1.4769   1.4794   1.4801   1.4826   1.4847
  1.4853   1.4871   1.4880   1.4909   1.4935   1.4947   1.4959   1.4965
  1.4985   1.5004   1.5022   1.5029   1.5049   1.5078   1.5106   1.5115
  1.5129   1.5163   1.5173   1.5187   1.5213   1.5234   1.5271   1.5306
  1.5329   1.5335   1.5368   1.5385   1.5431   1.5463   1.5467   1.5502
  1.5525   1.5535   1.5566   1.5607   1.5638   1.5656   1.5722   1.5742
  1.5760   1.5762   1.5837   1.5865   1.5890   1.5919   1.5956   1.6001
  1.6061   1.6080   1.6148   1.6178   1.6212   1.6235   1.6292   1.6357
  1.6404   1.6423   1.6448   1.6515   1.6523   1.6554   1.6561   1.6583
  1.6602   1.6637   1.6647   1.6649   1.6660   1.6682   1.6692   1.6716
  1.6725   1.6737   1.6739   1.6752   1.6774   1.6779   1.6786   1.6801
  1.6809   1.6833   1.6847   1.6864   1.6874   1.6889   1.6907   1.6922
  1.6937   1.6938   1.6975   1.6981   1.6995   1.7001   1.7028   1.7029
  1.7047   1.7066   1.7079   1.7092   1.7095   1.7110   1.7132   1.7149
  1.7153   1.7180   1.7193   1.7205   1.7235   1.7239   1.7256   1.7261
  1.7285   1.7293   1.7299   1.7320   1.7323   1.7334   1.7364   1.7369
  1.7378   1.7392   1.7414   1.7438   1.7444   1.7455   1.7467   1.7480
  1.7510   1.7518   1.7528   1.7543   1.7545   1.7561   1.7580   1.7602
  1.7607   1.7619   1.7634   1.7643   1.7667   1.7669   1.7689   1.7692
  1.7738   1.7756   1.7760   1.7790   1.7810   1.7819   1.7833   1.7844
  1.7848   1.7874   1.7891   1.7898   1.7928   1.7937   1.7959   1.7972
  1.7994   1.8022   1.8035   1.8054   1.8079   1.8096   1.8108   1.8125
  1.8160   1.8193   1.8196   1.8228   1.8246   1.8287   1.8303   1.8344
  1.8373   1.8380   1.8405   1.8440   1.8450   1.8464   1.8501   1.8508
  1.8567   1.8587   1.8623   1.8626   1.8652   1.8670   1.8710   1.8731
  1.8748   1.8767   1.8781   1.8798   1.8811   1.8821   1.8829   1.8842
  1.8853   1.8862   1.8894   1.8914   1.8931   1.8943   1.8957   1.8961
  1.8981   1.8990   1.9017   1.9027   1.9032   1.9059   1.9065   1.9081
  1.9090   1.9123   1.9130   1.9146   1.9150   1.9157   1.9167   1.9174
  1.9197   1.9213   1.9221   1.9236   1.9251   1.9268   1.9298   1.9302
  1.9314   1.9338   1.9343   1.9354   1.9360   1.9372   1.9381   1.9388
  1.9411   1.9416   1.9423   1.9442   1.9454   1.9469   1.9498   1.9530
  1.9548   1.9553   1.9574   1.9579   1.9613   1.9622   1.9695   1.9721
  1.9776   1.9795   1.9845   1.9867   1.9905   2.0002   2.0047   2.0085
  2.0140   2.0183   2.0293   2.0372   2.0446   2.0456   2.0512   2.0513
  2.0573   2.0602   2.0622   2.0656   2.0663   2.0710   2.0732   2.0752
  2.0762   2.0773   2.0776   2.0790   2.0792   2.0798   2.0821   2.0841
  2.0854   2.0863   2.0877   2.0884   2.0890   2.0905   2.0912   2.0923
  2.0947   2.0951   2.0970   2.0976   2.0993   2.0994   2.1020   2.1036
  2.1058   2.1072   2.1087   2.1105   2.1119   2.1135   2.1137   2.1154
  2.1156   2.1194   2.1204   2.1235   2.1249   2.1263   2.1270   2.1294
  2.1333   2.1346   2.1374   2.1412   2.1443   2.1491   2.1501   2.1510
  2.1552   2.1576   2.1630   2.1718   2.1735   2.1790   2.1855   2.1860
  2.1877   2.1903   2.1918   2.1929   2.1952   2.1957   2.1971   2.2013
  2.2025   2.2074   2.2096   2.2109   2.2132   2.2148   2.2166   2.2206
  2.2238   2.2249   2.2253   2.2256   2.2278   2.2294   2.2305   2.2317
  2.2321   2.2325   2.2344   2.2352   2.2367   2.2375   2.2384   2.2386
  2.2395   2.2404   2.2413   2.2425   2.2436   2.2442   2.2464   2.2471
  2.2490   2.2499   2.2506   2.2516   2.2523   2.2527   2.2531   2.2541
  2.2546   2.2555   2.2562   2.2573   2.2578   2.2588   2.2594   2.2605
  2.2615   2.2617   2.2629   2.2645   2.2655   2.2657   2.2666   2.2677
  2.2683   2.2697   2.2706   2.2715   2.2733   2.2745   2.2746   2.2762
  2.2766   2.2782   2.2790   2.2800   2.2812   2.2817   2.2830   2.2847
  2.2851   2.2861   2.2877   2.2898   2.2914   2.2918   2.2930   2.2950
  2.2956   2.2958   2.2971   2.2977   2.2984   2.2990   2.3007   2.3014
  2.3026   2.3032   2.3034   2.3038   2.3044   2.3068   2.3086   2.3105
  2.3120   2.3127   2.3143   2.3153   2.3159   2.3185   2.3189   2.3193
  2.3211   2.3241   2.3253   2.3274   2.3278   2.3291   2.3300   2.3305
  2.3327   2.3337   2.3349   2.3358   2.3381   2.3387   2.3398   2.3404
  2.3429   2.3447   2.3451   2.3464   2.3475   2.3490   2.3507   2.3517
  2.3525   2.3548   2.3567   2.3572   2.3578   2.3606   2.3626   2.3652
  2.3656   2.3689   2.3699   2.3743   2.3773   2.3817   2.3842   2.3848
  2.3858   2.3895   2.3900   2.3922   2.3961   2.3985   2.4032   2.4129
  2.4139   2.4159   2.4281   2.4330   2.4689   2.4969   2.5171   2.5236
  2.5840   2.6469   2.7215   2.7490   2.7841   2.8238   2.8258   2.8268
  2.8371   2.8401   2.8416   2.8431   2.8440   2.8491   2.8494   2.8509
  2.8531   2.8543   2.8559   2.8566   2.8601   2.8625   2.8637   2.8656
  2.8664   2.8706   2.8737   2.8749   2.8755   2.8829   2.8847   2.8855
  2.8902   2.8983   2.9068   2.9130   2.9435   3.1063   3.2425   3.9520
  3.9572   3.9605   3.9652   3.9684   3.9704   3.9720   3.9803   3.9833
  3.9846   3.9860   3.9891   3.9909   3.9929   3.9969   3.9984   4.0029
  4.0039   4.0048   4.0128   4.0183   4.0204   4.0236   4.0266   4.0295
  4.0359   4.0397   4.2265   4.2280   4.2398   4.2408   4.2457   4.2472
  4.2478   4.2481   4.2512   4.2574   4.2598   4.2612   4.2641   4.2692
  4.2699   4.2726   4.2750   4.2781   4.2814   4.2836   4.2843   4.2852
  4.2886   4.2940   4.2966   4.2980   4.3013   4.3031   4.3051   4.3058
  4.3105   4.3124   4.3166   4.3172   4.3178   4.3205   4.3236   4.3247
  4.3281   4.3320   4.3329   4.3353   4.3370   4.3387   4.3402   4.3434
  4.3480   4.3488   4.3537   4.3569   4.3600   4.3615   4.3635   4.3662
  4.3688   4.3736   4.3782   4.3790   4.3848   4.3870   4.3882   4.3931
  4.3944   4.3985   4.4067   4.4150   4.4184   4.4199   4.4303   4.4399
  4.4501   4.4557   4.4650   4.4745   4.4852   4.4985   4.5055   4.5078
  4.5140   4.5276   4.5402   4.5565   4.5684   4.5987   4.6157   4.6762
  4.7077   4.7191   4.7752   4.9449
 --------------------------------------------------------------

          Ground-State Mulliken Net Atomic Charges

     Atom                 Charge (a.u.)
  ----------------------------------------
      1 C                    -0.352974
      2 C                    -0.186997
      3 C                    -0.174642
      4 C                    -0.344510
      5 C                    -0.291057
      6 C                    -1.110248
      7 H                     0.246021
      8 H                     0.227228
      9 H                     0.211009
     10 H                     0.204638
     11 H                     0.208733
     12 H                     0.206747
     13 H                     0.180643
     14 H                     0.245369
     15 H                     0.225959
     16 H                     0.198018
     17 H                     0.204185
     18 N                     0.168183
     19 H                     0.498546
     20 C                    -0.536484
     21 H                     0.176649
     22 O                    -0.238498
     23 C                    -0.817747
     24 H                     0.225894
     25 H                     0.276178
     26 H                     0.259653
     27 S                     0.936844
     28 C                    -0.995537
     29 H                     0.244533
     30 H                     0.241421
     31 H                     0.311671
     32 O                    -0.605676
     33 C                    -0.944436
     34 H                     0.232885
     35 H                     0.275983
     36 H                     0.302153
     37 S                     1.005409
     38 C                    -0.900938
     39 H                     0.259172
     40 H                     0.239966
     41 H                     0.243968
     42 O                    -0.750677
     43 C                    -0.939631
     44 H                     0.276162
     45 H                     0.236631
     46 H                     0.270359
     47 S                     0.964531
     48 C                    -0.921976
     49 H                     0.250009
     50 H                     0.243730
     51 H                     0.258414
     52 O                    -0.670973
     53 C                    -0.945084
     54 H                     0.240824
     55 H                     0.279004
     56 H                     0.270493
     57 S                     0.748717
     58 C                    -0.785359
     59 H                     0.209870
     60 H                     0.238789
     61 H                     0.303866
     62 O                    -0.639191
     63 C                    -0.722683
     64 H                     0.297337
     65 H                     0.242465
     66 H                     0.239945
     67 S                     0.700189
     68 C                    -0.844486
     69 H                     0.240221
     70 H                     0.242138
     71 H                     0.274511
     72 O                    -0.707772
     73 C                    -0.960475
     74 H                     0.226341
     75 H                     0.252433
     76 H                     0.277709
     77 S                     0.962201
     78 C                    -0.967540
     79 H                     0.296341
     80 H                     0.293773
     81 H                     0.254656
     82 O                    -0.585364
     83 C                    -0.754870
     84 H                     0.238616
     85 H                     0.281247
     86 H                     0.238947
     87 S                     0.766514
     88 C                    -0.788776
     89 H                     0.221436
     90 H                     0.318584
     91 H                     0.287877
     92 O                    -0.627261
     93 C                    -0.925334
     94 H                     0.296107
     95 H                     0.232481
     96 H                     0.243157
     97 S                     0.883586
     98 C                    -0.868921
     99 H                     0.263692
    100 H                     0.243851
    101 H                     0.281894
    102 O                    -0.682577
    103 C                    -0.851309
    104 H                     0.268205
    105 H                     0.254589
    106 H                     0.261098
    107 S                     0.322544
    108 C                    -0.542431
    109 H                     0.250860
    110 H                     0.291991
    111 H                     0.272869
    112 O                    -0.554856
    113 C                    -0.942707
    114 H                     0.271467
    115 H                     0.249537
    116 H                     0.289214
    117 S                     0.976256
    118 C                    -0.872536
    119 H                     0.253628
    120 H                     0.220651
    121 H                     0.265560
    122 O                    -0.645639
    123 C                    -0.774850
    124 H                     0.256525
    125 H                     0.247959
    126 H                     0.238837
    127 S                     0.687323
    128 C                    -0.711113
    129 H                     0.240940
    130 H                     0.280968
    131 H                     0.243573
    132 O                    -0.713406
    133 C                    -1.143879
    134 H                     0.269814
    135 H                     0.249153
    136 H                     0.243072
    137 S                     1.337077
    138 C                    -0.943792
    139 H                     0.229730
    140 H                     0.252626
    141 H                     0.259290
    142 O                    -0.754478
    143 C                    -0.771096
    144 H                     0.272482
    145 H                     0.233351
    146 H                     0.255514
    147 S                     0.788934
    148 C                    -0.794437
    149 H                     0.274169
    150 H                     0.237536
    151 H                     0.242267
    152 O                    -0.699186
    153 C                    -0.926469
    154 H                     0.239460
    155 H                     0.262361
    156 H                     0.256893
    157 S                     0.964951
    158 C                    -0.882402
    159 H                     0.240784
    160 H                     0.242281
    161 H                     0.269444
    162 O                    -0.673729
    163 C                    -0.973570
    164 H                     0.283235
    165 H                     0.248306
    166 H                     0.293992
    167 S                     1.065745
    168 C                    -0.931668
    169 H                     0.241478
    170 H                     0.250332
    171 H                     0.250021
    172 O                    -0.713720
    173 C                    -0.768997
    174 H                     0.265112
    175 H                     0.271797
    176 H                     0.269915
    177 S                     0.844155
    178 C                    -0.888700
    179 H                     0.293764
    180 H                     0.247266
    181 H                     0.237754
    182 O                    -0.698073
    183 C                    -0.893610
    184 H                     0.229604
    185 H                     0.331412
    186 H                     0.243780
    187 S                     1.156945
    188 C                    -0.910603
    189 H                     0.214495
    190 H                     0.290287
    191 H                     0.292446
    192 O                    -0.822940
    193 C                    -0.830360
    194 H                     0.245933
    195 H                     0.225695
    196 H                     0.274874
    197 S                     0.910151
    198 C                    -0.868008
    199 H                     0.243483
    200 H                     0.286393
    201 H                     0.253050
    202 O                    -0.740701
    203 C                    -0.972705
    204 H                     0.297330
    205 H                     0.242483
    206 H                     0.247583
    207 S                     1.017122
    208 C                    -0.955290
    209 H                     0.249961
    210 H                     0.248394
    211 H                     0.253350
    212 O                    -0.639065
    213 C                    -0.915441
    214 H                     0.276509
    215 H                     0.285811
    216 H                     0.232497
    217 S                     1.033814
    218 C                    -1.112367
    219 H                     0.286764
    220 H                     0.252464
    221 H                     0.282286
    222 O                    -0.674426
    223 C                    -0.857068
    224 H                     0.305580
    225 H                     0.236832
    226 H                     0.286100
    227 S                     0.527338
    228 C                    -0.656197
    229 H                     0.254911
    230 H                     0.271852
    231 H                     0.246781
    232 O                    -0.654796
    233 C                    -1.066170
    234 H                     0.277807
    235 H                     0.269542
    236 H                     0.326178
    237 S                     1.044950
    238 C                    -1.004340
    239 H                     0.249577
    240 H                     0.247696
    241 H                     0.245577
    242 O                    -0.718632
    243 C                    -0.993936
    244 H                     0.258958
    245 H                     0.224542
    246 H                     0.249139
    247 S                     1.119321
    248 C                    -0.838675
    249 H                     0.258639
    250 H                     0.229953
    251 H                     0.265308
    252 O                    -0.692110
    253 C                    -0.881108
    254 H                     0.258973
    255 H                     0.256865
    256 H                     0.244035
    257 S                     0.637742
    258 C                    -0.820892
    259 H                     0.244358
    260 H                     0.286539
    261 H                     0.250365
    262 O                    -0.501106
    263 C                    -1.103350
    264 H                     0.310702
    265 H                     0.258555
    266 H                     0.313891
    267 S                     0.954883
    268 C                    -0.927590
    269 H                     0.259761
    270 H                     0.237531
    271 H                     0.276715
    272 O                    -0.626699
    273 C                    -0.828817
    274 H                     0.289595
    275 H                     0.273473
    276 H                     0.311210
    277 S                     0.953714
    278 C                    -1.343375
    279 H                     0.303558
    280 H                     0.289907
    281 H                     0.266538
    282 O                    -0.670051
    283 C                    -0.827374
    284 H                     0.258307
    285 H                     0.323044
    286 H                     0.244671
    287 S                     0.735781
    288 C                    -0.694844
    289 H                     0.224879
    290 H                     0.216880
    291 H                     0.259543
    292 O                    -0.715093
  ----------------------------------------
  Sum of atomic charges =     0.000000

 -----------------------------------------------------------------
                    Cartesian Multipole Moments
 -----------------------------------------------------------------
    Charge (ESU x 10^10)
                -0.0000
    Dipole Moment (Debye)
         X      -2.1040      Y       2.4394      Z       6.8141
       Tot       7.5372
    Quadrupole Moments (Debye-Ang)
        XX   -1073.6282     XY      31.0703     YY    -731.9225
        XZ     295.2832     YZ     112.2724     ZZ    -654.1862
    Octopole Moments (Debye-Ang^2)
       XXX  -78871.1108    XXY  -20265.9408    XYY  -19498.0875
       YYY  -49614.9580    XXZ  -16200.7340    XYZ    5953.8568
[...]
          205         206         207         208         209         210
    1   0.2926113  -0.9817649   1.0331518   2.3266800   1.7975751   1.1388639
    2   2.8801156   0.0724849   0.5442967   2.1318006   2.9172109   2.1295467
    3  -3.2568505  -2.5146421  -0.8013482  -1.1563285  -3.0145662   0.1271331
          211         212         213         214         215         216
    1   4.0696212   2.4176948  -3.2483197  -2.1123049  -2.9121705  -4.6702193
    2   0.8025354   0.1889810  -0.0336733   0.0166414  -1.4307230   1.0992853
    3  -1.0317372  -3.6249022   0.0041971  -1.2035817   1.3658655   0.4294224
          217         218         219         220         221         222
    1  -1.7924811  -0.3818625   0.2596253  -0.0303666  -1.1312345  -3.1922053
    2   1.8067228   0.0979500   1.0297334   1.0670851  -1.4740146   1.2186646
    3   0.1346250   0.4733932  -0.8632145   2.0936501   0.4573208   3.0082038
          223         224         225         226         227         228
    1   1.8525404   1.6166401   0.5496748   3.0711091   0.0377339   0.0895477
    2  -2.4273816  -1.7315107  -3.9263618  -1.8517072  -0.7153554  -1.5235001
    3  -0.6854941   0.9168707  -1.2171765  -2.1614022  -0.3515534  -2.3977409
          229         230         231         232         233         234
    1   2.0931477  -0.3707583  -0.7763041   2.0643256  -1.8588273  -1.4074858
    2  -2.2946822  -2.7117441   0.3250367   1.0170820   0.3678224  -0.9569519
    3  -3.0307890  -1.1170756  -2.5103626  -1.6375829  -0.9043708  -1.8196962
          235         236         237         238         239         240
    1  -3.9109654  -0.1868915  -1.3318246  -3.5193920  -4.5055008  -2.4436457
    2   0.7063242   1.3463426  -1.5763689  -1.9647486   0.0731215  -2.3812433
    3  -0.5590243  -0.0151982   0.2327116  -0.1484115   0.0013751  -1.6938330
          241         242         243         244         245         246
    1  -3.4073596  -2.9535541  -2.7437694  -2.4372166  -1.7522966  -4.3041527
    2  -2.9586623   0.0811008   2.1720066   3.6179920   1.7447885   0.8022235
    3   1.3102115   2.3965482  -1.4179583  -0.1656159  -2.6247924  -1.4857490
          247         248         249         250         251         252
    1  -1.2611238  -2.5495163  -4.4938456  -1.7590096  -1.6193673  -3.4945151
    2   1.2311327  -0.8484821  -0.4366973  -0.1367603  -1.5312176   0.7297756
    3  -0.5108403  -1.2799522  -1.1557134  -2.7878979   0.1702727   1.5767018
          253         254         255         256         257         258
    1  -2.1446372  -0.9179836  -3.7390044  -1.4589178  -1.5096345   0.5100254
    2   1.8905946   1.0479548   1.0793744   3.6161860   1.7842850   1.5849577
    3  -2.6257449  -3.8120231  -2.0805501  -2.0646393  -0.6876119  -1.3708332
          259         260         261         262         263         264
    1  -0.4373189   1.1007747   0.4697324  -1.2405193  -0.6504301   0.1416435
    2   3.2633310   0.1298819   1.0622642  -1.4230831   2.4195301   3.2462645
    3  -0.8762849   0.1717415  -3.0856458  -1.3161901   1.2892567   0.3156704
          265         266         267         268         269         270
    1  -2.1619466   0.0755532  -0.0997692  -0.4806887   0.7149991   0.1564929
    2   1.4982339   2.8294419   0.3219230  -0.5311087  -2.0271513   0.7642368
    3   0.6591650   3.0760615   0.2210759   1.8187833   1.4351118   3.2090421
          271         272         273         274         275         276
    1  -1.9272099   2.4847931  -1.7517177  -1.2659280  -0.6543545  -3.0257786
    2  -0.2009416   0.9965549  -0.4139149  -0.9834613   1.4942544  -1.7406984
    3   0.4167124   2.4726128   0.3994251   1.8266719  -0.4513709  -0.2979369
          277         278         279         280         281         282
    1  -0.9634674   0.5381876   1.6408652   0.1240606   0.1428954  -0.2108930
    2  -2.4754534  -0.6706298  -1.7768873   1.4013907  -1.5985234  -1.4971334
    3   0.5629407   0.6607629  -0.5286977   0.0382730   2.1396840  -2.1448684
          283         284         285         286         287         288
    1   2.7803454   2.6988323   1.7655407   4.3251342   2.5755999   3.2204910
    2  -0.5154553  -1.2130623  -0.0260341  -0.0882664   1.7863523   1.3042962
    3  -0.3381602   1.4204497  -1.5459535  -1.2338517  -0.4688155   1.6627337
          289         290         291         292
    1   2.5179124   4.3482512   2.3289870   0.5003369
    2  -0.4503393   0.7505163   2.8188475   1.9157230
    3   2.5107154   0.0566536   2.3582309   2.0997383
 EField
            1           2           3           4           5           6
    1   0.0058424   0.0063973   0.0024161   0.0044103   0.0058684   0.0028725
    2  -0.0008707  -0.0030300  -0.0030993  -0.0033656  -0.0069945  -0.0038175
    3  -0.0000375   0.0040727   0.0034710   0.0020147   0.0005095  -0.0003789
            7           8           9          10          11          12
    1  -0.0005124   0.0107428   0.0060151   0.0062622   0.0092983  -0.0010922
    2  -0.0019188  -0.0065406   0.0013634   0.0032503  -0.0034378  -0.0009383
    3   0.0030216   0.0033061  -0.0017388  -0.0024928   0.0016620   0.0014892
           13          14          15          16          17          18
    1   0.0086583   0.0051728  -0.0046846   0.0033312  -0.0025670   0.0132524
    2  -0.0078262  -0.0123277  -0.0089365   0.0014450  -0.0006084  -0.0071828
    3   0.0014393  -0.0016187  -0.0049683   0.0018049   0.0016506   0.0064099
           19          20          21          22          23          24
    1   0.0157735   0.0126423   0.0120058   0.0107002   0.0034504  -0.0216083
    2  -0.0182407  -0.0040215  -0.0035510  -0.0023292   0.0038089   0.0218937
    3   0.0153698   0.0012578  -0.0001727   0.0018339  -0.0037664  -0.0155301
           25          26          27          28          29          30
    1   0.0188921   0.0381145   0.0508338  -0.0038211  -0.0225909   0.0241865
    2   0.0185710   0.0012937  -0.0380595  -0.0011824   0.0218438  -0.0048440
    3   0.0175967  -0.0162722   0.0130265  -0.0049701  -0.0086732  -0.0260543
           31          32          33          34          35          36
    1  -0.0142645  -0.0617514   0.0130464   0.0013544   0.0245027   0.0048747
    2  -0.0145065   0.0411554   0.0005209   0.0049831  -0.0268506   0.0262644
    3   0.0067658   0.0815225  -0.0005339   0.0299557  -0.0033641  -0.0180524
           37          38          39          40          41          42
    1  -0.0084986  -0.0001331   0.0155492   0.0215527  -0.0294773  -0.0462178
    2  -0.0458025   0.0001918   0.0235680  -0.0234023   0.0096718   0.0940148
    3   0.0129107  -0.0076566  -0.0050994  -0.0208298  -0.0116461   0.0304148
           43          44          45          46          47          48
    1  -0.0048978  -0.0350308   0.0133896   0.0194228  -0.0221979  -0.0005739
    2   0.0081798  -0.0050098   0.0242068   0.0102523  -0.0432311   0.0024387
    3  -0.0023350   0.0027522   0.0171475  -0.0258279  -0.0329458   0.0074173
           49          50          51          52          53          54
    1  -0.0319607   0.0027113   0.0197662   0.1073611  -0.0041772   0.0280370
    2   0.0025334  -0.0261383   0.0197327   0.0218464  -0.0090554  -0.0035719
    3   0.0011767   0.0166673   0.0187908   0.0104286  -0.0026083  -0.0025651
           55          56          57          58          59          60
    1  -0.0197639   0.0056010   0.0524012  -0.0042701   0.0239210   0.0081837
    2  -0.0200583   0.0018023   0.0376656  -0.0045544  -0.0147109   0.0236945
    3   0.0242107  -0.0363163  -0.0132142   0.0069193   0.0166809   0.0198222
           61          62          63          64          65          66
    1  -0.0198920  -0.0983035  -0.0130662  -0.0206641   0.0045374  -0.0095639
    2  -0.0249114   0.0343788   0.0040306   0.0186282  -0.0348310   0.0182331
    3   0.0056032  -0.0259430   0.0006337  -0.0217452   0.0043859   0.0280610
           67          68          69          70          71          72
    1   0.0393010  -0.0033618  -0.0075296   0.0269429  -0.0256614  -0.0005972
    2  -0.0169039   0.0102457   0.0174826   0.0034648   0.0032685  -0.0311194
    3   0.0344737   0.0001175   0.0309533  -0.0163118  -0.0171625  -0.1059716
           73          74          75          76          77          78
    1   0.0019133  -0.0079721   0.0279027   0.0094918  -0.0552051   0.0026456
    2  -0.0034507  -0.0324582   0.0012386   0.0092566  -0.0078243  -0.0068836
    3   0.0051503   0.0134579  -0.0109854   0.0272265   0.0212259  -0.0119593
           79          80          81          82          83          84
    1  -0.0206011  -0.0278605   0.0338579   0.0491752   0.0034742  -0.0035172
    2  -0.0280187   0.0107361   0.0039820   0.0951871  -0.0064882  -0.0256194
    3   0.0024142  -0.0195076  -0.0033069  -0.0128609   0.0012938  -0.0194572
           85          86          87          88          89          90
    1   0.0274487  -0.0191993  -0.0165360  -0.0029877  -0.0360123  -0.0217278
    2   0.0019627  -0.0109097   0.0400355  -0.0030993  -0.0059572   0.0222248
    3   0.0185405   0.0261569   0.0386190  -0.0080651   0.0088361  -0.0091868
           91          92          93          94          95          96
    1   0.0023287   0.0784450  -0.0081612  -0.0344272   0.0055617   0.0155972
    2  -0.0256935   0.0185209   0.0028920  -0.0063468  -0.0228972   0.0214807
    3  -0.0207819  -0.0753435   0.0052728  -0.0051853   0.0153654   0.0245034
           97          98          99         100         101         102
    1   0.0532468  -0.0073585  -0.0277066   0.0123847   0.0056601  -0.0482435
    2   0.0059953   0.0075227  -0.0020167   0.0261913  -0.0028477  -0.0887768
    3   0.0041936  -0.0043107   0.0058339   0.0157099  -0.0323135  -0.0444807
          103         104         105         106         107         108
    1  -0.0013662  -0.0368295   0.0328298  -0.0009767   0.0128458   0.0028405
    2   0.0035209   0.0035913  -0.0173088   0.0289736  -0.0513570   0.0077468
    3   0.0063236   0.0046438   0.0059350   0.0100840  -0.0221646  -0.0018383
          109         110         111         112         113         114
    1  -0.0020327  -0.0101921   0.0329691  -0.0941513  -0.0095221  -0.0132712
    2   0.0033351   0.0276915  -0.0002315   0.0682613   0.0004259   0.0174463
    3  -0.0305069   0.0101651   0.0059730  -0.0435295   0.0051779   0.0271268
          115         116         117         118         119         120
    1  -0.0241294  -0.0086668   0.0341963  -0.0036824  -0.0159437  -0.0089896
    2  -0.0103515  -0.0281548   0.0100440   0.0043155  -0.0069233   0.0241585
    3  -0.0227635   0.0053228   0.0503727  -0.0070265  -0.0311356   0.0213835
          121         122         123         124         125         126
    1   0.0272529   0.0296856   0.0039999   0.0145464   0.0140329   0.0166561
    2   0.0047973  -0.0784207   0.0034618   0.0306108   0.0146130  -0.0282243
    3  -0.0141792  -0.0709276  -0.0029596  -0.0240457   0.0222747  -0.0001955
          127         128         129         130         131         132
    1  -0.0267404   0.0001726   0.0132887  -0.0088036  -0.0249436   0.0054955
    2  -0.0176977   0.0074731   0.0172026   0.0377943  -0.0016147  -0.0561633
    3  -0.0446392  -0.0016061   0.0247951  -0.0137896   0.0150478   0.0949451
          133         134         135         136         137         138
    1   0.0059114   0.0219487   0.0145435  -0.0116285  -0.0061259  -0.0041015
    2  -0.0043324   0.0058187   0.0159917  -0.0317818   0.0469761  -0.0054924
    3   0.0041731  -0.0198624   0.0298998  -0.0104974   0.0302562  -0.0000495
          139         140         141         142         143         144
    1  -0.0166871  -0.0306125   0.0124995   0.0048331   0.0099722   0.0265322
    2  -0.0036073   0.0085232  -0.0193564  -0.0045478   0.0042889  -0.0174780
    3   0.0328575  -0.0065395  -0.0244724  -0.1095582   0.0012244  -0.0086929
          145         146         147         148         149         150
    1  -0.0047288   0.0230459  -0.0278367  -0.0000865   0.0149187  -0.0096550
    2   0.0312038   0.0008469  -0.0023387   0.0040521  -0.0088065   0.0317697
    3  -0.0133962   0.0226001  -0.0483819   0.0069543   0.0287038  -0.0094119
          151         152         153         154         155         156
    1  -0.0289734   0.0318011  -0.0077929  -0.0304024   0.0039400  -0.0082804
    2  -0.0067332  -0.0880570  -0.0064045   0.0074712  -0.0240820  -0.0130048
    3   0.0095126   0.0585008   0.0034376  -0.0016934  -0.0164240   0.0300201
          157         158         159         160         161         162
    1   0.0464289  -0.0038132   0.0199893  -0.0229372  -0.0061104  -0.0118221
    2  -0.0202745   0.0066486   0.0242970   0.0104636  -0.0079851   0.0067251
    3   0.0250968   0.0008212   0.0078267  -0.0211397   0.0314811  -0.1087392
          163         164         165         166         167         168
    1   0.0037150  -0.0185597   0.0136920   0.0367352  -0.0456314   0.0062031
    2   0.0084227   0.0283825   0.0271820   0.0049725  -0.0020012  -0.0030169
    3  -0.0043747   0.0029418   0.0216132  -0.0155507   0.0288170   0.0024235
          169         170         171         172         173         174
    1  -0.0008570   0.0021982   0.0249071   0.0155735   0.0060520  -0.0162759
    2   0.0110230  -0.0321995   0.0048601  -0.0387663   0.0101315   0.0236934
    3   0.0317998  -0.0022305  -0.0216307  -0.1015344  -0.0041460   0.0112362
          175         176         177         178         179         180
    1   0.0229782   0.0101817   0.0278112  -0.0043049   0.0106186  -0.0190979
    2  -0.0075583   0.0032241  -0.0470607   0.0075087   0.0174740  -0.0276554
    3   0.0185868  -0.0316787  -0.0216603  -0.0076939  -0.0341084   0.0072539
          181         182         183         184         185         186
    1  -0.0145712  -0.0333425   0.0074507  -0.0001179   0.0000914   0.0217854
    2   0.0288975   0.0077323  -0.0026784  -0.0329850   0.0125941  -0.0035344
    3   0.0074117   0.1019532  -0.0092532   0.0023996  -0.0334910   0.0262398
          187         188         189         190         191         192
    1  -0.0109642  -0.0066412  -0.0172499  -0.0312869   0.0228703   0.0170136
    2   0.0066556  -0.0038980  -0.0356653   0.0011809   0.0064545   0.0747217
    3   0.0447930  -0.0043100  -0.0047156   0.0171857  -0.0278746  -0.0786647
          193         194         195         196         197         198
    1  -0.0087536   0.0058969  -0.0208287  -0.0217011   0.0145078   0.0012390
    2   0.0047047  -0.0147355  -0.0086650   0.0187495  -0.0343931   0.0084857
    3  -0.0025368  -0.0293480   0.0273260  -0.0176878   0.0409377   0.0022570
          199         200         201         202         203         204
    1  -0.0031317   0.0232454  -0.0123007   0.0675702  -0.0064808  -0.0182013
    2   0.0002269   0.0232452   0.0157476   0.0252333   0.0057719   0.0054507
    3   0.0371800   0.0080425  -0.0262004  -0.0834299  -0.0009226   0.0340889
          205         206         207         208         209         210
    1   0.0118228  -0.0174498  -0.0032147   0.0034495   0.0027012  -0.0018859
    2   0.0179502  -0.0223864  -0.0347892   0.0066982   0.0217851   0.0205956
    3  -0.0301675  -0.0106992   0.0468655   0.0015286  -0.0222242   0.0258158
          211         212         213         214         215         216
    1   0.0314063   0.0468828  -0.0080100  -0.0021494  -0.0083169  -0.0337793
    2  -0.0032945  -0.0343104  -0.0079145   0.0090931  -0.0278945   0.0043433
    3   0.0074943  -0.0940399  -0.0018461  -0.0325928   0.0214984  -0.0041748
          217         218         219         220         221         222
    1   0.0086991   0.0080485   0.0164448   0.0237414  -0.0069802  -0.0471154
    2   0.0475088  -0.0022775   0.0110169  -0.0055816  -0.0306926   0.0048077
    3  -0.0332145   0.0096582  -0.0147450   0.0333872   0.0082019   0.0993231
          223         224         225         226         227         228
    1   0.0051011   0.0047426  -0.0016308   0.0209163  -0.0388895  -0.0010934
    2  -0.0054505  -0.0007476  -0.0380814   0.0007860   0.0128518  -0.0053222
    3   0.0027417   0.0310286  -0.0067090  -0.0190199   0.0422418  -0.0020743
          229         230         231         232         233         234
    1   0.0180078  -0.0272297  -0.0149510   0.0687372  -0.0010668   0.0034755
    2  -0.0106157  -0.0234252   0.0189940   0.0763848   0.0015443  -0.0094704
    3  -0.0267944   0.0001463  -0.0139428  -0.0369814  -0.0077157  -0.0403451
          235         236         237         238         239         240
    1  -0.0339331   0.0124743   0.0377878  -0.0070420  -0.0210786  -0.0135193
    2   0.0066211   0.0107642  -0.0316993  -0.0038405   0.0221129  -0.0203257
    3   0.0003792   0.0009899  -0.0018942  -0.0035384  -0.0043502  -0.0363622
          241         242         243         244         245         246
    1  -0.0039238  -0.0435896  -0.0076613  -0.0044861   0.0184757  -0.0339230
    2  -0.0276100   0.0519683   0.0037724   0.0287761   0.0016364  -0.0055609
    3   0.0183674   0.0867557  -0.0046069   0.0131831  -0.0264361  -0.0034155
          247         248         249         250         251         252
    1   0.0533729  -0.0022656  -0.0334526   0.0203453   0.0087371  -0.0652026
    2   0.0038197  -0.0051408   0.0020495  -0.0229612  -0.0283023  -0.0184629
    3   0.0001827  -0.0074379   0.0078738  -0.0348629   0.0026460   0.0882675
          253         254         255         256         257         258
    1  -0.0005949   0.0102708  -0.0287967  -0.0017509  -0.0171802   0.0083584
    2   0.0031518  -0.0237717  -0.0102933   0.0366109   0.0229590   0.0022503
    3  -0.0094071  -0.0253354  -0.0030047   0.0031350   0.0464985   0.0006486
          259         260         261         262         263         264
    1   0.0253637   0.0178563   0.0134227   0.0050190  -0.0055689   0.0104666
    2   0.0346527  -0.0150940  -0.0012025  -0.1098681   0.0105893   0.0183941
    3  -0.0013988   0.0186847  -0.0274768  -0.0134175   0.0029353  -0.0278265
          265         266         267         268         269         270
    1  -0.0302267   0.0057919  -0.0062636  -0.0040584   0.0048925  -0.0057100
    2   0.0065958  -0.0020885  -0.0192436  -0.0053272  -0.0338850   0.0151310
    3  -0.0099318   0.0370453  -0.0535586   0.0012487  -0.0051890   0.0201197
          271         272         273         274         275         276
    1  -0.0323411   0.0936487  -0.0079967  -0.0011500   0.0111624  -0.0288124
    2  -0.0156667   0.0220292   0.0037674  -0.0038462   0.0249430  -0.0054201
    3   0.0020628   0.0497069   0.0019975   0.0342652  -0.0115177  -0.0163616
          277         278         279         280         281         282
    1  -0.0093171   0.0136351   0.0253951  -0.0014709  -0.0005027   0.0208695
    2  -0.0478584   0.0062907  -0.0087974   0.0302459   0.0028938   0.0098811
    3   0.0290931   0.0045939  -0.0117607  -0.0011660   0.0340317  -0.1055759
          283         284         285         286         287         288
    1  -0.0018956  -0.0058791  -0.0312789   0.0340872   0.0098329   0.0064094
    2  -0.0087001  -0.0211655  -0.0111891  -0.0069125   0.0337046  -0.0033650
    3  -0.0054060   0.0220707  -0.0185633  -0.0124699  -0.0386105   0.0037626
          289         290         291         292
    1  -0.0072803   0.0395277  -0.0056360  -0.0839346
    2  -0.0212852  -0.0006535   0.0283201   0.0110633
    3   0.0196921  -0.0020072   0.0103534   0.0691167
  --- DONE ESP SUMMARY ---
 Total job time:  37.57s(wall), 86.44s(cpu) 
 Thu Jul 21 08:50:40 2022

        *************************************************************
        *                                                           *
        *  Thank you very much for using Q-Chem.  Have a nice day.  *
        *                                                           *
        *************************************************************


