                  Welcome to Q-Chem
     A Quantum Leap Into The Future Of Chemistry


 Q-Chem 5.2 (devel), Q-Chem, Inc., Pleasanton, CA (2019)

 Yihan Shao,  Zhengting Gan,  E. Epifanovsky,  A. T. B. Gilbert,  M. Wormit,  
 J. Kussmann,  A. W. Lange,  A. Behn,  Jia Deng,  Xintian Feng,  D. Ghosh,  
 M. Goldey,  P. R. Horn,  L. D. Jacobson,  I. Kaliman,  T. Kus,  A. Landau,  
 Jie Liu,  E. I. Proynov,  R. M. Richard,  R. P. Steele,  E. J. Sundstrom,  
 H. L. Woodcock III,  P. M. Zimmerman,  D. Zuev,  B. Alam,  B. Albrecht,  
 E. Alguire,  S. A. Baeppler,  D. Barton,  Z. Benda,  Y. A. Bernard,  
 E. J. Berquist,  K. B. Bravaya,  H. Burton,  K. Carter-Fenk,  D. Casanova,  
 Chun-Min Chang,  Yunqing Chen,  A. Chien,  K. D. Closser,  M. P. Coons,  
 S. Coriani,  S. Dasgupta,  A. L. Dempwolff,  M. Diedenhofen,  Hainam Do,  
 R. G. Edgar,  Po-Tung Fang,  S. Faraji,  S. Fatehi,  Qingguo Feng,  
 J. Fosso-Tande,  J. Gayvert,  Qinghui Ge,  A. Ghysels,  G. Gidofalvi,  
 J. Gomes,  J. Gonthier,  A. Gunina,  D. Hait,  M. W. D. Hanson-Heine,  
 P. H. P. Harbach,  A. W. Hauser,  M. F. Herbst,  J. E. Herr,  
 E. G. Hohenstein,  Z. C. Holden,  Kerwin Hui,  B. C. Huynh,  T.-C. Jagau,  
 Hyunjun Ji,  B. Kaduk,  K. Khistyaev,  Jaehoon Kim,  P. Klunzinger,  K. Koh,  
 D. Kosenkov,  L. Koulias,  T. Kowalczyk,  C. M. Krauter,  A. Kunitsa,  
 Ka Un Lao,  A. Laurent,  K. V. Lawler,  Joonho Lee,  D. Lefrancois,  
 S. Lehtola,  D. S. Levine,  Yi-Pei Li,  You-Sheng Lin,  Fenglai Liu,  
 Kuan-Yu Liu,  E. Livshits,  M. Loipersberger,  A. Luenser,  P. Manohar,  
 E. Mansoor,  S. F. Manzer,  Shan-Ping Mao,  Yuezhi Mao,  N. Mardirossian,  
 A. V. Marenich,  T. Markovich,  L. A. Martinez-Martinez,  S. A. Maurer,  
 N. J. Mayhall,  S. C. McKenzie,  J.-M. Mewes,  P. Morgante,  A. F. Morrison,  
 J. W. Mullinax,  K. Nanda,  T. S. Nguyen-Beck,  R. Olivares-Amaya,  
 J. A. Parkhill,  S. K. Paul,  F. Pavosevic,  Zheng Pei,  T. M. Perrine,  
 F. Plasser,  P. Pokhilko,  S. Prager,  A. Prociuk,  E. Ramos,  B. Rana,  
 D. R. Rehn,  F. Rob,  M. Scheurer,  M. Schneider,  N. Sergueev,  
 S. M. Sharada,  S. Sharma,  D. W. Small,  T. Stauch,  C. J. Stein,  
 T. Stein,  Yu-Chuan Su,  S. P. Veccham,  Zhen Tao,  A. J. W. Thom,  
 A. Tkatchenko,  T. Tsuchimochi,  N. M. Tubman,  L. Vogt,  M. L. Vidal,  
 O. Vydrov,  M. A. Watson,  J. Wenzel,  M. de Wergifosse,  T. A. Wesolowski,  
 A. White,  J. Witte,  A. Yamada,  Jun Yang,  K. Yao,  S. Yeganeh,  
 S. R. Yost,  Zhi-Qiang You,  A. Zech,  Igor Ying Zhang,  Xing Zhang,  
 Yan Zhao,  Ying Zhu,  B. R. Brooks,  G. K. L. Chan,  C. J. Cramer,  
 M. S. Gordon,  W. J. Hehre,  A. Klamt,  M. W. Schmidt,  C. D. Sherrill,  
 D. G. Truhlar,  A. Aspuru-Guzik,  R. Baer,  A. T. Bell,  N. A. Besley,  
 Jeng-Da Chai,  A. E. DePrince, III,  R. A. DiStasio Jr.,  A. Dreuw,  
 B. D. Dunietz,  T. R. Furlani,  Chao-Ping Hsu,  Yousung Jung,  Jing Kong,  
 D. S. Lambrecht,  WanZhen Liang,  C. Ochsenfeld,  V. A. Rassolov,  
 L. V. Slipchenko,  J. E. Subotnik,  T. Van Voorhis,  J. M. Herbert,  
 A. I. Krylov,  P. M. W. Gill,  M. Head-Gordon

 Contributors to earlier versions of Q-Chem not listed above: 
 R. D. Adamson,  B. Austin,  J. Baker,  G. J. O. Beran,  K. Brandhorst,  
 S. T. Brown,  E. F. C. Byrd,  A. K. Chakraborty,  C.-L. Cheng,  
 Siu Hung Chien,  D. M. Chipman,  D. L. Crittenden,  H. Dachsel,  
 R. J. Doerksen,  A. D. Dutoi,  L. Fusti-Molnar,  W. A. Goddard III,  
 A. Golubeva-Zadorozhnaya,  S. R. Gwaltney,  G. Hawkins,  A. Heyden,  
 S. Hirata,  G. Kedziora,  F. J. Keil,  C. Kelley,  Jihan Kim,  R. A. King,  
 R. Z. Khaliullin,  P. P. Korambath,  W. Kurlancheek,  A. M. Lee,  M. S. Lee,  
 S. V. Levchenko,  Ching Yeh Lin,  D. Liotard,  R. C. Lochan,  I. Lotan,  
 P. E. Maslen,  N. Nair,  D. P. O'Neill,  D. Neuhauser,  E. Neuscamman,  
 C. M. Oana,  R. Olson,  B. Peters,  R. Peverati,  P. A. Pieniazek,  
 Y. M. Rhee,  J. Ritchie,  M. A. Rohrdanz,  E. Rosta,  N. J. Russ,  
 H. F. Schaefer III,  N. E. Schultz,  N. Shenvi,  A. C. Simmonett,  A. Sodt,  
 D. Stuck,  K. S. Thanthiriwatte,  V. Vanovschi,  Tao Wang,  A. Warshel,  
 C. F. Williams,  Q. Wu,  X. Xu,  W. Zhang

 Please cite Q-Chem as follows:
 Y. Shao et al., Mol. Phys. 113, 184-215 (2015)
 DOI: 10.1080/00268976.2014.952696

 Q-Chem 5.2.2 for Intel X86 EM64T Linux

 Parts of Q-Chem use Armadillo 9.800.1 (Horizon Scraper).
 http://arma.sourceforge.net/

 Q-Chem begins on Fri Dec  3 19:26:39 2021  

Host: node026
0

     Scratch files written to /home/ymao90/scratch/r7.00_frame_0055_spade_B3LYP_dp20211203120852//

Checking the input file for inconsistencies... 	...done.

--------------------------------------------------------------
User input:
--------------------------------------------------------------
$molecule
0 1
--
0 1
C    23.11300   21.30000   25.65400  
C    23.64400   22.06700   26.87600  
C    25.18100   22.08300   26.82900  
C    25.75200   22.59300   25.49500  
C    25.27000   21.73100   24.31700  
C    23.73300   21.69100   24.30200  
H    25.48600   22.81900   27.58300  
H    23.21400   23.07100   26.97600  
H    23.15100   20.21400   25.80100  
H    22.03700   21.50400   25.60500  
H    25.39300   23.60800   25.28600  
H    26.84800   22.58100   25.54100  
H    25.68900   22.14500   23.39200  
H    25.62400   20.69700   24.40600  
H    23.33200   22.67300   24.02100  
H    23.47100   20.97000   23.51800  
H    25.53300   21.09500   27.14800  
N    23.30300   21.37200   28.11600  
H    23.96100   20.67100   28.43500  
C    22.23100   21.72200   28.91000  
H    22.32700   21.15500   29.85400  
O    21.38300   22.56500   28.68000  
--
0 1
C    25.09100   26.42100   26.16200  
H    25.46200   27.43100   26.35300  
H    25.97100   25.77700   26.08800  
H    24.73400   26.25900   25.14100  
S    23.92200   25.75700   27.36900  
C    22.88500   27.23600   27.41400  
H    23.38200   28.07500   27.90800  
H    22.60500   27.51100   26.39400  
H    21.98000   27.00400   27.98000  
O    24.79300   25.89800   28.57800  
C    26.20800   19.26800   20.00200  
H    26.38800   18.69700   20.91700  
H    26.87200   18.92600   19.20400  
H    26.34800   20.30700   20.31400  
S    24.47700   18.89100   19.64700  
C    24.36100   19.85700   18.12400  
H    23.52600   20.54000   18.30000  
H    25.20100   20.54100   17.98200  
H    24.09400   19.23100   17.26800  
O    23.75300   19.74600   20.63900  
C    31.19000   24.23500   30.75700  
H    32.00300   24.94600   30.59100  
H    31.50700   23.19000   30.70500  
H    30.66800   24.38700   29.80900  
S    30.20800   24.67600   32.20800  
C    29.30900   23.11200   32.09400  
H    29.19700   22.84500   31.04000  
H    29.92800   22.41900   32.67000  
H    28.36100   23.22900   32.62500  
O    29.29200   25.78600   31.79300  
C    31.47100   22.39000   27.80600  
H    32.00500   21.45800   28.00900  
H    31.58500   22.82300   26.80800  
H    31.83500   23.10300   28.55000  
S    29.73200   22.02900   28.14100  
C    29.31000   20.95600   26.75000  
H    29.91700   20.05000   26.81200  
H    28.26300   20.64500   26.79900  
H    29.44200   21.48400   25.80200  
O    28.95000   23.27900   27.88100  
C    23.49500   20.34300   32.31200  
H    22.83400   20.01200   31.50700  
H    24.39400   20.83500   31.93400  
H    23.87700   19.56200   32.97400  
S    22.40100   21.40300   33.28500  
C    21.38000   20.00000   33.78800  
H    22.02500   19.40400   34.43900  
H    20.57800   20.45400   34.37700  
H    21.01100   19.48200   32.89900  
O    21.63100   22.01400   32.15600  
C    31.41100   17.69100   27.00800  
H    32.44200   17.34300   27.11500  
H    31.41600   18.46200   26.23300  
H    30.95600   18.03200   27.94100  
S    30.46100   16.30000   26.35400  
C    30.21600   16.88000   24.66100  
H    29.41800   17.62800   24.65600  
H    31.14800   17.28500   24.25800  
H    29.85400   16.01200   24.10400  
O    29.15200   16.46600   27.06200  
C    27.58200   18.92900   28.72100  
H    27.41200   17.93800   29.14900  
H    27.16600   19.05100   27.71900  
H    28.66000   19.11000   28.70800  
S    26.66600   20.21100   29.60600  
C    27.18300   19.73900   31.27200  
H    26.78100   20.54600   31.89000  
H    26.81400   18.76800   31.61400  
H    28.27100   19.76100   31.38200  
O    25.25900   19.73600   29.42300  
C    24.13900   23.22300   20.95100  
H    23.07900   23.09100   20.71900  
H    24.62700   22.25400   21.08600  
H    24.37800   23.82600   21.83100  
S    24.81700   24.04600   19.49200  
C    23.69600   25.45200   19.67000  
H    22.64900   25.14000   19.64100  
H    24.00700   25.99200   20.56700  
H    23.87000   26.22300   18.91500  
O    24.22500   23.31200   18.33000  
C    27.39700   29.97200   29.44800  
H    26.91700   30.89200   29.10500  
H    26.73600   29.58400   30.22700  
H    28.39200   30.09800   29.88200  
S    27.38400   28.69800   28.16700  
C    27.89400   27.34900   29.25700  
H    26.95100   26.95900   29.64800  
H    28.32800   26.55400   28.64500  
H    28.48900   27.62200   30.13200  
O    28.68700   28.93400   27.47000  
C    26.23400   18.06200   34.52300  
H    25.94900   18.11600   33.46900  
H    27.30400   18.26500   34.62200  
H    25.92200   17.07600   34.87500  
S    25.42600   19.40500   35.42200  
C    26.05100   18.78400   37.00000  
H    25.51600   17.84200   37.14000  
H    27.12700   18.61700   36.90700  
H    25.78400   19.45600   37.81900  
O    23.99400   18.97200   35.36900  
C    20.55000   21.38200   18.79500  
H    21.21200   22.02000   18.20500  
H    21.11300   21.00300   19.65300  
H    20.05400   20.55600   18.28000  
S    19.22300   22.37200   19.51900  
C    20.24300   23.30600   20.68200  
H    20.66600   22.60000   21.40100  
H    20.95400   23.87100   20.07300  
H    19.56200   23.97900   21.20900  
O    18.47400   21.43700   20.41700  
C    27.69500   26.86500   21.65800  
H    27.74500   26.18800   20.80200  
H    27.90100   27.81300   21.15400  
H    28.45400   26.60400   22.40000  
S    26.04100   26.99700   22.37500  
C    26.45000   28.19400   23.66600  
H    27.08900   29.00600   23.31000  
H    25.52800   28.67700   24.00000  
H    26.84600   27.61000   24.50000  
O    25.93700   25.66500   23.04900  
C    28.42200   25.96200   25.80900  
H    28.49900   27.03200   26.01800  
H    27.90300   25.78800   24.86300  
H    28.01100   25.37000   26.63100  
S    30.09000   25.27900   25.68500  
C    30.84400   26.06100   27.12900  
H    31.90100   25.80400   27.02200  
H    30.69300   27.14300   27.10100  
H    30.42500   25.58400   28.01900  
O    30.56400   26.03400   24.48100  
C    23.28400   16.55100   32.90500  
H    23.69800   16.94100   33.83800  
H    24.00400   16.47600   32.08600  
H    22.43900   17.19100   32.63700  
S    22.47100   14.94500   33.06800  
C    23.94300   13.94500   33.37900  
H    24.60800   14.44200   34.09000  
H    23.56900   13.00500   33.79400  
H    24.33100   13.85600   32.36100  
O    22.28300   14.69600   31.60300  
C    20.19700   20.29900   23.01100  
H    19.60000   19.71200   22.30900  
H    19.64900   21.24200   23.08500  
H    21.22100   20.43800   22.65600  
S    20.26800   19.46100   24.61000  
C    20.60600   17.90500   23.75700  
H    19.64800   17.56500   23.35700  
H    21.36100   18.18400   23.01700  
H    20.94100   17.20300   24.52500  
O    18.83300   19.47100   25.03800  
C    16.90800   23.55500   31.48600  
H    15.90600   23.94500   31.28900  
H    17.63100   24.37400   31.47800  
H    17.19900   22.87300   30.68400  
S    16.95300   22.76800   33.11200  
C    18.50200   21.93700   32.69500  
H    19.29900   22.68400   32.65600  
H    18.74400   21.21300   33.47800  
H    18.36800   21.45400   31.72400  
O    15.94300   21.67200   32.97400  
C    29.45100   20.93100   21.95000  
H    30.32600   20.30400   21.76000  
H    28.74900   20.55800   22.70000  
H    28.99900   21.19700   20.99100  
S    29.96800   22.51500   22.64800  
C    28.43000   23.37500   22.24700  
H    28.49100   23.52000   21.16600  
H    27.66300   22.61000   22.38900  
H    28.28700   24.28400   22.83700  
O    31.01300   22.90500   21.64800  
C    19.60800   26.01800   29.86100  
H    20.11700   25.25200   29.27000  
H    18.62800   25.70400   30.22900  
H    19.39600   26.91100   29.26700  
S    20.72800   26.61100   31.14800  
C    21.39200   25.02500   31.70500  
H    21.84000   24.47600   30.87300  
H    22.05400   25.32400   32.52200  
H    20.59000   24.43000   32.15000  
O    19.78800   27.06400   32.22200  
C    26.48900   15.96200   24.34200  
H    26.60700   15.52700   23.34600  
H    27.45200   15.89200   24.85300  
H    25.71600   15.41800   24.89200  
S    26.05600   17.70700   24.16300  
C    24.61500   17.31000   23.14700  
H    23.88200   16.75800   23.74000  
H    24.08100   18.22600   22.88000  
H    24.92400   16.79000   22.23700  
O    27.09100   18.33400   23.28200  
C    17.80600   19.39900   29.43000  
H    17.20400   19.45900   30.34000  
H    17.44300   19.92000   28.54000  
H    17.73300   18.31000   29.36800  
S    19.50000   19.89000   29.82500  
C    20.01600   19.60200   28.11800  
H    21.10700   19.66900   28.13000  
H    19.80700   18.57900   27.79500  
H    19.54600   20.34300   27.46600  
O    20.02700   18.73900   30.62500  
C    17.87300   25.14900   26.15500  
H    16.83600   24.82800   26.28500  
H    17.98300   26.10800   26.66800  
H    18.30500   25.15900   25.15100  
S    18.78400   23.78700   26.91500  
C    18.26500   22.54700   25.70800  
H    18.61300   21.53700   25.93900  
H    17.18900   22.60700   25.52300  
H    18.72400   22.93700   24.79600  
O    17.96800   23.39300   28.10700  
C    20.84100   27.51400   24.30200  
H    20.42000   27.92500   23.38000  
H    20.06100   27.55300   25.06600  
H    21.58600   28.18900   24.73200  
S    21.25400   25.77100   24.06400  
C    22.29300   26.13400   22.63100  
H    23.03600   26.77600   23.11000  
H    22.77200   25.20800   22.30100  
H    21.73100   26.64600   21.84600  
O    20.06700   25.29700   23.28400  
C    26.72600   23.90000   30.26300  
H    27.28400   23.09500   29.77900  
H    26.31100   24.39600   29.38200  
H    27.40400   24.46400   30.90900  
S    25.36500   23.40300   31.34300  
C    24.96700   25.07500   31.90300  
H    25.91700   25.56900   32.11900  
H    24.52500   25.68900   31.11400  
H    24.27200   25.00700   32.74400  
O    26.08600   22.79500   32.50500  
C    23.92900   17.23500   27.25000  
H    24.47900   17.45500   28.16800  
H    24.46800   16.52100   26.62000  
H    23.80000   18.17800   26.71300  
S    22.32100   16.55100   27.71000  
C    23.07400   15.20900   28.65700  
H    22.31700   14.55600   29.10000  
H    23.64100   14.63200   27.92100  
H    23.69600   15.68100   29.42200  
O    21.99300   15.85500   26.42600  
C    29.20700   22.55700   17.86500  
H    30.03100   23.18400   18.21300  
H    29.04900   21.74500   18.58000  
H    29.56900   22.12100   16.93000  
S    27.69700   23.53800   17.71500  
C    28.37800   24.64500   16.46000  
H    27.54700   24.85300   15.78000  
H    28.59200   25.57500   16.99200  
H    29.13700   24.10000   15.89300  
O    27.76400   24.30200   19.00100  
$end

$rem
JOBTYPE  SP
METHOD  B3LYP
BASIS  6-31+G(D)
SYMMETRY  FALSE
SYM_IGNORE  TRUE
MEM_TOTAL  16000
MEM_STATIC  8000
MAX_SUB_FILE_NUM  16000
BASIS_LIN_DEP_THRESH  6
THRESH  14
SCF_CONVERGENCE  8
GEN_SCFMAN  TRUE
SCF_GUESS  SAD
FD_MAT_VEC_PROD  FALSE
XC_GRID  000075000302
NL_GRID  1
MAX_SCF_CYCLES  200
ENV_METHOD  B3LYP
GEN_SCFMAN_EMBED  TRUE
SPADE_PARTITION  TRUE
$end

$development
embedding_early_stop  1
$end

--------------------------------------------------------------
 ----------------------------------------------------------------
             Standard Nuclear Orientation (Angstroms)
    I     Atom           X                Y                Z
 ----------------------------------------------------------------
    1      C      23.1130000000    21.3000000000    25.6540000000
    2      C      23.6440000000    22.0670000000    26.8760000000
    3      C      25.1810000000    22.0830000000    26.8290000000
    4      C      25.7520000000    22.5930000000    25.4950000000
    5      C      25.2700000000    21.7310000000    24.3170000000
    6      C      23.7330000000    21.6910000000    24.3020000000
    7      H      25.4860000000    22.8190000000    27.5830000000
    8      H      23.2140000000    23.0710000000    26.9760000000
    9      H      23.1510000000    20.2140000000    25.8010000000
   10      H      22.0370000000    21.5040000000    25.6050000000
   11      H      25.3930000000    23.6080000000    25.2860000000
   12      H      26.8480000000    22.5810000000    25.5410000000
   13      H      25.6890000000    22.1450000000    23.3920000000
   14      H      25.6240000000    20.6970000000    24.4060000000
   15      H      23.3320000000    22.6730000000    24.0210000000
   16      H      23.4710000000    20.9700000000    23.5180000000
   17      H      25.5330000000    21.0950000000    27.1480000000
   18      N      23.3030000000    21.3720000000    28.1160000000
   19      H      23.9610000000    20.6710000000    28.4350000000
   20      C      22.2310000000    21.7220000000    28.9100000000
   21      H      22.3270000000    21.1550000000    29.8540000000
   22      O      21.3830000000    22.5650000000    28.6800000000
   23      C      25.0910000000    26.4210000000    26.1620000000
   24      H      25.4620000000    27.4310000000    26.3530000000
   25      H      25.9710000000    25.7770000000    26.0880000000
   26      H      24.7340000000    26.2590000000    25.1410000000
   27      S      23.9220000000    25.7570000000    27.3690000000
   28      C      22.8850000000    27.2360000000    27.4140000000
   29      H      23.3820000000    28.0750000000    27.9080000000
   30      H      22.6050000000    27.5110000000    26.3940000000
   31      H      21.9800000000    27.0040000000    27.9800000000
   32      O      24.7930000000    25.8980000000    28.5780000000
   33      C      26.2080000000    19.2680000000    20.0020000000
   34      H      26.3880000000    18.6970000000    20.9170000000
   35      H      26.8720000000    18.9260000000    19.2040000000
   36      H      26.3480000000    20.3070000000    20.3140000000
   37      S      24.4770000000    18.8910000000    19.6470000000
   38      C      24.3610000000    19.8570000000    18.1240000000
   39      H      23.5260000000    20.5400000000    18.3000000000
   40      H      25.2010000000    20.5410000000    17.9820000000
   41      H      24.0940000000    19.2310000000    17.2680000000
   42      O      23.7530000000    19.7460000000    20.6390000000
   43      C      31.1900000000    24.2350000000    30.7570000000
   44      H      32.0030000000    24.9460000000    30.5910000000
   45      H      31.5070000000    23.1900000000    30.7050000000
   46      H      30.6680000000    24.3870000000    29.8090000000
   47      S      30.2080000000    24.6760000000    32.2080000000
   48      C      29.3090000000    23.1120000000    32.0940000000
   49      H      29.1970000000    22.8450000000    31.0400000000
   50      H      29.9280000000    22.4190000000    32.6700000000
   51      H      28.3610000000    23.2290000000    32.6250000000
   52      O      29.2920000000    25.7860000000    31.7930000000
   53      C      31.4710000000    22.3900000000    27.8060000000
   54      H      32.0050000000    21.4580000000    28.0090000000
   55      H      31.5850000000    22.8230000000    26.8080000000
   56      H      31.8350000000    23.1030000000    28.5500000000
   57      S      29.7320000000    22.0290000000    28.1410000000
   58      C      29.3100000000    20.9560000000    26.7500000000
   59      H      29.9170000000    20.0500000000    26.8120000000
   60      H      28.2630000000    20.6450000000    26.7990000000
   61      H      29.4420000000    21.4840000000    25.8020000000
   62      O      28.9500000000    23.2790000000    27.8810000000
   63      C      23.4950000000    20.3430000000    32.3120000000
   64      H      22.8340000000    20.0120000000    31.5070000000
   65      H      24.3940000000    20.8350000000    31.9340000000
   66      H      23.8770000000    19.5620000000    32.9740000000
   67      S      22.4010000000    21.4030000000    33.2850000000
   68      C      21.3800000000    20.0000000000    33.7880000000
   69      H      22.0250000000    19.4040000000    34.4390000000
   70      H      20.5780000000    20.4540000000    34.3770000000
   71      H      21.0110000000    19.4820000000    32.8990000000
   72      O      21.6310000000    22.0140000000    32.1560000000
   73      C      31.4110000000    17.6910000000    27.0080000000
   74      H      32.4420000000    17.3430000000    27.1150000000
   75      H      31.4160000000    18.4620000000    26.2330000000
   76      H      30.9560000000    18.0320000000    27.9410000000
   77      S      30.4610000000    16.3000000000    26.3540000000
   78      C      30.2160000000    16.8800000000    24.6610000000
   79      H      29.4180000000    17.6280000000    24.6560000000
   80      H      31.1480000000    17.2850000000    24.2580000000
   81      H      29.8540000000    16.0120000000    24.1040000000
   82      O      29.1520000000    16.4660000000    27.0620000000
   83      C      27.5820000000    18.9290000000    28.7210000000
   84      H      27.4120000000    17.9380000000    29.1490000000
   85      H      27.1660000000    19.0510000000    27.7190000000
   86      H      28.6600000000    19.1100000000    28.7080000000
   87      S      26.6660000000    20.2110000000    29.6060000000
   88      C      27.1830000000    19.7390000000    31.2720000000
   89      H      26.7810000000    20.5460000000    31.8900000000
   90      H      26.8140000000    18.7680000000    31.6140000000
   91      H      28.2710000000    19.7610000000    31.3820000000
   92      O      25.2590000000    19.7360000000    29.4230000000
   93      C      24.1390000000    23.2230000000    20.9510000000
   94      H      23.0790000000    23.0910000000    20.7190000000
   95      H      24.6270000000    22.2540000000    21.0860000000
   96      H      24.3780000000    23.8260000000    21.8310000000
   97      S      24.8170000000    24.0460000000    19.4920000000
   98      C      23.6960000000    25.4520000000    19.6700000000
   99      H      22.6490000000    25.1400000000    19.6410000000
  100      H      24.0070000000    25.9920000000    20.5670000000
  101      H      23.8700000000    26.2230000000    18.9150000000
  102      O      24.2250000000    23.3120000000    18.3300000000
  103      C      27.3970000000    29.9720000000    29.4480000000
  104      H      26.9170000000    30.8920000000    29.1050000000
  105      H      26.7360000000    29.5840000000    30.2270000000
  106      H      28.3920000000    30.0980000000    29.8820000000
  107      S      27.3840000000    28.6980000000    28.1670000000
  108      C      27.8940000000    27.3490000000    29.2570000000
  109      H      26.9510000000    26.9590000000    29.6480000000
  110      H      28.3280000000    26.5540000000    28.6450000000
  111      H      28.4890000000    27.6220000000    30.1320000000
  112      O      28.6870000000    28.9340000000    27.4700000000
  113      C      26.2340000000    18.0620000000    34.5230000000
  114      H      25.9490000000    18.1160000000    33.4690000000
  115      H      27.3040000000    18.2650000000    34.6220000000
  116      H      25.9220000000    17.0760000000    34.8750000000
  117      S      25.4260000000    19.4050000000    35.4220000000
  118      C      26.0510000000    18.7840000000    37.0000000000
  119      H      25.5160000000    17.8420000000    37.1400000000
  120      H      27.1270000000    18.6170000000    36.9070000000
  121      H      25.7840000000    19.4560000000    37.8190000000
  122      O      23.9940000000    18.9720000000    35.3690000000
  123      C      20.5500000000    21.3820000000    18.7950000000
  124      H      21.2120000000    22.0200000000    18.2050000000
  125      H      21.1130000000    21.0030000000    19.6530000000
  126      H      20.0540000000    20.5560000000    18.2800000000
  127      S      19.2230000000    22.3720000000    19.5190000000
  128      C      20.2430000000    23.3060000000    20.6820000000
  129      H      20.6660000000    22.6000000000    21.4010000000
  130      H      20.9540000000    23.8710000000    20.0730000000
  131      H      19.5620000000    23.9790000000    21.2090000000
  132      O      18.4740000000    21.4370000000    20.4170000000
  133      C      27.6950000000    26.8650000000    21.6580000000
  134      H      27.7450000000    26.1880000000    20.8020000000
  135      H      27.9010000000    27.8130000000    21.1540000000
  136      H      28.4540000000    26.6040000000    22.4000000000
  137      S      26.0410000000    26.9970000000    22.3750000000
  138      C      26.4500000000    28.1940000000    23.6660000000
  139      H      27.0890000000    29.0060000000    23.3100000000
  140      H      25.5280000000    28.6770000000    24.0000000000
  141      H      26.8460000000    27.6100000000    24.5000000000
  142      O      25.9370000000    25.6650000000    23.0490000000
  143      C      28.4220000000    25.9620000000    25.8090000000
  144      H      28.4990000000    27.0320000000    26.0180000000
  145      H      27.9030000000    25.7880000000    24.8630000000
  146      H      28.0110000000    25.3700000000    26.6310000000
  147      S      30.0900000000    25.2790000000    25.6850000000
  148      C      30.8440000000    26.0610000000    27.1290000000
  149      H      31.9010000000    25.8040000000    27.0220000000
  150      H      30.6930000000    27.1430000000    27.1010000000
  151      H      30.4250000000    25.5840000000    28.0190000000
  152      O      30.5640000000    26.0340000000    24.4810000000
  153      C      23.2840000000    16.5510000000    32.9050000000
  154      H      23.6980000000    16.9410000000    33.8380000000
  155      H      24.0040000000    16.4760000000    32.0860000000
  156      H      22.4390000000    17.1910000000    32.6370000000
  157      S      22.4710000000    14.9450000000    33.0680000000
  158      C      23.9430000000    13.9450000000    33.3790000000
  159      H      24.6080000000    14.4420000000    34.0900000000
  160      H      23.5690000000    13.0050000000    33.7940000000
  161      H      24.3310000000    13.8560000000    32.3610000000
  162      O      22.2830000000    14.6960000000    31.6030000000
  163      C      20.1970000000    20.2990000000    23.0110000000
  164      H      19.6000000000    19.7120000000    22.3090000000
  165      H      19.6490000000    21.2420000000    23.0850000000
  166      H      21.2210000000    20.4380000000    22.6560000000
  167      S      20.2680000000    19.4610000000    24.6100000000
  168      C      20.6060000000    17.9050000000    23.7570000000
  169      H      19.6480000000    17.5650000000    23.3570000000
  170      H      21.3610000000    18.1840000000    23.0170000000
  171      H      20.9410000000    17.2030000000    24.5250000000
  172      O      18.8330000000    19.4710000000    25.0380000000
  173      C      16.9080000000    23.5550000000    31.4860000000
  174      H      15.9060000000    23.9450000000    31.2890000000
  175      H      17.6310000000    24.3740000000    31.4780000000
  176      H      17.1990000000    22.8730000000    30.6840000000
  177      S      16.9530000000    22.7680000000    33.1120000000
  178      C      18.5020000000    21.9370000000    32.6950000000
  179      H      19.2990000000    22.6840000000    32.6560000000
  180      H      18.7440000000    21.2130000000    33.4780000000
  181      H      18.3680000000    21.4540000000    31.7240000000
  182      O      15.9430000000    21.6720000000    32.9740000000
  183      C      29.4510000000    20.9310000000    21.9500000000
  184      H      30.3260000000    20.3040000000    21.7600000000
  185      H      28.7490000000    20.5580000000    22.7000000000
  186      H      28.9990000000    21.1970000000    20.9910000000
  187      S      29.9680000000    22.5150000000    22.6480000000
  188      C      28.4300000000    23.3750000000    22.2470000000
  189      H      28.4910000000    23.5200000000    21.1660000000
  190      H      27.6630000000    22.6100000000    22.3890000000
  191      H      28.2870000000    24.2840000000    22.8370000000
  192      O      31.0130000000    22.9050000000    21.6480000000
  193      C      19.6080000000    26.0180000000    29.8610000000
  194      H      20.1170000000    25.2520000000    29.2700000000
  195      H      18.6280000000    25.7040000000    30.2290000000
  196      H      19.3960000000    26.9110000000    29.2670000000
  197      S      20.7280000000    26.6110000000    31.1480000000
  198      C      21.3920000000    25.0250000000    31.7050000000
  199      H      21.8400000000    24.4760000000    30.8730000000
  200      H      22.0540000000    25.3240000000    32.5220000000
  201      H      20.5900000000    24.4300000000    32.1500000000
  202      O      19.7880000000    27.0640000000    32.2220000000
  203      C      26.4890000000    15.9620000000    24.3420000000
  204      H      26.6070000000    15.5270000000    23.3460000000
  205      H      27.4520000000    15.8920000000    24.8530000000
  206      H      25.7160000000    15.4180000000    24.8920000000
  207      S      26.0560000000    17.7070000000    24.1630000000
  208      C      24.6150000000    17.3100000000    23.1470000000
  209      H      23.8820000000    16.7580000000    23.7400000000
  210      H      24.0810000000    18.2260000000    22.8800000000
  211      H      24.9240000000    16.7900000000    22.2370000000
  212      O      27.0910000000    18.3340000000    23.2820000000
  213      C      17.8060000000    19.3990000000    29.4300000000
  214      H      17.2040000000    19.4590000000    30.3400000000
  215      H      17.4430000000    19.9200000000    28.5400000000
  216      H      17.7330000000    18.3100000000    29.3680000000
  217      S      19.5000000000    19.8900000000    29.8250000000
  218      C      20.0160000000    19.6020000000    28.1180000000
  219      H      21.1070000000    19.6690000000    28.1300000000
  220      H      19.8070000000    18.5790000000    27.7950000000
  221      H      19.5460000000    20.3430000000    27.4660000000
  222      O      20.0270000000    18.7390000000    30.6250000000
  223      C      17.8730000000    25.1490000000    26.1550000000
  224      H      16.8360000000    24.8280000000    26.2850000000
  225      H      17.9830000000    26.1080000000    26.6680000000
  226      H      18.3050000000    25.1590000000    25.1510000000
  227      S      18.7840000000    23.7870000000    26.9150000000
  228      C      18.2650000000    22.5470000000    25.7080000000
  229      H      18.6130000000    21.5370000000    25.9390000000
  230      H      17.1890000000    22.6070000000    25.5230000000
  231      H      18.7240000000    22.9370000000    24.7960000000
  232      O      17.9680000000    23.3930000000    28.1070000000
  233      C      20.8410000000    27.5140000000    24.3020000000
  234      H      20.4200000000    27.9250000000    23.3800000000
  235      H      20.0610000000    27.5530000000    25.0660000000
  236      H      21.5860000000    28.1890000000    24.7320000000
  237      S      21.2540000000    25.7710000000    24.0640000000
  238      C      22.2930000000    26.1340000000    22.6310000000
  239      H      23.0360000000    26.7760000000    23.1100000000
  240      H      22.7720000000    25.2080000000    22.3010000000
  241      H      21.7310000000    26.6460000000    21.8460000000
  242      O      20.0670000000    25.2970000000    23.2840000000
  243      C      26.7260000000    23.9000000000    30.2630000000
  244      H      27.2840000000    23.0950000000    29.7790000000
  245      H      26.3110000000    24.3960000000    29.3820000000
  246      H      27.4040000000    24.4640000000    30.9090000000
  247      S      25.3650000000    23.4030000000    31.3430000000
  248      C      24.9670000000    25.0750000000    31.9030000000
  249      H      25.9170000000    25.5690000000    32.1190000000
  250      H      24.5250000000    25.6890000000    31.1140000000
  251      H      24.2720000000    25.0070000000    32.7440000000
  252      O      26.0860000000    22.7950000000    32.5050000000
  253      C      23.9290000000    17.2350000000    27.2500000000
  254      H      24.4790000000    17.4550000000    28.1680000000
  255      H      24.4680000000    16.5210000000    26.6200000000
  256      H      23.8000000000    18.1780000000    26.7130000000
  257      S      22.3210000000    16.5510000000    27.7100000000
  258      C      23.0740000000    15.2090000000    28.6570000000
  259      H      22.3170000000    14.5560000000    29.1000000000
  260      H      23.6410000000    14.6320000000    27.9210000000
  261      H      23.6960000000    15.6810000000    29.4220000000
  262      O      21.9930000000    15.8550000000    26.4260000000
  263      C      29.2070000000    22.5570000000    17.8650000000
  264      H      30.0310000000    23.1840000000    18.2130000000
  265      H      29.0490000000    21.7450000000    18.5800000000
  266      H      29.5690000000    22.1210000000    16.9300000000
  267      S      27.6970000000    23.5380000000    17.7150000000
  268      C      28.3780000000    24.6450000000    16.4600000000
  269      H      27.5470000000    24.8530000000    15.7800000000
  270      H      28.5920000000    25.5750000000    16.9920000000
  271      H      29.1370000000    24.1000000000    15.8930000000
  272      O      27.7640000000    24.3020000000    19.0010000000
 ----------------------------------------------------------------
 Nuclear Repulsion Energy =       43122.69251206 hartrees
 There are      560 alpha and      560 beta electrons
 Requested basis set is 6-31+G(d)
 There are 896 shells and 2497 basis functions

 Total QAlloc Memory Limit  16000 MB
 Mega-Array Size      7821 MB
 MEM_STATIC part      8000 MB
 A cutoff of  1.0D-14 yielded 161856 shell pairs
 There are   1398897 function pairs
 Smallest overlap matrix eigenvalue = 3.47E-07
 Linear dependence detected in AO basis
 Tighter screening thresholds may be required for diffuse basis sets
 Use S2THRESH > 14 and THRESH = 14 in case of SCF convergence issues
 Number of orthogonalized atomic orbitals = 2495
 Maximum deviation from orthogonality = 1.506E-10

 Scale SEOQF with 1.000000e-03/1.000000e-03/1.000000e-03

 Standard Electronic Orientation quadrupole field applied
 Nucleus-field energy     =    -0.0000002430 hartrees
 Guess from superposition of atomic densities
 Warning:  Energy on first SCF cycle will be non-variational
 SAD guess density has 1120.000002 electrons

 -----------------------------------------------------------------------
  General SCF calculation program by
  Eric Jon Sundstrom, Paul Horn, Yuezhi Mao, Dmitri Zuev, Alec White,
  David Stuck, Shaama M.S., Shane Yost, Joonho Lee, David Small,
  Daniel Levine, Susi Lehtola, Hugh Burton, Evgeny Epifanovsky,
  Bang C. Huynh
 -----------------------------------------------------------------------
=================================================
        Doing projection-based embedding         
      F. Manby et al. JCTC, 8, 2564 (2012)       
=================================================

****************************************************
   Low-level SCF calculation for the whole system   
****************************************************
----------------------------------------------
 Summary of the low-level theory: 
 Exchange:     0.2000 Hartree-Fock + 0.0800 Slater + 0.7200 B88
 Correlation:  0.1900 VWN1RPA + 0.8100 LYP
 Using Euler-Maclaurin-Lebedev (75,302) quadrature formula
----------------------------------------------
 using 16 threads for integral computing
 -------------------------------------------------------
 OpenMP Integral computing Module                
 Release: version 2.0, May 2017, Q-Chem Inc. Pleasanton 
 -------------------------------------------------------
 A restricted SCF calculation will be
 performed using DIIS
 SCF converges when DIIS error is below 1.0e-08
 ---------------------------------------
  Cycle       Energy         DIIS error
 ---------------------------------------
    1  -14252.3870781628      1.40e-02  
    2  -14229.8028165360      2.60e-03  
    3  -14212.8634659731      5.34e-03  
    4  -14230.6651728679      1.64e-03  
    5  -14232.2235800414      1.11e-03  
    6  -14234.2273315308      4.09e-04  
    7  -14234.2978304351      2.64e-04  
    8  -14234.3390714285      1.19e-04  
    9  -14234.3472148726      6.63e-05  
   10  -14234.3499486191      3.14e-05  
   11  -14234.3508464260      1.28e-05  
   12  -14234.3509669231      4.59e-06  
   13  -14234.3509798122      1.77e-06  
   14  -14234.3509817738      4.88e-07  
   15  -14234.3509819367      1.49e-07  
   16  -14234.3509819502      6.94e-08  
   17  -14234.3509819529      2.04e-08  
   18  -14234.3509819528      6.15e-09  Convergence criterion met
 ---------------------------------------
 SCF time:   CPU 198883.37s  wall 12578.00s 
 SCF   energy in the final basis set =   -14234.3509819528
 Total energy in the final basis set =   -14234.3509819528

****************************************************
             Start embedding calculation            
****************************************************
----------------------------------------------
 Summary of the high-level theory: 
 Exchange:     0.2000 Hartree-Fock + 0.0800 Slater + 0.7200 B88
 Correlation:  0.1900 VWN1RPA + 0.8100 LYP
 Using Euler-Maclaurin-Lebedev (75,302) quadrature formula
----------------------------------------------
Doing R-in-R Embedding Calculation
Number of fragments: 2
Embedded fragment(s): 1 
NOcc for each fragment
           35
          525
NBasis for each fragment
          197
         2300
Variational space of the embedded problem: 
NOcc (active)  = 35
NOcc (fixed)   = 525
NVir (total)   = 1935
Read converged orbitals from disk
=========================================================
       Doing SPADE partition for the orbital space       
     D. CLaudino and N. Mayhall JCTC 15, 1053 (2019)     
=========================================================
SPADE singular values:
 1.0000 1.0000 1.0000 1.0000 1.0000 1.0000 1.0000 1.0000 1.0000 0.9999
 0.9998 0.9997 0.9996 0.9995 0.9994 0.9992 0.9991 0.9989 0.9980 0.9971
 0.9968 0.9965 0.9959 0.9954 0.9953 0.9946 0.9942 0.9928 0.9926 0.9923
 0.9913 0.9906 0.9876 0.9842 0.9783 0.2109 0.1981 0.1684 0.1590 0.1530
 0.1486 0.1290 0.1225 0.1147 0.1095 0.0988 0.0921 0.0858 0.0809 0.0763
 0.0642 0.0594 0.0518 0.0511 0.0456 0.0441 0.0424 0.0394 0.0364 0.0328
 0.0301 0.0290 0.0267 0.0259 0.0247 0.0231 0.0223 0.0202 0.0199 0.0186
 0.0182 0.0163 0.0159 0.0155 0.0139 0.0127 0.0120 0.0115 0.0111 0.0106
 0.0099 0.0097 0.0095 0.0086 0.0085 0.0081 0.0073 0.0071 0.0070 0.0065
 0.0063 0.0061 0.0059 0.0057 0.0054 0.0051 0.0050 0.0048 0.0047 0.0045
 0.0042 0.0040 0.0036 0.0035 0.0033 0.0032 0.0031 0.0029 0.0028 0.0027
 0.0025 0.0024 0.0022 0.0021 0.0020 0.0020 0.0019 0.0018 0.0018 0.0017
 0.0016 0.0016 0.0016 0.0015 0.0015 0.0014 0.0014 0.0013 0.0013 0.0012
 0.0012 0.0012 0.0011 0.0011 0.0010 0.0009 0.0009 0.0008 0.0008 0.0008
 0.0007 0.0007 0.0007 0.0007 0.0007 0.0006 0.0006 0.0006 0.0006 0.0005
 0.0005 0.0005 0.0004 0.0004 0.0004 0.0004 0.0004 0.0004 0.0004 0.0003
 0.0003 0.0003 0.0003 0.0003 0.0003 0.0003 0.0002 0.0002 0.0002 0.0002
 0.0002 0.0002 0.0002 0.0002 0.0002 0.0002 0.0002 0.0002 0.0002 0.0002
 0.0001 0.0001 0.0001 0.0001 0.0001 0.0001 0.0001 0.0001 0.0001 0.0001
 0.0001 0.0001 0.0001 0.0001 0.0001 0.0001 0.0001
Early stop requested!
525 environment occs will be part of frozen-core in future post-HF calculations
 
 --------------------------------------------------------------
 
                    Orbital Energies (a.u.)
 --------------------------------------------------------------
 
 Alpha MOs
 -- Occupied --
 -0.5007  -0.5353  -0.4753  -0.4763  -0.5151  -0.4546  -0.5155  -0.4060
 -0.4952  -0.4739  -0.4275  -0.4671  -0.4435  -0.3953  -0.4723  -0.4425
 -0.5023  -0.4992  -0.4627  -0.6586  -0.5417  -0.5018  -0.5557  -0.4565
 -0.5730  -0.6749  -0.5796  -0.6615  -0.6121  -0.6070  -0.6153  -0.6113
 -0.5925  -0.5563  -0.5541  -0.6353  -0.7356  -0.6495  -0.5706  -0.5984
 -0.5845  -0.5574  -0.6898  -0.4477  -0.5401  -0.5657  -0.6874  -0.5029
 -0.5887  -0.6272  -0.5835  -0.6520  -0.6685  -0.6193  -0.5787  -0.6151
 -0.6574  -0.6407  -0.6423  -0.7767  -0.7797  -0.7157  -0.8123  -0.7450
 -0.6708  -0.9025  -0.7076  -0.6078  -0.6509  -0.6888  -0.8173  -1.2864
 -1.0987  -1.2052  -0.9740  -1.0102  -1.0855  -1.2414  -1.0921  -0.8618
 -0.8069  -0.9421  -1.2333  -0.9339  -0.9980  -1.0922  -1.0017  -0.9698
 -0.9487  -0.7782  -1.0295  -1.3291  -1.0846  -1.0319  -1.3566  -1.3224
 -1.3458  -1.4542  -1.0486  -1.7807  -1.5107  -1.4719  -1.4008  -2.8270
 -1.5167  -1.3923  -2.5384  -3.4479  -1.0859  -1.4481  -2.0689  -1.3078
 -1.4470  -1.1101  -1.7738  -1.6626  -1.3195  -1.5317  -1.0841  -1.4840
 -1.3558  -1.8876  -1.4910  -1.6625  -2.1869  -1.6473  -1.2378  -1.2401
 -1.2031  -1.6596  -1.1036  -1.6383  -1.7656  -1.4641  -1.8436  -1.9633
 -1.3295  -1.7482  -1.8657  -1.6449  -1.7273  -1.3361  -1.8899  -1.6056
 -1.4857  -1.8122  -2.1432  -1.8216  -1.4920  -1.6085  -1.6069  -1.9288
 -1.4736  -2.0361  -2.4247  -1.6914  -1.8439  -2.2940  -1.4609  -1.7870
 -1.7770  -2.0427  -5.8339  -5.9566  -5.8840  -5.6317  -5.9513  -5.9151
 -5.8616  -5.6849  -5.9476  -5.9487  -5.7506  -5.9517  -9.5280 -15.9001
 -1.5420  -6.7050  -5.1053  -1.7159  -9.8774 -11.0314  -1.7020  -1.8468
 -5.3677  -5.5285  -1.9475  -4.3221 -36.0467  -1.1975  -4.4243  -2.6490
 -1.8910  -4.3949 -14.9013  -6.0479  -2.4434  -6.1229  -6.7949  -1.2884
-66.9046  -7.9391  -1.2852  -2.2481 -58.4533  -1.8910 -27.5178  -4.8979
-10.2852  -5.2431  -1.0607 -10.5039  -5.7877 -15.9466  -9.0443  -1.4796
 -5.8521  -2.7840  -1.0575  -7.4611 -30.0380 -10.6693  -5.9591  -8.1140
 -5.2491  -4.7936  -1.5837  -8.9953  -7.1725  -1.8738  -8.4673 -60.1588
 -3.2438  -9.1821  -2.5026 -63.3951  -1.2208  -7.5237 -13.0279  -4.4441
 -6.6794  -5.0416  -0.8837  -1.8122  -6.1916  -2.2931  -6.3804 -12.7766
 -5.5509  -8.3347 -12.5228  -3.9879 -14.7194  -1.5174  -6.6809  -1.9209
 -7.1426  -8.0620  -8.6792  -2.8577  -1.9127 -47.5438 -16.9255  -8.3602
 -1.2598 -67.0935 -10.5706  -1.4227  -9.6601  -1.1140  -7.0356  -5.4078
 -5.8073  -3.2629  -6.1453 -13.3685  -6.7629  -6.4687 -33.9676 -29.5843
 -9.0877 -48.5393  -7.9646  -6.5812 -41.5220  -7.4432  -7.3822 -14.0232
 -5.5275  -6.0042  -3.4627  -5.6121  -4.4926  -3.4907  -3.7299 -12.1941
 -3.5781  -5.9676  -2.0656 -10.3198  -8.7559  -4.9593  -8.1745  -3.6919
 -3.2729  -4.4856  -7.0117  -3.8599  -8.0203  -4.6349  -5.7048  -3.9235
 -9.2973  -5.9792  -0.7684  -7.3382 -10.4156 -14.2902  -4.5936  -4.7742
-16.4211 -17.5748 -12.9962  -5.0055  -1.3598  -9.2153  -7.5023  -3.6099
 -4.8935  -3.7255  -5.1323  -4.1658  -9.6516  -8.0029 -34.6523 -10.8434
-13.2634  -9.0853  -9.1928  -7.9683  -6.0598  -6.2195  -7.8459 -12.4627
 -8.1019 -19.0178 -20.3480 -11.4837 -11.3568  -6.1228  -9.0223 -11.2653
 -6.6939 -14.8781 -15.3816 -13.2499 -14.8298  -5.7173  -6.1140  -3.4402
-12.6889  -6.8180  -4.9560 -11.5577  -7.1461  -6.9731  -4.1936  -3.1853
 -4.4665  -7.2090  -7.9522  -3.4559  -3.0712  -3.5201  -4.5017 -10.6683
 -4.5395  -5.3188  -7.9550  -5.9681  -3.8664  -4.8520  -5.0289 -11.7782
 -7.3439  -4.7126  -6.2481  -6.2277  -2.2235  -4.7630  -6.1266  -5.6366
 -5.5635  -4.3059  -6.5082  -4.4973  -9.2218  -5.6768 -11.9844 -21.1481
-26.7577  -3.8820  -8.6658  -9.8302  -5.0470 -17.4997 -12.2498 -12.9439
 -6.1023  -4.0925  -3.9630 -12.2146  -7.6369  -6.0900  -9.3538 -24.1736
-15.9990  -4.7952  -8.6055  -7.9409 -10.0403  -5.5282  -2.6948  -5.3470
 -8.0885  -7.9951  -8.1230 -11.5424 -11.7599 -12.8815  -9.2723  -8.9979
-16.1813 -25.6143  -6.8408  -6.3904  -4.4207  -3.6189  -8.0965 -17.7312
-52.7103 -26.0299  -6.3967 -12.9085 -10.5240  -7.2079  -3.8193  -6.1001
 -4.4959  -4.9370 -27.8629 -10.7664  -5.0567 -62.6447  -7.1702  -9.1635
 -6.9632 -54.9127  -6.5883  -7.9296  -4.6071  -5.2177 -29.3528  -2.9413
-16.2160  -7.0457 -13.4090 -42.2681 -30.8066 -29.2828 -36.3529 -21.9822
 -5.9323  -9.8519 -19.1171 -71.1352 -12.4171 -12.2406  -2.3903  -1.9551
 -2.3607 -11.1253 -10.1321 -12.9852 -11.0739 -12.0723 -15.3863 -13.3890
 -5.5290  -5.3264  -9.2731 -15.7854  -1.5442  -4.9645 -15.4848 -19.7227
 -0.9458  -7.6217  -9.0330 -11.2648  -4.6126  -9.4217  -7.6137 -16.8783
-26.9051 -10.5989  -8.9099 -39.1544 -14.7841 -42.5431 -17.6839  -9.4159
 -2.9351 -23.3284 -10.3069 -24.9509  -9.9857 -15.7137 -46.7163  -2.9466
-10.2451 -12.9584 -12.2374 -11.2653  -3.9797 -12.3312 -10.5224 -17.0671
-12.1114 -10.6649 -10.1175 -10.4226 -10.1291 -10.4829  -0.8658  -0.6751
 -0.8426  -0.6560  -0.7615  -0.7213  -0.6402  -0.8421  -0.4208  -0.3946
 -0.3904  -0.4522  -0.4924  -0.4560  -0.4055  -0.4616  -0.4388  -0.4439
 -0.4047  -0.4080  -0.4408  -0.4470  -0.4682  -0.4834  -0.5009  -0.5694
 -- Virtual --
 -0.0498  -0.0356  -0.0337  -0.0335  -0.0308  -0.0280  -0.0271  -0.0249
 -0.0231  -0.0217  -0.0207  -0.0191  -0.0185  -0.0183  -0.0161  -0.0141
 -0.0132  -0.0124  -0.0119  -0.0095  -0.0085  -0.0073  -0.0065  -0.0055
 -0.0048  -0.0041  -0.0030  -0.0024  -0.0020  -0.0015   0.0003   0.0024
  0.0030   0.0038   0.0044   0.0049   0.0066   0.0081   0.0090   0.0093
  0.0112   0.0115   0.0121   0.0127   0.0131   0.0136   0.0150   0.0160
  0.0164   0.0168   0.0174   0.0189   0.0196   0.0207   0.0213   0.0228
  0.0233   0.0240   0.0243   0.0249   0.0266   0.0275   0.0278   0.0284
  0.0294   0.0300   0.0306   0.0307   0.0315   0.0318   0.0328   0.0333
  0.0339   0.0343   0.0359   0.0362   0.0371   0.0375   0.0381   0.0390
  0.0393   0.0401   0.0420   0.0430   0.0437   0.0440   0.0450   0.0455
  0.0466   0.0472   0.0478   0.0482   0.0491   0.0499   0.0502   0.0510
  0.0516   0.0519   0.0521   0.0532   0.0546   0.0554   0.0561   0.0566
  0.0570   0.0578   0.0590   0.0598   0.0599   0.0609   0.0611   0.0616
  0.0622   0.0633   0.0639   0.0647   0.0653   0.0659   0.0660   0.0671
  0.0678   0.0683   0.0693   0.0706   0.0713   0.0721   0.0722   0.0735
  0.0738   0.0742   0.0751   0.0758   0.0766   0.0771   0.0781   0.0791
  0.0799   0.0803   0.0808   0.0813   0.0818   0.0827   0.0829   0.0838
  0.0838   0.0848   0.0855   0.0858   0.0869   0.0874   0.0882   0.0890
  0.0893   0.0900   0.0908   0.0917   0.0928   0.0930   0.0933   0.0942
  0.0950   0.0962   0.0966   0.0970   0.0983   0.0986   0.0989   0.0995
  0.0999   0.1003   0.1016   0.1023   0.1035   0.1041   0.1045   0.1049
  0.1057   0.1067   0.1074   0.1077   0.1088   0.1093   0.1108   0.1111
  0.1122   0.1126   0.1132   0.1133   0.1136   0.1145   0.1157   0.1159
  0.1162   0.1175   0.1181   0.1188   0.1192   0.1198   0.1204   0.1210
  0.1215   0.1217   0.1228   0.1243   0.1245   0.1251   0.1252   0.1264
  0.1273   0.1284   0.1286   0.1298   0.1304   0.1311   0.1318   0.1321
  0.1335   0.1340   0.1349   0.1351   0.1353   0.1355   0.1364   0.1384
  0.1387   0.1393   0.1395   0.1402   0.1405   0.1411   0.1418   0.1425
  0.1432   0.1438   0.1445   0.1452   0.1461   0.1468   0.1476   0.1482
  0.1485   0.1491   0.1499   0.1504   0.1508   0.1513   0.1517   0.1524
  0.1526   0.1538   0.1546   0.1546   0.1563   0.1571   0.1574   0.1585
  0.1592   0.1598   0.1603   0.1614   0.1617   0.1623   0.1630   0.1637
  0.1648   0.1653   0.1657   0.1669   0.1673   0.1679   0.1686   0.1692
  0.1697   0.1702   0.1708   0.1712   0.1717   0.1721   0.1725   0.1739
  0.1741   0.1753   0.1759   0.1760   0.1771   0.1774   0.1780   0.1797
  0.1798   0.1801   0.1813   0.1818   0.1821   0.1825   0.1831   0.1836
  0.1847   0.1848   0.1853   0.1860   0.1870   0.1876   0.1891   0.1896
  0.1899   0.1902   0.1912   0.1914   0.1920   0.1925   0.1932   0.1938
  0.1947   0.1956   0.1960   0.1973   0.1976   0.1985   0.1990   0.1992
  0.2000   0.2005   0.2014   0.2017   0.2021   0.2024   0.2038   0.2045
  0.2049   0.2059   0.2065   0.2073   0.2080   0.2084   0.2091   0.2096
  0.2106   0.2108   0.2119   0.2122   0.2131   0.2140   0.2143   0.2145
  0.2154   0.2158   0.2165   0.2169   0.2175   0.2194   0.2196   0.2199
  0.2218   0.2229   0.2232   0.2237   0.2243   0.2247   0.2256   0.2264
  0.2266   0.2279   0.2293   0.2311   0.2314   0.2316   0.2321   0.2324
  0.2330   0.2337   0.2342   0.2351   0.2361   0.2363   0.2369   0.2374
  0.2379   0.2382   0.2386   0.2392   0.2409   0.2415   0.2423   0.2429
  0.2437   0.2441   0.2444   0.2463   0.2465   0.2476   0.2479   0.2484
  0.2498   0.2501   0.2510   0.2515   0.2520   0.2527   0.2530   0.2538
  0.2548   0.2554   0.2562   0.2571   0.2579   0.2589   0.2598   0.2604
  0.2611   0.2616   0.2626   0.2633   0.2638   0.2644   0.2676   0.2679
  0.2681   0.2685   0.2698   0.2701   0.2710   0.2718   0.2725   0.2731
  0.2742   0.2751   0.2763   0.2775   0.2784   0.2793   0.2803   0.2813
  0.2818   0.2823   0.2839   0.2842   0.2854   0.2860   0.2869   0.2874
  0.2879   0.2889   0.2894   0.2906   0.2917   0.2920   0.2932   0.2938
  0.2948   0.2950   0.2956   0.2965   0.2972   0.2980   0.2992   0.2998
  0.3010   0.3013   0.3026   0.3033   0.3040   0.3047   0.3053   0.3060
  0.3071   0.3084   0.3086   0.3108   0.3109   0.3113   0.3122   0.3133
  0.3145   0.3155   0.3162   0.3173   0.3177   0.3192   0.3202   0.3209
  0.3215   0.3224   0.3234   0.3246   0.3252   0.3261   0.3270   0.3278
  0.3286   0.3295   0.3303   0.3306   0.3325   0.3336   0.3337   0.3343
  0.3349   0.3350   0.3368   0.3376   0.3380   0.3390   0.3414   0.3417
  0.3429   0.3440   0.3445   0.3448   0.3462   0.3470   0.3487   0.3491
  0.3500   0.3511   0.3521   0.3526   0.3541   0.3545   0.3549   0.3564
  0.3575   0.3585   0.3596   0.3604   0.3614   0.3617   0.3632   0.3640
  0.3644   0.3654   0.3661   0.3664   0.3683   0.3689   0.3698   0.3714
  0.3718   0.3736   0.3740   0.3751   0.3758   0.3761   0.3776   0.3788
  0.3789   0.3801   0.3813   0.3818   0.3830   0.3843   0.3847   0.3862
  0.3864   0.3870   0.3880   0.3889   0.3900   0.3905   0.3922   0.3928
  0.3941   0.3950   0.3961   0.3978   0.3980   0.3985   0.3996   0.4002
  0.4008   0.4022   0.4032   0.4042   0.4050   0.4061   0.4067   0.4073
  0.4082   0.4095   0.4105   0.4124   0.4134   0.4142   0.4146   0.4160
  0.4166   0.4169   0.4171   0.4193   0.4208   0.4214   0.4218   0.4225
  0.4233   0.4245   0.4264   0.4285   0.4290   0.4299   0.4308   0.4321
  0.4322   0.4331   0.4346   0.4360   0.4372   0.4377   0.4387   0.4394
  0.4403   0.4414   0.4434   0.4451   0.4467   0.4469   0.4486   0.4494
  0.4503   0.4523   0.4535   0.4543   0.4550   0.4557   0.4568   0.4572
  0.4601   0.4604   0.4632   0.4644   0.4645   0.4669   0.4677   0.4691
  0.4700   0.4719   0.4727   0.4734   0.4748   0.4788   0.4795   0.4799
  0.4804   0.4820   0.4845   0.4854   0.4869   0.4879   0.4892   0.4912
  0.4920   0.4935   0.4954   0.4973   0.5002   0.5013   0.5034   0.5050
  0.5068   0.5085   0.5101   0.5111   0.5117   0.5145   0.5154   0.5173
  0.5183   0.5206   0.5221   0.5234   0.5246   0.5253   0.5264   0.5285
  0.5296   0.5315   0.5342   0.5346   0.5357   0.5374   0.5392   0.5415
  0.5441   0.5453   0.5467   0.5486   0.5495   0.5513   0.5525   0.5539
  0.5566   0.5568   0.5585   0.5605   0.5627   0.5637   0.5667   0.5690
  0.5704   0.5725   0.5740   0.5752   0.5762   0.5774   0.5784   0.5808
  0.5817   0.5845   0.5866   0.5878   0.5896   0.5919   0.5922   0.5927
  0.5960   0.5981   0.5984   0.6002   0.6015   0.6027   0.6041   0.6046
  0.6049   0.6078   0.6093   0.6102   0.6118   0.6124   0.6158   0.6166
  0.6191   0.6202   0.6221   0.6234   0.6254   0.6267   0.6271   0.6275
  0.6291   0.6305   0.6322   0.6332   0.6339   0.6345   0.6354   0.6370
  0.6396   0.6398   0.6413   0.6433   0.6451   0.6455   0.6471   0.6477
  0.6493   0.6496   0.6512   0.6526   0.6534   0.6546   0.6562   0.6573
  0.6595   0.6606   0.6611   0.6617   0.6632   0.6640   0.6656   0.6669
  0.6681   0.6692   0.6703   0.6718   0.6725   0.6743   0.6748   0.6779
  0.6789   0.6794   0.6807   0.6815   0.6825   0.6839   0.6846   0.6854
  0.6865   0.6868   0.6876   0.6890   0.6896   0.6900   0.6916   0.6933
  0.6945   0.6960   0.6982   0.6990   0.6997   0.7014   0.7035   0.7041
  0.7054   0.7064   0.7080   0.7087   0.7110   0.7118   0.7131   0.7138
  0.7153   0.7158   0.7182   0.7188   0.7196   0.7220   0.7229   0.7256
  0.7269   0.7290   0.7302   0.7311   0.7335   0.7352   0.7370   0.7387
  0.7409   0.7418   0.7434   0.7442   0.7453   0.7466   0.7483   0.7512
  0.7526   0.7538   0.7559   0.7567   0.7578   0.7602   0.7611   0.7630
  0.7654   0.7662   0.7675   0.7686   0.7705   0.7713   0.7734   0.7760
  0.7772   0.7779   0.7802   0.7809   0.7819   0.7830   0.7858   0.7862
  0.7881   0.7898   0.7917   0.7939   0.7960   0.7965   0.8001   0.8007
  0.8024   0.8047   0.8062   0.8071   0.8088   0.8115   0.8128   0.8145
  0.8150   0.8168   0.8181   0.8189   0.8208   0.8216   0.8249   0.8258
  0.8276   0.8281   0.8297   0.8307   0.8317   0.8339   0.8350   0.8362
  0.8368   0.8384   0.8399   0.8409   0.8432   0.8444   0.8455   0.8471
  0.8476   0.8493   0.8509   0.8527   0.8547   0.8558   0.8575   0.8577
  0.8607   0.8611   0.8624   0.8635   0.8659   0.8668   0.8675   0.8688
  0.8698   0.8710   0.8728   0.8747   0.8762   0.8774   0.8778   0.8799
  0.8805   0.8811   0.8824   0.8837   0.8854   0.8874   0.8881   0.8893
  0.8924   0.8930   0.8949   0.8958   0.8972   0.8977   0.8979   0.9013
  0.9016   0.9032   0.9035   0.9061   0.9067   0.9075   0.9103   0.9110
  0.9122   0.9133   0.9141   0.9154   0.9184   0.9192   0.9195   0.9218
  0.9241   0.9250   0.9252   0.9264   0.9280   0.9305   0.9320   0.9324
  0.9339   0.9350   0.9369   0.9378   0.9384   0.9403   0.9412   0.9423
  0.9429   0.9456   0.9458   0.9472   0.9483   0.9499   0.9507   0.9515
  0.9528   0.9529   0.9541   0.9550   0.9560   0.9576   0.9583   0.9606
  0.9615   0.9627   0.9638   0.9647   0.9657   0.9670   0.9679   0.9690
  0.9705   0.9709   0.9714   0.9736   0.9741   0.9759   0.9764   0.9779
  0.9800   0.9811   0.9820   0.9838   0.9847   0.9867   0.9881   0.9883
  0.9891   0.9894   0.9914   0.9925   0.9930   0.9934   0.9949   0.9965
  0.9978   1.0001   1.0007   1.0012   1.0026   1.0037   1.0048   1.0059
  1.0069   1.0080   1.0092   1.0100   1.0114   1.0126   1.0134   1.0139
  1.0151   1.0168   1.0179   1.0184   1.0194   1.0218   1.0226   1.0236
  1.0259   1.0266   1.0285   1.0298   1.0308   1.0315   1.0337   1.0357
  1.0369   1.0373   1.0387   1.0395   1.0416   1.0429   1.0440   1.0455
  1.0472   1.0494   1.0501   1.0517   1.0524   1.0535   1.0545   1.0561
  1.0575   1.0582   1.0602   1.0621   1.0639   1.0644   1.0653   1.0657
  1.0686   1.0700   1.0711   1.0726   1.0735   1.0757   1.0760   1.0774
  1.0778   1.0790   1.0807   1.0826   1.0828   1.0846   1.0869   1.0885
  1.0899   1.0912   1.0916   1.0930   1.0945   1.0957   1.0961   1.0973
  1.0997   1.1009   1.1018   1.1045   1.1062   1.1081   1.1089   1.1105
  1.1119   1.1130   1.1142   1.1149   1.1177   1.1186   1.1189   1.1207
  1.1225   1.1254   1.1273   1.1292   1.1296   1.1299   1.1323   1.1332
  1.1348   1.1359   1.1371   1.1387   1.1406   1.1423   1.1438   1.1460
  1.1462   1.1472   1.1496   1.1516   1.1523   1.1538   1.1550   1.1568
  1.1575   1.1608   1.1611   1.1623   1.1630   1.1640   1.1650   1.1687
  1.1691   1.1716   1.1732   1.1734   1.1751   1.1763   1.1779   1.1796
  1.1821   1.1838   1.1862   1.1875   1.1880   1.1899   1.1923   1.1946
  1.1946   1.1962   1.1977   1.1998   1.2019   1.2042   1.2054   1.2071
  1.2079   1.2089   1.2105   1.2125   1.2143   1.2159   1.2174   1.2185
  1.2214   1.2240   1.2245   1.2255   1.2283   1.2306   1.2320   1.2344
  1.2362   1.2398   1.2423   1.2439   1.2447   1.2473   1.2483   1.2494
  1.2525   1.2536   1.2573   1.2604   1.2619   1.2646   1.2656   1.2671
  1.2705   1.2736   1.2738   1.2777   1.2814   1.2830   1.2854   1.2865
  1.2909   1.2925   1.2951   1.2967   1.2979   1.2996   1.3047   1.3051
  1.3060   1.3117   1.3135   1.3157   1.3185   1.3228   1.3236   1.3258
  1.3281   1.3302   1.3319   1.3333   1.3369   1.3388   1.3405   1.3418
  1.3459   1.3482   1.3496   1.3510   1.3526   1.3543   1.3551   1.3567
  1.3603   1.3607   1.3617   1.3643   1.3651   1.3665   1.3677   1.3691
  1.3727   1.3735   1.3751   1.3756   1.3781   1.3808   1.3817   1.3840
  1.3860   1.3880   1.3900   1.3910   1.3920   1.3940   1.3959   1.3963
  1.3996   1.4013   1.4027   1.4038   1.4056   1.4078   1.4085   1.4092
  1.4114   1.4141   1.4159   1.4164   1.4174   1.4204   1.4240   1.4247
  1.4269   1.4279   1.4289   1.4307   1.4332   1.4342   1.4374   1.4385
  1.4409   1.4423   1.4439   1.4445   1.4463   1.4472   1.4480   1.4511
  1.4531   1.4532   1.4568   1.4585   1.4609   1.4612   1.4650   1.4662
  1.4678   1.4693   1.4714   1.4735   1.4750   1.4781   1.4783   1.4800
  1.4816   1.4823   1.4861   1.4875   1.4879   1.4892   1.4926   1.4942
  1.4947   1.4978   1.4982   1.5013   1.5030   1.5056   1.5071   1.5085
  1.5097   1.5150   1.5156   1.5181   1.5201   1.5206   1.5236   1.5283
  1.5293   1.5301   1.5338   1.5369   1.5385   1.5396   1.5446   1.5467
  1.5481   1.5525   1.5531   1.5546   1.5581   1.5616   1.5623   1.5676
  1.5688   1.5718   1.5750   1.5764   1.5839   1.5853   1.5891   1.5938
  1.5947   1.6020   1.6028   1.6087   1.6108   1.6133   1.6190   1.6197
  1.6260   1.6288   1.6300   1.6361   1.6381   1.6415   1.6457   1.6463
  1.6479   1.6509   1.6537   1.6561   1.6599   1.6602   1.6628   1.6641
  1.6672   1.6686   1.6696   1.6700   1.6712   1.6731   1.6754   1.6795
  1.6798   1.6816   1.6846   1.6866   1.6881   1.6883   1.6922   1.6935
  1.6940   1.6947   1.6979   1.7006   1.7020   1.7044   1.7059   1.7067
  1.7077   1.7090   1.7096   1.7105   1.7130   1.7139   1.7149   1.7159
  1.7169   1.7177   1.7189   1.7201   1.7237   1.7239   1.7248   1.7275
  1.7287   1.7314   1.7337   1.7349   1.7354   1.7365   1.7380   1.7397
  1.7427   1.7447   1.7459   1.7478   1.7496   1.7507   1.7524   1.7547
  1.7562   1.7576   1.7598   1.7607   1.7624   1.7630   1.7647   1.7682
  1.7692   1.7704   1.7726   1.7735   1.7743   1.7756   1.7769   1.7790
  1.7809   1.7831   1.7838   1.7858   1.7897   1.7908   1.7937   1.7950
  1.7982   1.7995   1.8007   1.8016   1.8041   1.8058   1.8075   1.8092
  1.8135   1.8144   1.8182   1.8235   1.8251   1.8262   1.8270   1.8301
  1.8316   1.8350   1.8366   1.8387   1.8409   1.8436   1.8470   1.8504
  1.8532   1.8542   1.8568   1.8591   1.8609   1.8623   1.8653   1.8665
  1.8676   1.8700   1.8716   1.8726   1.8770   1.8787   1.8800   1.8809
  1.8828   1.8839   1.8866   1.8878   1.8888   1.8902   1.8912   1.8936
  1.8954   1.8985   1.8993   1.9008   1.9046   1.9058   1.9070   1.9079
  1.9090   1.9105   1.9116   1.9126   1.9163   1.9173   1.9204   1.9214
  1.9233   1.9234   1.9258   1.9261   1.9267   1.9291   1.9310   1.9345
  1.9356   1.9363   1.9372   1.9390   1.9410   1.9413   1.9430   1.9446
  1.9484   1.9488   1.9515   1.9547   1.9569   1.9581   1.9609   1.9628
  1.9663   1.9695   1.9708   1.9743   1.9782   1.9790   1.9822   1.9846
  1.9947   1.9994   2.0064   2.0088   2.0163   2.0179   2.0203   2.0317
  2.0386   2.0418   2.0435   2.0448   2.0472   2.0478   2.0510   2.0538
  2.0543   2.0551   2.0563   2.0613   2.0652   2.0672   2.0692   2.0703
  2.0741   2.0762   2.0774   2.0787   2.0806   2.0815   2.0823   2.0839
  2.0840   2.0865   2.0886   2.0889   2.0904   2.0905   2.0918   2.0937
  2.0985   2.0988   2.0995   2.1012   2.1036   2.1058   2.1116   2.1119
  2.1183   2.1188   2.1212   2.1232   2.1252   2.1281   2.1322   2.1337
  2.1392   2.1401   2.1431   2.1477   2.1502   2.1525   2.1573   2.1586
  2.1606   2.1653   2.1654   2.1669   2.1692   2.1720   2.1757   2.1783
  2.1790   2.1830   2.1872   2.1894   2.1906   2.1939   2.1968   2.2034
  2.2071   2.2125   2.2126   2.2150   2.2158   2.2208   2.2212   2.2229
  2.2252   2.2268   2.2274   2.2295   2.2305   2.2324   2.2335   2.2346
  2.2355   2.2362   2.2375   2.2391   2.2401   2.2407   2.2423   2.2433
  2.2436   2.2458   2.2469   2.2475   2.2487   2.2498   2.2515   2.2526
  2.2547   2.2553   2.2560   2.2564   2.2577   2.2589   2.2596   2.2604
  2.2615   2.2620   2.2628   2.2629   2.2650   2.2665   2.2692   2.2694
  2.2700   2.2712   2.2733   2.2738   2.2749   2.2762   2.2771   2.2775
  2.2786   2.2793   2.2806   2.2822   2.2831   2.2851   2.2860   2.2869
  2.2876   2.2880   2.2900   2.2904   2.2914   2.2925   2.2937   2.2944
  2.2959   2.2965   2.2973   2.2978   2.2979   2.2988   2.3002   2.3023
  2.3029   2.3046   2.3054   2.3059   2.3068   2.3089   2.3091   2.3101
  2.3109   2.3127   2.3143   2.3160   2.3169   2.3179   2.3188   2.3194
  2.3212   2.3218   2.3232   2.3244   2.3253   2.3260   2.3280   2.3295
  2.3305   2.3328   2.3331   2.3346   2.3378   2.3381   2.3430   2.3435
  2.3439   2.3451   2.3486   2.3506   2.3523   2.3543   2.3553   2.3577
  2.3582   2.3624   2.3635   2.3657   2.3689   2.3724   2.3729   2.3748
  2.3763   2.3805   2.3849   2.3862   2.3911   2.3923   2.3950   2.3979
  2.4038   2.4083   2.4120   2.4167   2.4218   2.4259   2.4297   2.4375
  2.4666   2.4766   2.5089   2.5179   2.5414   2.6277   2.7206   2.7241
  2.7580   2.7830   2.8102   2.8254   2.8277   2.8304   2.8313   2.8347
  2.8370   2.8378   2.8448   2.8463   2.8474   2.8506   2.8529   2.8546
  2.8601   2.8635   2.8672   2.8716   2.8733   2.8773   2.8784   2.8815
  2.8882   2.8894   2.8909   2.8959   2.9067   2.9124   2.9172   2.9679
  3.1191   3.2974   3.9336   3.9492   3.9622   3.9643   3.9659   3.9681
  3.9699   3.9704   3.9742   3.9784   3.9810   3.9872   3.9893   3.9966
  3.9995   4.0047   4.0062   4.0084   4.0148   4.0156   4.0229   4.0285
  4.0330   4.0555   4.0613   4.2053   4.2212   4.2232   4.2251   4.2268
  4.2323   4.2366   4.2479   4.2495   4.2548   4.2574   4.2611   4.2654
  4.2695   4.2720   4.2748   4.2804   4.2829   4.2857   4.2869   4.2902
  4.2927   4.2978   4.3021   4.3033   4.3071   4.3085   4.3099   4.3147
  4.3185   4.3219   4.3225   4.3260   4.3272   4.3299   4.3339   4.3357
  4.3393   4.3402   4.3427   4.3462   4.3499   4.3520   4.3570   4.3601
  4.3629   4.3657   4.3698   4.3710   4.3730   4.3772   4.3802   4.3879
  4.3911   4.3947   4.3978   4.4023   4.4126   4.4212   4.4254   4.4284
  4.4387   4.4473   4.4548   4.4594   4.4599   4.4669   4.4779   4.4969
  4.5013   4.5092   4.5246   4.5322   4.5416   4.5542   4.5639   4.5848
  4.6250   4.6540   4.6773   4.7112   4.7561   4.8011   4.9781
 --------------------------------------------------------------
 
          Ground-State Mulliken Net Atomic Charges

     Atom                 Charge (a.u.)
  ----------------------------------------
      1 C                    -0.627594
      2 C                    -0.309500
      3 C                    -0.418075
      4 C                    -0.044801
      5 C                    -0.761437
      6 C                    -0.584722
      7 H                     0.236843
      8 H                     0.223737
      9 H                     0.216173
     10 H                     0.236189
     11 H                     0.221888
     12 H                     0.206370
     13 H                     0.199806
     14 H                     0.209873
     15 H                     0.193445
     16 H                     0.222752
     17 H                     0.179116
     18 N                     0.146516
     19 H                     0.500224
     20 C                    -0.257283
     21 H                     0.177361
     22 O                    -0.135855
     23 C                    -1.137925
     24 H                     0.277153
     25 H                     0.305093
     26 H                     0.287684
     27 S                     0.878138
     28 C                    -0.934534
     29 H                     0.278261
     30 H                     0.209332
     31 H                     0.276226
     32 O                    -0.619146
     33 C                    -0.869976
     34 H                     0.297540
     35 H                     0.233018
     36 H                     0.264026
     37 S                     1.111099
     38 C                    -0.981181
     39 H                     0.302484
     40 H                     0.273386
     41 H                     0.235096
     42 O                    -0.801582
     43 C                    -0.957086
     44 H                     0.262094
     45 H                     0.238119
     46 H                     0.283377
     47 S                     0.987963
     48 C                    -0.921522
     49 H                     0.266642
     50 H                     0.238365
     51 H                     0.331265
     52 O                    -0.661816
     53 C                    -0.747620
     54 H                     0.239608
     55 H                     0.292664
     56 H                     0.262321
     57 S                     0.498287
     58 C                    -0.951878
     59 H                     0.236124
     60 H                     0.300464
     61 H                     0.295906
     62 O                    -0.511299
     63 C                    -0.772814
     64 H                     0.267634
     65 H                     0.252279
     66 H                     0.213763
     67 S                     1.136268
     68 C                    -0.993672
     69 H                     0.294347
     70 H                     0.229125
     71 H                     0.311910
     72 O                    -0.727879
     73 C                    -0.899989
     74 H                     0.247094
     75 H                     0.241463
     76 H                     0.260441
     77 S                     0.993298
     78 C                    -0.873953
     79 H                     0.303450
     80 H                     0.240938
     81 H                     0.260369
     82 O                    -0.743206
     83 C                    -0.620470
     84 H                     0.280018
     85 H                     0.256026
     86 H                     0.243366
     87 S                     0.414885
     88 C                    -1.097118
     89 H                     0.344419
     90 H                     0.248111
     91 H                     0.239897
     92 O                    -0.517634
     93 C                    -1.104987
     94 H                     0.251410
     95 H                     0.289034
     96 H                     0.279565
     97 S                     0.942477
     98 C                    -0.966025
     99 H                     0.247660
    100 H                     0.243484
    101 H                     0.253260
    102 O                    -0.644820
    103 C                    -1.074426
    104 H                     0.242811
    105 H                     0.245057
    106 H                     0.274470
    107 S                     1.326571
    108 C                    -1.003795
    109 H                     0.280725
    110 H                     0.273503
    111 H                     0.286003
    112 O                    -0.684407
    113 C                    -0.987943
    114 H                     0.254504
    115 H                     0.226705
    116 H                     0.260579
    117 S                     1.139213
    118 C                    -0.866341
    119 H                     0.262026
    120 H                     0.225193
    121 H                     0.257898
    122 O                    -0.753753
    123 C                    -0.788202
    124 H                     0.255675
    125 H                     0.271741
    126 H                     0.250710
    127 S                     0.769361
    128 C                    -0.806524
    129 H                     0.262608
    130 H                     0.201751
    131 H                     0.301107
    132 O                    -0.702344
    133 C                    -0.888267
    134 H                     0.324470
    135 H                     0.232630
    136 H                     0.306853
    137 S                     0.770153
    138 C                    -0.664568
    139 H                     0.262868
    140 H                     0.248712
    141 H                     0.271201
    142 O                    -0.747359
    143 C                    -1.281133
    144 H                     0.309239
    145 H                     0.284394
    146 H                     0.268685
    147 S                     1.182459
    148 C                    -1.069857
    149 H                     0.244506
    150 H                     0.309351
    151 H                     0.239042
    152 O                    -0.675343
    153 C                    -0.810654
    154 H                     0.244587
    155 H                     0.239467
    156 H                     0.290493
    157 S                     0.833915
    158 C                    -0.774689
    159 H                     0.214788
    160 H                     0.239975
    161 H                     0.265228
    162 O                    -0.745570
    163 C                    -0.929789
    164 H                     0.294420
    165 H                     0.278709
    166 H                     0.235866
    167 S                     0.819911
    168 C                    -0.899665
    169 H                     0.272942
    170 H                     0.238476
    171 H                     0.307531
    172 O                    -0.611161
    173 C                    -0.822616
    174 H                     0.238097
    175 H                     0.221546
    176 H                     0.288036
    177 S                     0.990257
    178 C                    -0.944105
    179 H                     0.255537
    180 H                     0.223383
    181 H                     0.235699
    182 O                    -0.729173
    183 C                    -0.811316
    184 H                     0.251303
    185 H                     0.255573
    186 H                     0.243191
    187 S                     0.871098
    188 C                    -0.861987
    189 H                     0.325791
    190 H                     0.230270
    191 H                     0.265639
    192 O                    -0.669518
    193 C                    -0.896533
    194 H                     0.263105
    195 H                     0.285928
    196 H                     0.229432
    197 S                     0.729702
    198 C                    -0.816222
    199 H                     0.284717
    200 H                     0.224283
    201 H                     0.279090
    202 O                    -0.705328
    203 C                    -0.945930
    204 H                     0.248816
    205 H                     0.263807
    206 H                     0.254760
    207 S                     0.917790
    208 C                    -0.996523
    209 H                     0.287267
    210 H                     0.300860
    211 H                     0.249289
    212 O                    -0.629598
    213 C                    -1.177780
    214 H                     0.261766
    215 H                     0.255422
    216 H                     0.266354
    217 S                     1.415488
    218 C                    -1.162612
    219 H                     0.254805
    220 H                     0.283410
    221 H                     0.268526
    222 O                    -0.630322
    223 C                    -0.963151
    224 H                     0.256352
    225 H                     0.234201
    226 H                     0.262232
    227 S                     1.166169
    228 C                    -0.982978
    229 H                     0.288846
    230 H                     0.258392
    231 H                     0.239514
    232 O                    -0.671362
    233 C                    -0.948002
    234 H                     0.265479
    235 H                     0.267344
    236 H                     0.230894
    237 S                     1.118352
    238 C                    -1.013513
    239 H                     0.212379
    240 H                     0.284392
    241 H                     0.276955
    242 O                    -0.705297
    243 C                    -1.012499
    244 H                     0.282994
    245 H                     0.314681
    246 H                     0.275855
    247 S                     1.167946
    248 C                    -1.253038
    249 H                     0.260601
    250 H                     0.296992
    251 H                     0.254650
    252 O                    -0.616620
    253 C                    -0.952971
    254 H                     0.250959
    255 H                     0.234133
    256 H                     0.242748
    257 S                     1.174386
    258 C                    -0.932689
    259 H                     0.294123
    260 H                     0.238639
    261 H                     0.221750
    262 O                    -0.703898
    263 C                    -0.963874
    264 H                     0.295339
    265 H                     0.235486
    266 H                     0.228714
    267 S                     1.301034
    268 C                    -0.962948
    269 H                     0.250800
    270 H                     0.281498
    271 H                     0.235703
    272 O                    -0.792081
  ----------------------------------------
  Sum of atomic charges =     0.000000

 -----------------------------------------------------------------
                    Cartesian Multipole Moments
 -----------------------------------------------------------------
    Charge (ESU x 10^10)
                -0.0000
    Dipole Moment (Debye)
         X      32.4688      Y      -2.2358      Z      -9.6108
       Tot      33.9350
    Quadrupole Moments (Debye-Ang)
        XX     558.6268     XY     533.0334     YY    -940.0798
        XZ     754.7268     YZ    -338.5947     ZZ   -1318.4126
    Octopole Moments (Debye-Ang^2)
       XXX  -15774.6180    XXY    4364.5587    XYY  -12685.6543
       YYY  -58756.4450    XXZ   14871.6154    XYZ   10217.6719
       YYZ  -33080.0645    XZZ   -1286.9857    YZZ  -34859.1749
       ZZZ  -85932.9667
    Hexadecapole Moments (Debye-Ang^3)
      XXXX ************   XXXY -643395.7701   XXYY -600941.0620
      XYYY ************   YYYY ************   XXXZ -349764.9840
      XXYZ   82853.8666   XYYZ -466264.9497   YYYZ ************
      XXZZ  -63214.5558   XYZZ -257778.6432   YYZZ ************
      XZZZ ************   YZZZ ************   ZZZZ ************
 -----------------------------------------------------------------
Archival summary:
[...]
    2   0.0152352   0.0052944  -0.0087165   0.0135041   0.0134565  -0.0527685
    3   0.0077378   0.0009622  -0.0000657   0.0322213  -0.0327947  -0.0865734
          103         104         105         106         107         108
    1   0.0003103  -0.0047059  -0.0188251   0.0312064  -0.0427336  -0.0007877
    2   0.0041803   0.0297769  -0.0069480   0.0054960  -0.0094968  -0.0094721
    3   0.0068093  -0.0127292   0.0315090   0.0035015  -0.0204791   0.0085331
          109         110         111         112         113         114
    1  -0.0258284   0.0146794   0.0259177   0.0966437   0.0019065  -0.0085614
    2  -0.0230563  -0.0185558   0.0071113   0.0176150  -0.0039359   0.0038980
    3   0.0133442  -0.0126226   0.0188734  -0.0505536  -0.0051241  -0.0291332
          115         116         117         118         119         120
    1   0.0348996  -0.0074563   0.0199121  -0.0007278  -0.0151706   0.0323533
    2  -0.0056472  -0.0260261   0.0498813  -0.0045308  -0.0282679  -0.0044427
    3  -0.0038062   0.0156550  -0.0156149   0.0068016   0.0088332   0.0072422
          121         122         123         124         125         126
    1  -0.0047063  -0.1051985   0.0062499   0.0207972   0.0195295  -0.0079969
    2   0.0197515  -0.0293856  -0.0046906   0.0132087  -0.0200634  -0.0238295
    3   0.0236689  -0.0046723   0.0017660  -0.0248075   0.0201107  -0.0194060
          127         128         129         130         131         132
    1  -0.0238543   0.0004226   0.0150906   0.0250875  -0.0130109  -0.0584616
    2   0.0341334   0.0029951  -0.0172271   0.0187642   0.0215280  -0.0677665
    3  -0.0371426   0.0061366   0.0194837  -0.0092846   0.0200572   0.0652023
          133         134         135         136         137         138
    1   0.0119590  -0.0051725   0.0169913   0.0233127  -0.0342306   0.0035960
    2  -0.0023977  -0.0327160   0.0329081  -0.0046447   0.0198907   0.0035350
    3  -0.0061019  -0.0185283  -0.0085335   0.0213541  -0.0390157   0.0084758
          139         140         141         142         143         144
    1   0.0268278  -0.0269973   0.0191352  -0.0068226  -0.0052288   0.0056800
    2   0.0189047   0.0125958  -0.0086161  -0.0993878   0.0030533   0.0314233
    3  -0.0065913   0.0118097   0.0207165   0.0468668   0.0032174   0.0086017
          145         146         147         148         149         150
    1  -0.0125261  -0.0247295  -0.0009712   0.0007624   0.0331655  -0.0058561
    2  -0.0122822  -0.0135670  -0.0558330   0.0067169  -0.0005098   0.0319113
    3  -0.0247161   0.0237147   0.0020781   0.0044491   0.0010162   0.0009370
          151         152         153         154         155         156
    1  -0.0122161   0.0350276   0.0012224   0.0110422   0.0171275  -0.0168164
    2  -0.0088089   0.0535356   0.0091122   0.0158939   0.0001952   0.0254708
    3   0.0274314  -0.0893500  -0.0001253   0.0272908  -0.0263737  -0.0160556
          157         158         159         160         161         162
    1  -0.0360815   0.0033518   0.0243945  -0.0018442   0.0164973  -0.0155941
    2   0.0000693  -0.0021966   0.0106310  -0.0318583  -0.0094274  -0.0168627
    3   0.0368299  -0.0029861   0.0192255   0.0074442  -0.0266835  -0.1079863
          163         164         165         166         167         168
    1  -0.0036427  -0.0170727  -0.0131786   0.0296225   0.0449433   0.0000355
    2   0.0033517  -0.0150504   0.0259456   0.0067749   0.0157353  -0.0096496
    3  -0.0080968  -0.0223042   0.0038820  -0.0183006   0.0283465   0.0020326
          169         170         171         172         173         174
    1  -0.0257443   0.0219143   0.0152066  -0.1046684  -0.0007029  -0.0297778
    2  -0.0105147  -0.0083714  -0.0289677  -0.0001044   0.0018887   0.0100107
    3  -0.0161976  -0.0264864   0.0175412   0.0309397  -0.0083123  -0.0047575
          175         176         177         178         179         180
    1   0.0166971   0.0013970   0.0048216   0.0075232   0.0312877   0.0045037
    2   0.0275880  -0.0204227   0.0323079  -0.0037970   0.0114521  -0.0238235
    3   0.0001345  -0.0228311   0.0388225  -0.0020820  -0.0048629   0.0185746
          181         182         183         184         185         186
    1   0.0000675  -0.0759409  -0.0029620   0.0241614  -0.0255744  -0.0154755
    2  -0.0166996  -0.0808016  -0.0032951  -0.0167944  -0.0315668  -0.0000313
    3  -0.0205009  -0.0079675  -0.0007186  -0.0004549   0.0106621  -0.0272499
          187         188         189         190         191         192
    1   0.0094820  -0.0057799  -0.0015041  -0.0348042  -0.0080251   0.0785587
    2  -0.0037664   0.0045055   0.0186180  -0.0111777   0.0222021   0.0288993
    3   0.0537753  -0.0070465  -0.0325625   0.0100041   0.0122422  -0.0711686
          193         194         195         196         197         198
    1  -0.0075126   0.0023006  -0.0230816  -0.0087688   0.0395796  -0.0000723
    2  -0.0011690  -0.0203276  -0.0131340   0.0263771   0.0307375  -0.0088078
    3  -0.0019222  -0.0173650   0.0181047  -0.0223610  -0.0198261   0.0066250
          199         200         201         202         203         204
    1   0.0212331   0.0247670  -0.0189015  -0.0693740   0.0042962   0.0034196
    2  -0.0218362  -0.0023754  -0.0192731   0.0362024  -0.0082138  -0.0136235
    3  -0.0094433   0.0239292   0.0132237   0.0801997   0.0007357  -0.0289138
          205         206         207         208         209         210
    1   0.0230327  -0.0201289  -0.0200923  -0.0092536  -0.0202420  -0.0097961
    2  -0.0032280  -0.0167459   0.0226640   0.0014243  -0.0232288   0.0299972
    3   0.0222992   0.0173025   0.0545212  -0.0050635   0.0164184  -0.0142112
          211         212         213         214         215         216
    1   0.0058131   0.0750572  -0.0078976  -0.0248936  -0.0199933   0.0131719
    2  -0.0167689   0.0486295  -0.0066798   0.0230717   0.0124180  -0.0360541
    3  -0.0254029  -0.0612529   0.0009302   0.0252858  -0.0199772  -0.0183105
          217         218         219         220         221         222
    1   0.0054080   0.0055147   0.0343473  -0.0133751  -0.0090851   0.0399079
    2   0.0539590  -0.0068093   0.0056552  -0.0301650   0.0113481  -0.0839951
    3   0.0147213  -0.0062834  -0.0031416  -0.0064722  -0.0215825   0.0593891
          223         224         225         226         227         228
    1  -0.0066988  -0.0348301   0.0058758  -0.0041236   0.0493540  -0.0033912
    2   0.0016672  -0.0040443   0.0264500   0.0125661   0.0075177  -0.0071992
    3  -0.0051251  -0.0071824   0.0165001  -0.0413160  -0.0034828  -0.0094747
          229         230         231         232         233         234
    1   0.0020518  -0.0339109   0.0139980  -0.0644699  -0.0051503  -0.0126140
    2  -0.0304939  -0.0060094  -0.0031485  -0.0296418   0.0088786   0.0084718
    3   0.0008525   0.0015886  -0.0402343   0.0866978  -0.0001035  -0.0269956
          235         236         237         238         239         240
    1  -0.0300950   0.0296316   0.0263945   0.0071754   0.0364314   0.0114988
    2   0.0001967   0.0190095  -0.0231581  -0.0000798   0.0217890  -0.0216590
    3   0.0167436   0.0033164   0.0337540  -0.0042467  -0.0055169  -0.0106320
          241         242         243         244         245         246
    1  -0.0196351  -0.0856756   0.0071090   0.0107044  -0.0121494   0.0198685
    2   0.0103225  -0.0352501   0.0043976  -0.0306367   0.0294151   0.0248697
    3  -0.0190900  -0.0599216  -0.0078758  -0.0069164  -0.0195170   0.0062547
          247         248         249         250         251         252
    1  -0.0441329   0.0001286   0.0270924  -0.0147687  -0.0122629   0.0495910
    2  -0.0268725   0.0093846   0.0124999   0.0108336  -0.0022023  -0.0453104
    3  -0.0329936   0.0012589   0.0193838  -0.0287143   0.0267110   0.0843594
          253         254         255         256         257         258
    1   0.0075029   0.0229117   0.0098801  -0.0026094  -0.0290899   0.0021456
    2   0.0058689   0.0173077  -0.0210773   0.0294099   0.0337003  -0.0067630
    3   0.0024025   0.0250227  -0.0135464  -0.0132124   0.0296180   0.0052099
          259         260         261         262         263         264
    1  -0.0198515   0.0175757   0.0166267  -0.0247821   0.0095312   0.0188352
    2  -0.0122717  -0.0168112   0.0021841  -0.0517530  -0.0029934   0.0218175
    3   0.0200347  -0.0197022   0.0297170  -0.0926153   0.0022818   0.0203576
          265         266         267         268         269         270
    1  -0.0021149   0.0059698  -0.0440302  -0.0001458  -0.0223004   0.0196566
    2  -0.0208604  -0.0175215  -0.0308417   0.0056603   0.0101846   0.0243289
    3   0.0217185  -0.0295076  -0.0183392  -0.0036558  -0.0235587   0.0136088
          271         272
    1   0.0300458   0.0023330
    2  -0.0015240   0.0544739
    3  -0.0154838   0.0942993
  --- DONE ESP SUMMARY ---
Archival summary:
1\1\node026\SP\ProcedureUnspecified\6-31+G*\252550h22\ymao90\FriDec323:06:072021FriDec323:06:072021\0\\#,ProcedureUnspecified,6-31+G*,\\0,1\S\O,1,1.49625\C,1,1.80711,2,107.389\H,3,1.09306,1,102.896,2,-83.2702,0\H,3,1.0936,1,115.068,2,37.3084,0\H,3,1.09377,1,111.842,2,162.094,0\C,1,1.80715,2,101.042,3,100.982,0\H,7,1.09176,1,100.198,2,60.9541,0\H,7,1.09278,1,111.881,2,-59.8351,0\H,7,1.09317,1,112.843,2,178.187,0\Gh,2,1.88021,1,123.75,3,144.478,0\Gh,11,1.01298,2,163.343,1,-64.4983,0\Gh,12,1.37917,11,119.948,2,-61.6346,0\Gh,13,1.10537,12,107.096,11,2.95856,0\Gh,13,1.21764,12,127.464,11,177.935,0\Gh,12,1.46182,11,116.399,2,111.758,0\Gh,16,1.09678,12,105.451,11,-149.123,0\Gh,16,1.53738,12,110.884,11,88.0089,0\Gh,18,1.09626,16,106.362,12,76.9126,0\Gh,18,1.09656,16,112.06,12,-34.8772,0\Gh,16,1.5378,12,105.309,11,-29.7871,0\Gh,21,1.09627,16,107.617,12,42.264,0\Gh,21,1.09692,16,105.3,12,-73.2009,0\Gh,18,1.53792,16,115.638,12,-163.205,0\Gh,24,1.09688,18,111.404,16,167.883,0\Gh,24,1.09731,18,107.778,16,-73.1523,0\Gh,24,1.53759,18,113.642,16,49.2122,0\Gh,27,1.09654,24,107.396,18,69.8705,0\Gh,27,1.09662,24,112.552,18,-171.98,0\Gh,27,1.53722,24,109.603,18,-51.3272,0\Gh,30,1.09672,27,105.682,24,-64.1343,0\Gh,30,1.09703,27,109.832,24,177.027,0\H,14,2.07266,13,170.136,12,11.2748,0\C,33,1.09294,14,124.635,13,76.1482,0\H,34,1.09231,33,112.289,14,-44.9689,0\H,34,1.09276,33,116.179,14,-164.651,0\S,34,1.80753,33,102.008,14,78.5051,0\O,37,1.49695,34,98.3198,33,-36.9855,0\C,37,1.80662,34,92.0921,33,67.1536,0\H,39,1.09307,37,109.412,34,-56.2581,0\H,39,1.09318,37,104.818,34,67.7634,0\H,39,1.09373,37,104.004,34,-176.985,0\H,8,2.14258,7,106.387,1,83.437,0\C,43,1.09331,8,136.152,7,41.8005,0\H,44,1.0923,43,107.079,8,30.8134,0\H,44,1.09312,43,106.972,8,151.638,0\S,44,1.80674,43,110.984,8,-87.5698,0\O,47,1.49721,44,103.895,43,-67.9062,0\C,47,1.80739,44,101.575,43,-179.616,0\H,49,1.09289,47,108.941,44,175.891,0\H,49,1.09316,47,105.385,44,-71.3215,0\H,49,1.09384,47,110.393,44,56.0425,0\H,50,2.14374,49,127.536,47,-18.6263,0\C,53,1.09284,50,99.5626,49,135.495,0\H,54,1.09272,53,97.6489,50,82.5553,0\H,54,1.09326,53,103.308,50,-33.8964,0\S,54,1.80671,53,113.773,50,-159.772,0\O,57,1.49779,54,106.904,53,-30.7172,0\C,57,1.80757,54,90.4856,53,78.9533,0\H,59,1.09287,57,107.948,54,-158.518,0\H,59,1.09305,57,108.853,54,-34.3703,0\H,59,1.09325,57,103.512,54,87.5646,0\H,5,2.1481,3,132.487,1,-135.207,0\C,63,1.09319,5,137.954,3,-60.3707,0\H,64,1.09245,63,106.307,5,-135.528,0\H,64,1.09358,63,109.463,5,-11.1187,0\S,64,1.80685,63,109.051,5,102.938,0\O,67,1.49697,64,101.255,63,68.9524,0\C,67,1.8073,64,91.3971,63,174.76,0\H,69,1.09233,67,103.819,64,-67.9768,0\H,69,1.09254,67,111.018,64,175.815,0\H,69,1.09285,67,108.584,64,50.4017,0\H,53,2.16702,50,84.6508,49,-76.6344,0\C,73,1.09325,53,150.515,50,-45.372,0\H,74,1.09284,73,113.571,53,-121.461,0\H,74,1.09304,73,110.348,53,4.3599,0\S,74,1.80698,73,107.566,53,115.92,0\O,77,1.4981,74,106.985,73,174.288,0\C,77,1.80668,74,99.6013,73,71.7029,0\H,79,1.09294,77,108.553,74,45.173,0\H,79,1.09296,77,108.591,74,165.69,0\H,79,1.09319,77,101.186,74,-75.5111,0\H,81,2.13745,79,104.248,77,-138.561,0\C,83,1.09244,81,139.871,79,153.619,0\H,84,1.09289,83,115.717,81,-96.6993,0\H,84,1.09313,83,107.98,81,145.601,0\S,84,1.80742,83,105.86,81,29.3724,0\O,87,1.49643,84,106.47,83,19.0433,0\C,87,1.80755,84,97.1594,83,-83.867,0\H,89,1.0925,87,113.449,84,-178.899,0\H,89,1.09305,87,112.555,84,54.5333,0\H,89,1.09323,87,106.976,84,-70.0349,0\H,82,2.14991,79,93.6874,77,-159.638,0\C,93,1.09298,82,149.14,79,-87.6852,0\H,94,1.0928,93,106.443,82,28.0198,0\H,94,1.09368,93,96.4497,82,145.697,0\S,94,1.80674,93,110.465,82,-99.0405,0\O,97,1.49673,94,97.3819,93,64.2768,0\C,97,1.80689,94,94.9998,93,168.812,0\H,99,1.09234,97,108.333,94,170.571,0\H,99,1.0929,97,109.254,94,52.0055,0\H,99,1.09315,97,112.244,94,-70.53,0\H,101,2.06405,99,163.872,97,145.212,0\C,103,1.09341,101,116.76,99,-79.247,0\H,104,1.09253,103,100.918,101,71.0876,0\H,104,1.09373,103,111.211,101,-175.085,0\S,104,1.807,103,119.442,101,-45.5074,0\O,107,1.49735,104,101.115,103,-171.742,0\C,107,1.80687,104,92.4128,103,-75.0391,0\H,109,1.09254,107,99.2881,104,61.1405,0\H,109,1.0928,107,111.599,104,-58.1397,0\H,109,1.09353,107,108.729,104,175.388,0\H,112,2.17027,109,158.237,107,-119.169,0\C,113,1.09322,112,111.333,109,-143.152,0\H,114,1.09309,113,116.709,112,-24.3218,0\H,114,1.09331,113,106.971,112,-148.763,0\S,114,1.80712,113,108.462,112,93.067,0\O,117,1.49648,114,104.78,113,-169.326,0\C,117,1.80698,114,92.4115,113,-65.9528,0\H,119,1.09221,117,106.795,114,68.9714,0\H,119,1.09288,117,111.69,114,-58.6087,0\H,119,1.09304,117,112.461,114,177.668,0\H,121,2.16102,119,156.03,117,40.197,0\C,123,1.09345,121,157.635,119,54.6878,0\H,124,1.09285,123,116.651,121,-52.3937,0\H,124,1.09289,123,110.827,121,72.7815,0\S,124,1.80702,123,106.001,121,-172.555,0\O,127,1.49721,124,102.659,123,169.312,0\C,127,1.80699,124,97.2687,123,61.6732,0\H,129,1.09242,127,109.965,124,-68.6437,0\H,129,1.09248,127,105.646,124,163.6,0\H,129,1.09397,127,104.685,124,47.4995,0\H,42,2.17895,39,122.656,37,87.1737,0\C,133,1.09354,42,135.423,39,-55.717,0\H,134,1.09274,133,111.762,42,94.5561,0\H,134,1.09304,133,108.461,42,-28.2415,0\S,134,1.80661,133,109.209,42,-146.439,0\O,137,1.49678,134,102.736,133,-68.2054,0\C,137,1.80701,134,90.8014,133,-171.376,0\H,139,1.09225,137,112.466,134,41.6475,0\H,139,1.0925,137,108.458,134,-76.0462,0\H,139,1.09312,137,109.9,134,163.98,0\H,141,2.07916,139,143.253,137,167.249,0\C,143,1.0929,141,144.691,139,-117.074,0\H,144,1.09321,143,113.467,141,64.8685,0\H,144,1.09327,143,104.108,141,-173.546,0\S,144,1.80622,143,114.232,141,-60.9889,0\O,147,1.49743,144,102.775,143,-24.6555,0\C,147,1.80736,144,99.1664,143,84.1447,0\H,149,1.09285,147,110.904,144,56.4243,0\H,149,1.09322,147,102.285,144,-177.769,0\H,149,1.09328,147,109.482,144,-64.774,0\H,151,2.25151,149,129.177,147,-120.237,0\C,153,1.09313,151,122.8,149,37.7594,0\H,154,1.09233,153,115.401,151,139.83,0\H,154,1.09311,153,109.462,151,23.0859,0\S,154,1.80765,153,108.711,151,-100.333,0\O,157,1.49658,154,103.964,153,-64.6364,0\C,157,1.80713,154,95.5423,153,-168.793,0\H,159,1.09254,157,116.536,154,175.79,0\H,159,1.09289,157,108.699,154,-72.4284,0\H,159,1.0932,157,104.822,154,55.2525,0\H,45,2.2592,44,159.584,43,120.994,0\C,163,1.0932,45,108.12,44,-177.42,0\H,164,1.09261,163,112.778,45,-17.6707,0\H,164,1.0934,163,106.83,45,-143.815,0\S,164,1.80696,163,106.782,45,102.389,0\O,167,1.49743,164,101.72,163,-102.466,0\C,167,1.80629,164,99.402,163,7.01646,0\H,169,1.09303,167,105.519,164,166.982,0\H,169,1.09319,167,110.417,164,44.719,0\H,169,1.09377,167,108.835,164,-78.0114,0\H,29,2.2625,27,141.71,24,-178.88,0\C,173,1.09256,29,144.492,27,-90.5218,0\H,174,1.09239,173,105.115,29,-122.64,0\H,174,1.09308,173,114.852,29,5.47066,0\S,174,1.80716,173,103.616,29,128.932,0\O,177,1.49804,174,108.764,173,137.923,0\C,177,1.80653,174,95.0468,173,35.7869,0\H,179,1.0929,177,102.587,174,-75.0294,0\H,179,1.09304,177,104.12,174,44.9326,0\H,179,1.09309,177,109.939,174,161.049,0\H,20,2.32341,18,158.459,16,-19.5649,0\C,183,1.09282,20,169.118,18,99.2367,0\H,184,1.09253,183,107.371,20,-90.2537,0\H,184,1.09417,183,109.774,20,148.325,0\S,184,1.80696,183,110.285,20,27.2791,0\O,187,1.49688,184,98.7796,183,83.8652,0\C,187,1.80687,184,92.5054,183,-174.316,0\H,189,1.09311,187,106.453,184,58.2605,0\H,189,1.09348,187,111.553,184,-179.769,0\H,189,1.09367,187,104.785,184,-62.6281,0\H,82,2.35766,79,108.652,77,93.8434,0\C,193,1.09313,82,142.195,79,82.4519,0\H,194,1.09278,193,114.444,82,-174.78,0\H,194,1.09281,193,106.461,82,68.7044,0\S,194,1.80776,193,108.49,82,-42.4668,0\O,197,1.49643,194,98.7937,193,-54.799,0\C,197,1.80671,194,95.5469,193,-158.175,0\H,199,1.09282,197,111.681,194,61.1707,0\H,199,1.09284,197,104.519,194,-55.3134,0\H,199,1.09291,197,111.587,194,-168.137,0\H,125,2.39046,124,131.744,123,174.59,0\C,203,1.09317,125,103.244,124,139.739,0\H,204,1.0926,203,103.476,125,-91.9167,0\H,204,1.09267,203,112.46,125,28.9218,0\S,204,1.80668,203,111.094,125,150.166,0\O,207,1.4975,204,102.251,203,50.3442,0\C,207,1.80637,204,89.3676,203,159.316,0\H,209,1.09241,207,106.076,204,-77.3074,0\H,209,1.09309,207,106.187,204,166.775,0\H,209,1.09337,207,103.238,204,45.0478,0\H,208,2.26463,207,102.292,204,-82.7788,0\C,213,1.09296,208,142.175,207,97.9345,0\H,214,1.09294,213,111.863,208,-53.1413,0\H,214,1.09344,213,113.565,208,65.0128,0\S,214,1.8066,213,113.678,208,-166.83,0\O,217,1.49732,214,101.227,213,-69.3976,0\C,217,1.80626,214,95.2529,213,-175.832,0\H,219,1.09304,217,101.189,214,-58.4167,0\H,219,1.09314,217,114.413,214,-179.671,0\H,219,1.0933,217,101.944,214,64.8843,0\H,213,2.15124,208,74.5694,207,-80.2324,0\C,223,1.0932,213,170.409,208,2.07808,0\H,224,1.09295,223,112.084,213,-21.2188,0\H,224,1.09312,223,113.21,213,96.7674,0\S,224,1.80639,223,109.434,213,-146.039,0\O,227,1.49751,224,106.365,223,172.537,0\C,227,1.80741,224,91.0255,223,67.875,0\H,229,1.09275,227,108.628,224,179.106,0\H,229,1.0932,227,110.218,224,77.7217,0\H,229,1.0933,227,111.078,224,-49.5826,0\H,186,2.40002,184,166.074,183,8.1278,0\C,233,1.0936,186,120.069,184,33.7634,0\H,234,1.09242,233,110.853,186,88.065,0\H,234,1.09324,233,109.667,186,-153.032,0\S,234,1.80681,233,111.153,186,-32.8633,0\O,237,1.49683,234,107.287,233,-174.176,0\C,237,1.8073,234,91.984,233,-64.4081,0\H,239,1.09254,237,109.925,234,65.2912,0\H,239,1.09269,237,110.318,234,-60.8235,0\H,239,1.09339,237,110.039,234,178.279,0\O,175,2.41398,174,156.021,173,74.2819,0\S,243,1.49732,175,128.204,174,-132.219,0\C,244,1.80672,243,105.491,175,-135.787,0\H,245,1.09257,244,104.9,243,-3.02988,0\H,245,1.09298,244,108.456,243,129.736,0\H,245,1.09372,244,105.189,243,-115.54,0\C,244,1.80692,243,99.6905,175,-38.512,0\H,249,1.09234,244,110.194,243,-44.6321,0\H,249,1.09333,244,114.974,243,-162.473,0\H,249,1.0934,244,109.677,243,75.4668,0\H,65,2.45759,64,99.9082,63,-43.2749,0\C,253,1.0927,65,136.283,64,92.5979,0\H,254,1.09306,253,114.5,65,-23.6898,0\H,254,1.09337,253,107.049,65,-147.743,0\S,254,1.80742,253,114.24,65,101.077,0\O,257,1.49786,254,96.6592,253,-170.947,0\C,257,1.80652,254,98.0981,253,-69.5113,0\H,259,1.09305,257,110.856,254,43.6721,0\H,259,1.09306,257,100.019,254,-78.4132,0\H,259,1.09348,257,105.218,254,163.283,0\H,238,2.49383,237,115.101,234,101.746,0\C,263,1.09347,238,156.344,237,125.086,0\H,264,1.09301,263,110.337,238,114.705,0\H,264,1.09383,263,103.666,238,-9.31965,0\S,264,1.8068,263,102.308,238,-126.064,0\O,267,1.49642,264,102.36,263,76.5278,0\C,267,1.80725,264,96.6348,263,-178.729,0\H,269,1.09253,267,113.255,264,-13.5186,0\H,269,1.09302,267,104.32,264,-124.223,0\H,269,1.09357,267,111.675,264,120.211,0\\\@

 Total job time:  50.50s(wall), 159.91s(cpu) 
 Fri Dec  3 23:06:07 2021

        *************************************************************
        *                                                           *
        *  Thank you very much for using Q-Chem.  Have a nice day.  *
        *                                                           *
        *************************************************************


