                  Welcome to Q-Chem
     A Quantum Leap Into The Future Of Chemistry


 Q-Chem 6.0 (devel), Q-Chem, Inc., Pleasanton, CA (2022)

 E. Epifanovsky,  A. T. B. Gilbert,  Xintian Feng,  Joonho Lee,  Yuezhi Mao,  
 N. Mardirossian,  P. Pokhilko,  A. White,  M. Wormit,  M. P. Coons,  
 A. L. Dempwolff,  Zhengting Gan,  D. Hait,  P. R. Horn,  L. D. Jacobson,  
 I. Kaliman,  J. Kussmann,  A. W. Lange,  Ka Un Lao,  D. S. Levine,  Jie Liu,  
 S. C. McKenzie,  A. F. Morrison,  K. Nanda,  F. Plasser,  D. R. Rehn,  
 M. L. Vidal,  Zhi-Qiang You,  Ying Zhu,  B. Alam,  B. Albrecht,  
 A. Aldossary,  E. Alguire,  J. H. Andersen,  V. Athavale,  D. Barton,  
 K. Begam,  A. Behn,  N. Bellonzi,  Y. A. Bernard,  E. J. Berquist,  
 H. Burton,  A. Carreras,  K. Carter-Fenk,  Romit Chakraborty,  
 Chandrima Chakravarty,  Junhan Chen,  A. D. Chien,  K. D. Closser,  
 V. Cofer-Shabica,  L. Cunha,  S. Dasgupta,  Jia Deng,  M. de Wergifosse,  
 M. Diedenhofen,  Hainam Do,  S. Ehlert,  Po-Tung Fang,  S. Fatehi,  
 Qingguo Feng,  T. Friedhoff,  B. Ganoe,  J. Gayvert,  Qinghui Ge,  
 G. Gidofalvi,  M. Goldey,  J. Gomes,  C. Gonzalez-Espinoza,  S. Gulania,  
 A. Gunina,  J. A. Gyamfi,  M. W. D. Hanson-Heine,  P. H. P. Harbach,  
 A. W. Hauser,  M. F. Herbst,  M. Hernandez Vera,  M. Hodecker,  
 Z. C. Holden,  S. Houck,  Xunkun Huang,  Kerwin Hui,  B. C. Huynh,  
 K. Ikeda,  M. Ivanov,  Hyunjun Ji,  Zuxin Jin,  Hanjie Jiang,  B. Kaduk,  
 S. Kaehler,  R. Kang,  K. Khistyaev,  Jaehoon Kim,  Yongbin Kim,  
 P. Klunzinger,  Z. Koczor-Benda,  Joong Hoon Koh,  D. Kosenkov,  
 Saikiran Kotaru,  L. Koulias,  T. Kowalczyk,  C. M. Krauter,  K. Kue,  
 A. Kunitsa,  T. Kus,  A. Landau,  K. V. Lawler,  D. Lefrancois,  S. Lehtola,  
 Rain Li,  Shaozhi Li,  Yi-Pei Li,  Jiashu Liang,  M. Liebenthal,  
 Hung-Hsuan Lin,  You-Sheng Lin,  Fenglai Liu,  Kuan-Yu Liu,  
 M. Loipersberger,  A. Luenser,  C. Malbon,  A. Manjanath,  P. Manohar,  
 E. Mansoor,  S. F. Manzer,  Shan-Ping Mao,  A. V. Marenich,  T. Markovich,  
 S. Mason,  F. Matz,  S. A. Maurer,  P. F. McLaughlin,  M. F. S. J. Menger,  
 J.-M. Mewes,  S. A. Mewes,  P. Morgante,  Mohammad Mostafanejad,  
 J. W. Mullinax,  K. J. Oosterbaan,  G. Paran,  V. Parravicini,  
 Alexander C. Paul,  Suranjan K. Paul,  F. Pavosevic,  Zheng Pei,  S. Prager,  
 E. I. Proynov,  E. Ramos,  B. Rana,  A. E. Rask,  A. Rettig,  R. M. Richard,  
 F. Rob,  E. Rossomme,  T. Scheele,  M. Scheurer,  M. Schneider,  
 P. E. Schneider,  N. Sergueev,  S. M. Sharada,  Hengyuan Shen,  
 W. Skomorowski,  D. W. Small,  C. J. Stein,  Yingli Su,  Yu-Chuan Su,  
 E. J. Sundstrom,  Zhen Tao,  J. Thirman,  Hung-Yi Tsai,  T. Tsuchimochi,  
 N. M. Tubman,  C. Utku,  S. P. Veccham,  O. Vydrov,  J. Wenzel,  
 Jonathan Wong,  J. Witte,  A. Yamada,  Chou-Hsun Yang,  Kun Yao,  
 S. Yeganeh,  S. R. Yost,  A. Zech,  F. Zeller,  Igor Ying Zhang,  
 Xing Zhang,  Yu Zhang,  D. Zuev,  A. Aspuru-Guzik,  A. T. Bell,  
 N. A. Besley,  K. B. Bravaya,  B. R. Brooks,  D. Casanova,  Jeng-Da Chai,  
 Hsing-Ta Chen,  S. Coriani,  C. J. Cramer,  A. E. DePrince, III,  
 R. A. DiStasio Jr.,  A. Dreuw,  B. D. Dunietz,  T. R. Furlani,  
 W. A. Goddard III,  S. Grimme,  S. Hammes-Schiffer,  T. Head-Gordon,  
 W. J. Hehre,  Chao-Ping Hsu,  T.-C. Jagau,  Yousung Jung,  A. Klamt,  
 Jing Kong,  D. S. Lambrecht,  Xiangyuan Li,  WanZhen Liang,  N. J. Mayhall,  
 C. W. McCurdy,  J. B. Neaton,  T. Neudecker,  C. Ochsenfeld,  
 J. A. Parkhill,  R. Peverati,  V. A. Rassolov,  Haisheng Ren,  Yihan Shao,  
 L. V. Slipchenko,  R. P. Steele,  J. E. Subotnik,  A. J. W. Thom,  
 A. Tkatchenko,  D. G. Truhlar,  T. Van Voorhis,  Fan Wang,  
 T. A. Wesolowski,  K. B. Whaley,  H. L. Woodcock III,  P. M. Zimmerman,  
 S. Faraji,  P. M. W. Gill,  M. Head-Gordon,  J. M. Herbert,  A. I. Krylov

 Contributors to earlier versions of Q-Chem not listed above: 
 R. D. Adamson,  B. Austin,  R. Baer,  J. Baker,  G. J. O. Beran,  
 K. Brandhorst,  S. T. Brown,  E. F. C. Byrd,  Arup K. Chakraborty,  
 G. K. L. Chan,  Chun-Min Chang,  Yunqing Chen,  C.-L. Cheng,  
 Siu Hung Chien,  D. M. Chipman,  D. L. Crittenden,  H. Dachsel,  
 R. J. Doerksen,  A. D. Dutoi,  R. G. Edgar,  J. Fosso-Tande,  
 L. Fusti-Molnar,  D. Ghosh,  A. Ghysels,  A. Golubeva-Zadorozhnaya,  
 J. Gonthier,  M. S. Gordon,  S. R. Gwaltney,  G. Hawkins,  J. E. Herr,  
 A. Heyden,  S. Hirata,  E. G. Hohenstein,  G. Kedziora,  F. J. Keil,  
 C. Kelley,  Jihan Kim,  R. A. King,  R. Z. Khaliullin,  P. P. Korambath,  
 W. Kurlancheek,  A. Laurent,  A. M. Lee,  M. S. Lee,  S. V. Levchenko,  
 Ching Yeh Lin,  D. Liotard,  E. Livshits,  R. C. Lochan,  I. Lotan,  
 L. A. Martinez-Martinez,  P. E. Maslen,  N. Nair,  D. P. O'Neill,  
 D. Neuhauser,  E. Neuscamman,  C. M. Oana,  R. Olivares-Amaya,  R. Olson,  
 T. M. Perrine,  B. Peters,  P. A. Pieniazek,  A. Prociuk,  Y. M. Rhee,  
 J. Ritchie,  M. A. Rohrdanz,  E. Rosta,  N. J. Russ,  H. F. Schaefer III,  
 M. W. Schmidt,  N. E. Schultz,  S. Sharma,  N. Shenvi,  C. D. Sherrill,  
 A. C. Simmonett,  A. Sodt,  T. Stein,  D. Stuck,  K. S. Thanthiriwatte,  
 V. Vanovschi,  L. Vogt,  Tao Wang,  A. Warshel,  M. A. Watson,  
 C. F. Williams,  Q. Wu,  X. Xu,  Jun Yang,  W. Zhang,  Yan Zhao

   Please cite Q-Chem as follows:
  "Software for the frontiers of quantum chemistry:
   An overview of developments in the Q-Chem 5 package"
   J. Chem. Phys. 155, 084801 (2021)
   https://doi.org/10.1063/5.0055522 (open access)

 Q-Chem 6.0.0 for Intel X86 EM64T Linux

 Parts of Q-Chem use Armadillo 9.900.5 (Nocturnal Misbehaviour).
 http://arma.sourceforge.net/

 Q-Chem begins on Thu Jul 21 03:39:49 2022  

 Host: nid00565
0

     Scratch files written to /global/cscratch1/sd/ymao90/r7.00_frame_0075_spade_B3LYP_dp20220721031338//
 Processing $rem in /global/homes/y/ymao90/my_qchem/qchem_embedding_5p4/config/preferences:
 Processing $rem in /global/homes/y/ymao90/.qchemrc:
 No nuclear gradient supported for projection-based embedding or EMFT. Set max ideriv = 0.

 Checking the input file for inconsistencies... 	...done.

--------------------------------------------------------------
User input:
--------------------------------------------------------------
$molecule
0 1
--
0 1
C    29.42000   25.10200   27.93800  
C    28.51700   26.33700   28.08700  
C    27.09300   25.78300   28.25900  
C    26.92200   24.66300   29.29800  
C    27.80600   23.46300   28.92100  
C    29.24200   24.00700   29.00300  
H    26.33400   26.52900   28.52600  
H    28.93600   26.69500   29.03600  
H    29.38200   24.58200   26.97300  
H    30.42800   25.53500   27.95800  
H    27.14100   24.96300   30.33000  
H    25.89000   24.29400   29.34600  
H    27.78900   22.65600   29.66300  
H    27.68700   22.94100   27.96300  
H    29.51300   24.31200   30.02100  
H    29.96600   23.18900   28.90300  
H    26.70600   25.50100   27.27300  
N    28.72100   27.38800   27.09200  
H    28.35300   27.28300   26.15400  
C    29.35900   28.58500   27.33800  
H    29.41600   29.24100   26.45000  
O    29.80000   28.92800   28.42100  
--
0 1
C    25.01400   30.92900   25.59400  
H    24.67700   30.08200   26.19900  
H    25.20000   30.66400   24.55000  
H    25.77300   31.59700   26.00800  
S    23.59700   32.04200   25.46300  
C    22.66200   30.86000   24.46600  
H    22.46800   29.94500   25.03200  
H    21.67300   31.28500   24.27800  
H    23.12400   30.60500   23.50900  
O    23.98000   33.16800   24.55400  
C    22.15500   26.33600   33.01900  
H    23.02300   26.99400   32.93800  
H    21.42200   26.58200   32.24700  
H    21.82800   26.45300   34.05600  
S    22.92300   24.71100   32.83500  
C    23.97100   24.83500   34.30200  
H    23.34200   25.09200   35.15800  
H    24.57700   23.93900   34.46400  
H    24.73100   25.60800   34.16800  
O    23.94700   24.83100   31.75000  
C    28.76700   26.82900   32.45700  
H    29.30900   26.10100   33.06600  
H    28.96200   26.64900   31.39700  
H    29.08600   27.85600   32.65300  
S    26.96300   26.75700   32.53600  
C    26.71500   28.28700   31.60600  
H    25.66100   28.57200   31.56000  
H    27.33100   29.03800   32.10800  
H    27.11000   28.19100   30.59200  
O    26.66200   27.11500   33.95800  
C    35.14100   23.18500   32.63500  
H    35.58400   22.57100   31.84600  
H    34.50800   24.00500   32.28600  
H    35.81700   23.53200   33.42000  
S    34.04800   22.02800   33.49100  
C    32.67700   22.20800   32.32800  
H    33.07800   21.92300   31.35200  
H    31.93700   21.41800   32.48000  
H    32.22400   23.19900   32.23500  
O    33.50600   22.57700   34.77300  
C    34.15200   33.20700   30.97500  
H    35.09000   32.65400   31.06900  
H    34.24600   33.95400   30.18300  
H    33.85900   33.67900   31.91700  
S    32.86700   32.03600   30.48100  
C    33.04900   31.03500   31.97400  
H    32.90000   31.74700   32.79000  
H    32.30500   30.23500   31.93600  
H    34.03900   30.58300   31.86900  
O    33.45500   31.03700   29.53300  
C    24.71100   31.70500   21.50500  
H    24.25800   32.36300   20.75900  
H    24.27200   30.71000   21.40000  
H    24.50600   32.15500   22.48000  
S    26.48300   31.59700   21.16500  
C    26.68400   33.37500   20.91600  
H    26.00800   33.83800   20.19300  
H    26.58200   33.84400   21.89700  
H    27.74200   33.52800   20.68700  
O    26.59800   31.03700   19.78100  
C    28.83600   20.30000   29.40200  
H    28.09700   19.66600   28.90700  
H    28.43900   20.49300   30.40200  
H    29.29700   21.10000   28.81700  
S    30.31600   19.27900   29.58500  
C    30.21700   18.58600   27.91900  
H    29.30900   17.99400   27.77400  
H    30.32000   19.46600   27.27800  
H    31.11000   17.95800   27.88000  
O    29.72800   18.19000   30.42900  
C    29.46400   36.96100   29.96600  
H    28.41100   36.66800   29.95800  
H    29.58700   37.51800   30.89900  
H    29.82300   37.52300   29.10000  
S    30.58000   35.54000   29.92800  
C    29.81200   34.57300   28.60900  
H    29.78200   35.06300   27.63200  
H    30.35500   33.62500   28.58700  
H    28.80600   34.24900   28.88800  
O    30.02400   34.76100   31.07900  
C    27.21900   22.98500   34.49600  
H    26.40700   22.55900   35.09100  
H    28.16100   23.03100   35.04900  
H    27.00600   24.02800   34.25000  
S    27.55600   22.02900   33.00000  
C    25.98300   22.30300   32.15500  
H    25.21100   22.16000   32.91600  
H    26.03400   23.29700   31.70300  
H    25.85700   21.50600   31.41700  
O    27.44800   20.61000   33.46500  
C    23.55500   21.92700   29.14300  
H    22.64000   22.39000   28.76300  
H    23.47500   20.99200   29.70300  
H    24.02500   22.58300   29.88000  
S    24.85100   21.74500   27.89800  
C    23.79300   20.53900   27.06700  
H    24.38900   20.08700   26.27100  
H    23.59600   19.72200   27.76700  
H    22.86000   20.99800   26.73000  
O    25.79900   20.81800   28.59200  
C    35.09500   24.52800   27.94700  
H    35.50400   23.90800   27.14500  
H    35.88900   25.21900   28.23900  
H    34.65400   23.98800   28.78800  
S    33.74100   25.51200   27.26600  
C    32.71400   24.16500   26.63700  
H    32.50700   23.50100   27.48000  
H    31.81300   24.49900   26.11700  
H    33.22000   23.57700   25.86700  
O    34.26900   26.09000   25.99000  
C    32.25300   25.34300   21.92100  
H    32.63100   25.40200   20.89700  
H    32.56900   26.24700   22.44800  
H    32.65400   24.37400   22.22700  
S    30.46800   25.06300   21.93200  
C    30.54000   24.78900   23.71600  
H    30.79100   25.70300   24.26000  
H    29.54600   24.45700   24.02900  
H    31.26700   23.99500   23.90400  
O    30.29300   23.66700   21.42000  
C    33.49100   20.81900   26.95100  
H    34.03100   21.73700   27.19700  
H    33.51400   20.63000   25.87500  
H    32.48600   21.04000   27.31800  
S    34.18600   19.41700   27.85600  
C    35.62200   19.23300   26.77500  
H    35.24400   19.34200   25.75600  
H    36.39300   19.99200   26.93800  
H    35.93300   18.23200   27.08300  
O    33.34600   18.30300   27.31400  
C    20.46500   24.59200   29.04800  
H    20.37000   23.70500   28.41600  
H    21.40600   25.14500   28.99700  
H    20.40400   24.11500   30.03000  
S    19.08900   25.71200   28.70300  
C    17.87800   24.44300   28.27000  
H    17.72700   23.79600   29.13800  
H    17.01400   25.05700   28.00100  
H    18.03800   23.73700   27.45100  
O    19.59000   26.25300   27.40000  
C    30.35800   32.83700   25.39600  
H    30.35600   33.91400   25.58200  
H    30.76600   32.35100   26.28600  
H    30.78200   32.44600   24.46800  
S    28.63500   32.29600   25.44400  
C    28.19900   33.51500   24.18400  
H    28.95800   33.40100   23.40600  
H    27.17500   33.24600   23.91400  
H    28.22900   34.54400   24.55200  
O    28.06600   32.79900   26.73400  
C    30.11200   30.08500   19.35200  
H    31.20100   30.04200   19.42500  
H    29.84300   29.77300   18.33900  
H    29.72300   31.07600   19.60100  
S    29.38100   28.74100   20.31300  
C    29.85400   29.53100   21.86800  
H    29.47500   28.91900   22.69000  
H    30.93600   29.58200   22.01500  
H    29.26500   30.44900   21.93900  
O    30.34200   27.60100   20.17900  
C    26.41400   28.42100   22.69000  
H    26.49700   29.25200   23.39500  
H    26.95400   28.67000   21.77300  
H    25.38200   28.10100   22.52600  
S    27.12000   26.99400   23.54500  
C    25.80400   26.98500   24.78400  
H    24.89000   26.77000   24.22400  
H    26.00900   26.16000   25.47000  
H    25.66400   27.90500   25.35800  
O    28.27100   27.60300   24.28400  
C    28.14200   30.64800   34.70000  
H    27.48100   29.79100   34.55200  
H    27.93000   30.98400   35.71800  
H    27.92500   31.45900   34.00000  
S    29.91200   30.28600   34.65200  
C    30.41100   32.02100   34.74100  
H    29.99200   32.57800   35.58200  
H    31.50400   32.01600   34.75700  
H    30.15100   32.53900   33.81400  
O    30.28000   29.86100   33.26400  
C    25.51500   34.94100   30.06200  
H    24.88000   35.78800   29.78900  
H    25.22700   34.43200   30.98500  
H    26.55600   35.27100   30.11800  
S    25.25500   33.77700   28.70400  
C    25.52800   34.74400   27.20200  
H    25.05100   34.14600   26.42100  
H    24.95900   35.67500   27.25900  
H    26.59700   34.92100   27.05800  
O    23.77200   33.60500   28.81100  
C    22.82500   24.24600   24.01500  
H    22.22600   24.11500   23.10900  
H    23.41000   25.14700   23.81600  
H    23.45200   23.37000   24.20200  
S    21.73600   24.59400   25.41400  
C    22.94800   25.45800   26.43900  
H    23.91400   24.94600   26.42600  
H    23.13400   26.46600   26.06000  
H    22.55900   25.40300   27.45900  
O    21.54800   23.27000   26.08700  
C    22.83700   27.36500   29.54400  
H    23.38600   26.42000   29.58500  
H    22.32600   27.58100   30.48500  
H    22.08600   27.31100   28.75200  
S    24.10800   28.57500   29.11600  
C    22.91400   29.91100   28.88200  
H    23.45400   30.84800   28.72700  
H    22.22300   29.65300   28.07500  
H    22.31100   29.99600   29.79000  
O    24.40300   28.20300   27.69600  
C    21.52200   20.10800   35.14900  
H    22.14000   19.38400   35.68600  
H    21.07000   20.66700   35.97200  
H    20.78900   19.66600   34.46900  
S    22.65500   21.08500   34.13700  
C    23.32100   19.62700   33.30300  
H    22.68300   19.68500   32.41700  
H    24.36400   19.74800   33.00000  
H    23.18000   18.72000   33.89700  
O    23.68900   21.52400   35.12600  
C    34.08900   29.81600   25.93500  
H    34.96700   30.43400   25.73300  
H    33.83600   29.94200   26.99000  
H    34.33500   28.78300   25.67600  
S    32.48400   30.12500   25.16500  
C    31.84800   28.43800   25.03300  
H    30.77800   28.32000   24.83900  
H    32.31000   27.97900   24.15500  
H    32.23000   27.78800   25.82300  
O    32.60000   30.55600   23.73600  
C    27.93200   19.92300   25.15400  
H    26.99400   19.48700   25.50800  
H    28.06200   19.59200   24.12100  
H    28.66900   19.37400   25.74500  
S    27.97400   21.67300   25.60200  
C    27.51300   22.31900   23.97900  
H    27.10200   23.32200   24.12000  
H    28.33900   22.24800   23.26600  
H    26.82700   21.60800   23.51100  
O    29.42100   22.05700   25.61900  
C    27.78200   14.94800   27.62400  
H    28.07300   14.68100   26.60500  
H    28.66900   15.16800   28.22300  
H    27.22800   14.09100   28.01700  
S    26.78400   16.44200   27.42500  
C    26.42400   16.74600   29.16900  
H    26.05700   15.89100   29.74300  
H    27.38200   17.05600   29.59400  
H    25.72200   17.58200   29.12100  
O    25.43600   16.13600   26.85100  
C    26.98000   30.96000   29.18100  
H    27.58400   30.05400   29.27300  
H    25.96000   30.86000   29.56100  
H    26.97200   31.21200   28.11700  
S    27.83500   32.20400   30.17400  
C    29.47900   31.48500   30.38700  
H    29.29700   30.54300   30.91100  
H    29.85900   31.33400   29.37400  
H    30.03100   32.23800   30.95600  
O    27.16600   32.09000   31.50900  
C    27.01300   23.83600   20.58900  
H    27.81400   23.97900   21.31800  
H    27.22400   22.87800   20.10600  
H    27.00700   24.47300   19.70000  
S    25.33800   23.78400   21.26400  
C    24.60400   23.50700   19.63600  
H    24.96000   22.54300   19.26200  
H    23.51500   23.48600   19.73100  
H    24.98200   24.31600   19.00700  
O    25.05600   25.22700   21.54800  
C    32.24000   27.61800   30.44100  
H    31.56000   28.26200   31.00500  
H    33.17000   28.11000   30.14600  
H    31.85600   27.35600   29.45100  
S    32.39200   26.07100   31.36300  
C    33.57500   26.73800   32.55500  
H    34.60200   26.81500   32.19200  
H    33.29600   27.77100   32.78300  
H    33.65000   26.01300   33.36900  
O    33.32700   25.20600   30.57500  
$end

$rem
JOBTYPE  SP
METHOD  B3LYP
BASIS  6-31+G(D)
SYMMETRY  FALSE
SYM_IGNORE  TRUE
MEM_TOTAL  12000
MEM_STATIC  4000
BASIS_LIN_DEP_THRESH  6
THRESH  14
SCF_CONVERGENCE  8
FD_MAT_VEC_PROD  FALSE
XC_GRID  000075000302
NL_GRID  1
MAX_SCF_CYCLES  200
ENV_METHOD  B3LYP
GEN_SCFMAN_EMBED  TRUE
SPADE_PARTITION  TRUE
EMBEDDING_EARLY_STOP  TRUE
$end

--------------------------------------------------------------
 ----------------------------------------------------------------
             Standard Nuclear Orientation (Angstroms)
    I     Atom           X                Y                Z
 ----------------------------------------------------------------
    1      C      29.4200000000    25.1020000000    27.9380000000
    2      C      28.5170000000    26.3370000000    28.0870000000
    3      C      27.0930000000    25.7830000000    28.2590000000
    4      C      26.9220000000    24.6630000000    29.2980000000
    5      C      27.8060000000    23.4630000000    28.9210000000
    6      C      29.2420000000    24.0070000000    29.0030000000
    7      H      26.3340000000    26.5290000000    28.5260000000
    8      H      28.9360000000    26.6950000000    29.0360000000
    9      H      29.3820000000    24.5820000000    26.9730000000
   10      H      30.4280000000    25.5350000000    27.9580000000
   11      H      27.1410000000    24.9630000000    30.3300000000
   12      H      25.8900000000    24.2940000000    29.3460000000
   13      H      27.7890000000    22.6560000000    29.6630000000
   14      H      27.6870000000    22.9410000000    27.9630000000
   15      H      29.5130000000    24.3120000000    30.0210000000
   16      H      29.9660000000    23.1890000000    28.9030000000
   17      H      26.7060000000    25.5010000000    27.2730000000
   18      N      28.7210000000    27.3880000000    27.0920000000
   19      H      28.3530000000    27.2830000000    26.1540000000
   20      C      29.3590000000    28.5850000000    27.3380000000
   21      H      29.4160000000    29.2410000000    26.4500000000
   22      O      29.8000000000    28.9280000000    28.4210000000
   23      C      25.0140000000    30.9290000000    25.5940000000
   24      H      24.6770000000    30.0820000000    26.1990000000
   25      H      25.2000000000    30.6640000000    24.5500000000
   26      H      25.7730000000    31.5970000000    26.0080000000
   27      S      23.5970000000    32.0420000000    25.4630000000
   28      C      22.6620000000    30.8600000000    24.4660000000
   29      H      22.4680000000    29.9450000000    25.0320000000
   30      H      21.6730000000    31.2850000000    24.2780000000
   31      H      23.1240000000    30.6050000000    23.5090000000
   32      O      23.9800000000    33.1680000000    24.5540000000
   33      C      22.1550000000    26.3360000000    33.0190000000
   34      H      23.0230000000    26.9940000000    32.9380000000
   35      H      21.4220000000    26.5820000000    32.2470000000
   36      H      21.8280000000    26.4530000000    34.0560000000
   37      S      22.9230000000    24.7110000000    32.8350000000
   38      C      23.9710000000    24.8350000000    34.3020000000
   39      H      23.3420000000    25.0920000000    35.1580000000
   40      H      24.5770000000    23.9390000000    34.4640000000
   41      H      24.7310000000    25.6080000000    34.1680000000
   42      O      23.9470000000    24.8310000000    31.7500000000
   43      C      28.7670000000    26.8290000000    32.4570000000
   44      H      29.3090000000    26.1010000000    33.0660000000
   45      H      28.9620000000    26.6490000000    31.3970000000
   46      H      29.0860000000    27.8560000000    32.6530000000
   47      S      26.9630000000    26.7570000000    32.5360000000
   48      C      26.7150000000    28.2870000000    31.6060000000
   49      H      25.6610000000    28.5720000000    31.5600000000
   50      H      27.3310000000    29.0380000000    32.1080000000
   51      H      27.1100000000    28.1910000000    30.5920000000
   52      O      26.6620000000    27.1150000000    33.9580000000
   53      C      35.1410000000    23.1850000000    32.6350000000
   54      H      35.5840000000    22.5710000000    31.8460000000
   55      H      34.5080000000    24.0050000000    32.2860000000
   56      H      35.8170000000    23.5320000000    33.4200000000
   57      S      34.0480000000    22.0280000000    33.4910000000
   58      C      32.6770000000    22.2080000000    32.3280000000
   59      H      33.0780000000    21.9230000000    31.3520000000
   60      H      31.9370000000    21.4180000000    32.4800000000
   61      H      32.2240000000    23.1990000000    32.2350000000
   62      O      33.5060000000    22.5770000000    34.7730000000
   63      C      34.1520000000    33.2070000000    30.9750000000
   64      H      35.0900000000    32.6540000000    31.0690000000
   65      H      34.2460000000    33.9540000000    30.1830000000
   66      H      33.8590000000    33.6790000000    31.9170000000
   67      S      32.8670000000    32.0360000000    30.4810000000
   68      C      33.0490000000    31.0350000000    31.9740000000
   69      H      32.9000000000    31.7470000000    32.7900000000
   70      H      32.3050000000    30.2350000000    31.9360000000
   71      H      34.0390000000    30.5830000000    31.8690000000
   72      O      33.4550000000    31.0370000000    29.5330000000
   73      C      24.7110000000    31.7050000000    21.5050000000
   74      H      24.2580000000    32.3630000000    20.7590000000
   75      H      24.2720000000    30.7100000000    21.4000000000
   76      H      24.5060000000    32.1550000000    22.4800000000
   77      S      26.4830000000    31.5970000000    21.1650000000
   78      C      26.6840000000    33.3750000000    20.9160000000
   79      H      26.0080000000    33.8380000000    20.1930000000
   80      H      26.5820000000    33.8440000000    21.8970000000
   81      H      27.7420000000    33.5280000000    20.6870000000
   82      O      26.5980000000    31.0370000000    19.7810000000
   83      C      28.8360000000    20.3000000000    29.4020000000
   84      H      28.0970000000    19.6660000000    28.9070000000
   85      H      28.4390000000    20.4930000000    30.4020000000
   86      H      29.2970000000    21.1000000000    28.8170000000
   87      S      30.3160000000    19.2790000000    29.5850000000
   88      C      30.2170000000    18.5860000000    27.9190000000
   89      H      29.3090000000    17.9940000000    27.7740000000
   90      H      30.3200000000    19.4660000000    27.2780000000
   91      H      31.1100000000    17.9580000000    27.8800000000
   92      O      29.7280000000    18.1900000000    30.4290000000
   93      C      29.4640000000    36.9610000000    29.9660000000
   94      H      28.4110000000    36.6680000000    29.9580000000
   95      H      29.5870000000    37.5180000000    30.8990000000
   96      H      29.8230000000    37.5230000000    29.1000000000
   97      S      30.5800000000    35.5400000000    29.9280000000
   98      C      29.8120000000    34.5730000000    28.6090000000
   99      H      29.7820000000    35.0630000000    27.6320000000
  100      H      30.3550000000    33.6250000000    28.5870000000
  101      H      28.8060000000    34.2490000000    28.8880000000
  102      O      30.0240000000    34.7610000000    31.0790000000
  103      C      27.2190000000    22.9850000000    34.4960000000
  104      H      26.4070000000    22.5590000000    35.0910000000
  105      H      28.1610000000    23.0310000000    35.0490000000
  106      H      27.0060000000    24.0280000000    34.2500000000
  107      S      27.5560000000    22.0290000000    33.0000000000
  108      C      25.9830000000    22.3030000000    32.1550000000
  109      H      25.2110000000    22.1600000000    32.9160000000
  110      H      26.0340000000    23.2970000000    31.7030000000
  111      H      25.8570000000    21.5060000000    31.4170000000
  112      O      27.4480000000    20.6100000000    33.4650000000
  113      C      23.5550000000    21.9270000000    29.1430000000
  114      H      22.6400000000    22.3900000000    28.7630000000
  115      H      23.4750000000    20.9920000000    29.7030000000
  116      H      24.0250000000    22.5830000000    29.8800000000
  117      S      24.8510000000    21.7450000000    27.8980000000
  118      C      23.7930000000    20.5390000000    27.0670000000
  119      H      24.3890000000    20.0870000000    26.2710000000
  120      H      23.5960000000    19.7220000000    27.7670000000
  121      H      22.8600000000    20.9980000000    26.7300000000
  122      O      25.7990000000    20.8180000000    28.5920000000
  123      C      35.0950000000    24.5280000000    27.9470000000
  124      H      35.5040000000    23.9080000000    27.1450000000
  125      H      35.8890000000    25.2190000000    28.2390000000
  126      H      34.6540000000    23.9880000000    28.7880000000
  127      S      33.7410000000    25.5120000000    27.2660000000
  128      C      32.7140000000    24.1650000000    26.6370000000
  129      H      32.5070000000    23.5010000000    27.4800000000
  130      H      31.8130000000    24.4990000000    26.1170000000
  131      H      33.2200000000    23.5770000000    25.8670000000
  132      O      34.2690000000    26.0900000000    25.9900000000
  133      C      32.2530000000    25.3430000000    21.9210000000
  134      H      32.6310000000    25.4020000000    20.8970000000
  135      H      32.5690000000    26.2470000000    22.4480000000
  136      H      32.6540000000    24.3740000000    22.2270000000
  137      S      30.4680000000    25.0630000000    21.9320000000
  138      C      30.5400000000    24.7890000000    23.7160000000
  139      H      30.7910000000    25.7030000000    24.2600000000
  140      H      29.5460000000    24.4570000000    24.0290000000
  141      H      31.2670000000    23.9950000000    23.9040000000
  142      O      30.2930000000    23.6670000000    21.4200000000
  143      C      33.4910000000    20.8190000000    26.9510000000
  144      H      34.0310000000    21.7370000000    27.1970000000
  145      H      33.5140000000    20.6300000000    25.8750000000
  146      H      32.4860000000    21.0400000000    27.3180000000
  147      S      34.1860000000    19.4170000000    27.8560000000
  148      C      35.6220000000    19.2330000000    26.7750000000
  149      H      35.2440000000    19.3420000000    25.7560000000
  150      H      36.3930000000    19.9920000000    26.9380000000
  151      H      35.9330000000    18.2320000000    27.0830000000
  152      O      33.3460000000    18.3030000000    27.3140000000
  153      C      20.4650000000    24.5920000000    29.0480000000
  154      H      20.3700000000    23.7050000000    28.4160000000
  155      H      21.4060000000    25.1450000000    28.9970000000
  156      H      20.4040000000    24.1150000000    30.0300000000
  157      S      19.0890000000    25.7120000000    28.7030000000
  158      C      17.8780000000    24.4430000000    28.2700000000
  159      H      17.7270000000    23.7960000000    29.1380000000
  160      H      17.0140000000    25.0570000000    28.0010000000
  161      H      18.0380000000    23.7370000000    27.4510000000
  162      O      19.5900000000    26.2530000000    27.4000000000
  163      C      30.3580000000    32.8370000000    25.3960000000
  164      H      30.3560000000    33.9140000000    25.5820000000
  165      H      30.7660000000    32.3510000000    26.2860000000
  166      H      30.7820000000    32.4460000000    24.4680000000
  167      S      28.6350000000    32.2960000000    25.4440000000
  168      C      28.1990000000    33.5150000000    24.1840000000
  169      H      28.9580000000    33.4010000000    23.4060000000
  170      H      27.1750000000    33.2460000000    23.9140000000
  171      H      28.2290000000    34.5440000000    24.5520000000
  172      O      28.0660000000    32.7990000000    26.7340000000
  173      C      30.1120000000    30.0850000000    19.3520000000
  174      H      31.2010000000    30.0420000000    19.4250000000
  175      H      29.8430000000    29.7730000000    18.3390000000
  176      H      29.7230000000    31.0760000000    19.6010000000
  177      S      29.3810000000    28.7410000000    20.3130000000
  178      C      29.8540000000    29.5310000000    21.8680000000
  179      H      29.4750000000    28.9190000000    22.6900000000
  180      H      30.9360000000    29.5820000000    22.0150000000
  181      H      29.2650000000    30.4490000000    21.9390000000
  182      O      30.3420000000    27.6010000000    20.1790000000
  183      C      26.4140000000    28.4210000000    22.6900000000
  184      H      26.4970000000    29.2520000000    23.3950000000
  185      H      26.9540000000    28.6700000000    21.7730000000
  186      H      25.3820000000    28.1010000000    22.5260000000
  187      S      27.1200000000    26.9940000000    23.5450000000
  188      C      25.8040000000    26.9850000000    24.7840000000
  189      H      24.8900000000    26.7700000000    24.2240000000
  190      H      26.0090000000    26.1600000000    25.4700000000
  191      H      25.6640000000    27.9050000000    25.3580000000
  192      O      28.2710000000    27.6030000000    24.2840000000
  193      C      28.1420000000    30.6480000000    34.7000000000
  194      H      27.4810000000    29.7910000000    34.5520000000
  195      H      27.9300000000    30.9840000000    35.7180000000
  196      H      27.9250000000    31.4590000000    34.0000000000
  197      S      29.9120000000    30.2860000000    34.6520000000
  198      C      30.4110000000    32.0210000000    34.7410000000
  199      H      29.9920000000    32.5780000000    35.5820000000
  200      H      31.5040000000    32.0160000000    34.7570000000
  201      H      30.1510000000    32.5390000000    33.8140000000
  202      O      30.2800000000    29.8610000000    33.2640000000
  203      C      25.5150000000    34.9410000000    30.0620000000
  204      H      24.8800000000    35.7880000000    29.7890000000
  205      H      25.2270000000    34.4320000000    30.9850000000
  206      H      26.5560000000    35.2710000000    30.1180000000
  207      S      25.2550000000    33.7770000000    28.7040000000
  208      C      25.5280000000    34.7440000000    27.2020000000
  209      H      25.0510000000    34.1460000000    26.4210000000
  210      H      24.9590000000    35.6750000000    27.2590000000
  211      H      26.5970000000    34.9210000000    27.0580000000
  212      O      23.7720000000    33.6050000000    28.8110000000
  213      C      22.8250000000    24.2460000000    24.0150000000
  214      H      22.2260000000    24.1150000000    23.1090000000
  215      H      23.4100000000    25.1470000000    23.8160000000
  216      H      23.4520000000    23.3700000000    24.2020000000
  217      S      21.7360000000    24.5940000000    25.4140000000
  218      C      22.9480000000    25.4580000000    26.4390000000
  219      H      23.9140000000    24.9460000000    26.4260000000
  220      H      23.1340000000    26.4660000000    26.0600000000
  221      H      22.5590000000    25.4030000000    27.4590000000
  222      O      21.5480000000    23.2700000000    26.0870000000
  223      C      22.8370000000    27.3650000000    29.5440000000
  224      H      23.3860000000    26.4200000000    29.5850000000
  225      H      22.3260000000    27.5810000000    30.4850000000
  226      H      22.0860000000    27.3110000000    28.7520000000
  227      S      24.1080000000    28.5750000000    29.1160000000
  228      C      22.9140000000    29.9110000000    28.8820000000
  229      H      23.4540000000    30.8480000000    28.7270000000
  230      H      22.2230000000    29.6530000000    28.0750000000
  231      H      22.3110000000    29.9960000000    29.7900000000
  232      O      24.4030000000    28.2030000000    27.6960000000
  233      C      21.5220000000    20.1080000000    35.1490000000
  234      H      22.1400000000    19.3840000000    35.6860000000
  235      H      21.0700000000    20.6670000000    35.9720000000
  236      H      20.7890000000    19.6660000000    34.4690000000
  237      S      22.6550000000    21.0850000000    34.1370000000
  238      C      23.3210000000    19.6270000000    33.3030000000
  239      H      22.6830000000    19.6850000000    32.4170000000
  240      H      24.3640000000    19.7480000000    33.0000000000
  241      H      23.1800000000    18.7200000000    33.8970000000
  242      O      23.6890000000    21.5240000000    35.1260000000
  243      C      34.0890000000    29.8160000000    25.9350000000
  244      H      34.9670000000    30.4340000000    25.7330000000
  245      H      33.8360000000    29.9420000000    26.9900000000
  246      H      34.3350000000    28.7830000000    25.6760000000
  247      S      32.4840000000    30.1250000000    25.1650000000
  248      C      31.8480000000    28.4380000000    25.0330000000
  249      H      30.7780000000    28.3200000000    24.8390000000
  250      H      32.3100000000    27.9790000000    24.1550000000
  251      H      32.2300000000    27.7880000000    25.8230000000
  252      O      32.6000000000    30.5560000000    23.7360000000
  253      C      27.9320000000    19.9230000000    25.1540000000
  254      H      26.9940000000    19.4870000000    25.5080000000
  255      H      28.0620000000    19.5920000000    24.1210000000
  256      H      28.6690000000    19.3740000000    25.7450000000
  257      S      27.9740000000    21.6730000000    25.6020000000
  258      C      27.5130000000    22.3190000000    23.9790000000
  259      H      27.1020000000    23.3220000000    24.1200000000
  260      H      28.3390000000    22.2480000000    23.2660000000
  261      H      26.8270000000    21.6080000000    23.5110000000
  262      O      29.4210000000    22.0570000000    25.6190000000
  263      C      27.7820000000    14.9480000000    27.6240000000
  264      H      28.0730000000    14.6810000000    26.6050000000
  265      H      28.6690000000    15.1680000000    28.2230000000
  266      H      27.2280000000    14.0910000000    28.0170000000
  267      S      26.7840000000    16.4420000000    27.4250000000
  268      C      26.4240000000    16.7460000000    29.1690000000
  269      H      26.0570000000    15.8910000000    29.7430000000
  270      H      27.3820000000    17.0560000000    29.5940000000
  271      H      25.7220000000    17.5820000000    29.1210000000
  272      O      25.4360000000    16.1360000000    26.8510000000
  273      C      26.9800000000    30.9600000000    29.1810000000
  274      H      27.5840000000    30.0540000000    29.2730000000
  275      H      25.9600000000    30.8600000000    29.5610000000
  276      H      26.9720000000    31.2120000000    28.1170000000
  277      S      27.8350000000    32.2040000000    30.1740000000
  278      C      29.4790000000    31.4850000000    30.3870000000
  279      H      29.2970000000    30.5430000000    30.9110000000
  280      H      29.8590000000    31.3340000000    29.3740000000
  281      H      30.0310000000    32.2380000000    30.9560000000
  282      O      27.1660000000    32.0900000000    31.5090000000
  283      C      27.0130000000    23.8360000000    20.5890000000
  284      H      27.8140000000    23.9790000000    21.3180000000
  285      H      27.2240000000    22.8780000000    20.1060000000
  286      H      27.0070000000    24.4730000000    19.7000000000
  287      S      25.3380000000    23.7840000000    21.2640000000
  288      C      24.6040000000    23.5070000000    19.6360000000
  289      H      24.9600000000    22.5430000000    19.2620000000
  290      H      23.5150000000    23.4860000000    19.7310000000
  291      H      24.9820000000    24.3160000000    19.0070000000
  292      O      25.0560000000    25.2270000000    21.5480000000
  293      C      32.2400000000    27.6180000000    30.4410000000
  294      H      31.5600000000    28.2620000000    31.0050000000
  295      H      33.1700000000    28.1100000000    30.1460000000
  296      H      31.8560000000    27.3560000000    29.4510000000
  297      S      32.3920000000    26.0710000000    31.3630000000
  298      C      33.5750000000    26.7380000000    32.5550000000
  299      H      34.6020000000    26.8150000000    32.1920000000
  300      H      33.2960000000    27.7710000000    32.7830000000
  301      H      33.6500000000    26.0130000000    33.3690000000
  302      O      33.3270000000    25.2060000000    30.5750000000
 ----------------------------------------------------------------
 Nuclear Repulsion Energy =       50892.81333858 hartrees
 There are      623 alpha and      623 beta electrons
 Requested basis set is 6-31+G(d)
 There are 995 shells and 2773 basis functions

 Total QAlloc Memory Limit  12000 MB
 Mega-Array Size      3911 MB
 MEM_STATIC part      4000 MB

 A cutoff of  1.0D-14 yielded 183692 shell pairs
 There are   1603397 function pairs
 Smallest overlap matrix eigenvalue = 5.06E-07
 Linear dependence detected in AO basis
 Tighter screening thresholds may be required for diffuse basis sets
 Use S2THRESH > 14 and THRESH = 14 in case of SCF convergence issues
 Number of orthogonalized atomic orbitals = 2771
 Maximum deviation from orthogonality = 1.432E-10

 Scale SEOQF with 1.000000e-03/1.000000e-03/1.000000e-03

 Standard Electronic Orientation quadrupole field applied
 Nucleus-field energy     =    -0.0000000715 hartrees
 Guess from superposition of atomic densities
 Warning:  Energy on first SCF cycle will be non-variational
 SAD guess density has 1246.000002 electrons

 -----------------------------------------------------------------------
  General SCF calculation program by
  Eric Jon Sundstrom, Paul Horn, Yuezhi Mao, Dmitri Zuev, Alec White,
  David Stuck, Shaama M.S., Shane Yost, Joonho Lee, David Small,
  Daniel Levine, Susi Lehtola, Hugh Burton, Evgeny Epifanovsky,
  Bang C. Huynh
 -----------------------------------------------------------------------
=================================================
        Doing projection-based embedding         
      F. Manby et al. JCTC, 8, 2564 (2012)       
=================================================

****************************************************
   Low-level SCF calculation for the whole system   
****************************************************
----------------------------------------------
 Summary of the low-level theory: 
 Exchange:     0.2000 Hartree-Fock + 0.0800 Slater + 0.7200 B88
 Correlation:  0.1900 VWN1RPA + 0.8100 LYP
 Using Euler-Maclaurin-Lebedev (75,302) quadrature formula
----------------------------------------------
 using 16 threads for integral computing
 -------------------------------------------------------
 OpenMP Integral computing Module                
 Release: version 1.0, May 2013, Q-Chem Inc. Pittsburgh 
 -------------------------------------------------------
 A restricted SCF calculation will be
 performed using DIIS
 SCF converges when DIIS error is below 1.0e-08
 ---------------------------------------
  Cycle       Energy         DIIS error
 ---------------------------------------
    1  -15913.7799842457      1.33e-02  
    2  -15888.8929555601      2.47e-03  
    3  -15876.3303881333      4.69e-03  
    4  -15893.1100987517      9.52e-04  
    5  -15893.9008918546      1.93e-04  
    6  -15893.9254569872      1.01e-04  
    7  -15893.9324447354      3.98e-05  
    8  -15893.9336828950      6.83e-06  
    9  -15893.9337202939      2.91e-06  
   10  -15893.9337265326      1.08e-06  
   11  -15893.9337273350      3.61e-07  
   12  -15893.9337274362      1.07e-07  
   13  -15893.9337274452      4.03e-08  
   14  -15893.9337274464      1.76e-08  
   15  -15893.9337274466      5.41e-09  Convergence criterion met
 ---------------------------------------
 SCF time:   CPU 289505.54s  wall 20948.00s 
 SCF   energy in the final basis set =   -15893.9337274466
 Total energy in the final basis set =   -15893.9337274466

****************************************************
             Start embedding calculation            
****************************************************
----------------------------------------------
 Summary of the high-level theory: 
 Exchange:     0.2000 Hartree-Fock + 0.0800 Slater + 0.7200 B88
 Correlation:  0.1900 VWN1RPA + 0.8100 LYP
 Using Euler-Maclaurin-Lebedev (75,302) quadrature formula
----------------------------------------------
Doing R-in-R Embedding Calculation
Number of fragments: 2
Embedded fragment(s): 1 
NOcc for each fragment
           35
          588
NBasis for each fragment
          197
         2576
Variational space of the embedded problem: 
NOcc (active)  = 35
NOcc (fixed)   = 588
NVir (total)   = 2148
Read converged orbitals from disk
=========================================================
       Doing SPADE partition for the orbital space       
     D. Claudino and N. Mayhall JCTC 15, 1053 (2019)     
=========================================================
SPADE singular values:
 1.0000 1.0000 1.0000 1.0000 1.0000 1.0000 1.0000 1.0000 1.0000 0.9999
 0.9998 0.9997 0.9996 0.9995 0.9994 0.9992 0.9991 0.9988 0.9985 0.9975
 0.9973 0.9965 0.9965 0.9954 0.9949 0.9939 0.9936 0.9927 0.9924 0.9917
 0.9909 0.9899 0.9882 0.9839 0.9781 0.2126 0.1958 0.1766 0.1693 0.1604
 0.1335 0.1311 0.1264 0.1235 0.1175 0.0989 0.0885 0.0819 0.0754 0.0699
 0.0644 0.0626 0.0569 0.0527 0.0489 0.0450 0.0428 0.0407 0.0383 0.0373
 0.0357 0.0341 0.0306 0.0276 0.0268 0.0248 0.0244 0.0232 0.0226 0.0200
 0.0196 0.0193 0.0169 0.0167 0.0155 0.0142 0.0135 0.0128 0.0118 0.0108
 0.0104 0.0097 0.0088 0.0086 0.0080 0.0076 0.0074 0.0073 0.0070 0.0067
 0.0063 0.0061 0.0056 0.0053 0.0052 0.0050 0.0049 0.0045 0.0043 0.0042
 0.0041 0.0037 0.0037 0.0035 0.0032 0.0031 0.0030 0.0028 0.0027 0.0026
 0.0026 0.0024 0.0022 0.0022 0.0021 0.0021 0.0020 0.0019 0.0018 0.0017
 0.0016 0.0016 0.0015 0.0014 0.0014 0.0013 0.0013 0.0012 0.0011 0.0011
 0.0011 0.0010 0.0010 0.0010 0.0009 0.0009 0.0008 0.0008 0.0008 0.0007
 0.0007 0.0007 0.0006 0.0006 0.0006 0.0006 0.0005 0.0005 0.0005 0.0005
 0.0005 0.0004 0.0004 0.0004 0.0004 0.0004 0.0003 0.0003 0.0003 0.0003
 0.0003 0.0003 0.0003 0.0003 0.0003 0.0003 0.0002 0.0002 0.0002 0.0002
 0.0002 0.0002 0.0002 0.0002 0.0002 0.0002 0.0002 0.0002 0.0002 0.0001
 0.0001 0.0001 0.0001 0.0001 0.0001 0.0001 0.0001 0.0001 0.0001 0.0001
 0.0001 0.0001 0.0001 0.0001 0.0001 0.0001 0.0001
Early stop requested; no embedded SCF will be performed

 588 environment occs will be part of frozen-core in future post-HF calculations

 --------------------------------------------------------------

                    Orbital Energies (a.u.)
 --------------------------------------------------------------

 Alpha MOs
 -- Occupied --
-89.0181 -89.0172 -89.0170 -89.0167 -89.0151 -89.0120 -89.0119 -89.0084
-89.0078 -89.0073 -89.0043 -89.0042 -89.0022 -89.0017 -89.0011 -89.0002
-88.9994 -88.9937 -88.9928 -88.9875 -88.9861 -88.9855 -88.9829 -88.9788
-88.9771 -88.9760 -88.9728 -88.9708 -19.1411 -19.1363 -19.1331 -19.1318
-19.1271 -19.1269 -19.1247 -19.1229 -19.1226 -19.1188 -19.1163 -19.1159
-19.1155 -19.1154 -19.1141 -19.1140 -19.1105 -19.1102 -19.1065 -19.1047
-19.1032 -19.1021 -19.1012 -19.0995 -19.0985 -19.0937 -19.0854 -19.0784
-10.2380 -10.2322 -10.2314 -10.2306 -10.2305 -10.2305 -10.2291 -10.2277
-10.2276 -10.2273 -10.2272 -10.2271 -10.2255 -10.2245 -10.2242 -10.2238
-10.2228 -10.2204 -10.2204 -10.2189 -10.2187 -10.2185 -10.2184 -10.2176
-10.2171 -10.2146 -10.2142 -10.2135 -10.2132 -10.2129 -10.2102 -10.2092
-10.2089 -10.2082 -10.2075 -10.2056 -10.2054 -10.2054 -10.2054 -10.2051
-10.2050 -10.2047 -10.2008 -10.2000 -10.1992 -10.1967 -10.1937 -10.1934
-10.1925 -10.1923 -10.1921 -10.1920 -10.1920 -10.1902 -10.1884 -10.1871
 -8.0637  -8.0630  -8.0626  -8.0618  -8.0607  -8.0584  -8.0577  -8.0546
 -8.0529  -8.0526  -8.0506  -8.0496  -8.0485  -8.0470  -8.0468  -8.0465
 -8.0452  -8.0390  -8.0382  -8.0330  -8.0324  -8.0311  -8.0291  -8.0253
 -8.0225  -8.0215  -8.0188  -8.0173  -6.0282  -6.0271  -6.0270  -6.0265
 -6.0264  -6.0262  -6.0257  -6.0250  -6.0246  -6.0239  -6.0226  -6.0221
 -6.0215  -6.0212  -6.0207  -6.0205  -6.0203  -6.0192  -6.0190  -6.0183
 -6.0175  -6.0174  -6.0169  -6.0160  -6.0160  -6.0159  -6.0154  -6.0150
 -6.0140  -6.0136  -6.0126  -6.0126  -6.0118  -6.0116  -6.0113  -6.0112
 -6.0107  -6.0103  -6.0101  -6.0099  -6.0099  -6.0096  -6.0094  -6.0083
 -6.0081  -6.0072  -6.0062  -6.0050  -6.0041  -6.0040  -6.0036  -6.0026
 -6.0023  -6.0021  -6.0013  -5.9978  -5.9967  -5.9964  -5.9962  -5.9956
 -5.9955  -5.9954  -5.9941  -5.9934  -5.9923  -5.9900  -5.9896  -5.9895
 -5.9887  -5.9884  -5.9869  -5.9864  -5.9858  -5.9854  -5.9848  -5.9834
 -5.9825  -5.9820  -5.9816  -5.9802  -5.9800  -5.9791  -5.9760  -5.9751
 -1.0488  -1.0458  -1.0435  -1.0412  -1.0363  -1.0361  -1.0350  -1.0327
 -1.0315  -1.0284  -1.0280  -1.0268  -1.0264  -1.0262  -1.0260  -1.0258
 -1.0246  -1.0188  -1.0154  -1.0135  -1.0120  -1.0097  -1.0066  -1.0064
 -1.0031  -1.0018  -0.9953  -0.9923  -0.8284  -0.8210  -0.8186  -0.8145
 -0.8135  -0.8134  -0.8108  -0.8108  -0.8089  -0.8058  -0.8028  -0.8022
 -0.8019  -0.8013  -0.8002  -0.7979  -0.7976  -0.7967  -0.7920  -0.7902
 -0.7882  -0.7871  -0.7865  -0.7853  -0.7809  -0.7774  -0.7755  -0.7751
 -0.7437  -0.7432  -0.7406  -0.7391  -0.7387  -0.7369  -0.7364  -0.7322
 -0.7312  -0.7308  -0.7301  -0.7288  -0.7285  -0.7284  -0.7247  -0.7229
 -0.7225  -0.7214  -0.7180  -0.7165  -0.7147  -0.7122  -0.7116  -0.7094
 -0.7088  -0.7069  -0.7001  -0.6997  -0.6314  -0.6299  -0.6292  -0.6277
 -0.6269  -0.6229  -0.6224  -0.6212  -0.6200  -0.6195  -0.6160  -0.6157
 -0.6154  -0.6134  -0.6132  -0.6123  -0.6113  -0.6053  -0.6051  -0.6007
 -0.5990  -0.5962  -0.5922  -0.5910  -0.5909  -0.5868  -0.5840  -0.5803
 -0.5025  -0.5020  -0.4980  -0.4963  -0.4956  -0.4952  -0.4946  -0.4937
 -0.4922  -0.4912  -0.4895  -0.4891  -0.4882  -0.4869  -0.4864  -0.4847
 -0.4840  -0.4830  -0.4821  -0.4809  -0.4806  -0.4790  -0.4787  -0.4776
 -0.4773  -0.4772  -0.4772  -0.4761  -0.4755  -0.4749  -0.4743  -0.4739
 -0.4735  -0.4729  -0.4715  -0.4712  -0.4710  -0.4706  -0.4703  -0.4699
 -0.4685  -0.4680  -0.4673  -0.4669  -0.4663  -0.4658  -0.4652  -0.4634
 -0.4632  -0.4630  -0.4621  -0.4616  -0.4612  -0.4608  -0.4608  -0.4602
 -0.4597  -0.4592  -0.4588  -0.4579  -0.4575  -0.4571  -0.4568  -0.4562
 -0.4556  -0.4544  -0.4540  -0.4528  -0.4524  -0.4517  -0.4512  -0.4502
 -0.4500  -0.4487  -0.4485  -0.4469  -0.4464  -0.4447  -0.4440  -0.4437
 -0.4428  -0.4411  -0.4403  -0.4401  -0.4395  -0.4392  -0.4382  -0.4380
 -0.4378  -0.4372  -0.4366  -0.4361  -0.4354  -0.4335  -0.4315  -0.4311
 -0.4302  -0.4280  -0.4271  -0.4261  -0.4254  -0.4238  -0.4237  -0.4237
 -0.4231  -0.4226  -0.4224  -0.4220  -0.4215  -0.4212  -0.4208  -0.4201
 -0.4188  -0.4183  -0.4173  -0.4159  -0.4144  -0.4139  -0.4134  -0.4128
 -0.4126  -0.4122  -0.4119  -0.4110  -0.4107  -0.4106  -0.4105  -0.4095
 -0.4084  -0.4081  -0.4076  -0.4073  -0.4068  -0.4060  -0.4051  -0.4043
 -0.4034  -0.4015  -0.4006  -0.4003  -0.3998  -0.3989  -0.3988  -0.3981
 -0.3970  -0.3969  -0.3965  -0.3960  -0.3959  -0.3947  -0.3946  -0.3937
 -0.3921  -0.3921  -0.3890  -0.3882  -0.3870  -0.3853  -0.3847  -0.3831
 -0.3797  -0.3795  -0.3789  -0.3777  -0.3775  -0.3758  -0.3755  -0.3753
 -0.3751  -0.3747  -0.3742  -0.3727  -0.3726  -0.3712  -0.3684  -0.3675
 -0.3666  -0.3656  -0.3654  -0.3641  -0.3639  -0.3636  -0.3629  -0.3614
 -0.3573  -0.3549  -0.3534  -0.3530  -0.3508  -0.3479  -0.3463  -0.3450
 -0.3411  -0.3387  -0.3384  -0.3380  -0.2991  -0.2967  -0.2954  -0.2911
 -0.2880  -0.2862  -0.2849  -0.2847  -0.2836  -0.2800  -0.2767  -0.2756
 -0.2749  -0.2745  -0.2729  -0.2712  -0.2705  -0.2703  -0.2694  -0.2679
 -0.2656  -0.2649  -0.2622  -0.2619  -0.2613  -0.2603  -0.2579  -0.2579
 -0.2568  -0.2560  -0.2555  -0.2547  -0.2524  -0.2503  -0.2498  -0.2488
 -0.2477  -0.2455  -0.2448  -0.2433  -0.2432  -0.2426  -0.2424  -0.2402
 -0.2352  -0.2332  -0.2308  -0.2304  -0.2259  -0.2238  -0.2225  -0.2208
 -0.2179  -0.2124  -0.2114  -0.2096 -11.8675 -11.5724 -11.6811 -10.6251
-17.1907 -10.7600 -10.0347 -10.2236 -10.0820  -0.8681  -0.7129  -0.7392
 -0.6757  -0.8016  -0.7059  -0.6639  -0.7539  -0.4432  -0.3957  -0.3898
 -0.4676  -0.4334  -0.4544  -0.4513  -0.4291  -0.4455  -0.3822  -0.3975
 -0.4765  -0.4757  -0.5146  -0.4331  -0.4486  -0.5757  -0.5330
 -- Virtual --
 -0.0268  -0.0265  -0.0231  -0.0206  -0.0201  -0.0187  -0.0179  -0.0168
 -0.0160  -0.0147  -0.0138  -0.0136  -0.0110  -0.0106  -0.0101  -0.0091
 -0.0075  -0.0072  -0.0065  -0.0055  -0.0044  -0.0040  -0.0027  -0.0014
 -0.0006  -0.0002   0.0006   0.0008   0.0024   0.0031   0.0036   0.0047
  0.0048   0.0051   0.0067   0.0072   0.0075   0.0082   0.0092   0.0100
  0.0103   0.0105   0.0113   0.0122   0.0130   0.0135   0.0140   0.0148
  0.0150   0.0153   0.0162   0.0173   0.0177   0.0182   0.0190   0.0194
  0.0209   0.0220   0.0224   0.0228   0.0237   0.0240   0.0250   0.0260
  0.0265   0.0275   0.0281   0.0283   0.0289   0.0295   0.0297   0.0305
  0.0312   0.0315   0.0324   0.0325   0.0328   0.0338   0.0348   0.0352
  0.0359   0.0367   0.0377   0.0392   0.0395   0.0403   0.0409   0.0423
  0.0428   0.0428   0.0434   0.0438   0.0446   0.0452   0.0457   0.0463
  0.0464   0.0473   0.0477   0.0484   0.0488   0.0490   0.0500   0.0504
  0.0512   0.0515   0.0519   0.0526   0.0532   0.0539   0.0546   0.0554
  0.0558   0.0561   0.0563   0.0572   0.0577   0.0585   0.0592   0.0597
  0.0606   0.0613   0.0623   0.0626   0.0631   0.0641   0.0645   0.0647
  0.0648   0.0655   0.0662   0.0664   0.0668   0.0679   0.0684   0.0686
  0.0694   0.0698   0.0703   0.0711   0.0720   0.0724   0.0736   0.0739
  0.0741   0.0760   0.0763   0.0769   0.0771   0.0783   0.0787   0.0798
  0.0804   0.0808   0.0812   0.0816   0.0827   0.0828   0.0835   0.0839
  0.0849   0.0852   0.0857   0.0860   0.0870   0.0879   0.0887   0.0893
  0.0898   0.0905   0.0908   0.0914   0.0927   0.0928   0.0941   0.0947
  0.0956   0.0959   0.0964   0.0977   0.0982   0.0986   0.0991   0.0997
  0.1001   0.1013   0.1015   0.1021   0.1029   0.1031   0.1041   0.1049
  0.1053   0.1057   0.1066   0.1072   0.1077   0.1082   0.1088   0.1091
  0.1102   0.1102   0.1107   0.1117   0.1122   0.1128   0.1135   0.1137
  0.1143   0.1153   0.1163   0.1172   0.1174   0.1180   0.1182   0.1194
  0.1197   0.1201   0.1210   0.1215   0.1220   0.1226   0.1239   0.1248
  0.1253   0.1257   0.1259   0.1266   0.1267   0.1270   0.1279   0.1289
  0.1294   0.1297   0.1303   0.1310   0.1313   0.1322   0.1329   0.1332
  0.1340   0.1347   0.1352   0.1356   0.1360   0.1372   0.1378   0.1383
  0.1385   0.1393   0.1400   0.1403   0.1406   0.1415   0.1417   0.1424
  0.1424   0.1438   0.1443   0.1446   0.1454   0.1463   0.1470   0.1472
  0.1477   0.1482   0.1489   0.1492   0.1496   0.1506   0.1510   0.1513
  0.1517   0.1525   0.1528   0.1530   0.1533   0.1544   0.1554   0.1557
  0.1562   0.1571   0.1576   0.1580   0.1582   0.1590   0.1594   0.1599
  0.1605   0.1607   0.1626   0.1630   0.1631   0.1640   0.1644   0.1647
  0.1654   0.1660   0.1666   0.1670   0.1677   0.1681   0.1690   0.1698
  0.1701   0.1709   0.1715   0.1722   0.1727   0.1731   0.1737   0.1745
  0.1747   0.1751   0.1757   0.1759   0.1769   0.1774   0.1776   0.1780
  0.1790   0.1799   0.1802   0.1805   0.1811   0.1815   0.1819   0.1824
  0.1833   0.1836   0.1844   0.1848   0.1849   0.1862   0.1864   0.1866
  0.1870   0.1882   0.1886   0.1890   0.1895   0.1899   0.1906   0.1913
  0.1917   0.1920   0.1931   0.1938   0.1941   0.1948   0.1954   0.1958
  0.1968   0.1976   0.1985   0.1988   0.1993   0.1998   0.2003   0.2006
  0.2016   0.2018   0.2029   0.2032   0.2037   0.2042   0.2049   0.2061
  0.2063   0.2068   0.2072   0.2076   0.2089   0.2094   0.2100   0.2106
  0.2112   0.2116   0.2123   0.2127   0.2134   0.2144   0.2153   0.2164
  0.2167   0.2173   0.2176   0.2184   0.2189   0.2195   0.2203   0.2215
  0.2221   0.2228   0.2232   0.2238   0.2243   0.2248   0.2254   0.2258
  0.2263   0.2273   0.2274   0.2282   0.2290   0.2297   0.2304   0.2309
  0.2317   0.2322   0.2336   0.2339   0.2343   0.2348   0.2363   0.2366
  0.2368   0.2374   0.2377   0.2391   0.2399   0.2410   0.2417   0.2424
  0.2429   0.2431   0.2439   0.2447   0.2451   0.2461   0.2464   0.2476
  0.2487   0.2491   0.2499   0.2507   0.2509   0.2517   0.2520   0.2532
  0.2537   0.2538   0.2543   0.2556   0.2563   0.2569   0.2571   0.2573
  0.2590   0.2591   0.2596   0.2602   0.2610   0.2622   0.2627   0.2633
  0.2638   0.2642   0.2651   0.2658   0.2669   0.2675   0.2678   0.2688
  0.2695   0.2701   0.2707   0.2709   0.2719   0.2725   0.2737   0.2748
  0.2758   0.2763   0.2769   0.2775   0.2778   0.2791   0.2793   0.2801
  0.2806   0.2811   0.2822   0.2825   0.2833   0.2840   0.2845   0.2858
  0.2864   0.2874   0.2879   0.2892   0.2899   0.2902   0.2910   0.2922
  0.2925   0.2930   0.2938   0.2950   0.2962   0.2968   0.2976   0.2982
  0.2991   0.3002   0.3005   0.3012   0.3022   0.3028   0.3031   0.3039
  0.3045   0.3060   0.3063   0.3079   0.3084   0.3087   0.3094   0.3098
  0.3107   0.3118   0.3127   0.3141   0.3144   0.3147   0.3156   0.3166
  0.3173   0.3182   0.3188   0.3196   0.3199   0.3215   0.3230   0.3237
  0.3244   0.3251   0.3252   0.3261   0.3274   0.3278   0.3283   0.3293
  0.3302   0.3311   0.3316   0.3329   0.3344   0.3346   0.3355   0.3361
  0.3371   0.3374   0.3380   0.3395   0.3405   0.3412   0.3418   0.3422
  0.3438   0.3446   0.3457   0.3462   0.3470   0.3475   0.3478   0.3489
  0.3490   0.3498   0.3514   0.3515   0.3531   0.3535   0.3540   0.3549
  0.3560   0.3563   0.3570   0.3577   0.3587   0.3591   0.3599   0.3619
  0.3620   0.3627   0.3634   0.3641   0.3646   0.3662   0.3666   0.3678
  0.3681   0.3691   0.3695   0.3713   0.3718   0.3720   0.3729   0.3741
  0.3749   0.3756   0.3762   0.3772   0.3780   0.3782   0.3788   0.3797
  0.3803   0.3816   0.3818   0.3837   0.3844   0.3852   0.3856   0.3861
  0.3874   0.3891   0.3892   0.3899   0.3910   0.3921   0.3935   0.3940
  0.3943   0.3960   0.3963   0.3964   0.3976   0.3986   0.3990   0.3996
  0.4014   0.4021   0.4025   0.4040   0.4042   0.4064   0.4072   0.4074
  0.4087   0.4100   0.4103   0.4114   0.4127   0.4137   0.4144   0.4148
  0.4158   0.4165   0.4171   0.4185   0.4186   0.4202   0.4205   0.4210
  0.4226   0.4233   0.4241   0.4259   0.4269   0.4275   0.4286   0.4292
  0.4309   0.4319   0.4326   0.4334   0.4348   0.4361   0.4364   0.4376
  0.4393   0.4403   0.4414   0.4428   0.4438   0.4446   0.4469   0.4470
  0.4482   0.4495   0.4499   0.4501   0.4517   0.4538   0.4544   0.4553
  0.4571   0.4578   0.4585   0.4592   0.4611   0.4625   0.4639   0.4646
  0.4656   0.4675   0.4680   0.4691   0.4712   0.4724   0.4725   0.4745
  0.4753   0.4763   0.4774   0.4798   0.4812   0.4822   0.4832   0.4841
  0.4852   0.4869   0.4882   0.4890   0.4902   0.4913   0.4931   0.4939
  0.4950   0.4963   0.4976   0.5005   0.5011   0.5023   0.5043   0.5059
  0.5084   0.5088   0.5096   0.5112   0.5119   0.5137   0.5142   0.5145
  0.5170   0.5189   0.5211   0.5219   0.5244   0.5246   0.5256   0.5263
  0.5268   0.5288   0.5305   0.5314   0.5326   0.5348   0.5361   0.5378
  0.5398   0.5418   0.5446   0.5458   0.5461   0.5488   0.5508   0.5524
  0.5544   0.5547   0.5570   0.5585   0.5599   0.5621   0.5648   0.5651
  0.5669   0.5696   0.5710   0.5713   0.5727   0.5732   0.5763   0.5770
  0.5782   0.5795   0.5800   0.5826   0.5842   0.5861   0.5864   0.5883
  0.5885   0.5908   0.5923   0.5926   0.5943   0.5964   0.5970   0.5992
  0.6006   0.6011   0.6020   0.6026   0.6030   0.6054   0.6081   0.6084
  0.6104   0.6113   0.6126   0.6138   0.6153   0.6156   0.6172   0.6181
  0.6188   0.6201   0.6209   0.6220   0.6254   0.6256   0.6260   0.6266
  0.6293   0.6311   0.6314   0.6319   0.6337   0.6353   0.6357   0.6360
  0.6374   0.6382   0.6405   0.6416   0.6430   0.6432   0.6446   0.6455
  0.6459   0.6468   0.6479   0.6491   0.6501   0.6511   0.6529   0.6542
  0.6548   0.6572   0.6574   0.6579   0.6590   0.6595   0.6606   0.6617
  0.6629   0.6636   0.6649   0.6667   0.6672   0.6685   0.6693   0.6699
  0.6706   0.6718   0.6720   0.6742   0.6755   0.6758   0.6761   0.6776
  0.6786   0.6797   0.6805   0.6818   0.6832   0.6845   0.6848   0.6865
  0.6870   0.6890   0.6899   0.6906   0.6915   0.6923   0.6933   0.6943
  0.6948   0.6970   0.6985   0.6993   0.6999   0.7022   0.7034   0.7038
  0.7067   0.7080   0.7087   0.7099   0.7116   0.7120   0.7129   0.7146
  0.7166   0.7173   0.7181   0.7205   0.7220   0.7226   0.7232   0.7242
  0.7254   0.7271   0.7289   0.7296   0.7309   0.7317   0.7329   0.7340
  0.7345   0.7351   0.7383   0.7386   0.7394   0.7401   0.7429   0.7447
  0.7457   0.7466   0.7483   0.7499   0.7520   0.7531   0.7540   0.7554
  0.7570   0.7579   0.7589   0.7611   0.7616   0.7628   0.7646   0.7662
  0.7688   0.7692   0.7718   0.7721   0.7738   0.7749   0.7766   0.7777
  0.7790   0.7807   0.7812   0.7831   0.7849   0.7860   0.7874   0.7879
  0.7902   0.7909   0.7928   0.7938   0.7962   0.7980   0.7989   0.7999
  0.8022   0.8023   0.8031   0.8033   0.8063   0.8069   0.8094   0.8097
  0.8118   0.8140   0.8161   0.8167   0.8183   0.8195   0.8217   0.8226
  0.8246   0.8248   0.8265   0.8288   0.8292   0.8312   0.8326   0.8329
  0.8351   0.8359   0.8381   0.8400   0.8420   0.8426   0.8441   0.8446
  0.8460   0.8465   0.8485   0.8494   0.8510   0.8517   0.8540   0.8547
  0.8559   0.8570   0.8579   0.8588   0.8615   0.8619   0.8624   0.8630
  0.8656   0.8663   0.8672   0.8680   0.8693   0.8697   0.8715   0.8723
  0.8739   0.8755   0.8764   0.8772   0.8792   0.8797   0.8803   0.8816
  0.8837   0.8840   0.8850   0.8860   0.8867   0.8897   0.8900   0.8913
  0.8928   0.8933   0.8957   0.8963   0.8974   0.8993   0.8997   0.9008
  0.9015   0.9034   0.9047   0.9057   0.9068   0.9084   0.9091   0.9095
  0.9102   0.9124   0.9131   0.9141   0.9153   0.9162   0.9189   0.9199
  0.9206   0.9223   0.9241   0.9248   0.9264   0.9271   0.9281   0.9295
  0.9300   0.9310   0.9313   0.9328   0.9342   0.9345   0.9359   0.9364
  0.9385   0.9396   0.9404   0.9424   0.9431   0.9436   0.9465   0.9473
  0.9481   0.9490   0.9501   0.9505   0.9519   0.9533   0.9544   0.9551
  0.9561   0.9564   0.9576   0.9583   0.9597   0.9607   0.9613   0.9628
  0.9642   0.9656   0.9667   0.9667   0.9678   0.9690   0.9699   0.9715
  0.9730   0.9734   0.9746   0.9749   0.9759   0.9778   0.9778   0.9786
  0.9795   0.9815   0.9820   0.9833   0.9848   0.9860   0.9873   0.9883
  0.9893   0.9897   0.9914   0.9921   0.9928   0.9944   0.9947   0.9962
  0.9971   0.9983   0.9986   0.9996   1.0020   1.0028   1.0035   1.0038
  1.0045   1.0056   1.0069   1.0083   1.0092   1.0109   1.0114   1.0123
  1.0127   1.0142   1.0149   1.0163   1.0172   1.0178   1.0186   1.0197
  1.0207   1.0222   1.0229   1.0237   1.0243   1.0266   1.0282   1.0283
  1.0289   1.0294   1.0317   1.0326   1.0335   1.0345   1.0354   1.0372
  1.0383   1.0392   1.0404   1.0415   1.0436   1.0443   1.0451   1.0463
  1.0468   1.0479   1.0495   1.0513   1.0524   1.0533   1.0549   1.0558
  1.0579   1.0587   1.0592   1.0601   1.0613   1.0619   1.0630   1.0635
  1.0652   1.0668   1.0685   1.0698   1.0728   1.0737   1.0766   1.0772
  1.0775   1.0791   1.0800   1.0811   1.0830   1.0841   1.0844   1.0876
  1.0883   1.0899   1.0910   1.0924   1.0933   1.0957   1.0965   1.0977
  1.0994   1.1005   1.1014   1.1048   1.1055   1.1069   1.1074   1.1105
  1.1119   1.1140   1.1151   1.1170   1.1173   1.1186   1.1192   1.1203
  1.1220   1.1232   1.1241   1.1249   1.1271   1.1285   1.1291   1.1305
  1.1317   1.1330   1.1338   1.1347   1.1365   1.1382   1.1388   1.1392
  1.1407   1.1420   1.1431   1.1447   1.1459   1.1473   1.1476   1.1481
  1.1498   1.1503   1.1517   1.1524   1.1539   1.1547   1.1552   1.1570
  1.1585   1.1593   1.1606   1.1617   1.1625   1.1644   1.1652   1.1667
  1.1687   1.1688   1.1694   1.1726   1.1740   1.1764   1.1768   1.1784
  1.1789   1.1803   1.1814   1.1826   1.1831   1.1850   1.1857   1.1870
  1.1908   1.1918   1.1925   1.1935   1.1950   1.1964   1.1984   1.1995
  1.2016   1.2020   1.2045   1.2055   1.2066   1.2090   1.2118   1.2139
  1.2145   1.2162   1.2190   1.2195   1.2209   1.2235   1.2247   1.2255
  1.2264   1.2312   1.2337   1.2342   1.2373   1.2388   1.2394   1.2409
  1.2444   1.2455   1.2502   1.2526   1.2544   1.2553   1.2571   1.2579
  1.2591   1.2616   1.2651   1.2655   1.2679   1.2711   1.2715   1.2746
  1.2751   1.2794   1.2831   1.2836   1.2848   1.2863   1.2882   1.2907
  1.2923   1.2948   1.2962   1.3004   1.3016   1.3030   1.3051   1.3072
  1.3090   1.3105   1.3113   1.3151   1.3157   1.3167   1.3185   1.3209
  1.3235   1.3241   1.3263   1.3270   1.3299   1.3309   1.3332   1.3336
  1.3344   1.3361   1.3381   1.3386   1.3397   1.3435   1.3474   1.3478
  1.3483   1.3502   1.3509   1.3519   1.3554   1.3559   1.3581   1.3585
  1.3608   1.3618   1.3635   1.3652   1.3675   1.3702   1.3716   1.3737
  1.3753   1.3766   1.3779   1.3798   1.3806   1.3842   1.3854   1.3871
  1.3880   1.3887   1.3904   1.3916   1.3945   1.3960   1.3966   1.3983
  1.3988   1.4016   1.4027   1.4038   1.4065   1.4066   1.4081   1.4099
  1.4109   1.4127   1.4137   1.4147   1.4156   1.4170   1.4193   1.4205
  1.4211   1.4239   1.4256   1.4267   1.4276   1.4296   1.4306   1.4320
  1.4348   1.4354   1.4373   1.4390   1.4406   1.4425   1.4444   1.4452
  1.4466   1.4495   1.4504   1.4510   1.4531   1.4543   1.4569   1.4579
  1.4606   1.4614   1.4626   1.4649   1.4673   1.4681   1.4694   1.4699
  1.4737   1.4751   1.4760   1.4794   1.4797   1.4807   1.4823   1.4857
  1.4872   1.4885   1.4897   1.4899   1.4928   1.4946   1.4977   1.5003
  1.5008   1.5018   1.5038   1.5043   1.5065   1.5081   1.5116   1.5118
  1.5145   1.5172   1.5203   1.5217   1.5229   1.5239   1.5270   1.5304
  1.5335   1.5356   1.5388   1.5397   1.5413   1.5438   1.5445   1.5483
  1.5511   1.5522   1.5537   1.5584   1.5621   1.5668   1.5677   1.5692
  1.5707   1.5750   1.5779   1.5812   1.5842   1.5878   1.5897   1.5940
  1.5976   1.6024   1.6040   1.6068   1.6087   1.6119   1.6177   1.6216
  1.6294   1.6338   1.6400   1.6412   1.6450   1.6505   1.6521   1.6536
  1.6571   1.6609   1.6610   1.6627   1.6656   1.6666   1.6688   1.6694
  1.6704   1.6715   1.6722   1.6733   1.6748   1.6763   1.6770   1.6785
  1.6803   1.6809   1.6829   1.6859   1.6863   1.6876   1.6881   1.6891
  1.6902   1.6937   1.6943   1.6944   1.6959   1.6970   1.6979   1.6996
  1.6999   1.7008   1.7023   1.7056   1.7067   1.7076   1.7082   1.7101
  1.7115   1.7138   1.7147   1.7151   1.7154   1.7176   1.7194   1.7201
  1.7214   1.7230   1.7234   1.7258   1.7260   1.7282   1.7291   1.7295
  1.7316   1.7335   1.7341   1.7356   1.7363   1.7376   1.7389   1.7398
  1.7414   1.7431   1.7442   1.7452   1.7467   1.7473   1.7488   1.7497
  1.7510   1.7517   1.7522   1.7547   1.7551   1.7555   1.7569   1.7596
  1.7605   1.7614   1.7629   1.7631   1.7659   1.7672   1.7685   1.7695
  1.7732   1.7737   1.7770   1.7773   1.7785   1.7817   1.7823   1.7833
  1.7840   1.7867   1.7875   1.7890   1.7896   1.7936   1.7938   1.7969
  1.7972   1.8009   1.8030   1.8034   1.8045   1.8072   1.8079   1.8102
  1.8108   1.8135   1.8166   1.8172   1.8188   1.8203   1.8207   1.8245
  1.8269   1.8279   1.8299   1.8320   1.8344   1.8367   1.8423   1.8471
  1.8493   1.8521   1.8561   1.8602   1.8615   1.8668   1.8702   1.8705
  1.8734   1.8745   1.8764   1.8775   1.8810   1.8811   1.8852   1.8867
  1.8884   1.8888   1.8902   1.8908   1.8913   1.8935   1.8946   1.8967
  1.8979   1.8986   1.8989   1.8997   1.9006   1.9014   1.9020   1.9032
  1.9041   1.9054   1.9067   1.9076   1.9100   1.9109   1.9127   1.9133
  1.9156   1.9165   1.9185   1.9191   1.9197   1.9215   1.9224   1.9232
  1.9236   1.9241   1.9266   1.9278   1.9313   1.9326   1.9341   1.9355
  1.9371   1.9397   1.9408   1.9434   1.9446   1.9464   1.9480   1.9486
  1.9495   1.9542   1.9547   1.9590   1.9618   1.9648   1.9661   1.9685
  1.9695   1.9724   1.9757   1.9774   1.9813   1.9849   1.9907   1.9937
  2.0099   2.0120   2.0127   2.0192   2.0280   2.0367   2.0418   2.0497
  2.0533   2.0536   2.0547   2.0552   2.0572   2.0595   2.0604   2.0618
  2.0624   2.0632   2.0658   2.0668   2.0674   2.0685   2.0691   2.0703
  2.0714   2.0733   2.0743   2.0754   2.0766   2.0799   2.0819   2.0827
  2.0830   2.0839   2.0855   2.0871   2.0883   2.0895   2.0903   2.0912
  2.0923   2.0934   2.0952   2.0975   2.0990   2.1017   2.1027   2.1038
  2.1066   2.1075   2.1088   2.1091   2.1095   2.1101   2.1111   2.1116
  2.1123   2.1150   2.1156   2.1185   2.1198   2.1278   2.1288   2.1292
  2.1338   2.1376   2.1438   2.1496   2.1548   2.1608   2.1662   2.1674
  2.1780   2.1786   2.1791   2.1801   2.1826   2.1876   2.1904   2.1934
  2.1954   2.1994   2.2006   2.2014   2.2030   2.2039   2.2059   2.2064
  2.2074   2.2096   2.2119   2.2129   2.2140   2.2155   2.2162   2.2187
  2.2198   2.2214   2.2238   2.2243   2.2262   2.2271   2.2309   2.2320
  2.2321   2.2323   2.2335   2.2341   2.2362   2.2366   2.2375   2.2386
  2.2394   2.2401   2.2406   2.2410   2.2415   2.2431   2.2441   2.2450
  2.2455   2.2465   2.2488   2.2499   2.2508   2.2519   2.2530   2.2536
  2.2544   2.2554   2.2580   2.2584   2.2606   2.2610   2.2619   2.2628
  2.2641   2.2659   2.2663   2.2680   2.2682   2.2684   2.2701   2.2703
  2.2715   2.2721   2.2726   2.2734   2.2736   2.2742   2.2750   2.2759
  2.2763   2.2771   2.2778   2.2792   2.2799   2.2819   2.2820   2.2834
  2.2838   2.2856   2.2860   2.2883   2.2892   2.2902   2.2904   2.2917
  2.2932   2.2942   2.2963   2.2978   2.2985   2.2994   2.3015   2.3016
  2.3023   2.3035   2.3040   2.3048   2.3057   2.3069   2.3081   2.3099
  2.3100   2.3107   2.3114   2.3131   2.3152   2.3164   2.3180   2.3200
  2.3215   2.3231   2.3237   2.3251   2.3256   2.3279   2.3296   2.3306
  2.3311   2.3331   2.3339   2.3344   2.3365   2.3378   2.3396   2.3401
  2.3406   2.3422   2.3434   2.3458   2.3469   2.3477   2.3488   2.3499
  2.3512   2.3517   2.3527   2.3550   2.3584   2.3590   2.3595   2.3617
  2.3650   2.3666   2.3679   2.3682   2.3709   2.3737   2.3760   2.3779
  2.3792   2.3820   2.3867   2.3925   2.3959   2.3968   2.4016   2.4022
  2.4024   2.4090   2.4186   2.4298   2.4318   2.4387   2.4801   2.4873
  2.5094   2.5194   2.5524   2.5938   2.6761   2.7334   2.7523   2.7859
  2.8078   2.8249   2.8298   2.8326   2.8355   2.8373   2.8378   2.8385
  2.8412   2.8462   2.8475   2.8530   2.8540   2.8557   2.8559   2.8578
  2.8592   2.8610   2.8637   2.8665   2.8685   2.8713   2.8732   2.8768
  2.8786   2.8826   2.8836   2.8877   2.8893   2.8944   2.8992   2.9089
  2.9463   3.0902   3.2625   3.9477   3.9535   3.9564   3.9611   3.9656
  3.9720   3.9729   3.9750   3.9755   3.9766   3.9798   3.9859   3.9919
  3.9942   3.9979   3.9991   4.0021   4.0035   4.0072   4.0113   4.0127
  4.0177   4.0215   4.0233   4.0264   4.0343   4.0418   4.0533   4.2126
  4.2138   4.2250   4.2302   4.2329   4.2364   4.2379   4.2393   4.2452
  4.2500   4.2510   4.2552   4.2623   4.2629   4.2660   4.2681   4.2696
  4.2713   4.2717   4.2752   4.2793   4.2836   4.2887   4.2897   4.2912
  4.2931   4.2952   4.2964   4.2995   4.3014   4.3048   4.3074   4.3082
  4.3108   4.3131   4.3159   4.3176   4.3208   4.3237   4.3268   4.3277
  4.3298   4.3305   4.3327   4.3362   4.3397   4.3429   4.3462   4.3498
  4.3504   4.3568   4.3609   4.3639   4.3653   4.3722   4.3749   4.3771
  4.3808   4.3826   4.3865   4.3899   4.3915   4.3929   4.3970   4.4001
  4.4035   4.4105   4.4166   4.4251   4.4280   4.4289   4.4343   4.4438
  4.4484   4.4547   4.4757   4.4768   4.4844   4.5004   4.5042   4.5110
  4.5335   4.5511   4.5608   4.5874   4.6264   4.6284   4.6356   4.7297
  4.7648   4.7774   4.8105   4.9067
 --------------------------------------------------------------

          Ground-State Mulliken Net Atomic Charges

     Atom                 Charge (a.u.)
  ----------------------------------------
      1 C                    -0.101941
      2 C                    -1.480980
      3 C                    -0.487532
      4 C                    -0.540296
      5 C                    -0.077124
      6 C                    -0.689370
      7 H                     0.231592
      8 H                     0.220576
      9 H                     0.250212
     10 H                     0.213271
     11 H                     0.219089
     12 H                     0.225725
     13 H                     0.244758
     14 H                     0.228194
     15 H                     0.218090
     16 H                     0.198031
     17 H                     0.180685
     18 N                     0.471517
     19 H                     0.500252
     20 C                    -0.110853
     21 H                     0.162922
     22 O                    -0.234189
     23 C                    -1.034080
     24 H                     0.305563
     25 H                     0.236925
     26 H                     0.264020
     27 S                     0.985655
     28 C                    -0.941043
     29 H                     0.255913
     30 H                     0.260921
     31 H                     0.236872
     32 O                    -0.574670
     33 C                    -0.783943
     34 H                     0.274069
     35 H                     0.242942
     36 H                     0.242015
     37 S                     0.766893
     38 C                    -0.907468
     39 H                     0.223712
     40 H                     0.298082
     41 H                     0.315958
     42 O                    -0.605293
     43 C                    -0.878856
     44 H                     0.266925
     45 H                     0.246071
     46 H                     0.310326
     47 S                     0.813414
     48 C                    -0.971998
     49 H                     0.249648
     50 H                     0.296674
     51 H                     0.265789
     52 O                    -0.637410
     53 C                    -0.814584
     54 H                     0.229914
     55 H                     0.274704
     56 H                     0.246211
     57 S                     0.818554
     58 C                    -0.818000
     59 H                     0.229391
     60 H                     0.267484
     61 H                     0.255202
     62 O                    -0.679581
     63 C                    -0.947572
     64 H                     0.254889
     65 H                     0.245501
     66 H                     0.243036
     67 S                     0.827862
     68 C                    -0.814237
     69 H                     0.204688
     70 H                     0.303909
     71 H                     0.253638
     72 O                    -0.632184
     73 C                    -0.878845
     74 H                     0.250179
     75 H                     0.245705
     76 H                     0.288746
     77 S                     0.970894
     78 C                    -0.915425
     79 H                     0.259780
     80 H                     0.244155
     81 H                     0.249581
     82 O                    -0.689694
     83 C                    -0.888244
     84 H                     0.290468
     85 H                     0.281133
     86 H                     0.206022
     87 S                     0.865271
     88 C                    -0.931228
     89 H                     0.252355
     90 H                     0.230293
     91 H                     0.312980
     92 O                    -0.669493
     93 C                    -0.857634
     94 H                     0.250184
     95 H                     0.262811
     96 H                     0.215318
     97 S                     0.923934
     98 C                    -0.769512
     99 H                     0.217084
    100 H                     0.284030
    101 H                     0.315878
    102 O                    -0.754271
    103 C                    -1.064294
    104 H                     0.297175
    105 H                     0.260819
    106 H                     0.249831
    107 S                     1.187100
    108 C                    -1.164799
    109 H                     0.258078
    110 H                     0.285932
    111 H                     0.293067
    112 O                    -0.656715
    113 C                    -1.305673
    114 H                     0.258277
    115 H                     0.270170
    116 H                     0.290049
    117 S                     1.514289
    118 C                    -1.099273
    119 H                     0.242817
    120 H                     0.263761
    121 H                     0.284238
    122 O                    -0.650661
    123 C                    -1.046129
    124 H                     0.244871
    125 H                     0.258913
    126 H                     0.269768
    127 S                     1.431946
    128 C                    -1.247093
    129 H                     0.241913
    130 H                     0.288311
    131 H                     0.266132
    132 O                    -0.675079
    133 C                    -0.952368
    134 H                     0.265215
    135 H                     0.246543
    136 H                     0.240690
    137 S                     1.134783
    138 C                    -0.883577
    139 H                     0.259564
    140 H                     0.259542
    141 H                     0.252982
    142 O                    -0.695948
    143 C                    -0.833360
    144 H                     0.224912
    145 H                     0.249295
    146 H                     0.261380
    147 S                     0.981322
    148 C                    -0.804013
    149 H                     0.246186
    150 H                     0.227871
    151 H                     0.247761
    152 O                    -0.734302
    153 C                    -0.968522
    154 H                     0.305333
    155 H                     0.232079
    156 H                     0.239625
    157 S                     0.965827
    158 C                    -0.899308
    159 H                     0.233119
    160 H                     0.243836
    161 H                     0.281901
    162 O                    -0.716859
    163 C                    -0.859532
    164 H                     0.255370
    165 H                     0.278503
    166 H                     0.287399
    167 S                     0.578804
    168 C                    -0.759464
    169 H                     0.242473
    170 H                     0.247667
    171 H                     0.271528
    172 O                    -0.514552
    173 C                    -0.910751
    174 H                     0.267396
    175 H                     0.242370
    176 H                     0.232712
    177 S                     1.106652
    178 C                    -1.017884
    179 H                     0.308328
    180 H                     0.314171
    181 H                     0.215046
    182 O                    -0.694128
    183 C                    -0.815030
    184 H                     0.262520
    185 H                     0.280102
    186 H                     0.250044
    187 S                     0.754062
    188 C                    -1.294406
    189 H                     0.239477
    190 H                     0.248944
    191 H                     0.319916
    192 O                    -0.579165
    193 C                    -0.817125
    194 H                     0.294620
    195 H                     0.230245
    196 H                     0.304560
    197 S                     0.842911
    198 C                    -0.853306
    199 H                     0.238576
    200 H                     0.232610
    201 H                     0.302299
    202 O                    -0.726985
    203 C                    -1.003664
    204 H                     0.237788
    205 H                     0.287682
    206 H                     0.230147
    207 S                     1.071339
    208 C                    -0.905007
    209 H                     0.271619
    210 H                     0.242219
    211 H                     0.248370
    212 O                    -0.646597
    213 C                    -0.849762
    214 H                     0.245876
    215 H                     0.251865
    216 H                     0.261794
    217 S                     0.965258
    218 C                    -0.802703
    219 H                     0.263034
    220 H                     0.275541
    221 H                     0.231212
    222 O                    -0.726582
    223 C                    -1.027400
    224 H                     0.306313
    225 H                     0.229355
    226 H                     0.293152
    227 S                     0.653919
    228 C                    -0.741407
    229 H                     0.310969
    230 H                     0.270056
    231 H                     0.244803
    232 O                    -0.584715
    233 C                    -0.941897
    234 H                     0.259594
    235 H                     0.255413
    236 H                     0.227114
    237 S                     1.026320
    238 C                    -0.806161
    239 H                     0.223611
    240 H                     0.315287
    241 H                     0.243098
    242 O                    -0.711201
    243 C                    -1.144226
    244 H                     0.256142
    245 H                     0.289744
    246 H                     0.295860
    247 S                     1.244598
    248 C                    -1.193405
    249 H                     0.293920
    250 H                     0.279622
    251 H                     0.287871
    252 O                    -0.674437
    253 C                    -1.177903
    254 H                     0.266620
    255 H                     0.259951
    256 H                     0.271536
    257 S                     1.508880
    258 C                    -1.259205
    259 H                     0.245764
    260 H                     0.328704
    261 H                     0.250108
    262 O                    -0.690505
    263 C                    -0.884988
    264 H                     0.242653
[...]
    2  -0.1803960  -1.6128947   0.9942878   0.3403187   0.7778659   2.0447258
    3   1.0982532   0.7279722   2.5950105  -0.6068750   1.3780167   0.6395036
          229         230         231         232         233         234
    1  -1.7388269  -3.9873189  -3.6138908  -0.6204721  -2.4088923  -0.5615703
    2   2.8072868   1.1060753   1.8372445  -0.1899398  -1.8378304  -2.9519015
    3   0.5701761  -1.0435791   2.4775821  -1.8093726   2.1833577   2.9181716
          235         236         237         238         239         240
    1  -2.5646344  -3.2726636  -2.0127588  -0.7262972  -2.3794440   0.7880691
    2  -0.2346825  -2.2707014  -0.9689084  -2.9378197  -2.3228417  -2.4017650
    3   3.2316560   0.3450824   0.9729894   0.4947915  -1.0223082   0.5246074
          241         242         243         244         245         246
    1  -0.9460582   0.4044771   3.5295592   4.2593742   2.4688872   3.5601060
    2  -3.9099940  -0.4554975   0.8526372   1.9688270   1.0491141  -0.8709594
    3   1.8174830   3.6154430  -0.1144003  -0.8258645   1.5199512  -0.9366563
          247         248         249         250         251         252
    1   1.6713134   1.0835979  -0.4138169   2.4996602   1.7441011   2.2568969
    2   1.2785485  -0.5511385  -0.0988611  -0.8296258  -0.9025119   1.9435542
    3  -0.1823639  -0.7116245  -0.7661462  -2.5661480   0.6365590  -3.3110218
          253         254         255         256         257         258
    1  -0.0116119  -1.8337862   0.3106209   1.4460102  -0.5333487  -0.5272128
    2  -3.1320875  -3.1433692  -3.0924025  -3.3415190  -1.3102717  -1.1409017
    3  -1.7462276  -1.0388203  -3.4272974  -0.6645213  -0.4655142  -2.3457951
          259         260         261         262         263         264
    1  -1.0624202   1.3378786  -1.6900309   2.6519339   0.8125998   1.0074910
    2   0.3808423  -1.8237455  -2.8367254  -0.7284685  -3.4353516  -3.1971418
    3  -1.1411135  -3.1646169  -2.7836160  -0.6640967  -0.1529062  -2.2671229
          265         266         267         268         269         270
    1   2.0928002  -0.6820444   0.1692278  -0.8832738  -1.3507001   0.9660851
    2  -2.6211376  -4.1809428  -1.8962339  -2.1297910  -3.5786913  -1.9297627
    3   0.9576544   0.6366742  -0.6190104   1.7090636   2.1018451   1.9300236
          271         272         273         274         275         276
    1  -2.1881908  -2.7660256  -0.8108930   0.7695750  -2.5400899  -0.4328994
    2  -0.8759552  -2.5796735  -0.0103171  -1.3485711   0.5155617   0.6747951
    3   0.9871342  -1.5222340  -0.0405440   0.1905716   1.3084931  -1.4565564
          277         278         279         280         281         282
    1   0.0306018   1.5982967   0.6940672   1.8361130   1.8169813  -1.6602105
    2   1.8400446   0.5332184  -0.9437064   0.3247453   2.2317962   1.5049105
    3   0.6314514   0.8952899   1.6331039  -1.2125547   2.0944743   3.6340065
          283         284         285         286         287         288
    1   0.8131327   1.2154638   0.7020396   0.3098193  -1.1246500  -1.6983120
    2  -1.1973572  -1.0989236  -3.0519352   0.2433069  -1.9194877  -1.2444399
    3  -2.8874401  -1.5147418  -3.4027214  -4.3979758  -1.7564141  -3.4115974
          289         290         291         292         293         294
    1  -0.5404917  -3.3787475  -0.6644494  -1.8123670   1.2212154   0.1204537
    2  -2.9301002  -1.0224163   0.6027922   1.3812440   1.1512516   1.4430155
    3  -3.2884324  -2.4254105  -4.1723952  -1.8175998   0.1248348   1.4279860
          295         296         297         298         299         300
    1   3.3480419   0.3679398   0.5358709   2.6266738   4.3103431   1.8456708
    2   1.4138861   0.1846263  -0.1985723   0.6314287   0.6364948   1.9804637
    3  -0.0828692  -1.4004727   1.5491810   2.5972742   1.1936956   2.6257780
          301         302
    1   2.1164014   2.8341904
    2  -0.7267000  -1.5076715
    3   3.6508457  -0.1775473
 EField
            1           2           3           4           5           6
    1  -0.0022360  -0.0015533  -0.0010037  -0.0005339  -0.0003455  -0.0017058
    2  -0.0040495  -0.0013376  -0.0004640  -0.0026885  -0.0055003  -0.0039588
    3  -0.0050171  -0.0082727  -0.0034531  -0.0008217  -0.0016863  -0.0034876
            7           8           9          10          11          12
    1  -0.0036925  -0.0018473  -0.0008786  -0.0049029  -0.0053433   0.0010772
    2   0.0011512  -0.0046824  -0.0075516  -0.0043612  -0.0044044   0.0023466
    3  -0.0095272  -0.0102959  -0.0043342  -0.0036342  -0.0017343   0.0032822
           13          14          15          16          17          18
    1  -0.0031500   0.0005442  -0.0013107  -0.0034759   0.0037459  -0.0046942
    2  -0.0061002  -0.0054817  -0.0059363   0.0018537   0.0025277  -0.0013419
    3  -0.0051303   0.0024873  -0.0022603  -0.0034009   0.0058531  -0.0173078
           19          20          21          22          23          24
    1   0.0008192  -0.0043950  -0.0072520   0.0003432   0.0054371   0.0051934
    2   0.0069745  -0.0058222  -0.0096606  -0.0044721  -0.0044806  -0.0297743
    3  -0.0357337  -0.0115120  -0.0090682  -0.0085636  -0.0000445   0.0212800
           25          26          27          28          29          30
    1   0.0188320   0.0327600  -0.0261790  -0.0056110  -0.0032864  -0.0279398
    2  -0.0137314   0.0027970   0.0041557  -0.0048114  -0.0288691   0.0138240
    3  -0.0250157   0.0150920   0.0563723  -0.0051092   0.0170097  -0.0094857
           31          32          33          34          35          36
    1   0.0145929   0.0242359   0.0030312   0.0228368  -0.0240724  -0.0206855
    2  -0.0044345   0.0854228   0.0079231   0.0261524   0.0024266   0.0057815
    3  -0.0261710  -0.0631422   0.0017433  -0.0063085  -0.0170847   0.0262484
           37          38          39          40          41          42
    1  -0.0365848   0.0106471  -0.0104484   0.0009638   0.0193293   0.0762064
    2  -0.0455211   0.0027768  -0.0001347  -0.0325123   0.0308610   0.0054671
    3   0.0052507   0.0084517   0.0334437   0.0076456  -0.0068901  -0.0784857
           43          44          45          46          47          48
    1   0.0071533   0.0079747   0.0165594   0.0143960  -0.0212709  -0.0010015
    2   0.0030971  -0.0230107  -0.0131660   0.0259731  -0.0500584   0.0078702
    3  -0.0002547   0.0206156  -0.0304410   0.0165113  -0.0277856  -0.0015200
           49          50          51          52          53          54
    1  -0.0284512   0.0051322   0.0032983  -0.0222309  -0.0011341   0.0209146
    2   0.0076746   0.0283076  -0.0062841   0.0233726   0.0077458  -0.0070896
    3   0.0028998   0.0163981  -0.0300973   0.1051569  -0.0012122  -0.0255868
           55          56          57          58          59          60
    1  -0.0074051   0.0283076   0.0209628  -0.0069480   0.0098898  -0.0257505
    2   0.0242415   0.0112293  -0.0551541  -0.0010393  -0.0025331  -0.0180158
    3  -0.0223303   0.0154757  -0.0040788  -0.0061723  -0.0357134   0.0155024
           61          62          63          64          65          66
    1  -0.0105512  -0.0411086   0.0073886   0.0301433   0.0070764  -0.0040034
    2   0.0264007   0.0351871   0.0030952  -0.0135037   0.0247622   0.0188016
    3   0.0039705   0.0966932   0.0004661   0.0027508  -0.0205302   0.0267514
           67          68          69          70          71          72
    1  -0.0485967  -0.0000423  -0.0016282  -0.0236560   0.0315468   0.0441097
    2   0.0241696  -0.0048527   0.0061441  -0.0146669  -0.0096130  -0.0729629
    3  -0.0024689   0.0060593   0.0378809   0.0112735   0.0028041  -0.0688441
           73          74          75          76          77          78
    1  -0.0095103  -0.0150706  -0.0122957  -0.0065696   0.0283044   0.0013857
    2   0.0028716   0.0143079  -0.0288859   0.0145329  -0.0174823   0.0073166
    3   0.0022382  -0.0248204  -0.0038811   0.0310916   0.0428667   0.0004392
           79          80          81          82          83          84
    1  -0.0171741  -0.0106382   0.0278545   0.0096612  -0.0068489  -0.0252847
    2   0.0069081   0.0206853   0.0069162  -0.0427205   0.0028462  -0.0053700
    3  -0.0248199   0.0268647  -0.0182340  -0.1017754  -0.0008347  -0.0181017
           85          86          87          88          89          90
    1  -0.0073045  -0.0157838   0.0364603   0.0037642  -0.0262268   0.0038810
    2   0.0153758   0.0421317   0.0261829  -0.0043286  -0.0119836   0.0165756
    3   0.0257817  -0.0182125   0.0072922  -0.0045790  -0.0010180  -0.0338648
           91          92          93          94          95          96
    1   0.0274377  -0.0430837  -0.0046326  -0.0280918   0.0111804  -0.0053069
    2  -0.0169040  -0.0781043   0.0050194  -0.0119929   0.0156451   0.0338772
    3  -0.0165513   0.0645840  -0.0002327  -0.0069801   0.0258200  -0.0251269
           97          98          99         100         101         102
    1   0.0464039  -0.0096226   0.0000285   0.0182168  -0.0291090  -0.0427284
    2   0.0127609  -0.0049026   0.0114887  -0.0218784  -0.0008674  -0.0547855
    3  -0.0072251  -0.0062776  -0.0308461  -0.0084213   0.0113047   0.0858288
          103         104         105         106         107         108
    1  -0.0027758  -0.0210666   0.0240539  -0.0101660   0.0414523  -0.0057104
    2   0.0034010  -0.0203884  -0.0055735   0.0326105   0.0191525   0.0015739
    3   0.0069058   0.0151770   0.0217597  -0.0064494  -0.0298695  -0.0037375
          109         110         111         112         113         114
    1  -0.0230472  -0.0142238   0.0030622  -0.0053383  -0.0016114  -0.0265814
    2   0.0022586   0.0287941  -0.0193766  -0.1053708   0.0040355   0.0089665
    3   0.0193696  -0.0147075  -0.0265602   0.0333989   0.0086518  -0.0114687
          115         116         117         118         119         120
    1  -0.0063410   0.0045750   0.0079577  -0.0049941   0.0102975  -0.0031006
    2  -0.0313148   0.0286334   0.0415766  -0.0061940  -0.0140783  -0.0210582
    3   0.0060799   0.0253414  -0.0275420  -0.0042531  -0.0290240   0.0213986
          121         122         123         124         125         126
    1  -0.0263464   0.0716803   0.0048087   0.0108311   0.0206835  -0.0028620
    2   0.0130145  -0.0660826  -0.0053471  -0.0207274   0.0191741  -0.0161412
    3  -0.0174937   0.0495227   0.0018622  -0.0234768   0.0142350   0.0309610
          127         128         129         130         131         132
    1  -0.0274195  -0.0052189  -0.0202871  -0.0297996   0.0237591   0.0383672
    2   0.0304281  -0.0083468  -0.0203282   0.0136489  -0.0123174   0.0418117
    3   0.0390670  -0.0042693   0.0209327  -0.0043235  -0.0221489  -0.0948291
          133         134         135         136         137         138
    1   0.0079827   0.0022209   0.0103099   0.0170946  -0.0338906  -0.0023770
    2  -0.0014951   0.0106146   0.0208167  -0.0237273   0.0494765  -0.0018660
    3  -0.0033161  -0.0335149   0.0190737   0.0199016  -0.0119634   0.0076146
          139         140         141         142         143         144
    1   0.0023040  -0.0245080   0.0134496  -0.0137040  -0.0039487   0.0214020
    2   0.0276501  -0.0108555  -0.0250061  -0.1002396   0.0065058   0.0262921
    3   0.0159929   0.0160763   0.0066254  -0.0386844  -0.0034746   0.0018185
          145         146         147         148         149         150
    1  -0.0072346  -0.0339881   0.0101684   0.0039849  -0.0072836   0.0266944
    2  -0.0074790  -0.0021504   0.0105646  -0.0013157  -0.0113720   0.0188910
    3  -0.0296938   0.0031994   0.0488060  -0.0044778  -0.0311998   0.0069935
          151         152         153         154         155         156
    1   0.0188353  -0.0622127   0.0059269   0.0102186   0.0230047  -0.0003737
    2  -0.0309094  -0.0827290  -0.0093026  -0.0141249   0.0094767  -0.0066100
    3  -0.0078613  -0.0394090   0.0006520  -0.0370353  -0.0048347   0.0377064
          157         158         159         160         161         162
    1  -0.0145392  -0.0056730  -0.0162726  -0.0342589   0.0217604   0.0367496
    2   0.0278260  -0.0057471  -0.0149732   0.0070631  -0.0096002   0.0405497
    3   0.0405883  -0.0040312   0.0295356  -0.0047860  -0.0318328  -0.0965388
          163         164         165         166         167         168
    1   0.0073883   0.0074949   0.0263131   0.0262828  -0.0034425  -0.0042543
    2  -0.0013786   0.0309588  -0.0136653  -0.0076604  -0.0538419   0.0032752
    3   0.0013954  -0.0029418   0.0150461  -0.0246999  -0.0247358  -0.0040444
          169         170         171         172         173         174
    1   0.0119093  -0.0286102  -0.0006933  -0.0432997   0.0042612   0.0314617
    2  -0.0015583   0.0005128   0.0268252   0.0338901   0.0027231  -0.0043798
    3  -0.0328939  -0.0172388   0.0159634   0.0910887  -0.0055645   0.0070555
          175         176         177         178         179         180
    1  -0.0047001  -0.0145771  -0.0547233   0.0023325  -0.0111704   0.0307524
    2   0.0049024   0.0259601  -0.0016132  -0.0018149  -0.0229328   0.0103265
    3  -0.0352705   0.0026931  -0.0030938   0.0109250   0.0285233   0.0004538
          181         182         183         184         185         186
    1  -0.0069266   0.0673319  -0.0009258   0.0050409   0.0109167  -0.0298796
    2   0.0327069  -0.0853770   0.0052932   0.0203557   0.0009027   0.0014275
    3   0.0066396  -0.0091876  -0.0019787   0.0218686  -0.0271111  -0.0176711
          187         188         189         190         191         192
    1   0.0020201  -0.0005380  -0.0265453   0.0083144   0.0096431   0.0846447
    2  -0.0468149   0.0005942  -0.0105918  -0.0192729   0.0238437   0.0403536
    3  -0.0249379   0.0083136  -0.0093366   0.0240479   0.0172479   0.0705104
          193         194         195         196         197         198
    1  -0.0127408  -0.0140803  -0.0100871  -0.0137117   0.0144105   0.0017766
    2   0.0042013  -0.0299537   0.0133759   0.0191855  -0.0294262   0.0095173
    3  -0.0023357  -0.0090710   0.0320073  -0.0257937   0.0523059  -0.0031061
          199         200         201         202         203         204
    1  -0.0103461   0.0318599  -0.0139864   0.0277359   0.0001577  -0.0240791
    2   0.0150036   0.0038174   0.0130832  -0.0316983   0.0065872   0.0253065
    3   0.0277995   0.0089446  -0.0272809  -0.0961604   0.0046363   0.0031914
          205         206         207         208         209         210
    1  -0.0090740   0.0302929   0.0383621  -0.0015205  -0.0075660  -0.0180521
    2  -0.0134664   0.0072680  -0.0475276   0.0043974  -0.0101906   0.0290189
    3   0.0249052   0.0074437   0.0023877  -0.0076938  -0.0307536   0.0004473
          211         212         213         214         215         216
    1   0.0296874  -0.1097006   0.0057393  -0.0172513   0.0260368   0.0169305
    2  -0.0005047  -0.0129956  -0.0002938  -0.0093285   0.0206732  -0.0240616
    3  -0.0112062   0.0088545  -0.0055063  -0.0240886  -0.0117697   0.0079945
          217         218         219         220         221         222
    1  -0.0433117   0.0072501   0.0279852   0.0027647  -0.0077792  -0.0166333
    2   0.0379355   0.0034668  -0.0191873   0.0337552   0.0069381  -0.0961405
    3  -0.0166584   0.0047989   0.0012475   0.0011087   0.0218108   0.0476396
          223         224         225         226         227         228
    1  -0.0045833   0.0104207  -0.0098400  -0.0175844   0.0328374  -0.0051837
    2  -0.0087671  -0.0314559   0.0039683   0.0028600   0.0093984   0.0083886
    3  -0.0009421   0.0105269   0.0285652  -0.0282259   0.0398270  -0.0018396
          229         230         231         232         233         234
    1   0.0057973  -0.0141584  -0.0186954   0.0234999  -0.0019211   0.0172462
    2   0.0325006  -0.0072678   0.0114540  -0.0295943  -0.0050306  -0.0257918
    3  -0.0074834  -0.0277416   0.0267445  -0.1035337   0.0061210   0.0118357
          235         236         237         238         239         240
    1  -0.0167848  -0.0269187  -0.0228765   0.0050935  -0.0126404   0.0314210
    2   0.0253342  -0.0195488   0.0330876  -0.0056679  -0.0200484   0.0057640
    3   0.0159494  -0.0110403  -0.0353368  -0.0036313  -0.0359474  -0.0032228
          241         242         243         244         245         246
    1   0.0001490   0.0763123   0.0092947   0.0166369   0.0035891   0.0164161
    2  -0.0269629   0.0323830  -0.0085976   0.0264378  -0.0016066  -0.0336423
    3   0.0123777   0.0726478   0.0046789  -0.0174943   0.0355253   0.0004231
          247         248         249         250         251         252
    1  -0.0365433  -0.0038120  -0.0399733   0.0171724   0.0031322   0.0073654
    2   0.0341474  -0.0139847   0.0048580  -0.0060677  -0.0183326   0.0317648
    3   0.0373864  -0.0040674   0.0030404  -0.0302562   0.0249814  -0.1050467
          253         254         255         256         257         258
    1   0.0000465  -0.0308068   0.0085758   0.0253252  -0.0365423   0.0007515
    2  -0.0115111  -0.0119066   0.0021183  -0.0087652   0.0152178   0.0011326
    3   0.0005711   0.0099236  -0.0335153   0.0166436   0.0408155  -0.0080343
          259         260         261         262         263         264
    1  -0.0110496   0.0371774  -0.0346759   0.1042724   0.0023882   0.0140632
    2   0.0292682   0.0098557  -0.0112427   0.0306283  -0.0076705  -0.0114222
    3  -0.0035403  -0.0076494  -0.0108099   0.0012332  -0.0000625  -0.0284515
          265         266         267         268         269         270
    1   0.0271240  -0.0196103   0.0326823   0.0015119  -0.0162994   0.0252666
    2   0.0046070  -0.0215761   0.0437648   0.0041425  -0.0253369   0.0174328
    3   0.0183019   0.0146826  -0.0169208   0.0083975   0.0104971   0.0254865
          271         272         273         274         275         276
    1  -0.0199990  -0.1000372  -0.0060922  -0.0022170  -0.0261048  -0.0009634
    2   0.0244167  -0.0193515  -0.0050596  -0.0291761  -0.0009142   0.0160241
    3   0.0090039  -0.0430121  -0.0084261   0.0007515   0.0149437  -0.0307087
          277         278         279         280         281         282
    1   0.0027243   0.0034872   0.0057593   0.0196763   0.0161004  -0.0515616
    2   0.0563835   0.0014602  -0.0203968  -0.0003990   0.0223572  -0.0047227
    3  -0.0305267   0.0067998   0.0270765  -0.0220229   0.0184125   0.0976288
          283         284         285         286         287         288
    1   0.0115338   0.0235038   0.0131975   0.0087099  -0.0055951  -0.0018069
    2   0.0005599   0.0116250  -0.0343177   0.0355735  -0.0415712   0.0007060
    3  -0.0036557   0.0161445  -0.0068966  -0.0125750   0.0348112  -0.0063761
          289         290         291         292         293         294
    1   0.0068705  -0.0304572   0.0010507  -0.0198373   0.0029286  -0.0174231
    2  -0.0284997   0.0037266   0.0255537   0.1053935   0.0040669   0.0209715
    3  -0.0157368  -0.0015463  -0.0212715   0.0210957  -0.0050888   0.0129119
          295         296         297         298         299         300
    1   0.0366414  -0.0181451  -0.0444818   0.0072533   0.0265235  -0.0099943
    2   0.0129478  -0.0111378  -0.0140209   0.0023671  -0.0051975   0.0242895
    3   0.0047913  -0.0240434   0.0229762   0.0068657  -0.0283490   0.0251801
          301         302
    1  -0.0030847   0.0692852
    2  -0.0109627  -0.0645705
    3   0.0355152  -0.0558023
  --- DONE ESP SUMMARY ---
 Total job time:  37.37s(wall), 105.79s(cpu) 
 Thu Jul 21 09:34:11 2022

        *************************************************************
        *                                                           *
        *  Thank you very much for using Q-Chem.  Have a nice day.  *
        *                                                           *
        *************************************************************


