                  Welcome to Q-Chem
     A Quantum Leap Into The Future Of Chemistry


 Q-Chem 5.2 (devel), Q-Chem, Inc., Pleasanton, CA (2019)

 Yihan Shao,  Zhengting Gan,  E. Epifanovsky,  A. T. B. Gilbert,  M. Wormit,  
 J. Kussmann,  A. W. Lange,  A. Behn,  Jia Deng,  Xintian Feng,  D. Ghosh,  
 M. Goldey,  P. R. Horn,  L. D. Jacobson,  I. Kaliman,  T. Kus,  A. Landau,  
 Jie Liu,  E. I. Proynov,  R. M. Richard,  R. P. Steele,  E. J. Sundstrom,  
 H. L. Woodcock III,  P. M. Zimmerman,  D. Zuev,  B. Alam,  B. Albrecht,  
 E. Alguire,  S. A. Baeppler,  D. Barton,  Z. Benda,  Y. A. Bernard,  
 E. J. Berquist,  K. B. Bravaya,  H. Burton,  K. Carter-Fenk,  D. Casanova,  
 Chun-Min Chang,  Yunqing Chen,  A. Chien,  K. D. Closser,  M. P. Coons,  
 S. Coriani,  S. Dasgupta,  A. L. Dempwolff,  M. Diedenhofen,  Hainam Do,  
 R. G. Edgar,  Po-Tung Fang,  S. Faraji,  S. Fatehi,  Qingguo Feng,  
 J. Fosso-Tande,  J. Gayvert,  Qinghui Ge,  A. Ghysels,  G. Gidofalvi,  
 J. Gomes,  J. Gonthier,  A. Gunina,  D. Hait,  M. W. D. Hanson-Heine,  
 P. H. P. Harbach,  A. W. Hauser,  M. F. Herbst,  J. E. Herr,  
 E. G. Hohenstein,  Z. C. Holden,  Kerwin Hui,  B. C. Huynh,  T.-C. Jagau,  
 Hyunjun Ji,  B. Kaduk,  K. Khistyaev,  Jaehoon Kim,  P. Klunzinger,  K. Koh,  
 D. Kosenkov,  L. Koulias,  T. Kowalczyk,  C. M. Krauter,  A. Kunitsa,  
 Ka Un Lao,  A. Laurent,  K. V. Lawler,  Joonho Lee,  D. Lefrancois,  
 S. Lehtola,  D. S. Levine,  Yi-Pei Li,  You-Sheng Lin,  Fenglai Liu,  
 Kuan-Yu Liu,  E. Livshits,  M. Loipersberger,  A. Luenser,  P. Manohar,  
 E. Mansoor,  S. F. Manzer,  Shan-Ping Mao,  Yuezhi Mao,  N. Mardirossian,  
 A. V. Marenich,  T. Markovich,  L. A. Martinez-Martinez,  S. A. Maurer,  
 N. J. Mayhall,  S. C. McKenzie,  J.-M. Mewes,  P. Morgante,  A. F. Morrison,  
 J. W. Mullinax,  K. Nanda,  T. S. Nguyen-Beck,  R. Olivares-Amaya,  
 J. A. Parkhill,  S. K. Paul,  F. Pavosevic,  Zheng Pei,  T. M. Perrine,  
 F. Plasser,  P. Pokhilko,  S. Prager,  A. Prociuk,  E. Ramos,  B. Rana,  
 D. R. Rehn,  F. Rob,  M. Scheurer,  M. Schneider,  N. Sergueev,  
 S. M. Sharada,  S. Sharma,  D. W. Small,  T. Stauch,  C. J. Stein,  
 T. Stein,  Yu-Chuan Su,  S. P. Veccham,  Zhen Tao,  A. J. W. Thom,  
 A. Tkatchenko,  T. Tsuchimochi,  N. M. Tubman,  L. Vogt,  M. L. Vidal,  
 O. Vydrov,  M. A. Watson,  J. Wenzel,  M. de Wergifosse,  T. A. Wesolowski,  
 A. White,  J. Witte,  A. Yamada,  Jun Yang,  K. Yao,  S. Yeganeh,  
 S. R. Yost,  Zhi-Qiang You,  A. Zech,  Igor Ying Zhang,  Xing Zhang,  
 Yan Zhao,  Ying Zhu,  B. R. Brooks,  G. K. L. Chan,  C. J. Cramer,  
 M. S. Gordon,  W. J. Hehre,  A. Klamt,  M. W. Schmidt,  C. D. Sherrill,  
 D. G. Truhlar,  A. Aspuru-Guzik,  R. Baer,  A. T. Bell,  N. A. Besley,  
 Jeng-Da Chai,  A. E. DePrince, III,  R. A. DiStasio Jr.,  A. Dreuw,  
 B. D. Dunietz,  T. R. Furlani,  Chao-Ping Hsu,  Yousung Jung,  Jing Kong,  
 D. S. Lambrecht,  WanZhen Liang,  C. Ochsenfeld,  V. A. Rassolov,  
 L. V. Slipchenko,  J. E. Subotnik,  T. Van Voorhis,  J. M. Herbert,  
 A. I. Krylov,  P. M. W. Gill,  M. Head-Gordon

 Contributors to earlier versions of Q-Chem not listed above: 
 R. D. Adamson,  B. Austin,  J. Baker,  G. J. O. Beran,  K. Brandhorst,  
 S. T. Brown,  E. F. C. Byrd,  A. K. Chakraborty,  C.-L. Cheng,  
 Siu Hung Chien,  D. M. Chipman,  D. L. Crittenden,  H. Dachsel,  
 R. J. Doerksen,  A. D. Dutoi,  L. Fusti-Molnar,  W. A. Goddard III,  
 A. Golubeva-Zadorozhnaya,  S. R. Gwaltney,  G. Hawkins,  A. Heyden,  
 S. Hirata,  G. Kedziora,  F. J. Keil,  C. Kelley,  Jihan Kim,  R. A. King,  
 R. Z. Khaliullin,  P. P. Korambath,  W. Kurlancheek,  A. M. Lee,  M. S. Lee,  
 S. V. Levchenko,  Ching Yeh Lin,  D. Liotard,  R. C. Lochan,  I. Lotan,  
 P. E. Maslen,  N. Nair,  D. P. O'Neill,  D. Neuhauser,  E. Neuscamman,  
 C. M. Oana,  R. Olson,  B. Peters,  R. Peverati,  P. A. Pieniazek,  
 Y. M. Rhee,  J. Ritchie,  M. A. Rohrdanz,  E. Rosta,  N. J. Russ,  
 H. F. Schaefer III,  N. E. Schultz,  N. Shenvi,  A. C. Simmonett,  A. Sodt,  
 D. Stuck,  K. S. Thanthiriwatte,  V. Vanovschi,  Tao Wang,  A. Warshel,  
 C. F. Williams,  Q. Wu,  X. Xu,  W. Zhang

 Please cite Q-Chem as follows:
 Y. Shao et al., Mol. Phys. 113, 184-215 (2015)
 DOI: 10.1080/00268976.2014.952696

 Q-Chem 5.2.2 for Intel X86 EM64T Linux

 Parts of Q-Chem use Armadillo 9.800.1 (Horizon Scraper).
 http://arma.sourceforge.net/

 Q-Chem begins on Fri Dec  3 02:37:40 2021  

Host: node007
0

     Scratch files written to /home/ymao90/scratch/r7.00_frame_0009_spade_B3LYP_dp20211203023730//

Checking the input file for inconsistencies... 	...done.

--------------------------------------------------------------
User input:
--------------------------------------------------------------
$molecule
0 1
--
0 1
C    20.32700   19.39300   27.73200  
C    21.55900   19.48800   28.64700  
C    22.85200   19.97500   27.97300  
C    22.53000   21.17400   27.06600  
C    21.44400   20.93400   26.00400  
C    20.14700   20.54900   26.73400  
H    23.55600   20.33100   28.73500  
H    21.24600   20.26300   29.35600  
H    20.28000   18.39700   27.27600  
H    19.41000   19.33300   28.33100  
H    22.18200   21.97300   27.73200  
H    23.44700   21.55800   26.60300  
H    21.19700   21.82800   25.41700  
H    21.80900   20.27900   25.20300  
H    19.96300   21.38100   27.42400  
H    19.32900   20.46800   26.00800  
H    23.40900   19.22100   27.40300  
N    21.81000   18.26100   29.40200  
H    21.31100   17.42100   29.13500  
C    22.19300   18.28800   30.72700  
H    21.89600   17.33900   31.20800  
O    22.82400   19.19400   31.24200  
--
0 1
C    25.84400   23.71900   27.51600  
H    26.19700   23.15200   28.38100  
H    24.91400   23.28300   27.14100  
H    26.67600   23.80900   26.81300  
S    25.59000   25.44300   27.99200  
C    24.63900   26.08600   26.59600  
H    23.57700   25.83000   26.61600  
H    24.70100   27.17700   26.62300  
H    25.15700   25.74300   25.69700  
O    26.93700   26.08600   27.87100  
C    16.83100   21.92000   24.63000  
H    17.03400   21.26900   23.77600  
H    17.26700   21.48600   25.53300  
H    15.77100   22.01300   24.87600  
S    17.53100   23.54300   24.25000  
C    17.43200   24.16000   25.94600  
H    18.14500   23.56000   26.51700  
H    17.89400   25.15000   25.91100  
H    16.42300   24.29100   26.34600  
O    16.47800   24.25600   23.46100  
C    18.36500   18.70300   23.23400  
H    18.95100   19.38200   23.85900  
H    18.98900   18.00800   22.66700  
H    17.73700   19.22900   22.51000  
S    17.11900   17.84500   24.22200  
C    18.21500   16.66900   25.04700  
H    18.87600   17.19500   25.74100  
H    17.58800   15.88800   25.48600  
H    18.75800   16.24700   24.19700  
O    16.37500   16.98400   23.25000  
C    25.67800   15.18000   30.55900  
H    25.70700   16.09800   31.15200  
H    24.64200   14.83300   30.54200  
H    26.28400   14.35800   30.94700  
S    26.12800   15.53900   28.84600  
C    24.91700   16.87200   28.69800  
H    25.08900   17.39200   27.75300  
H    23.86900   16.56100   28.72400  
H    25.07600   17.60600   29.49200  
O    25.62000   14.37400   28.05400  
C    22.48600   13.54200   32.55700  
H    21.48500   13.23500   32.87100  
H    22.78000   14.54000   32.89300  
H    22.51500   13.53100   31.46500  
S    23.43300   12.14500   33.20300  
C    25.06200   12.34300   32.44600  
H    25.45900   13.33100   32.69100  
H    25.76800   11.56600   32.74800  
H    24.99000   12.34600   31.35500  
O    22.88300   10.94200   32.50100  
C    30.23700   18.81100   30.00700  
H    31.15600   18.28300   30.27400  
H    30.05800   18.72400   28.93200  
H    30.31200   19.86500   30.28700  
S    28.88400   18.05900   30.93800  
C    29.02900   16.55200   29.95200  
H    28.74000   16.72300   28.91200  
H    29.95900   15.98300   30.03400  
H    28.32500   15.82700   30.37000  
O    27.60200   18.56500   30.35200  
C    25.09300   20.12000   37.13500  
H    25.88400   20.33000   37.86000  
H    24.23300   19.61900   37.58700  
H    25.43700   19.46000   36.33400  
S    24.47500   21.59200   36.29000  
C    24.10200   22.52600   37.79100  
H    23.38600   21.94300   38.37500  
H    24.99300   22.63900   38.41400  
H    23.81400   23.53500   37.48200  
O    23.18500   21.21000   35.63200  
C    20.34000   20.95700   33.11500  
H    21.18600   20.63400   32.50200  
H    20.36900   22.04800   33.18200  
H    20.34500   20.52500   34.11900  
S    18.79500   20.33600   32.41300  
C    17.95000   20.26000   34.00900  
H    18.62500   19.62100   34.58400  
H    17.97300   21.17900   34.59900  
H    16.89000   19.99200   34.01000  
O    18.91300   18.87700   32.09700  
C    15.77700   19.82100   29.31300  
H    15.48300   19.59000   28.28600  
H    16.42400   19.00200   29.63800  
H    14.85500   19.82900   29.89900  
S    16.75500   21.32900   29.49400  
C    15.57700   22.57900   28.93200  
H    14.65400   22.40500   29.49100  
H    15.98800   23.56300   29.16900  
H    15.51200   22.51700   27.84300  
O    17.79000   21.33200   28.41200  
C    21.15900   13.44000   26.42300  
H    21.70600   13.33400   27.36300  
H    20.53700   14.32900   26.55900  
H    20.55500   12.55300   26.21400  
S    22.14400   13.70700   24.93100  
C    22.79600   15.29200   25.50500  
H    23.31300   15.72600   24.64600  
H    21.97800   15.91900   25.87000  
H    23.48900   15.00400   26.29900  
O    21.10000   13.99500   23.89700  
C    25.40100   21.09900   31.29500  
H    24.59900   20.54200   30.80400  
H    25.70600   21.92000   30.64300  
H    26.19900   20.39400   31.54300  
S    24.75900   21.75400   32.85200  
C    23.48500   22.84100   32.17400  
H    23.09100   22.52900   31.20300  
H    22.70700   22.85000   32.94200  
H    23.90400   23.85000   32.15300  
O    25.85600   22.71500   33.18900  
C    14.91200   16.44600   26.23600  
H    14.92600   17.52900   26.38100  
H    15.71500   15.91800   26.75800  
H    14.96400   16.33700   25.15000  
S    13.33100   15.98500   26.97900  
C    13.74700   16.52000   28.65300  
H    13.12600   15.98600   29.37700  
H    14.81000   16.33000   28.82300  
H    13.47900   17.57800   28.71000  
O    13.36900   14.49300   27.10200  
C    14.07000   22.36200   21.22700  
H    13.57700   21.87600   20.38100  
H    13.65200   21.92700   22.13900  
H    13.90000   23.44100   21.24200  
S    15.84600   22.02800   21.23600  
C    16.19500   22.81900   19.65000  
H    17.22400   22.62600   19.33800  
H    15.53800   22.42800   18.86800  
H    16.07200   23.89800   19.77600  
O    15.82500   20.57400   20.88100  
C    20.21600   23.33900   30.34200  
H    20.23200   22.49200   29.65100  
H    20.78200   23.25200   31.27300  
H    19.17600   23.66200   30.44400  
S    21.09900   24.71700   29.57700  
C    20.38500   24.46800   27.93600  
H    20.81500   25.25000   27.30500  
H    20.75500   23.55900   27.45400  
H    19.30800   24.65500   27.94200  
O    22.48700   24.20600   29.34300  
C    17.17700   13.50000   34.51100  
H    16.43800   14.00900   33.88600  
H    17.69100   12.83300   33.81500  
H    16.75100   12.95700   35.35900  
S    18.23800   14.83200   35.11600  
C    18.35900   15.79200   33.58900  
H    18.40000   16.86300   33.80300  
H    19.31300   15.44200   33.18500  
H    17.52100   15.51600   32.94400  
O    19.56000   14.13500   35.19000  
C    22.95000   17.48200   34.39700  
H    22.74600   17.12200   33.38500  
H    22.32600   16.92400   35.10000  
H    22.86100   18.56800   34.47400  
S    24.65600   17.00000   34.74600  
C    25.31100   18.08500   33.45900  
H    24.85700   17.70400   32.54000  
H    24.94800   19.10800   33.59000  
H    26.39300   17.94300   33.40100  
O    24.66200   15.61400   34.18000  
C    22.85700   22.97200   23.59700  
H    22.95600   23.52600   24.53400  
H    23.14700   21.94000   23.81200  
H    23.49800   23.44200   22.84700  
S    21.15500   23.13800   23.01200  
C    21.18500   21.52500   22.19900  
H    20.13900   21.37700   21.91900  
H    21.85800   21.69300   21.35400  
H    21.50400   20.73200   22.88100  
O    21.33100   24.15600   21.92900  
C    21.34800   19.30700   37.52900  
H    21.57300   19.53500   36.48400  
H    20.28100   19.47000   37.70300  
H    21.94900   19.90700   38.21700  
S    21.72100   17.56800   37.84700  
C    20.24300   16.81800   37.12600  
H    19.31000   17.06800   37.63700  
H    20.04900   17.22000   36.12800  
H    20.28800   15.72600   37.13000  
O    21.73200   17.49600   39.34200  
C    28.27000   25.53600   24.31400  
H    27.50200   26.26100   24.03200  
H    28.22300   25.39700   25.39700  
H    29.26300   25.92500   24.07400  
S    27.70200   23.99900   23.55300  
C    27.79300   24.63500   21.86400  
H    26.86000   25.12700   21.58000  
H    28.62300   25.33900   21.76200  
H    27.97100   23.86300   21.11100  
O    26.25300   23.95200   23.92400  
C    24.75200   19.64200   21.88000  
H    23.86700   20.17700   21.52600  
H    25.36300   20.26800   22.53600  
H    25.40100   19.28400   21.07600  
S    24.15200   18.15400   22.71100  
C    22.88100   17.78000   21.48300  
H    23.39600   17.65400   20.52700  
H    22.23300   16.91900   21.67000  
H    22.18400   18.62000   21.54200  
O    23.42400   18.74600   23.87700  
C    19.87600   27.51800   23.38500  
H    19.82300   26.43300   23.26300  
H    19.35200   27.96300   22.53600  
H    20.95600   27.53400   23.21900  
S    19.20400   28.05000   24.97600  
C    19.35500   29.84100   24.79000  
H    19.97900   30.26800   25.58000  
H    19.78500   30.02300   23.80200  
H    18.37700   30.32700   24.75800  
O    20.26900   27.65500   25.95100  
C    25.97800   20.65300   25.06800  
H    26.75300   20.98300   24.37200  
H    24.96300   20.41300   24.73900  
H    26.06300   21.37100   25.88700  
S    26.46300   19.10600   25.86600  
C    27.41700   19.79800   27.23500  
H    28.35300   20.16600   26.80700  
H    26.80600   20.46100   27.85300  
H    27.69100   19.02600   27.96000  
O    27.55700   18.56900   24.99600  
C    25.62300   13.08200   24.85300  
H    24.89100   13.58900   25.48700  
H    25.04300   12.30600   24.34700  
H    26.44300   12.67200   25.44600  
S    26.10200   14.20600   23.52100  
C    26.58400   15.56500   24.60900  
H    26.08200   15.40600   25.56700  
H    27.65500   15.73500   24.74600  
H    26.25400   16.47300   24.09800  
O    24.79500   14.59000   22.89900  
C    17.83700   11.59600   25.78600  
H    17.46100   10.93300   25.00200  
H    18.66500   12.18600   25.38500  
H    18.07600   11.07700   26.71800  
S    16.55200   12.77300   26.26100  
C    16.53100   13.32100   24.53900  
H    17.51600   13.67800   24.22800  
H    16.30300   12.49900   23.85500  
H    15.83500   14.16100   24.47300  
O    17.27600   13.89900   26.93200  
C    18.89400   16.40300   30.41900  
H    19.56300   16.22000   31.26300  
H    18.94600   17.43800   30.07100  
H    17.88000   16.06800   30.65400  
S    19.47400   15.43800   29.00600  
C    19.38200   13.75400   29.65500  
H    20.13800   13.20500   29.08700  
H    19.68300   13.81300   30.70500  
H    18.34300   13.42600   29.57000  
O    20.95700   15.61800   29.10500  
C    11.89800   19.53400   25.98800  
H    10.87400   19.52300   26.37000  
H    11.85900   19.71900   24.91100  
H    12.44300   18.59000   26.06800  
S    13.00500   20.67500   26.84600  
C    12.35100   22.17600   26.08200  
H    13.11700   22.95400   26.03300  
H    12.00500   21.96600   25.06600  
H    11.50000   22.51600   26.67800  
O    14.29500   20.68500   26.08700  
$end

$rem
JOBTYPE  SP
METHOD  B3LYP
BASIS  6-31+G(D)
SYMMETRY  FALSE
SYM_IGNORE  TRUE
MEM_TOTAL  16000
MEM_STATIC  8000
MAX_SUB_FILE_NUM  16000
BASIS_LIN_DEP_THRESH  6
THRESH  14
SCF_CONVERGENCE  8
GEN_SCFMAN  TRUE
SCF_GUESS  SAD
FD_MAT_VEC_PROD  FALSE
XC_GRID  000075000302
NL_GRID  1
MAX_SCF_CYCLES  200
ENV_METHOD  B3LYP
GEN_SCFMAN_EMBED  TRUE
SPADE_PARTITION  TRUE
$end

$development
embedding_early_stop  1
$end

--------------------------------------------------------------
 ----------------------------------------------------------------
             Standard Nuclear Orientation (Angstroms)
    I     Atom           X                Y                Z
 ----------------------------------------------------------------
    1      C      20.3270000000    19.3930000000    27.7320000000
    2      C      21.5590000000    19.4880000000    28.6470000000
    3      C      22.8520000000    19.9750000000    27.9730000000
    4      C      22.5300000000    21.1740000000    27.0660000000
    5      C      21.4440000000    20.9340000000    26.0040000000
    6      C      20.1470000000    20.5490000000    26.7340000000
    7      H      23.5560000000    20.3310000000    28.7350000000
    8      H      21.2460000000    20.2630000000    29.3560000000
    9      H      20.2800000000    18.3970000000    27.2760000000
   10      H      19.4100000000    19.3330000000    28.3310000000
   11      H      22.1820000000    21.9730000000    27.7320000000
   12      H      23.4470000000    21.5580000000    26.6030000000
   13      H      21.1970000000    21.8280000000    25.4170000000
   14      H      21.8090000000    20.2790000000    25.2030000000
   15      H      19.9630000000    21.3810000000    27.4240000000
   16      H      19.3290000000    20.4680000000    26.0080000000
   17      H      23.4090000000    19.2210000000    27.4030000000
   18      N      21.8100000000    18.2610000000    29.4020000000
   19      H      21.3110000000    17.4210000000    29.1350000000
   20      C      22.1930000000    18.2880000000    30.7270000000
   21      H      21.8960000000    17.3390000000    31.2080000000
   22      O      22.8240000000    19.1940000000    31.2420000000
   23      C      25.8440000000    23.7190000000    27.5160000000
   24      H      26.1970000000    23.1520000000    28.3810000000
   25      H      24.9140000000    23.2830000000    27.1410000000
   26      H      26.6760000000    23.8090000000    26.8130000000
   27      S      25.5900000000    25.4430000000    27.9920000000
   28      C      24.6390000000    26.0860000000    26.5960000000
   29      H      23.5770000000    25.8300000000    26.6160000000
   30      H      24.7010000000    27.1770000000    26.6230000000
   31      H      25.1570000000    25.7430000000    25.6970000000
   32      O      26.9370000000    26.0860000000    27.8710000000
   33      C      16.8310000000    21.9200000000    24.6300000000
   34      H      17.0340000000    21.2690000000    23.7760000000
   35      H      17.2670000000    21.4860000000    25.5330000000
   36      H      15.7710000000    22.0130000000    24.8760000000
   37      S      17.5310000000    23.5430000000    24.2500000000
   38      C      17.4320000000    24.1600000000    25.9460000000
   39      H      18.1450000000    23.5600000000    26.5170000000
   40      H      17.8940000000    25.1500000000    25.9110000000
   41      H      16.4230000000    24.2910000000    26.3460000000
   42      O      16.4780000000    24.2560000000    23.4610000000
   43      C      18.3650000000    18.7030000000    23.2340000000
   44      H      18.9510000000    19.3820000000    23.8590000000
   45      H      18.9890000000    18.0080000000    22.6670000000
   46      H      17.7370000000    19.2290000000    22.5100000000
   47      S      17.1190000000    17.8450000000    24.2220000000
   48      C      18.2150000000    16.6690000000    25.0470000000
   49      H      18.8760000000    17.1950000000    25.7410000000
   50      H      17.5880000000    15.8880000000    25.4860000000
   51      H      18.7580000000    16.2470000000    24.1970000000
   52      O      16.3750000000    16.9840000000    23.2500000000
   53      C      25.6780000000    15.1800000000    30.5590000000
   54      H      25.7070000000    16.0980000000    31.1520000000
   55      H      24.6420000000    14.8330000000    30.5420000000
   56      H      26.2840000000    14.3580000000    30.9470000000
   57      S      26.1280000000    15.5390000000    28.8460000000
   58      C      24.9170000000    16.8720000000    28.6980000000
   59      H      25.0890000000    17.3920000000    27.7530000000
   60      H      23.8690000000    16.5610000000    28.7240000000
   61      H      25.0760000000    17.6060000000    29.4920000000
   62      O      25.6200000000    14.3740000000    28.0540000000
   63      C      22.4860000000    13.5420000000    32.5570000000
   64      H      21.4850000000    13.2350000000    32.8710000000
   65      H      22.7800000000    14.5400000000    32.8930000000
   66      H      22.5150000000    13.5310000000    31.4650000000
   67      S      23.4330000000    12.1450000000    33.2030000000
   68      C      25.0620000000    12.3430000000    32.4460000000
   69      H      25.4590000000    13.3310000000    32.6910000000
   70      H      25.7680000000    11.5660000000    32.7480000000
   71      H      24.9900000000    12.3460000000    31.3550000000
   72      O      22.8830000000    10.9420000000    32.5010000000
   73      C      30.2370000000    18.8110000000    30.0070000000
   74      H      31.1560000000    18.2830000000    30.2740000000
   75      H      30.0580000000    18.7240000000    28.9320000000
   76      H      30.3120000000    19.8650000000    30.2870000000
   77      S      28.8840000000    18.0590000000    30.9380000000
   78      C      29.0290000000    16.5520000000    29.9520000000
   79      H      28.7400000000    16.7230000000    28.9120000000
   80      H      29.9590000000    15.9830000000    30.0340000000
   81      H      28.3250000000    15.8270000000    30.3700000000
   82      O      27.6020000000    18.5650000000    30.3520000000
   83      C      25.0930000000    20.1200000000    37.1350000000
   84      H      25.8840000000    20.3300000000    37.8600000000
   85      H      24.2330000000    19.6190000000    37.5870000000
   86      H      25.4370000000    19.4600000000    36.3340000000
   87      S      24.4750000000    21.5920000000    36.2900000000
   88      C      24.1020000000    22.5260000000    37.7910000000
   89      H      23.3860000000    21.9430000000    38.3750000000
   90      H      24.9930000000    22.6390000000    38.4140000000
   91      H      23.8140000000    23.5350000000    37.4820000000
   92      O      23.1850000000    21.2100000000    35.6320000000
   93      C      20.3400000000    20.9570000000    33.1150000000
   94      H      21.1860000000    20.6340000000    32.5020000000
   95      H      20.3690000000    22.0480000000    33.1820000000
   96      H      20.3450000000    20.5250000000    34.1190000000
   97      S      18.7950000000    20.3360000000    32.4130000000
   98      C      17.9500000000    20.2600000000    34.0090000000
   99      H      18.6250000000    19.6210000000    34.5840000000
  100      H      17.9730000000    21.1790000000    34.5990000000
  101      H      16.8900000000    19.9920000000    34.0100000000
  102      O      18.9130000000    18.8770000000    32.0970000000
  103      C      15.7770000000    19.8210000000    29.3130000000
  104      H      15.4830000000    19.5900000000    28.2860000000
  105      H      16.4240000000    19.0020000000    29.6380000000
  106      H      14.8550000000    19.8290000000    29.8990000000
  107      S      16.7550000000    21.3290000000    29.4940000000
  108      C      15.5770000000    22.5790000000    28.9320000000
  109      H      14.6540000000    22.4050000000    29.4910000000
  110      H      15.9880000000    23.5630000000    29.1690000000
  111      H      15.5120000000    22.5170000000    27.8430000000
  112      O      17.7900000000    21.3320000000    28.4120000000
  113      C      21.1590000000    13.4400000000    26.4230000000
  114      H      21.7060000000    13.3340000000    27.3630000000
  115      H      20.5370000000    14.3290000000    26.5590000000
  116      H      20.5550000000    12.5530000000    26.2140000000
  117      S      22.1440000000    13.7070000000    24.9310000000
  118      C      22.7960000000    15.2920000000    25.5050000000
  119      H      23.3130000000    15.7260000000    24.6460000000
  120      H      21.9780000000    15.9190000000    25.8700000000
  121      H      23.4890000000    15.0040000000    26.2990000000
  122      O      21.1000000000    13.9950000000    23.8970000000
  123      C      25.4010000000    21.0990000000    31.2950000000
  124      H      24.5990000000    20.5420000000    30.8040000000
  125      H      25.7060000000    21.9200000000    30.6430000000
  126      H      26.1990000000    20.3940000000    31.5430000000
  127      S      24.7590000000    21.7540000000    32.8520000000
  128      C      23.4850000000    22.8410000000    32.1740000000
  129      H      23.0910000000    22.5290000000    31.2030000000
  130      H      22.7070000000    22.8500000000    32.9420000000
  131      H      23.9040000000    23.8500000000    32.1530000000
  132      O      25.8560000000    22.7150000000    33.1890000000
  133      C      14.9120000000    16.4460000000    26.2360000000
  134      H      14.9260000000    17.5290000000    26.3810000000
  135      H      15.7150000000    15.9180000000    26.7580000000
  136      H      14.9640000000    16.3370000000    25.1500000000
  137      S      13.3310000000    15.9850000000    26.9790000000
  138      C      13.7470000000    16.5200000000    28.6530000000
  139      H      13.1260000000    15.9860000000    29.3770000000
  140      H      14.8100000000    16.3300000000    28.8230000000
  141      H      13.4790000000    17.5780000000    28.7100000000
  142      O      13.3690000000    14.4930000000    27.1020000000
  143      C      14.0700000000    22.3620000000    21.2270000000
  144      H      13.5770000000    21.8760000000    20.3810000000
  145      H      13.6520000000    21.9270000000    22.1390000000
  146      H      13.9000000000    23.4410000000    21.2420000000
  147      S      15.8460000000    22.0280000000    21.2360000000
  148      C      16.1950000000    22.8190000000    19.6500000000
  149      H      17.2240000000    22.6260000000    19.3380000000
  150      H      15.5380000000    22.4280000000    18.8680000000
  151      H      16.0720000000    23.8980000000    19.7760000000
  152      O      15.8250000000    20.5740000000    20.8810000000
  153      C      20.2160000000    23.3390000000    30.3420000000
  154      H      20.2320000000    22.4920000000    29.6510000000
  155      H      20.7820000000    23.2520000000    31.2730000000
  156      H      19.1760000000    23.6620000000    30.4440000000
  157      S      21.0990000000    24.7170000000    29.5770000000
  158      C      20.3850000000    24.4680000000    27.9360000000
  159      H      20.8150000000    25.2500000000    27.3050000000
  160      H      20.7550000000    23.5590000000    27.4540000000
  161      H      19.3080000000    24.6550000000    27.9420000000
  162      O      22.4870000000    24.2060000000    29.3430000000
  163      C      17.1770000000    13.5000000000    34.5110000000
  164      H      16.4380000000    14.0090000000    33.8860000000
  165      H      17.6910000000    12.8330000000    33.8150000000
  166      H      16.7510000000    12.9570000000    35.3590000000
  167      S      18.2380000000    14.8320000000    35.1160000000
  168      C      18.3590000000    15.7920000000    33.5890000000
  169      H      18.4000000000    16.8630000000    33.8030000000
  170      H      19.3130000000    15.4420000000    33.1850000000
  171      H      17.5210000000    15.5160000000    32.9440000000
  172      O      19.5600000000    14.1350000000    35.1900000000
  173      C      22.9500000000    17.4820000000    34.3970000000
  174      H      22.7460000000    17.1220000000    33.3850000000
  175      H      22.3260000000    16.9240000000    35.1000000000
  176      H      22.8610000000    18.5680000000    34.4740000000
  177      S      24.6560000000    17.0000000000    34.7460000000
  178      C      25.3110000000    18.0850000000    33.4590000000
  179      H      24.8570000000    17.7040000000    32.5400000000
  180      H      24.9480000000    19.1080000000    33.5900000000
  181      H      26.3930000000    17.9430000000    33.4010000000
  182      O      24.6620000000    15.6140000000    34.1800000000
  183      C      22.8570000000    22.9720000000    23.5970000000
  184      H      22.9560000000    23.5260000000    24.5340000000
  185      H      23.1470000000    21.9400000000    23.8120000000
  186      H      23.4980000000    23.4420000000    22.8470000000
  187      S      21.1550000000    23.1380000000    23.0120000000
  188      C      21.1850000000    21.5250000000    22.1990000000
  189      H      20.1390000000    21.3770000000    21.9190000000
  190      H      21.8580000000    21.6930000000    21.3540000000
  191      H      21.5040000000    20.7320000000    22.8810000000
  192      O      21.3310000000    24.1560000000    21.9290000000
  193      C      21.3480000000    19.3070000000    37.5290000000
  194      H      21.5730000000    19.5350000000    36.4840000000
  195      H      20.2810000000    19.4700000000    37.7030000000
  196      H      21.9490000000    19.9070000000    38.2170000000
  197      S      21.7210000000    17.5680000000    37.8470000000
  198      C      20.2430000000    16.8180000000    37.1260000000
  199      H      19.3100000000    17.0680000000    37.6370000000
  200      H      20.0490000000    17.2200000000    36.1280000000
  201      H      20.2880000000    15.7260000000    37.1300000000
  202      O      21.7320000000    17.4960000000    39.3420000000
  203      C      28.2700000000    25.5360000000    24.3140000000
  204      H      27.5020000000    26.2610000000    24.0320000000
  205      H      28.2230000000    25.3970000000    25.3970000000
  206      H      29.2630000000    25.9250000000    24.0740000000
  207      S      27.7020000000    23.9990000000    23.5530000000
  208      C      27.7930000000    24.6350000000    21.8640000000
  209      H      26.8600000000    25.1270000000    21.5800000000
  210      H      28.6230000000    25.3390000000    21.7620000000
  211      H      27.9710000000    23.8630000000    21.1110000000
  212      O      26.2530000000    23.9520000000    23.9240000000
  213      C      24.7520000000    19.6420000000    21.8800000000
  214      H      23.8670000000    20.1770000000    21.5260000000
  215      H      25.3630000000    20.2680000000    22.5360000000
  216      H      25.4010000000    19.2840000000    21.0760000000
  217      S      24.1520000000    18.1540000000    22.7110000000
  218      C      22.8810000000    17.7800000000    21.4830000000
  219      H      23.3960000000    17.6540000000    20.5270000000
  220      H      22.2330000000    16.9190000000    21.6700000000
  221      H      22.1840000000    18.6200000000    21.5420000000
  222      O      23.4240000000    18.7460000000    23.8770000000
  223      C      19.8760000000    27.5180000000    23.3850000000
  224      H      19.8230000000    26.4330000000    23.2630000000
  225      H      19.3520000000    27.9630000000    22.5360000000
  226      H      20.9560000000    27.5340000000    23.2190000000
  227      S      19.2040000000    28.0500000000    24.9760000000
  228      C      19.3550000000    29.8410000000    24.7900000000
  229      H      19.9790000000    30.2680000000    25.5800000000
  230      H      19.7850000000    30.0230000000    23.8020000000
  231      H      18.3770000000    30.3270000000    24.7580000000
  232      O      20.2690000000    27.6550000000    25.9510000000
  233      C      25.9780000000    20.6530000000    25.0680000000
  234      H      26.7530000000    20.9830000000    24.3720000000
  235      H      24.9630000000    20.4130000000    24.7390000000
  236      H      26.0630000000    21.3710000000    25.8870000000
  237      S      26.4630000000    19.1060000000    25.8660000000
  238      C      27.4170000000    19.7980000000    27.2350000000
  239      H      28.3530000000    20.1660000000    26.8070000000
  240      H      26.8060000000    20.4610000000    27.8530000000
  241      H      27.6910000000    19.0260000000    27.9600000000
  242      O      27.5570000000    18.5690000000    24.9960000000
  243      C      25.6230000000    13.0820000000    24.8530000000
  244      H      24.8910000000    13.5890000000    25.4870000000
  245      H      25.0430000000    12.3060000000    24.3470000000
  246      H      26.4430000000    12.6720000000    25.4460000000
  247      S      26.1020000000    14.2060000000    23.5210000000
  248      C      26.5840000000    15.5650000000    24.6090000000
  249      H      26.0820000000    15.4060000000    25.5670000000
  250      H      27.6550000000    15.7350000000    24.7460000000
  251      H      26.2540000000    16.4730000000    24.0980000000
  252      O      24.7950000000    14.5900000000    22.8990000000
  253      C      17.8370000000    11.5960000000    25.7860000000
  254      H      17.4610000000    10.9330000000    25.0020000000
  255      H      18.6650000000    12.1860000000    25.3850000000
  256      H      18.0760000000    11.0770000000    26.7180000000
  257      S      16.5520000000    12.7730000000    26.2610000000
  258      C      16.5310000000    13.3210000000    24.5390000000
  259      H      17.5160000000    13.6780000000    24.2280000000
  260      H      16.3030000000    12.4990000000    23.8550000000
  261      H      15.8350000000    14.1610000000    24.4730000000
  262      O      17.2760000000    13.8990000000    26.9320000000
  263      C      18.8940000000    16.4030000000    30.4190000000
  264      H      19.5630000000    16.2200000000    31.2630000000
  265      H      18.9460000000    17.4380000000    30.0710000000
  266      H      17.8800000000    16.0680000000    30.6540000000
  267      S      19.4740000000    15.4380000000    29.0060000000
  268      C      19.3820000000    13.7540000000    29.6550000000
  269      H      20.1380000000    13.2050000000    29.0870000000
  270      H      19.6830000000    13.8130000000    30.7050000000
  271      H      18.3430000000    13.4260000000    29.5700000000
  272      O      20.9570000000    15.6180000000    29.1050000000
  273      C      11.8980000000    19.5340000000    25.9880000000
  274      H      10.8740000000    19.5230000000    26.3700000000
  275      H      11.8590000000    19.7190000000    24.9110000000
  276      H      12.4430000000    18.5900000000    26.0680000000
  277      S      13.0050000000    20.6750000000    26.8460000000
  278      C      12.3510000000    22.1760000000    26.0820000000
  279      H      13.1170000000    22.9540000000    26.0330000000
  280      H      12.0050000000    21.9660000000    25.0660000000
  281      H      11.5000000000    22.5160000000    26.6780000000
  282      O      14.2950000000    20.6850000000    26.0870000000
 ----------------------------------------------------------------
 Nuclear Repulsion Energy =       44579.02070159 hartrees
 There are      581 alpha and      581 beta electrons
 Requested basis set is 6-31+G(d)
 There are 929 shells and 2589 basis functions

 Total QAlloc Memory Limit  16000 MB
 Mega-Array Size      7821 MB
 MEM_STATIC part      8000 MB
 A cutoff of  1.0D-14 yielded 163714 shell pairs
 There are   1413672 function pairs
 Smallest overlap matrix eigenvalue = 6.79E-07
 Linear dependence detected in AO basis
 Tighter screening thresholds may be required for diffuse basis sets
 Use S2THRESH > 14 and THRESH = 14 in case of SCF convergence issues
 Number of orthogonalized atomic orbitals = 2587
 Maximum deviation from orthogonality = 1.683E-10

 Scale SEOQF with 1.000000e-03/1.000000e-03/1.000000e-03

 Standard Electronic Orientation quadrupole field applied
 Nucleus-field energy     =    -0.0000004991 hartrees
 Guess from superposition of atomic densities
 Warning:  Energy on first SCF cycle will be non-variational
 SAD guess density has 1162.000002 electrons

 -----------------------------------------------------------------------
  General SCF calculation program by
  Eric Jon Sundstrom, Paul Horn, Yuezhi Mao, Dmitri Zuev, Alec White,
  David Stuck, Shaama M.S., Shane Yost, Joonho Lee, David Small,
  Daniel Levine, Susi Lehtola, Hugh Burton, Evgeny Epifanovsky,
  Bang C. Huynh
 -----------------------------------------------------------------------
=================================================
        Doing projection-based embedding         
      F. Manby et al. JCTC, 8, 2564 (2012)       
=================================================

****************************************************
   Low-level SCF calculation for the whole system   
****************************************************
----------------------------------------------
 Summary of the low-level theory: 
 Exchange:     0.2000 Hartree-Fock + 0.0800 Slater + 0.7200 B88
 Correlation:  0.1900 VWN1RPA + 0.8100 LYP
 Using Euler-Maclaurin-Lebedev (75,302) quadrature formula
----------------------------------------------
 using 16 threads for integral computing
 -------------------------------------------------------
 OpenMP Integral computing Module                
 Release: version 2.0, May 2017, Q-Chem Inc. Pleasanton 
 -------------------------------------------------------
 A restricted SCF calculation will be
 performed using DIIS
 SCF converges when DIIS error is below 1.0e-08
 ---------------------------------------
  Cycle       Energy         DIIS error
 ---------------------------------------
    1  -14806.0177536763      1.37e-02  
    2  -14782.9116272236      2.54e-03  
    3  -14769.1772023159      4.96e-03  
    4  -14786.5201777392      1.13e-03  
    5  -14787.5364234214      1.87e-04  
    6  -14787.5503926263      1.44e-04  
    7  -14787.5631189383      5.68e-05  
    8  -14787.5653517638      1.10e-05  
    9  -14787.5654290480      4.96e-06  
   10  -14787.5654451843      1.86e-06  
   11  -14787.5654473781      5.62e-07  
   12  -14787.5654475726      2.14e-07  
   13  -14787.5654476026      6.25e-08  
   14  -14787.5654476048      2.97e-08  
   15  -14787.5654476053      7.65e-09  Convergence criterion met
 ---------------------------------------
 SCF time:   CPU 160253.23s  wall 10099.00s 
 SCF   energy in the final basis set =   -14787.5654476053
 Total energy in the final basis set =   -14787.5654476053

****************************************************
             Start embedding calculation            
****************************************************
----------------------------------------------
 Summary of the high-level theory: 
 Exchange:     0.2000 Hartree-Fock + 0.0800 Slater + 0.7200 B88
 Correlation:  0.1900 VWN1RPA + 0.8100 LYP
 Using Euler-Maclaurin-Lebedev (75,302) quadrature formula
----------------------------------------------
Doing R-in-R Embedding Calculation
Number of fragments: 2
Embedded fragment(s): 1 
NOcc for each fragment
           35
          546
NBasis for each fragment
          197
         2392
Variational space of the embedded problem: 
NOcc (active)  = 35
NOcc (fixed)   = 546
NVir (total)   = 2006
Read converged orbitals from disk
=========================================================
       Doing SPADE partition for the orbital space       
     D. CLaudino and N. Mayhall JCTC 15, 1053 (2019)     
=========================================================
SPADE singular values:
 1.0000 1.0000 1.0000 1.0000 1.0000 1.0000 1.0000 1.0000 1.0000 0.9999
 0.9998 0.9997 0.9996 0.9995 0.9995 0.9993 0.9989 0.9988 0.9983 0.9978
 0.9970 0.9961 0.9958 0.9952 0.9943 0.9940 0.9937 0.9936 0.9921 0.9912
 0.9892 0.9889 0.9871 0.9837 0.9786 0.2221 0.2013 0.1844 0.1730 0.1556
 0.1452 0.1420 0.1332 0.1167 0.1115 0.1102 0.0941 0.0925 0.0811 0.0791
 0.0639 0.0619 0.0520 0.0507 0.0475 0.0450 0.0418 0.0403 0.0371 0.0352
 0.0343 0.0304 0.0292 0.0279 0.0257 0.0247 0.0230 0.0229 0.0214 0.0202
 0.0190 0.0183 0.0176 0.0158 0.0147 0.0142 0.0132 0.0130 0.0118 0.0116
 0.0111 0.0104 0.0098 0.0095 0.0088 0.0087 0.0077 0.0075 0.0071 0.0070
 0.0065 0.0062 0.0059 0.0055 0.0055 0.0051 0.0048 0.0044 0.0043 0.0041
 0.0037 0.0036 0.0033 0.0032 0.0031 0.0031 0.0030 0.0027 0.0025 0.0024
 0.0023 0.0022 0.0021 0.0020 0.0019 0.0018 0.0018 0.0017 0.0016 0.0016
 0.0015 0.0014 0.0014 0.0014 0.0012 0.0012 0.0012 0.0011 0.0011 0.0011
 0.0010 0.0010 0.0010 0.0009 0.0009 0.0008 0.0008 0.0008 0.0007 0.0007
 0.0007 0.0006 0.0006 0.0006 0.0006 0.0005 0.0005 0.0005 0.0005 0.0004
 0.0004 0.0004 0.0004 0.0004 0.0004 0.0003 0.0003 0.0003 0.0003 0.0003
 0.0003 0.0003 0.0002 0.0002 0.0002 0.0002 0.0002 0.0002 0.0002 0.0002
 0.0002 0.0002 0.0002 0.0002 0.0002 0.0002 0.0001 0.0001 0.0001 0.0001
 0.0001 0.0001 0.0001 0.0001 0.0001 0.0001 0.0001 0.0001 0.0001 0.0001
 0.0001 0.0001 0.0001 0.0001 0.0001 0.0001 0.0000
Early stop requested!
546 environment occs will be part of frozen-core in future post-HF calculations
 
 --------------------------------------------------------------
 
                    Orbital Energies (a.u.)
 --------------------------------------------------------------
 
 Alpha MOs
 -- Occupied --
 -0.5161  -0.5210  -0.5180  -0.5163  -0.4887  -0.5053  -0.4572  -0.5260
 -0.4830  -0.4856  -0.4761  -0.4509  -0.4469  -0.4621  -0.4586  -0.4450
 -0.4828  -0.4821  -0.5018  -0.4704  -0.4562  -0.4738  -0.4895  -0.6362
 -0.6143  -0.5996  -0.5775  -0.5774  -0.6341  -0.5536  -0.5321  -0.5737
 -0.5931  -0.5707  -0.6146  -0.4929  -0.5499  -0.7234  -0.5744  -0.5732
 -0.5463  -0.6000  -0.5996  -0.5723  -0.5922  -0.5574  -0.5913  -0.5743
 -0.5094  -0.5655  -0.5811  -0.5869  -0.6413  -0.5698  -0.6047  -0.5940
 -0.6682  -0.6761  -0.6067  -0.5695  -0.6770  -0.5913  -0.5965  -0.7479
 -0.6270  -0.7052  -0.8147  -0.8406  -0.8616  -1.1099  -0.8521  -0.8947
 -0.7686  -1.0116  -0.8510  -1.1876  -1.1524  -0.8880  -0.7921  -1.0718
 -1.2019  -1.1991  -1.0274  -1.0694  -1.1171  -1.0340  -1.2424  -1.3344
 -1.2837  -1.7091  -1.1425  -1.0923  -1.3084  -1.3573  -1.4269  -1.5092
 -1.1836  -2.5846  -1.6817  -1.5078  -1.2267  -0.9106  -1.4033  -2.7122
 -1.6998  -1.7311  -1.6541  -1.3220  -1.4753  -1.1020  -1.4667  -2.0631
 -1.2794  -1.5902  -2.4091  -1.3198  -1.8998  -1.6661  -2.6229  -1.5868
 -1.8721  -1.3369  -1.2075  -2.2096  -1.3121  -1.3411  -1.8795  -1.2582
 -1.6514  -1.5609  -1.6759  -2.1853  -1.6608  -1.7814  -1.6574  -1.5537
 -1.7160  -1.5205  -1.8665  -1.5035  -2.0707  -1.4453  -2.2017  -1.2970
 -1.9240  -1.7321  -1.3272  -1.7807  -2.1204  -1.9814  -1.3779  -1.4739
 -1.6212  -1.4579  -2.1591  -2.2797  -2.1801  -1.7340  -1.5835  -2.2478
 -2.6687  -2.0070  -5.9960  -5.9516  -6.0478  -5.9906  -5.9782  -5.4367
 -5.9725  -5.7613  -5.9318  -5.9743  -5.9682  -5.9677  -5.9577  -5.9356
 -5.9541  -5.7629  -5.9663  -5.9328  -5.9566  -5.9221  -1.7243 -23.7135
-15.2735 -27.7109  -2.7305 -19.1385  -2.0763  -1.9876  -1.5623 -17.1663
 -1.6235  -1.7914 -13.9344  -3.6224  -1.2550  -7.8140 -10.1270  -1.7578
 -5.1901  -7.2990  -1.5978  -6.1455  -1.8437  -4.3896  -4.2287  -2.3004
 -1.3653 -74.4147  -6.0540  -2.2464 -61.3798 -31.2056  -2.3247  -1.3053
 -1.7758  -1.2815  -1.6387 -12.2439 -13.7679  -3.7559  -1.2671  -2.0259
 -7.6964  -3.6694 -13.7231 -10.4665  -7.9871 -13.7010  -1.4052 -15.4270
 -3.0250  -7.0190  -1.7767  -9.5741  -1.6977  -7.7336  -1.2949  -7.2108
-74.5607 -68.5614 -10.0323  -1.3900 -14.9477  -1.5416  -1.4366 -14.7643
 -1.5305  -1.0775  -1.0531  -4.1041 -12.7823  -4.8275  -1.2627  -7.4035
-11.6530  -8.8995 -10.3766  -5.7860  -3.9655  -2.8782  -6.9633  -3.0007
 -2.1766  -1.7189 -28.2658 -29.7537 -23.1990  -2.2276  -3.8046  -1.4108
 -4.2845 -60.6491  -1.0889  -1.3823 -17.9158 -10.9351  -2.1259  -7.7671
 -5.8454  -2.0563 -12.1092  -8.1120  -3.2944  -8.2928  -7.4860  -9.1949
-11.1473 -14.6289  -4.3780  -4.5651 -42.1107  -4.3709 -56.7603 -60.2691
 -7.5396  -1.4341  -3.0743 -15.7961 -14.9718  -4.3528  -1.4350 -11.9376
 -7.5351  -3.4237  -1.3118 -14.0879  -8.9165 -34.2443 -22.2886 -12.9075
 -9.4590 -25.0206  -3.8777  -2.6361  -3.4054 -12.3336  -6.2370  -7.7901
 -3.9610  -3.0108 -12.4982  -8.6454  -3.9820  -1.1899 -15.3825 -12.5122
 -2.0171  -8.2066  -2.5605 -13.0594  -7.6535  -9.3591  -3.0994  -3.1659
 -4.0664  -6.0658  -5.9725  -6.5868  -3.1426 -14.4218  -5.4021  -1.4421
 -4.7770  -7.7858  -9.1142  -2.3362  -5.3244  -3.6207 -14.4858  -6.3383
-10.8297  -5.0499  -6.9449  -5.4977  -5.6301  -8.7074  -5.6176  -9.7924
-12.6784  -3.7374  -6.6417  -6.2699 -10.0395 -12.0619  -7.2466 -18.9571
-15.3660 -10.5338  -4.6235  -4.9911 -18.4654  -5.9544 -16.1212 -10.3114
 -5.7555 -12.9736  -3.4035  -6.0786  -2.6755  -1.8108 -21.6751  -6.7811
 -4.9345 -17.3367  -7.3133 -12.9973 -13.4242 -28.0675  -5.0923  -8.2081
 -0.9416  -9.9847  -2.4492  -1.8966  -4.7402 -14.8356 -11.7315 -11.5451
 -3.1600  -8.1248 -12.3832  -9.0016  -4.4613  -8.4948  -7.1874 -10.7303
 -7.2701  -7.9204  -5.9642 -15.0027  -2.3028  -6.5836 -12.4881  -3.3704
 -9.7052 -14.5882  -8.0752  -7.1822  -6.9082  -8.0709 -18.2415  -6.5487
 -4.9988  -3.9842  -0.9487 -14.3927  -7.5546 -40.8850 -13.1637  -4.2034
 -6.5864  -3.3022 -15.1719  -3.2100  -5.6355  -2.7351  -8.0657  -2.7008
-10.1142  -6.3555 -15.6625  -1.4679 -12.8017  -7.0540 -10.6353  -9.1236
-11.9636  -6.0090  -8.3666  -5.6551 -24.8158  -8.4375 -14.1456 -10.4709
 -2.0639 -29.6489  -8.3537 -36.8723 -19.9512 -10.5352 -15.0302  -6.6338
 -5.4730 -12.8157  -8.8552  -5.9264  -7.7062  -6.7407  -2.4431  -8.3223
 -6.1553  -7.4326  -4.6544  -5.7699  -1.7038  -8.3767  -9.8315 -54.0924
 -6.6669  -9.3624 -12.4377 -70.1925  -6.0367  -2.8665  -5.1480  -7.4987
 -1.4545 -72.7607 -72.8316 -31.8410 -61.7991 -12.2708 -48.5147  -2.3995
 -5.4999  -2.8776 -36.4884  -3.6519  -2.7445  -9.3590  -4.1564 -10.2591
 -2.7578  -3.1881  -5.7882  -9.2152 -45.7773  -5.1799  -9.0566 -20.7653
 -9.5937  -5.3240  -8.2084 -17.5151 -42.1152 -50.2952  -4.2627  -4.2374
-12.2658  -9.3680  -4.1660  -4.4141  -2.6066  -4.8262  -8.3162 -23.2260
 -3.3602 -13.2864  -9.5648  -9.0784  -2.6841  -2.9489 -11.5807 -12.3312
-12.0346  -5.6599 -15.7182  -6.0246 -14.3592  -6.8657 -10.4805  -6.8146
 -8.5987  -4.1384 -10.4823 -10.5074 -10.8822 -13.0360 -14.0647 -13.2712
-10.4199 -11.1457 -10.2038  -0.8315  -0.7610  -0.8252  -0.6893  -0.7193
 -0.6808  -0.8575  -0.5536  -0.4314  -0.4650  -0.4421  -0.4692  -0.4437
 -0.4623  -0.4813  -0.4232  -0.4464  -0.3833  -0.3993  -0.4048  -0.4232
 -0.5096  -0.4376  -0.4668  -0.5634  -0.5770
 -- Virtual --
 -0.0433  -0.0411  -0.0316  -0.0277  -0.0245  -0.0202  -0.0192  -0.0176
 -0.0169  -0.0140  -0.0127  -0.0108  -0.0104  -0.0095  -0.0089  -0.0066
 -0.0063  -0.0061  -0.0043  -0.0032  -0.0019  -0.0015  -0.0005  -0.0004
  0.0001   0.0013   0.0023   0.0027   0.0032   0.0036   0.0041   0.0046
  0.0055   0.0069   0.0080   0.0089   0.0093   0.0104   0.0107   0.0115
  0.0118   0.0121   0.0133   0.0135   0.0137   0.0138   0.0159   0.0168
  0.0178   0.0185   0.0197   0.0209   0.0219   0.0225   0.0229   0.0234
  0.0244   0.0253   0.0257   0.0266   0.0274   0.0279   0.0284   0.0287
  0.0298   0.0305   0.0307   0.0320   0.0322   0.0327   0.0332   0.0340
  0.0341   0.0349   0.0356   0.0359   0.0363   0.0369   0.0375   0.0381
  0.0396   0.0397   0.0398   0.0411   0.0415   0.0417   0.0428   0.0431
  0.0435   0.0452   0.0456   0.0459   0.0469   0.0471   0.0475   0.0480
  0.0492   0.0500   0.0502   0.0508   0.0509   0.0518   0.0525   0.0528
  0.0539   0.0548   0.0550   0.0557   0.0560   0.0570   0.0579   0.0585
  0.0600   0.0602   0.0606   0.0613   0.0617   0.0619   0.0627   0.0642
  0.0644   0.0645   0.0654   0.0667   0.0673   0.0680   0.0688   0.0690
  0.0698   0.0705   0.0712   0.0722   0.0725   0.0732   0.0738   0.0741
  0.0744   0.0746   0.0750   0.0763   0.0770   0.0773   0.0787   0.0794
  0.0800   0.0813   0.0821   0.0826   0.0831   0.0837   0.0845   0.0847
  0.0855   0.0857   0.0869   0.0875   0.0880   0.0882   0.0885   0.0893
  0.0899   0.0904   0.0913   0.0919   0.0924   0.0933   0.0942   0.0947
  0.0953   0.0959   0.0966   0.0967   0.0971   0.0974   0.0989   0.0991
  0.0996   0.1008   0.1011   0.1014   0.1019   0.1029   0.1033   0.1041
  0.1044   0.1052   0.1065   0.1076   0.1077   0.1081   0.1090   0.1095
  0.1100   0.1107   0.1109   0.1118   0.1126   0.1132   0.1133   0.1142
  0.1156   0.1161   0.1168   0.1172   0.1178   0.1183   0.1194   0.1199
  0.1206   0.1214   0.1221   0.1223   0.1226   0.1228   0.1236   0.1239
  0.1253   0.1262   0.1267   0.1270   0.1273   0.1283   0.1294   0.1302
  0.1307   0.1313   0.1321   0.1331   0.1337   0.1340   0.1348   0.1355
  0.1359   0.1362   0.1365   0.1367   0.1374   0.1383   0.1389   0.1391
  0.1396   0.1403   0.1409   0.1416   0.1419   0.1425   0.1431   0.1440
  0.1446   0.1448   0.1456   0.1462   0.1466   0.1476   0.1481   0.1490
  0.1499   0.1503   0.1512   0.1514   0.1520   0.1530   0.1534   0.1539
  0.1547   0.1554   0.1561   0.1571   0.1575   0.1576   0.1594   0.1601
  0.1602   0.1604   0.1611   0.1617   0.1623   0.1634   0.1636   0.1641
  0.1648   0.1659   0.1661   0.1664   0.1675   0.1677   0.1684   0.1687
  0.1693   0.1704   0.1713   0.1717   0.1725   0.1732   0.1738   0.1741
  0.1752   0.1756   0.1772   0.1777   0.1780   0.1786   0.1789   0.1797
  0.1799   0.1801   0.1805   0.1813   0.1820   0.1822   0.1828   0.1835
  0.1839   0.1851   0.1859   0.1863   0.1870   0.1876   0.1881   0.1885
  0.1893   0.1894   0.1906   0.1912   0.1917   0.1925   0.1925   0.1934
  0.1937   0.1953   0.1959   0.1963   0.1971   0.1973   0.1981   0.1985
  0.1989   0.1997   0.2009   0.2019   0.2021   0.2023   0.2036   0.2044
  0.2045   0.2060   0.2064   0.2069   0.2071   0.2078   0.2091   0.2092
  0.2100   0.2105   0.2106   0.2120   0.2122   0.2131   0.2137   0.2143
  0.2144   0.2153   0.2155   0.2165   0.2174   0.2178   0.2185   0.2186
  0.2197   0.2202   0.2204   0.2210   0.2219   0.2220   0.2223   0.2234
  0.2246   0.2250   0.2252   0.2256   0.2264   0.2271   0.2280   0.2288
  0.2299   0.2301   0.2304   0.2312   0.2330   0.2333   0.2344   0.2348
  0.2355   0.2363   0.2370   0.2376   0.2383   0.2393   0.2396   0.2401
  0.2404   0.2418   0.2426   0.2430   0.2440   0.2443   0.2451   0.2453
  0.2469   0.2477   0.2480   0.2490   0.2498   0.2507   0.2512   0.2516
  0.2521   0.2529   0.2533   0.2538   0.2551   0.2558   0.2561   0.2569
  0.2570   0.2575   0.2584   0.2590   0.2599   0.2615   0.2616   0.2622
  0.2633   0.2644   0.2657   0.2660   0.2664   0.2675   0.2687   0.2692
  0.2697   0.2704   0.2706   0.2715   0.2720   0.2727   0.2740   0.2746
  0.2752   0.2757   0.2771   0.2779   0.2781   0.2792   0.2798   0.2806
  0.2815   0.2818   0.2832   0.2837   0.2846   0.2857   0.2875   0.2876
  0.2885   0.2887   0.2897   0.2905   0.2909   0.2915   0.2919   0.2930
  0.2949   0.2961   0.2963   0.2974   0.2979   0.2988   0.2993   0.3001
  0.3011   0.3023   0.3033   0.3040   0.3051   0.3053   0.3068   0.3071
  0.3090   0.3092   0.3100   0.3100   0.3111   0.3124   0.3133   0.3140
  0.3144   0.3147   0.3157   0.3162   0.3167   0.3182   0.3199   0.3203
  0.3229   0.3235   0.3242   0.3252   0.3269   0.3275   0.3279   0.3285
  0.3305   0.3307   0.3312   0.3318   0.3325   0.3329   0.3344   0.3359
  0.3364   0.3372   0.3381   0.3393   0.3396   0.3403   0.3419   0.3429
  0.3432   0.3438   0.3447   0.3460   0.3465   0.3470   0.3480   0.3488
  0.3495   0.3510   0.3514   0.3537   0.3544   0.3545   0.3554   0.3562
  0.3570   0.3582   0.3584   0.3597   0.3604   0.3615   0.3632   0.3632
  0.3645   0.3655   0.3661   0.3668   0.3675   0.3685   0.3696   0.3699
  0.3711   0.3716   0.3733   0.3746   0.3756   0.3766   0.3778   0.3787
  0.3792   0.3793   0.3797   0.3816   0.3823   0.3839   0.3848   0.3848
  0.3864   0.3866   0.3877   0.3885   0.3892   0.3894   0.3911   0.3923
  0.3927   0.3933   0.3946   0.3953   0.3957   0.3972   0.3985   0.3990
  0.3996   0.4011   0.4019   0.4024   0.4031   0.4048   0.4055   0.4057
  0.4077   0.4086   0.4096   0.4100   0.4118   0.4129   0.4134   0.4151
  0.4156   0.4170   0.4179   0.4186   0.4199   0.4200   0.4209   0.4214
  0.4224   0.4228   0.4231   0.4252   0.4263   0.4270   0.4288   0.4294
  0.4300   0.4301   0.4319   0.4327   0.4338   0.4344   0.4354   0.4377
  0.4384   0.4393   0.4396   0.4404   0.4413   0.4442   0.4460   0.4476
  0.4484   0.4494   0.4502   0.4511   0.4514   0.4531   0.4547   0.4565
  0.4579   0.4594   0.4601   0.4604   0.4635   0.4643   0.4661   0.4672
  0.4687   0.4694   0.4696   0.4706   0.4719   0.4728   0.4744   0.4762
  0.4773   0.4788   0.4794   0.4810   0.4822   0.4839   0.4850   0.4864
  0.4877   0.4895   0.4897   0.4915   0.4928   0.4950   0.4965   0.4975
  0.4999   0.5007   0.5013   0.5029   0.5032   0.5074   0.5082   0.5092
  0.5106   0.5116   0.5123   0.5140   0.5164   0.5185   0.5200   0.5213
  0.5230   0.5265   0.5275   0.5289   0.5312   0.5320   0.5335   0.5364
  0.5381   0.5404   0.5407   0.5427   0.5452   0.5466   0.5476   0.5485
  0.5500   0.5508   0.5525   0.5535   0.5554   0.5571   0.5582   0.5596
  0.5613   0.5621   0.5629   0.5661   0.5673   0.5688   0.5700   0.5705
  0.5739   0.5756   0.5766   0.5783   0.5796   0.5820   0.5847   0.5848
  0.5861   0.5873   0.5901   0.5908   0.5917   0.5931   0.5950   0.5960
  0.5976   0.5986   0.6002   0.6009   0.6019   0.6038   0.6055   0.6063
  0.6090   0.6094   0.6111   0.6120   0.6123   0.6138   0.6157   0.6169
  0.6182   0.6202   0.6212   0.6220   0.6232   0.6244   0.6254   0.6268
  0.6273   0.6287   0.6301   0.6311   0.6320   0.6324   0.6338   0.6344
  0.6348   0.6371   0.6378   0.6384   0.6396   0.6419   0.6429   0.6445
  0.6448   0.6470   0.6476   0.6491   0.6495   0.6507   0.6514   0.6529
  0.6541   0.6545   0.6552   0.6564   0.6587   0.6592   0.6608   0.6618
  0.6625   0.6632   0.6651   0.6671   0.6677   0.6681   0.6695   0.6709
  0.6714   0.6725   0.6733   0.6749   0.6752   0.6775   0.6786   0.6789
  0.6806   0.6812   0.6815   0.6834   0.6847   0.6870   0.6877   0.6887
  0.6898   0.6909   0.6924   0.6928   0.6941   0.6955   0.6970   0.6973
  0.6990   0.6997   0.7006   0.7011   0.7021   0.7041   0.7053   0.7066
  0.7077   0.7097   0.7098   0.7119   0.7128   0.7148   0.7162   0.7164
  0.7184   0.7194   0.7202   0.7218   0.7228   0.7232   0.7248   0.7268
  0.7282   0.7297   0.7308   0.7319   0.7331   0.7349   0.7361   0.7379
  0.7390   0.7413   0.7415   0.7420   0.7444   0.7450   0.7483   0.7485
  0.7508   0.7516   0.7530   0.7539   0.7579   0.7586   0.7601   0.7629
  0.7638   0.7643   0.7664   0.7685   0.7704   0.7731   0.7744   0.7747
  0.7778   0.7788   0.7811   0.7827   0.7840   0.7856   0.7873   0.7878
  0.7887   0.7911   0.7919   0.7925   0.7940   0.7946   0.7966   0.7983
  0.8008   0.8038   0.8050   0.8054   0.8067   0.8085   0.8101   0.8119
  0.8140   0.8152   0.8170   0.8180   0.8199   0.8202   0.8218   0.8236
  0.8254   0.8277   0.8281   0.8314   0.8320   0.8329   0.8341   0.8354
  0.8364   0.8368   0.8389   0.8394   0.8422   0.8427   0.8460   0.8466
  0.8483   0.8488   0.8499   0.8520   0.8522   0.8544   0.8550   0.8570
  0.8576   0.8595   0.8603   0.8613   0.8623   0.8627   0.8637   0.8642
  0.8653   0.8671   0.8680   0.8690   0.8707   0.8723   0.8731   0.8754
  0.8759   0.8774   0.8788   0.8796   0.8819   0.8826   0.8843   0.8857
  0.8880   0.8888   0.8891   0.8914   0.8928   0.8933   0.8951   0.8965
  0.8965   0.8995   0.9007   0.9017   0.9022   0.9041   0.9069   0.9077
  0.9097   0.9106   0.9114   0.9128   0.9149   0.9160   0.9175   0.9184
  0.9197   0.9202   0.9214   0.9233   0.9240   0.9262   0.9270   0.9281
  0.9287   0.9300   0.9328   0.9334   0.9346   0.9355   0.9362   0.9370
  0.9397   0.9409   0.9421   0.9430   0.9442   0.9450   0.9465   0.9487
  0.9496   0.9502   0.9511   0.9521   0.9532   0.9540   0.9557   0.9568
  0.9578   0.9588   0.9596   0.9608   0.9621   0.9631   0.9641   0.9648
  0.9664   0.9678   0.9684   0.9692   0.9709   0.9719   0.9723   0.9734
  0.9758   0.9764   0.9777   0.9779   0.9790   0.9800   0.9809   0.9816
  0.9824   0.9830   0.9856   0.9863   0.9868   0.9876   0.9887   0.9898
  0.9903   0.9908   0.9926   0.9929   0.9946   0.9953   0.9960   0.9977
  0.9981   0.9991   1.0006   1.0008   1.0032   1.0045   1.0049   1.0054
  1.0069   1.0080   1.0089   1.0096   1.0105   1.0114   1.0121   1.0130
  1.0148   1.0153   1.0170   1.0179   1.0202   1.0206   1.0231   1.0235
  1.0253   1.0255   1.0272   1.0278   1.0286   1.0311   1.0315   1.0339
  1.0349   1.0357   1.0380   1.0384   1.0399   1.0429   1.0438   1.0441
  1.0459   1.0469   1.0482   1.0508   1.0516   1.0519   1.0526   1.0537
  1.0555   1.0576   1.0590   1.0612   1.0621   1.0653   1.0656   1.0677
  1.0690   1.0701   1.0707   1.0735   1.0745   1.0760   1.0780   1.0792
  1.0796   1.0829   1.0834   1.0860   1.0875   1.0890   1.0896   1.0900
  1.0920   1.0933   1.0959   1.0976   1.1000   1.1012   1.1027   1.1051
  1.1058   1.1080   1.1094   1.1113   1.1118   1.1144   1.1164   1.1177
  1.1186   1.1190   1.1208   1.1220   1.1239   1.1247   1.1254   1.1275
  1.1284   1.1308   1.1320   1.1328   1.1340   1.1347   1.1354   1.1392
  1.1412   1.1414   1.1426   1.1443   1.1456   1.1465   1.1484   1.1492
  1.1501   1.1505   1.1512   1.1521   1.1530   1.1562   1.1566   1.1581
  1.1594   1.1610   1.1615   1.1623   1.1643   1.1655   1.1669   1.1679
  1.1692   1.1696   1.1706   1.1724   1.1736   1.1764   1.1769   1.1783
  1.1790   1.1814   1.1828   1.1850   1.1861   1.1864   1.1873   1.1893
  1.1902   1.1915   1.1938   1.1949   1.1977   1.1997   1.2000   1.2032
  1.2047   1.2054   1.2064   1.2081   1.2094   1.2125   1.2141   1.2180
  1.2202   1.2207   1.2229   1.2254   1.2272   1.2303   1.2311   1.2329
  1.2343   1.2362   1.2378   1.2384   1.2412   1.2440   1.2464   1.2482
  1.2497   1.2502   1.2528   1.2532   1.2570   1.2605   1.2625   1.2637
  1.2666   1.2702   1.2722   1.2735   1.2743   1.2759   1.2800   1.2825
  1.2842   1.2861   1.2887   1.2914   1.2944   1.2945   1.2976   1.3001
  1.3014   1.3044   1.3056   1.3093   1.3133   1.3138   1.3159   1.3181
  1.3213   1.3230   1.3261   1.3287   1.3315   1.3340   1.3344   1.3373
  1.3391   1.3404   1.3419   1.3441   1.3471   1.3482   1.3503   1.3521
  1.3542   1.3570   1.3575   1.3599   1.3613   1.3641   1.3656   1.3662
  1.3694   1.3710   1.3713   1.3724   1.3745   1.3752   1.3767   1.3774
  1.3797   1.3814   1.3844   1.3855   1.3872   1.3886   1.3896   1.3906
  1.3915   1.3937   1.3948   1.3985   1.3992   1.4017   1.4025   1.4043
  1.4048   1.4062   1.4088   1.4100   1.4107   1.4115   1.4148   1.4149
  1.4160   1.4170   1.4185   1.4195   1.4232   1.4246   1.4256   1.4272
  1.4304   1.4311   1.4313   1.4335   1.4351   1.4366   1.4372   1.4382
  1.4400   1.4420   1.4423   1.4445   1.4456   1.4470   1.4477   1.4493
  1.4511   1.4559   1.4564   1.4571   1.4585   1.4615   1.4629   1.4643
  1.4650   1.4673   1.4674   1.4693   1.4719   1.4724   1.4748   1.4751
  1.4766   1.4786   1.4809   1.4830   1.4858   1.4864   1.4873   1.4886
  1.4916   1.4950   1.4957   1.4974   1.5002   1.5011   1.5036   1.5047
  1.5068   1.5083   1.5108   1.5133   1.5182   1.5217   1.5238   1.5262
  1.5266   1.5327   1.5342   1.5358   1.5371   1.5389   1.5429   1.5464
  1.5501   1.5512   1.5564   1.5589   1.5602   1.5649   1.5666   1.5716
  1.5751   1.5798   1.5807   1.5825   1.5853   1.5886   1.5962   1.5981
  1.6000   1.6038   1.6088   1.6129   1.6181   1.6194   1.6254   1.6347
  1.6367   1.6433   1.6449   1.6499   1.6545   1.6555   1.6574   1.6605
  1.6625   1.6632   1.6634   1.6649   1.6665   1.6678   1.6703   1.6730
  1.6739   1.6756   1.6768   1.6788   1.6793   1.6797   1.6822   1.6828
  1.6842   1.6852   1.6873   1.6874   1.6886   1.6892   1.6907   1.6916
  1.6922   1.6939   1.6959   1.6963   1.6985   1.7005   1.7022   1.7038
  1.7039   1.7060   1.7065   1.7085   1.7097   1.7116   1.7120   1.7139
  1.7153   1.7168   1.7181   1.7196   1.7201   1.7211   1.7220   1.7232
  1.7256   1.7268   1.7276   1.7297   1.7312   1.7326   1.7330   1.7343
  1.7346   1.7361   1.7378   1.7390   1.7404   1.7417   1.7433   1.7440
  1.7464   1.7472   1.7489   1.7497   1.7511   1.7518   1.7537   1.7544
  1.7567   1.7583   1.7599   1.7639   1.7659   1.7667   1.7694   1.7698
  1.7708   1.7719   1.7739   1.7754   1.7779   1.7780   1.7803   1.7824
  1.7852   1.7868   1.7879   1.7905   1.7910   1.7933   1.7951   1.7969
  1.7986   1.8015   1.8026   1.8040   1.8057   1.8078   1.8102   1.8165
  1.8172   1.8215   1.8253   1.8273   1.8298   1.8311   1.8371   1.8407
  1.8434   1.8457   1.8484   1.8495   1.8541   1.8570   1.8592   1.8626
  1.8632   1.8647   1.8671   1.8706   1.8720   1.8730   1.8755   1.8778
  1.8798   1.8812   1.8821   1.8835   1.8836   1.8848   1.8857   1.8888
  1.8897   1.8905   1.8913   1.8930   1.8940   1.8953   1.8959   1.8972
  1.8990   1.8993   1.9005   1.9011   1.9024   1.9028   1.9052   1.9058
  1.9093   1.9101   1.9108   1.9123   1.9130   1.9159   1.9169   1.9175
  1.9187   1.9195   1.9208   1.9231   1.9241   1.9256   1.9270   1.9292
  1.9304   1.9326   1.9336   1.9353   1.9360   1.9378   1.9408   1.9429
  1.9449   1.9470   1.9507   1.9516   1.9529   1.9565   1.9609   1.9631
  1.9683   1.9742   1.9784   1.9827   1.9828   1.9860   1.9974   2.0007
  2.0143   2.0176   2.0344   2.0360   2.0367   2.0428   2.0438   2.0445
  2.0468   2.0512   2.0540   2.0547   2.0575   2.0589   2.0614   2.0634
  2.0655   2.0663   2.0678   2.0689   2.0698   2.0714   2.0750   2.0759
  2.0767   2.0783   2.0794   2.0805   2.0807   2.0813   2.0834   2.0869
  2.0887   2.0921   2.0936   2.0949   2.0961   2.0971   2.0977   2.1003
  2.1019   2.1040   2.1051   2.1070   2.1082   2.1095   2.1125   2.1131
  2.1137   2.1152   2.1192   2.1213   2.1251   2.1263   2.1283   2.1296
  2.1304   2.1396   2.1411   2.1436   2.1458   2.1496   2.1503   2.1514
  2.1557   2.1582   2.1699   2.1713   2.1755   2.1825   2.1855   2.1928
  2.1943   2.1968   2.1974   2.2011   2.2035   2.2045   2.2052   2.2063
  2.2080   2.2109   2.2127   2.2156   2.2174   2.2185   2.2209   2.2253
  2.2268   2.2280   2.2285   2.2312   2.2315   2.2325   2.2343   2.2352
  2.2363   2.2370   2.2382   2.2392   2.2407   2.2418   2.2430   2.2451
  2.2459   2.2472   2.2478   2.2481   2.2486   2.2498   2.2507   2.2511
  2.2521   2.2536   2.2546   2.2552   2.2564   2.2573   2.2576   2.2594
  2.2601   2.2603   2.2613   2.2616   2.2625   2.2646   2.2666   2.2673
  2.2682   2.2687   2.2696   2.2712   2.2734   2.2757   2.2763   2.2768
  2.2782   2.2791   2.2804   2.2806   2.2820   2.2826   2.2838   2.2847
  2.2855   2.2860   2.2864   2.2877   2.2879   2.2897   2.2904   2.2916
  2.2925   2.2944   2.2950   2.2958   2.2964   2.2981   2.2987   2.3004
  2.3016   2.3032   2.3040   2.3046   2.3056   2.3063   2.3070   2.3095
  2.3097   2.3113   2.3120   2.3149   2.3159   2.3173   2.3183   2.3188
  2.3196   2.3214   2.3217   2.3220   2.3228   2.3241   2.3255   2.3260
  2.3264   2.3281   2.3288   2.3324   2.3346   2.3370   2.3396   2.3402
  2.3408   2.3426   2.3444   2.3450   2.3494   2.3497   2.3506   2.3534
  2.3538   2.3545   2.3577   2.3593   2.3595   2.3601   2.3616   2.3623
  2.3653   2.3664   2.3696   2.3761   2.3774   2.3788   2.3793   2.3822
  2.3857   2.3875   2.3905   2.3937   2.3987   2.4082   2.4099   2.4139
  2.4296   2.4573   2.4627   2.4708   2.4951   2.5184   2.5678   2.5922
  2.6439   2.7307   2.7610   2.7826   2.8036   2.8194   2.8258   2.8321
  2.8332   2.8347   2.8360   2.8386   2.8447   2.8454   2.8503   2.8511
  2.8521   2.8548   2.8560   2.8582   2.8604   2.8605   2.8615   2.8640
  2.8669   2.8691   2.8719   2.8741   2.8777   2.8814   2.8856   2.8888
  2.8914   2.9109   2.9685   3.0887   3.2428   3.9506   3.9516   3.9576
  3.9622   3.9635   3.9677   3.9695   3.9768   3.9824   3.9835   3.9871
  3.9904   3.9924   3.9936   3.9950   3.9955   4.0032   4.0058   4.0065
  4.0103   4.0113   4.0137   4.0177   4.0201   4.0240   4.0293   4.2033
  4.2166   4.2229   4.2248   4.2267   4.2339   4.2347   4.2359   4.2392
  4.2423   4.2488   4.2522   4.2539   4.2548   4.2591   4.2609   4.2650
  4.2685   4.2734   4.2751   4.2778   4.2799   4.2825   4.2847   4.2865
  4.2911   4.2922   4.2942   4.2968   4.2979   4.3024   4.3027   4.3046
  4.3071   4.3101   4.3117   4.3127   4.3158   4.3187   4.3198   4.3231
  4.3235   4.3279   4.3310   4.3326   4.3346   4.3379   4.3425   4.3459
  4.3473   4.3508   4.3514   4.3525   4.3562   4.3593   4.3657   4.3667
  4.3694   4.3786   4.3793   4.3886   4.3935   4.3958   4.3974   4.4001
  4.4045   4.4106   4.4148   4.4215   4.4310   4.4380   4.4480   4.4555
  4.4568   4.4801   4.5009   4.5172   4.5399   4.5497   4.5706   4.5877
  4.6189   4.6290   4.7124   4.7315   4.7882   4.9216
 --------------------------------------------------------------
 
          Ground-State Mulliken Net Atomic Charges

     Atom                 Charge (a.u.)
  ----------------------------------------
      1 C                    -0.876914
      2 C                     0.675798
      3 C                     0.083279
      4 C                    -0.863168
      5 C                    -0.343564
      6 C                    -1.386711
      7 H                     0.225458
      8 H                     0.207127
      9 H                     0.206004
     10 H                     0.258918
     11 H                     0.247544
     12 H                     0.192028
     13 H                     0.191523
     14 H                     0.256473
     15 H                     0.256661
     16 H                     0.182036
     17 H                     0.234049
     18 N                     0.091433
     19 H                     0.479117
     20 C                    -0.481697
     21 H                     0.150543
     22 O                    -0.216813
     23 C                    -0.721140
     24 H                     0.249732
     25 H                     0.247873
     26 H                     0.250279
     27 S                     0.679441
     28 C                    -0.808509
     29 H                     0.245550
     30 H                     0.256270
     31 H                     0.273534
     32 O                    -0.711169
     33 C                    -1.067012
     34 H                     0.256977
     35 H                     0.275836
     36 H                     0.304392
     37 S                     1.041924
     38 C                    -0.918564
     39 H                     0.262138
     40 H                     0.264314
     41 H                     0.236785
     42 O                    -0.635706
     43 C                    -1.245430
     44 H                     0.238896
     45 H                     0.257924
     46 H                     0.307359
     47 S                     1.230701
     48 C                    -0.724191
     49 H                     0.222719
     50 H                     0.291160
     51 H                     0.278855
     52 O                    -0.691747
     53 C                    -1.044051
     54 H                     0.268658
     55 H                     0.285345
     56 H                     0.248608
     57 S                     0.937504
     58 C                    -1.089733
     59 H                     0.266174
     60 H                     0.322713
     61 H                     0.286042
     62 O                    -0.633833
     63 C                    -0.787829
     64 H                     0.255080
     65 H                     0.272384
     66 H                     0.254023
     67 S                     0.852601
     68 C                    -0.833013
     69 H                     0.258400
     70 H                     0.243341
     71 H                     0.257050
     72 O                    -0.707967
     73 C                    -0.849977
     74 H                     0.239799
     75 H                     0.257998
     76 H                     0.258272
     77 S                     0.999134
     78 C                    -0.849217
     79 H                     0.279631
     80 H                     0.233271
     81 H                     0.250827
     82 O                    -0.739110
     83 C                    -0.739144
     84 H                     0.240869
     85 H                     0.260387
     86 H                     0.255896
     87 S                     0.831271
     88 C                    -0.806414
     89 H                     0.239047
     90 H                     0.245813
     91 H                     0.251145
     92 O                    -0.675728
     93 C                    -0.816238
     94 H                     0.331277
     95 H                     0.249904
     96 H                     0.230321
     97 S                     0.787246
     98 C                    -0.813789
     99 H                     0.245985
    100 H                     0.255509
    101 H                     0.249358
    102 O                    -0.528202
    103 C                    -0.831189
    104 H                     0.298659
    105 H                     0.271084
    106 H                     0.244574
    107 S                     0.784922
    108 C                    -1.013339
    109 H                     0.226756
    110 H                     0.257987
    111 H                     0.296625
    112 O                    -0.592294
    113 C                    -0.862613
    114 H                     0.258284
    115 H                     0.262756
    116 H                     0.222544
    117 S                     0.869518
    118 C                    -0.989735
    119 H                     0.303503
    120 H                     0.243197
    121 H                     0.258539
    122 O                    -0.662913
    123 C                    -0.952541
    124 H                     0.279423
    125 H                     0.249497
    126 H                     0.288379
    127 S                     0.987185
    128 C                    -1.067217
    129 H                     0.274895
    130 H                     0.228905
    131 H                     0.298012
    132 O                    -0.719336
    133 C                    -1.151663
    134 H                     0.245094
    135 H                     0.295458
    136 H                     0.308994
    137 S                     0.806694
    138 C                    -0.778640
    139 H                     0.260686
    140 H                     0.249378
    141 H                     0.214480
    142 O                    -0.698807
    143 C                    -0.838725
    144 H                     0.255186
    145 H                     0.241790
    146 H                     0.234792
    147 S                     0.964591
    148 C                    -0.855928
    149 H                     0.252000
    150 H                     0.245316
    151 H                     0.236805
    152 O                    -0.725779
    153 C                    -0.887373
    154 H                     0.295728
    155 H                     0.234115
    156 H                     0.244009
    157 S                     0.976166
    158 C                    -0.943666
    159 H                     0.312058
    160 H                     0.287016
    161 H                     0.217938
    162 O                    -0.691978
    163 C                    -0.946099
    164 H                     0.213375
    165 H                     0.278117
    166 H                     0.255339
    167 S                     1.039388
    168 C                    -0.805713
    169 H                     0.274135
    170 H                     0.278718
    171 H                     0.218517
    172 O                    -0.740336
    173 C                    -0.943567
    174 H                     0.256616
    175 H                     0.252482
    176 H                     0.274528
    177 S                     0.802537
    178 C                    -0.830853
    179 H                     0.267121
    180 H                     0.263701
    181 H                     0.249934
    182 O                    -0.704464
    183 C                    -1.023049
    184 H                     0.265195
    185 H                     0.265458
    186 H                     0.296986
    187 S                     0.999415
    188 C                    -0.885860
    189 H                     0.249562
    190 H                     0.261624
    191 H                     0.277483
    192 O                    -0.708692
    193 C                    -0.890454
    194 H                     0.281149
    195 H                     0.239069
    196 H                     0.243903
    197 S                     0.897076
    198 C                    -0.921055
    199 H                     0.259994
    200 H                     0.227458
    201 H                     0.306427
    202 O                    -0.688877
    203 C                    -0.864532
    204 H                     0.256789
    205 H                     0.290281
    206 H                     0.235742
    207 S                     1.036335
    208 C                    -0.921021
    209 H                     0.276177
    210 H                     0.236931
    211 H                     0.246750
    212 O                    -0.735863
    213 C                    -0.646443
    214 H                     0.244631
    215 H                     0.270286
    216 H                     0.243519
    217 S                     0.674096
    218 C                    -0.802462
    219 H                     0.238281
    220 H                     0.296602
    221 H                     0.244807
    222 O                    -0.662664
    223 C                    -0.937537
    224 H                     0.291260
    225 H                     0.229715
    226 H                     0.280222
    227 S                     1.133593
    228 C                    -1.004582
    229 H                     0.275803
    230 H                     0.250183
    231 H                     0.240759
    232 O                    -0.759925
    233 C                    -0.902888
    234 H                     0.277244
    235 H                     0.282463
    236 H                     0.251900
    237 S                     0.895702
    238 C                    -0.861050
    239 H                     0.258255
    240 H                     0.242350
    241 H                     0.285772
    242 O                    -0.749548
    243 C                    -0.835062
    244 H                     0.269793
    245 H                     0.253512
    246 H                     0.246520
    247 S                     0.672788
    248 C                    -0.687738
    249 H                     0.256878
    250 H                     0.262496
    251 H                     0.281693
    252 O                    -0.733084
    253 C                    -0.793027
    254 H                     0.235423
    255 H                     0.267083
    256 H                     0.234318
    257 S                     1.020009
    258 C                    -0.884236
    259 H                     0.288038
    260 H                     0.231438
    261 H                     0.273750
    262 O                    -0.758628
    263 C                    -0.856885
    264 H                     0.278398
    265 H                     0.310264
    266 H                     0.230496
    267 S                     0.775900
    268 C                    -0.803243
    269 H                     0.266824
    270 H                     0.247909
    271 H                     0.259745
    272 O                    -0.626658
    273 C                    -0.800458
    274 H                     0.248009
    275 H                     0.267180
    276 H                     0.259203
    277 S                     0.883605
    278 C                    -0.843420
    279 H                     0.266777
    280 H                     0.250802
    281 H                     0.233827
    282 O                    -0.719211
  ----------------------------------------
  Sum of atomic charges =     0.000000

 -----------------------------------------------------------------
                    Cartesian Multipole Moments
 -----------------------------------------------------------------
    Charge (ESU x 10^10)
                 0.0000
    Dipole Moment (Debye)
         X     -11.0045      Y      16.1874      Z       1.7328
       Tot      19.6502
    Quadrupole Moments (Debye-Ang)
        XX   -1220.9794     XY      69.4938     YY    -375.2138
        XZ    -346.8437     YZ     482.5854     ZZ    -886.3796
    Octopole Moments (Debye-Ang^2)
       XXX  -63269.8949    XXY  -18563.0628    XYY  -15054.7408
       YYY  -38703.6904    XXZ  -36611.3252    XYZ    1044.9544
       YYZ  -10917.3679    XZZ  -31651.2987    YZZ   -3466.7155
       ZZZ  -80007.4638
    Hexadecapole Moments (Debye-Ang^3)
      XXXX ************   XXXY ************   XXYY -770745.2303
      XYYY ************   YYYY ************   XXXZ ************
      XXYZ -571668.7987   XYYZ -465488.5409   YYYZ ************
      XXZZ ************   XYZZ -371809.1316   YYZZ -673842.0526
      XZZZ ************   YZZZ ************   ZZZZ ************
 -----------------------------------------------------------------
Archival summary:
[...]
    2   0.0226130  -0.0213941  -0.0364268   0.0085089   0.0151699   0.0222225
    3   0.0003858   0.0005955  -0.0041603   0.0009596  -0.0200112   0.0119667
          121         122         123         124         125         126
    1   0.0215432  -0.0738858   0.0072956  -0.0079217   0.0184645   0.0335106
    2   0.0052839   0.0194688  -0.0001204  -0.0110399   0.0293856  -0.0154077
    3   0.0293678  -0.0777633  -0.0089012  -0.0221471  -0.0143765  -0.0022060
          127         128         129         130         131         132
    1  -0.0143645  -0.0026922  -0.0083134  -0.0267359   0.0185811   0.0825571
    2  -0.0349952   0.0126302   0.0039366   0.0063874   0.0287624   0.0727692
    3   0.0336433  -0.0036078  -0.0316945   0.0223642  -0.0074224   0.0257274
          133         134         135         136         137         138
    1   0.0099354   0.0182912   0.0255222  -0.0024839  -0.0400797   0.0026098
    2   0.0015800   0.0363451  -0.0170437  -0.0107256   0.0261247   0.0005071
    3  -0.0037226   0.0028267   0.0125938  -0.0326907  -0.0223590   0.0049351
          139         140         141         142         143         144
    1  -0.0159375   0.0297873  -0.0008306   0.0012912  -0.0070087  -0.0072827
    2  -0.0211344  -0.0059977   0.0340317  -0.1103206   0.0013454  -0.0162632
    3   0.0161299   0.0091591   0.0089350   0.0085264  -0.0003835  -0.0266392
          145         146         147         148         149         150
    1  -0.0102167  -0.0096821   0.0281623   0.0004917   0.0307384  -0.0202653
    2  -0.0128514   0.0328556   0.0203595   0.0029921  -0.0076858  -0.0137433
    3   0.0264942   0.0012175   0.0433963  -0.0068639  -0.0054068  -0.0200229
          151         152         153         154         155         156
    1  -0.0025070  -0.0019999  -0.0031002   0.0021555   0.0037711  -0.0321995
    2   0.0340673  -0.1081934  -0.0052712  -0.0312670  -0.0150876   0.0032126
    3  -0.0012635  -0.0253406  -0.0029100  -0.0163779   0.0268513   0.0111980
          157         158         159         160         161         162
    1  -0.0154554  -0.0013206   0.0073496   0.0035380  -0.0314553   0.1019603
    2   0.0467118   0.0005781   0.0295975  -0.0343498  -0.0020000  -0.0338040
    3   0.0193467  -0.0096740  -0.0186879  -0.0024185  -0.0034747  -0.0180002
          163         164         165         166         167         168
    1  -0.0033792  -0.0369721   0.0267893  -0.0134687  -0.0220250   0.0045371
    2  -0.0052273   0.0040636  -0.0207074  -0.0170289   0.0260043   0.0023984
    3  -0.0050839  -0.0125158  -0.0121413   0.0198596   0.0404920  -0.0072345
          169         170         171         172         173         174
    1   0.0014415   0.0263252  -0.0191596   0.0971007  -0.0084428  -0.0112967
    2   0.0306797  -0.0078345   0.0012721  -0.0528910  -0.0034029  -0.0152756
    3  -0.0046862  -0.0143303  -0.0260085   0.0059341   0.0000620  -0.0291156
          175         176         177         178         179         180
    1  -0.0204333  -0.0127210   0.0157923   0.0041430  -0.0046500   0.0027116
    2  -0.0163933   0.0284969   0.0132972  -0.0007910  -0.0142911   0.0295637
    3   0.0185047   0.0077304   0.0523974  -0.0051350  -0.0272329   0.0091141
          181         182         183         184         185         186
    1   0.0340230   0.0001187   0.0094516   0.0086420   0.0104042   0.0183030
    2   0.0021163  -0.1048722   0.0002512   0.0181046  -0.0295254   0.0128026
    3  -0.0019166  -0.0372739   0.0014512   0.0242013   0.0044607  -0.0209237
          187         188         189         190         191         192
    1  -0.0361080  -0.0008235  -0.0261969   0.0143780   0.0110650   0.0126174
    2   0.0003940  -0.0050182  -0.0143289  -0.0016419  -0.0257013   0.0759669
    3   0.0439849  -0.0026813  -0.0197487  -0.0289605   0.0188334  -0.0785638
          193         194         195         196         197         198
    1  -0.0028019   0.0122892  -0.0306619   0.0131121   0.0501775  -0.0102828
    2   0.0066568   0.0169912   0.0093369   0.0153394  -0.0167959  -0.0068929
    3  -0.0028542  -0.0251443   0.0122417   0.0193386  -0.0312308  -0.0001884
          199         200         201         202         203         204
    1  -0.0241488   0.0027433   0.0084580   0.0044154  -0.0008879  -0.0213143
    2   0.0084696   0.0042737  -0.0322447  -0.0065147   0.0093792   0.0261798
    3   0.0290341  -0.0347613  -0.0074199   0.1111560   0.0076244  -0.0019775
          205         206         207         208         209         210
    1  -0.0041701   0.0303052   0.0379362  -0.0015357  -0.0301097   0.0226054
    2   0.0026788   0.0066895  -0.0445048   0.0040256   0.0152516   0.0231044
    3   0.0336791  -0.0112609   0.0087042  -0.0092683  -0.0015033  -0.0033484
          211         212         213         214         215         216
    1   0.0032013  -0.1060152   0.0015069  -0.0194562   0.0125517   0.0178537
    2  -0.0282612  -0.0059765   0.0054306   0.0202283   0.0131941  -0.0021031
    3  -0.0179412   0.0277057  -0.0033922  -0.0125747   0.0204400  -0.0301260
          217         218         219         220         221         222
    1   0.0423134  -0.0090386   0.0059571  -0.0055955  -0.0191586  -0.0538552
    2  -0.0427796  -0.0010360  -0.0032390  -0.0334258   0.0276201   0.0405829
    3   0.0055230  -0.0039249  -0.0329365   0.0142227  -0.0067294   0.0886281
          223         224         225         226         227         228
    1   0.0050894  -0.0197890  -0.0156479   0.0365842  -0.0551071   0.0026795
    2  -0.0055068  -0.0351659   0.0114864   0.0231742  -0.0187938   0.0087904
    3  -0.0106365  -0.0005585  -0.0272323   0.0069732   0.0059893  -0.0020426
          229         230         231         232         233         234
    1   0.0187791   0.0204168  -0.0308479   0.0780496  -0.0029330   0.0171230
    2   0.0061656   0.0113666   0.0131726  -0.0292570   0.0053818   0.0007847
    3   0.0229697  -0.0248177   0.0055867   0.0725844  -0.0012981  -0.0277510
          235         236         237         238         239         240
    1  -0.0308012  -0.0141870  -0.0461094   0.0046413   0.0242235  -0.0106448
    2   0.0065531   0.0313441  -0.0280665  -0.0000698   0.0187356   0.0280622
    3  -0.0166074   0.0143983   0.0159050   0.0053718  -0.0136816   0.0148217
          241         242         243         244         245         246
    1   0.0041533   0.0793740  -0.0073198  -0.0126297  -0.0140419   0.0232549
    2  -0.0267156  -0.0398020  -0.0040292   0.0125700  -0.0277657  -0.0102367
    3   0.0174012  -0.0645858   0.0065693   0.0228355  -0.0115782   0.0189274
          247         248         249         250         251         252
    1   0.0466452  -0.0010266  -0.0124227   0.0315794  -0.0121070  -0.0944561
    2  -0.0209343   0.0101348   0.0034435  -0.0000701   0.0275457   0.0259527
    3  -0.0288830   0.0053028   0.0285736   0.0036943  -0.0085031  -0.0494000
          253         254         255         256         257         258
    1   0.0073590  -0.0072731   0.0265004   0.0181241  -0.0470989   0.0004824
    2  -0.0015328  -0.0252246   0.0142224  -0.0224812  -0.0257741   0.0070565
    3  -0.0005009  -0.0178923  -0.0071733   0.0198498   0.0130036  -0.0089041
          259         260         261         262         263         264
    1   0.0298312  -0.0170926  -0.0205618   0.0522199   0.0069296   0.0250999
    2   0.0151641  -0.0185340   0.0206695   0.0826459   0.0053629   0.0033065
    3  -0.0024741  -0.0219809  -0.0124292   0.0495361   0.0015737   0.0148847
          265         266         267         268         269         270
    1   0.0040709  -0.0291195  -0.0279238   0.0004848   0.0147714   0.0138025
    2   0.0302552   0.0004438   0.0139687  -0.0041957  -0.0182554  -0.0018332
    3   0.0018014   0.0083815  -0.0461868   0.0031395  -0.0147257   0.0273753
          271         272         273         274         275         276
    1  -0.0256430   0.1111130  -0.0019428  -0.0281565   0.0032996   0.0015704
    2  -0.0195016   0.0317499  -0.0076130  -0.0066499   0.0092455  -0.0364370
    3  -0.0093784   0.0067941  -0.0078106   0.0158184  -0.0314999   0.0021248
          277         278         279         280         281         282
    1  -0.0047848  -0.0040435   0.0243880  -0.0054269  -0.0275882   0.0960897
    2   0.0001736   0.0076380   0.0176270  -0.0059087   0.0186085   0.0024575
    3   0.0507009  -0.0037717   0.0010772  -0.0290425   0.0140062  -0.0555012
  --- DONE ESP SUMMARY ---
Archival summary:
1\1\node007\SP\ProcedureUnspecified\6-31+G*\262652h22\ymao90\FriDec305:36:452021FriDec305:36:452021\0\\#,ProcedureUnspecified,6-31+G*,\\0,1\S\O,1,1.49716\C,1,1.80671,2,101.657\H,3,1.09242,1,108.552,2,-40.8955,0\H,3,1.09318,1,103.973,2,78.5488,0\H,3,1.09346,1,107.586,2,-160.516,0\C,1,1.80708,2,97.9738,3,-103.629,0\H,7,1.09285,1,107.467,2,-175.175,0\H,7,1.09342,1,104.249,2,-49.428,0\H,7,1.09388,1,106.288,2,66.3433,0\Gh,2,1.83767,1,108.05,3,-54.7382,0\Gh,11,1.01286,2,155.909,1,146.139,0\Gh,12,1.37951,11,113.967,2,-40.7768,0\Gh,13,1.10461,12,109.073,11,2.30989,0\Gh,13,1.21829,12,124.359,11,178.544,0\Gh,12,1.46238,11,118.372,2,165.629,0\Gh,16,1.09603,12,107.959,11,124.139,0\Gh,16,1.5373,12,110.352,11,-118.707,0\Gh,18,1.09681,16,109.76,12,-69.1468,0\Gh,18,1.09712,16,115.918,12,49.5091,0\Gh,18,1.53751,16,109.24,12,173.914,0\Gh,21,1.09668,18,110.303,16,178.021,0\Gh,21,1.09684,18,106.041,16,64.3095,0\Gh,16,1.53755,12,113.137,11,12.613,0\Gh,24,1.09643,16,109.753,12,-38.9659,0\Gh,24,1.09695,16,110.38,12,68.125,0\Gh,24,1.53777,16,115.694,12,-169.794,0\Gh,27,1.09644,24,100.466,16,-65.6272,0\Gh,27,1.0967,24,117.478,16,174.746,0\Gh,27,1.53731,24,113.433,16,45.3238,0\Gh,30,1.0972,27,118.543,24,75.3434,0\Gh,30,1.09764,27,105.549,24,-173.985,0\H,4,2.08851,3,134.435,1,-119.802,0\C,33,1.09354,4,108.977,3,-38.2735,0\H,34,1.09291,33,111.719,4,57.068,0\H,34,1.09294,33,110.686,4,-69.8878,0\S,34,1.80775,33,101.566,4,172.251,0\O,37,1.49632,34,103.297,33,6.28789,0\C,37,1.8072,34,98.5067,33,-97.2897,0\H,39,1.09247,37,112.771,34,70.6158,0\H,39,1.09336,37,109.581,34,-163.928,0\H,39,1.09354,37,104.183,34,-41.2441,0\H,23,2.15151,21,131.987,18,-147.898,0\C,43,1.09339,23,141.29,21,-170.629,0\H,44,1.09297,43,101.957,23,107.052,0\H,44,1.09313,43,118.558,23,-137.632,0\S,44,1.80684,43,112.409,23,-5.66351,0\O,47,1.49747,44,100.214,43,36.2385,0\C,47,1.8066,44,94.9521,43,-70.0029,0\H,49,1.09302,47,99.6887,44,165.961,0\H,49,1.09323,47,108.431,44,42.0051,0\H,49,1.09377,47,106.199,44,-73.3309,0\H,46,2.14061,44,116.367,43,-18.2935,0\C,53,1.09289,46,114.924,44,-132.283,0\H,54,1.09305,53,103.782,46,28.772,0\H,54,1.09327,53,118.472,46,-89.6882,0\S,54,1.80746,53,105.492,46,138.74,0\O,57,1.49656,54,107.069,53,174.949,0\C,57,1.80791,54,95.0495,53,67.097,0\H,59,1.09214,57,110.285,54,69.7036,0\H,59,1.09264,57,112.073,54,-45.1432,0\H,59,1.09285,57,107.373,54,-165.523,0\H,15,2.27147,13,139.867,12,-43.1606,0\C,63,1.09295,15,142.113,13,-150.81,0\H,64,1.09187,63,108.658,15,-154.966,0\H,64,1.09331,63,107.991,15,80.1598,0\S,64,1.80705,63,108.126,15,-35.66,0\O,67,1.49683,64,99.5743,63,-167.347,0\C,67,1.80675,64,98.3522,63,-63.157,0\H,69,1.09274,67,107,64,-98.4747,0\H,69,1.09325,67,104.072,64,149.368,0\H,69,1.09335,67,114.563,64,27.1107,0\H,50,2.29444,49,131.09,47,169.267,0\C,73,1.09344,50,118.514,49,63.0396,0\H,74,1.09301,73,109.752,50,168.193,0\H,74,1.09353,73,107.972,50,44.3247,0\S,74,1.80706,73,112.915,50,-77.523,0\O,77,1.49748,74,110.452,73,168.912,0\C,77,1.80749,74,94.0789,73,-88.288,0\H,79,1.09233,77,115.576,74,52.5049,0\H,79,1.09296,77,101.56,74,-56.0513,0\H,79,1.09335,77,117.668,74,174.782,0\O,60,2.32566,59,133.208,57,-157.241,0\S,83,1.49676,60,144.573,59,158.192,0\C,84,1.80651,83,106.948,60,118.516,0\H,85,1.09296,84,101.841,83,61.502,0\H,85,1.09299,84,114.486,83,-172.942,0\H,85,1.09347,84,112.507,83,-48.8563,0\C,84,1.80677,83,95.2782,60,20.7396,0\H,89,1.0929,84,110.895,83,-44.4255,0\H,89,1.09317,84,108.037,83,-165.543,0\H,89,1.09365,84,110.354,83,75.7922,0\H,22,2.32748,21,133.547,18,-95.9569,0\C,93,1.09344,22,155.627,21,105.206,0\H,94,1.09285,93,109.834,22,-37.7264,0\H,94,1.09295,93,117.368,22,85.8424,0\S,94,1.80645,93,110.568,22,-158.544,0\O,97,1.4975,94,105.19,93,-154.643,0\C,97,1.80739,94,102.121,93,-45.2601,0\H,99,1.0926,97,114.453,94,79.0514,0\H,99,1.09278,97,105.922,94,-47.0524,0\H,99,1.09309,97,107.828,94,-162.316,0\H,9,2.33398,7,145.131,1,-3.74399,0\C,103,1.09272,9,107.727,7,-68.7061,0\H,104,1.09328,103,111.242,9,-64.293,0\H,104,1.09348,103,104.87,9,56.5679,0\S,104,1.80764,103,116.845,9,174.836,0\O,107,1.49734,104,102.618,103,-172.421,0\C,107,1.80743,104,93.6678,103,-63.4788,0\H,109,1.09249,107,105.627,104,-170.651,0\H,109,1.09253,107,103.206,104,71.5323,0\H,109,1.09338,107,109.817,104,-48.6558,0\H,105,2.09619,104,135.706,103,142.334,0\C,113,1.09292,105,129.234,104,-128.088,0\H,114,1.09321,113,113.795,105,-4.70515,0\H,114,1.09344,113,108.952,105,-132.439,0\S,114,1.80615,113,106.481,105,109.173,0\O,117,1.49743,114,105.3,113,-42.4306,0\C,117,1.80722,114,87.4369,113,59.1098,0\H,119,1.09287,117,107.338,114,-176.116,0\H,119,1.09288,117,111.084,114,-58.4947,0\H,119,1.0934,117,111.749,114,58.1604,0\H,111,2.15109,109,108.209,107,54.8059,0\C,123,1.09308,111,163.846,109,48.6431,0\H,124,1.09186,123,111.228,111,135.095,0\H,124,1.09298,123,104.032,111,-103.505,0\S,124,1.8075,123,108.449,111,6.68962,0\O,127,1.49753,124,103.548,123,-54.4165,0\C,127,1.80636,124,95.4338,123,54.4106,0\H,129,1.09292,127,105.24,124,-141.942,0\H,129,1.09303,127,116.998,124,104.429,0\H,129,1.09318,127,107.21,124,-21.3027,0\H,14,2.34711,13,112.702,12,172.048,0\C,133,1.09333,14,153.594,13,47.7851,0\H,134,1.09236,133,112.173,14,-16.9,0\H,134,1.09314,133,108.704,14,110.822,0\S,134,1.80681,133,105.493,14,-135.658,0\O,137,1.49713,134,100.237,133,-42.2921,0\C,137,1.80627,134,92.5517,133,65.0588,0\H,139,1.09282,137,108.59,134,-176.462,0\H,139,1.09337,137,110.871,134,53.4579,0\H,139,1.09354,137,103.825,134,-60.8835,0\H,142,2.28654,139,126.907,137,-90.1417,0\C,143,1.09326,142,155.392,139,129.866,0\H,144,1.09246,143,115.116,142,-110.688,0\H,144,1.0927,143,107.472,142,8.40544,0\S,144,1.80714,143,109.922,142,123.952,0\O,147,1.49752,144,105.207,143,-161.377,0\C,147,1.80702,144,93.285,143,-52.0868,0\H,149,1.09225,147,108.453,144,171.157,0\H,149,1.09292,147,109.781,144,55.0333,0\H,149,1.09348,147,115.502,144,-67.6697,0\H,145,2.18561,144,115.314,143,75.1536,0\C,153,1.0926,145,112.528,144,106.373,0\H,154,1.09241,153,110.265,145,101.865,0\H,154,1.09338,153,104.193,145,-14.5986,0\S,154,1.80718,153,109.431,145,-133.401,0\O,157,1.4975,154,102.869,153,165.709,0\C,157,1.80713,154,103.764,153,56.3444,0\H,159,1.09244,157,109.611,154,55.2587,0\H,159,1.09309,157,99.2118,154,168.194,0\H,159,1.09331,157,117.057,154,-68.1517,0\H,31,2.38535,30,123.693,27,100.792,0\C,163,1.0935,31,141.457,30,11.2079,0\H,164,1.0929,163,109.925,31,-97.8006,0\H,164,1.09324,163,114.452,31,131.944,0\S,164,1.80655,163,111.818,31,15.6242,0\O,167,1.49673,164,106.242,163,154.768,0\C,167,1.80737,164,92.7523,163,52.7689,0\H,169,1.09283,167,106.901,164,93.0858,0\H,169,1.09302,167,108.434,164,-150.123,0\H,169,1.09332,167,113.586,164,-31.8106,0\O,28,2.38757,27,113.427,24,-73.9359,0\S,173,1.49732,28,158.154,27,125.9,0\C,174,1.80646,173,107.668,28,-121.775,0\H,175,1.09249,174,113.393,173,-166.53,0\H,175,1.09294,174,114.596,173,-44.402,0\H,175,1.09316,174,105.974,173,72.4448,0\C,174,1.80722,173,102.971,28,131.87,0\H,179,1.0924,174,108.079,173,-79.1264,0\H,179,1.0927,174,108.026,173,36.133,0\H,179,1.09302,174,106.337,173,162.219,0\H,25,2.40255,24,138.18,16,-179.224,0\C,183,1.09327,25,178.386,24,-16.9944,0\H,184,1.09336,183,112.267,25,142.898,0\H,184,1.09353,183,115.814,25,-91.3965,0\S,184,1.80688,183,110.087,25,30.7528,0\O,187,1.49654,184,102.924,183,175.751,0\C,187,1.80688,184,98.073,183,68.1206,0\H,189,1.09265,187,112.057,184,51.1039,0\H,189,1.09319,187,110.608,184,-75.5427,0\H,189,1.09327,187,101.213,184,164.668,0\H,186,2.26429,184,133.658,183,75.4643,0\C,193,1.09365,186,110.22,184,58.5689,0\H,194,1.09269,193,113.034,186,31.7613,0\H,194,1.09275,193,113.937,186,-85.7771,0\S,194,1.80669,193,108.847,186,161.034,0\O,197,1.49754,194,105.414,193,-46.7871,0\C,197,1.80598,194,95.9716,193,57.7593,0\H,199,1.0929,197,106.179,194,87.6019,0\H,199,1.09315,197,108.461,194,-34.7021,0\H,199,1.09315,197,109.776,194,-156.6,0\H,136,2.51578,134,136.003,133,-91.5155,0\C,203,1.09327,136,99.738,134,-143.706,0\H,204,1.09275,203,101.025,136,172.188,0\H,204,1.09293,203,112.212,136,-76.2246,0\S,204,1.80744,203,110.896,136,50.2622,0\O,207,1.49677,204,112.612,203,156.961,0\C,207,1.80676,204,99.2279,203,48.7166,0\H,209,1.09295,207,107.702,204,159.332,0\H,209,1.09299,207,109.06,204,-78.9469,0\H,209,1.09331,207,108.479,204,39.3878,0\H,210,2.38673,209,107.087,207,66.9464,0\C,213,1.09312,210,143.777,209,109.323,0\H,214,1.09335,213,112.521,210,109.825,0\H,214,1.09341,213,105.89,210,-127.553,0\S,214,1.8063,213,107.323,210,-15.9285,0\O,217,1.49766,214,107,213,-39.9415,0\C,217,1.80679,214,95.9272,213,71.5977,0\H,219,1.09252,217,107.669,214,-58.7224,0\H,219,1.09306,217,111.018,214,57.541,0\H,219,1.09385,217,107.248,214,173.242,0\H,166,2.52268,164,110.194,163,-2.50391,0\C,223,1.09305,166,163.948,164,-52.2574,0\H,224,1.0934,223,111.501,166,-35.1475,0\H,224,1.09352,223,113.744,166,-156.608,0\S,224,1.80685,223,106.449,166,87.7694,0\O,227,1.49666,224,101.191,223,-65.5052,0\C,227,1.80646,224,95.2497,223,41.5807,0\H,229,1.09311,227,104.646,224,-64.1939,0\H,229,1.09318,227,106.671,224,59.0944,0\H,229,1.09371,227,117.621,224,-177.209,0\H,225,2.24371,224,121.766,223,86.3075,0\C,233,1.09365,225,98.2849,224,152.888,0\H,234,1.09248,233,116.229,225,142.157,0\H,234,1.09268,233,122.203,225,14.9132,0\S,234,1.807,233,101.191,225,-108.154,0\O,237,1.49737,234,104.273,233,113.345,0\C,237,1.80642,234,98.5382,233,-142.863,0\H,239,1.09303,237,106.527,234,-73.2293,0\H,239,1.09308,237,111.446,234,59.0115,0\H,239,1.09393,237,111.358,234,171.139,0\O,242,2.43764,239,140.774,237,-128.896,0\S,243,1.49765,242,114.62,239,-132.642,0\C,244,1.80634,243,107.389,242,31.9236,0\H,245,1.09299,244,107.624,243,-167.53,0\H,245,1.09313,244,108.71,243,73.1053,0\H,245,1.09327,244,110.55,243,-47.5675,0\C,244,1.80673,243,97.8729,242,-60.9136,0\H,249,1.09287,244,111.568,243,40.3625,0\H,249,1.09334,244,117.479,243,171.923,0\H,249,1.0936,244,107.02,243,-76.7185,0\H,96,2.63059,94,147.524,93,110.689,0\C,253,1.09289,96,129.455,94,-110.399,0\H,254,1.09315,253,107.571,96,-156.562,0\H,254,1.09315,253,108.046,96,84.4667,0\S,254,1.80669,253,107.198,96,-26.5857,0\O,257,1.49648,254,103.103,253,67.3477,0\C,257,1.80707,254,94.4992,253,175.924,0\H,259,1.09234,257,111.009,254,-87.9519,0\H,259,1.09301,257,113.799,254,152.38,0\H,259,1.09312,257,110.617,254,33.8493,0\O,45,2.81344,44,144.4,43,134.017,0\S,263,1.49696,45,132.616,44,-51.6796,0\C,264,1.80695,263,105.613,45,170.183,0\H,265,1.09257,264,111.661,263,-138.846,0\H,265,1.09278,264,106.919,263,107.335,0\H,265,1.09353,264,111.122,263,-14.3279,0\C,264,1.80718,263,103.367,45,-85.4621,0\H,269,1.09243,264,112.701,263,-164.695,0\H,269,1.0928,264,119.796,263,-32.1037,0\H,269,1.09312,264,111.865,263,74.5314,0\O,192,2.84928,189,172.391,187,23.9313,0\S,273,1.49686,192,108.272,189,86.109,0\C,274,1.80634,273,102.7,192,123.413,0\H,275,1.09244,274,110.817,273,-70.5084,0\H,275,1.09327,274,108.014,273,171.064,0\H,275,1.09364,274,110.805,273,48.5738,0\C,274,1.80716,273,99.4717,192,-138.176,0\H,279,1.09241,274,109.598,273,-166.975,0\H,279,1.09314,274,111.402,273,-42.0641,0\H,279,1.09348,274,107.337,273,75.0422,0\\\@

 Total job time:  40.77s(wall), 142.68s(cpu) 
 Fri Dec  3 05:36:45 2021

        *************************************************************
        *                                                           *
        *  Thank you very much for using Q-Chem.  Have a nice day.  *
        *                                                           *
        *************************************************************


