                  Welcome to Q-Chem
     A Quantum Leap Into The Future Of Chemistry


 Q-Chem 6.0 (devel), Q-Chem, Inc., Pleasanton, CA (2022)

 E. Epifanovsky,  A. T. B. Gilbert,  Xintian Feng,  Joonho Lee,  Yuezhi Mao,  
 N. Mardirossian,  P. Pokhilko,  A. White,  M. Wormit,  M. P. Coons,  
 A. L. Dempwolff,  Zhengting Gan,  D. Hait,  P. R. Horn,  L. D. Jacobson,  
 I. Kaliman,  J. Kussmann,  A. W. Lange,  Ka Un Lao,  D. S. Levine,  Jie Liu,  
 S. C. McKenzie,  A. F. Morrison,  K. Nanda,  F. Plasser,  D. R. Rehn,  
 M. L. Vidal,  Zhi-Qiang You,  Ying Zhu,  B. Alam,  B. Albrecht,  
 A. Aldossary,  E. Alguire,  J. H. Andersen,  V. Athavale,  D. Barton,  
 K. Begam,  A. Behn,  N. Bellonzi,  Y. A. Bernard,  E. J. Berquist,  
 H. Burton,  A. Carreras,  K. Carter-Fenk,  Romit Chakraborty,  
 Chandrima Chakravarty,  Junhan Chen,  A. D. Chien,  K. D. Closser,  
 V. Cofer-Shabica,  L. Cunha,  S. Dasgupta,  Jia Deng,  M. de Wergifosse,  
 M. Diedenhofen,  Hainam Do,  S. Ehlert,  Po-Tung Fang,  S. Fatehi,  
 Qingguo Feng,  T. Friedhoff,  B. Ganoe,  J. Gayvert,  Qinghui Ge,  
 G. Gidofalvi,  M. Goldey,  J. Gomes,  C. Gonzalez-Espinoza,  S. Gulania,  
 A. Gunina,  J. A. Gyamfi,  M. W. D. Hanson-Heine,  P. H. P. Harbach,  
 A. W. Hauser,  M. F. Herbst,  M. Hernandez Vera,  M. Hodecker,  
 Z. C. Holden,  S. Houck,  Xunkun Huang,  Kerwin Hui,  B. C. Huynh,  
 K. Ikeda,  M. Ivanov,  Hyunjun Ji,  Zuxin Jin,  Hanjie Jiang,  B. Kaduk,  
 S. Kaehler,  R. Kang,  K. Khistyaev,  Jaehoon Kim,  Yongbin Kim,  
 P. Klunzinger,  Z. Koczor-Benda,  Joong Hoon Koh,  D. Kosenkov,  
 Saikiran Kotaru,  L. Koulias,  T. Kowalczyk,  C. M. Krauter,  K. Kue,  
 A. Kunitsa,  T. Kus,  A. Landau,  K. V. Lawler,  D. Lefrancois,  S. Lehtola,  
 Rain Li,  Shaozhi Li,  Yi-Pei Li,  Jiashu Liang,  M. Liebenthal,  
 Hung-Hsuan Lin,  You-Sheng Lin,  Fenglai Liu,  Kuan-Yu Liu,  
 M. Loipersberger,  A. Luenser,  C. Malbon,  A. Manjanath,  P. Manohar,  
 E. Mansoor,  S. F. Manzer,  Shan-Ping Mao,  A. V. Marenich,  T. Markovich,  
 S. Mason,  F. Matz,  S. A. Maurer,  P. F. McLaughlin,  M. F. S. J. Menger,  
 J.-M. Mewes,  S. A. Mewes,  P. Morgante,  Mohammad Mostafanejad,  
 J. W. Mullinax,  K. J. Oosterbaan,  G. Paran,  V. Parravicini,  
 Alexander C. Paul,  Suranjan K. Paul,  F. Pavosevic,  Zheng Pei,  S. Prager,  
 E. I. Proynov,  E. Ramos,  B. Rana,  A. E. Rask,  A. Rettig,  R. M. Richard,  
 F. Rob,  E. Rossomme,  T. Scheele,  M. Scheurer,  M. Schneider,  
 P. E. Schneider,  N. Sergueev,  S. M. Sharada,  Hengyuan Shen,  
 W. Skomorowski,  D. W. Small,  C. J. Stein,  Yingli Su,  Yu-Chuan Su,  
 E. J. Sundstrom,  Zhen Tao,  J. Thirman,  Hung-Yi Tsai,  T. Tsuchimochi,  
 N. M. Tubman,  C. Utku,  S. P. Veccham,  O. Vydrov,  J. Wenzel,  
 Jonathan Wong,  J. Witte,  A. Yamada,  Chou-Hsun Yang,  Kun Yao,  
 S. Yeganeh,  S. R. Yost,  A. Zech,  F. Zeller,  Igor Ying Zhang,  
 Xing Zhang,  Yu Zhang,  D. Zuev,  A. Aspuru-Guzik,  A. T. Bell,  
 N. A. Besley,  K. B. Bravaya,  B. R. Brooks,  D. Casanova,  Jeng-Da Chai,  
 Hsing-Ta Chen,  S. Coriani,  C. J. Cramer,  A. E. DePrince, III,  
 R. A. DiStasio Jr.,  A. Dreuw,  B. D. Dunietz,  T. R. Furlani,  
 W. A. Goddard III,  S. Grimme,  S. Hammes-Schiffer,  T. Head-Gordon,  
 W. J. Hehre,  Chao-Ping Hsu,  T.-C. Jagau,  Yousung Jung,  A. Klamt,  
 Jing Kong,  D. S. Lambrecht,  Xiangyuan Li,  WanZhen Liang,  N. J. Mayhall,  
 C. W. McCurdy,  J. B. Neaton,  T. Neudecker,  C. Ochsenfeld,  
 J. A. Parkhill,  R. Peverati,  V. A. Rassolov,  Haisheng Ren,  Yihan Shao,  
 L. V. Slipchenko,  R. P. Steele,  J. E. Subotnik,  A. J. W. Thom,  
 A. Tkatchenko,  D. G. Truhlar,  T. Van Voorhis,  Fan Wang,  
 T. A. Wesolowski,  K. B. Whaley,  H. L. Woodcock III,  P. M. Zimmerman,  
 S. Faraji,  P. M. W. Gill,  M. Head-Gordon,  J. M. Herbert,  A. I. Krylov

 Contributors to earlier versions of Q-Chem not listed above: 
 R. D. Adamson,  B. Austin,  R. Baer,  J. Baker,  G. J. O. Beran,  
 K. Brandhorst,  S. T. Brown,  E. F. C. Byrd,  Arup K. Chakraborty,  
 G. K. L. Chan,  Chun-Min Chang,  Yunqing Chen,  C.-L. Cheng,  
 Siu Hung Chien,  D. M. Chipman,  D. L. Crittenden,  H. Dachsel,  
 R. J. Doerksen,  A. D. Dutoi,  R. G. Edgar,  J. Fosso-Tande,  
 L. Fusti-Molnar,  D. Ghosh,  A. Ghysels,  A. Golubeva-Zadorozhnaya,  
 J. Gonthier,  M. S. Gordon,  S. R. Gwaltney,  G. Hawkins,  J. E. Herr,  
 A. Heyden,  S. Hirata,  E. G. Hohenstein,  G. Kedziora,  F. J. Keil,  
 C. Kelley,  Jihan Kim,  R. A. King,  R. Z. Khaliullin,  P. P. Korambath,  
 W. Kurlancheek,  A. Laurent,  A. M. Lee,  M. S. Lee,  S. V. Levchenko,  
 Ching Yeh Lin,  D. Liotard,  E. Livshits,  R. C. Lochan,  I. Lotan,  
 L. A. Martinez-Martinez,  P. E. Maslen,  N. Nair,  D. P. O'Neill,  
 D. Neuhauser,  E. Neuscamman,  C. M. Oana,  R. Olivares-Amaya,  R. Olson,  
 T. M. Perrine,  B. Peters,  P. A. Pieniazek,  A. Prociuk,  Y. M. Rhee,  
 J. Ritchie,  M. A. Rohrdanz,  E. Rosta,  N. J. Russ,  H. F. Schaefer III,  
 M. W. Schmidt,  N. E. Schultz,  S. Sharma,  N. Shenvi,  C. D. Sherrill,  
 A. C. Simmonett,  A. Sodt,  T. Stein,  D. Stuck,  K. S. Thanthiriwatte,  
 V. Vanovschi,  L. Vogt,  Tao Wang,  A. Warshel,  M. A. Watson,  
 C. F. Williams,  Q. Wu,  X. Xu,  Jun Yang,  W. Zhang,  Yan Zhao

   Please cite Q-Chem as follows:
  "Software for the frontiers of quantum chemistry:
   An overview of developments in the Q-Chem 5 package"
   J. Chem. Phys. 155, 084801 (2021)
   https://doi.org/10.1063/5.0055522 (open access)

 Q-Chem 6.0.0 for Intel X86 EM64T Linux

 Parts of Q-Chem use Armadillo 9.900.5 (Nocturnal Misbehaviour).
 http://arma.sourceforge.net/

 Q-Chem begins on Thu Jul 21 03:14:53 2022  

 Host: nid00539
0

     Scratch files written to /global/cscratch1/sd/ymao90/r7.00_frame_0076_spade_B3LYP_dp20220721031331//
 Processing $rem in /global/homes/y/ymao90/my_qchem/qchem_embedding_5p4/config/preferences:
 Processing $rem in /global/homes/y/ymao90/.qchemrc:
 No nuclear gradient supported for projection-based embedding or EMFT. Set max ideriv = 0.

 Checking the input file for inconsistencies... 	...done.

--------------------------------------------------------------
User input:
--------------------------------------------------------------
$molecule
0 1
--
0 1
C    29.96400   25.69900   26.21900  
C    29.28300   26.68300   27.18500  
C    28.09800   26.02400   27.91100  
C    28.56600   24.75800   28.64700  
C    29.25100   23.78500   27.67300  
C    30.45500   24.47200   27.00600  
H    27.65400   26.78700   28.56100  
H    29.95700   27.12000   27.93200  
H    29.30600   25.53000   25.35800  
H    30.87700   26.13800   25.80100  
H    29.19200   24.96600   29.52300  
H    27.66300   24.27300   29.03800  
H    29.43400   22.88000   28.26400  
H    28.51700   23.38500   26.96300  
H    31.18300   24.84800   27.73600  
H    30.94000   23.82500   26.26500  
H    27.42100   25.63500   27.14000  
N    28.70500   27.79300   26.43000  
H    28.39700   27.52500   25.50300  
C    28.21200   28.98500   26.91700  
H    27.94700   29.74700   26.16300  
O    28.28500   29.29600   28.09300  
--
0 1
C    25.31100   30.89500   25.48500  
H    24.80500   30.13200   24.88700  
H    26.29600   31.06300   25.04200  
H    25.37300   30.64900   26.54800  
S    24.39200   32.43400   25.25800  
C    22.74300   31.73000   25.48700  
H    22.74500   30.98400   24.68800  
H    22.76700   31.34500   26.50900  
H    22.08600   32.59100   25.33800  
O    24.42800   32.51800   23.76400  
C    34.25800   30.32300   29.13700  
H    33.86700   30.50100   28.13200  
H    35.20100   29.80700   28.94000  
H    33.57500   29.67900   29.69600  
S    34.39100   31.89700   30.01300  
C    34.59500   31.30400   31.70800  
H    35.54200   30.76500   31.63200  
H    34.68000   32.21500   32.30600  
H    33.74400   30.71300   32.05600  
O    32.95300   32.31300   30.05400  
C    27.32800   27.44500   32.30700  
H    27.33700   26.47400   32.80800  
H    28.27100   27.56600   31.76700  
H    27.09000   28.25400   33.00300  
S    25.92800   27.39800   31.16500  
C    25.83400   29.15500   30.75000  
H    24.83000   29.43400   30.42100  
H    26.14900   29.78600   31.58500  
H    26.61900   29.25500   29.99500  
O    24.72500   27.02500   31.97400  
C    35.75200   22.27000   32.57500  
H    35.56300   21.50400   31.81800  
H    36.37000   23.07600   32.17000  
H    36.17400   21.84700   33.49000  
S    34.08300   22.92100   32.81400  
C    33.88000   23.24500   31.04800  
H    32.98200   23.85900   30.95000  
H    34.72400   23.82300   30.66100  
H    33.74800   22.34900   30.43700  
O    34.21200   24.20100   33.58000  
C    22.43400   24.47400   32.64700  
H    23.36900   24.87600   32.24700  
H    21.75400   24.04200   31.90800  
H    21.84100   25.21400   33.19200  
S    22.91800   23.14300   33.76900  
C    24.23000   24.07200   34.59500  
H    23.72700   24.72800   35.31000  
H    24.86400   23.35300   35.12100  
H    24.85300   24.56300   33.84300  
O    23.79500   22.17500   33.03800  
C    30.74700   33.62800   22.82700  
H    29.68100   33.40300   22.74100  
H    31.29600   32.75300   23.18500  
H    30.91500   34.56200   23.36900  
S    31.18400   33.89300   21.09400  
C    29.80500   34.97500   20.65700  
H    30.16500   35.44200   19.73700  
H    28.91500   34.40500   20.37900  
H    29.60800   35.65200   21.49200  
O    30.87700   32.59900   20.40700  
C    26.14400   31.66000   20.98300  
H    25.45800   32.12600   21.69400  
H    27.03000   32.23100   20.69300  
H    25.57100   31.31200   20.12000  
S    26.81600   30.19500   21.79800  
C    27.98500   31.22800   22.71000  
H    28.79900   31.61100   22.08900  
H    27.46900   32.03800   23.23200  
H    28.35700   30.63000   23.54500  
O    27.64600   29.55200   20.73100  
C    31.08800   20.38600   29.43000  
H    30.71300   21.41100   29.36600  
H    30.62800   19.96500   30.32800  
H    32.16400   20.29300   29.59300  
S    30.70700   19.34200   28.00500  
C    28.93100   19.37700   28.34100  
H    28.77000   19.01400   29.35900  
H    28.51800   20.37700   28.18300  
H    28.51000   18.66500   27.62800  
O    31.09200   17.97300   28.47100  
C    26.95700   23.14500   32.19600  
H    26.86100   22.87900   33.25200  
H    27.47400   24.07700   31.95300  
H    25.93400   23.18300   31.81200  
S    27.57500   21.68300   31.33300  
C    26.36600   20.43300   31.82300  
H    25.82700   20.82400   32.69000  
H    25.58400   20.29500   31.07100  
H    26.81000   19.46100   32.05300  
O    28.73800   21.30400   32.19600  
C    22.48900   22.29400   27.71400  
H    21.62700   22.92400   27.94700  
H    22.48700   22.05800   26.64700  
H    22.29100   21.43100   28.35500  
S    24.03600   23.04900   28.26500  
C    23.58300   23.72800   29.87700  
H    22.59200   24.18600   29.84800  
H    23.71500   23.00200   30.68300  
H    24.35800   24.46500   30.09900  
O    24.09800   24.20000   27.31000  
C    36.56800   26.81200   26.85200  
H    37.35200   27.48200   27.21600  
H    36.44900   25.90600   27.45100  
H    36.61900   26.34900   25.86400  
S    34.93700   27.58500   26.94600  
C    34.09400   26.79400   25.55800  
H    33.88100   25.74900   25.79500  
H    33.12300   27.29300   25.62300  
H    34.60000   26.81200   24.58900  
O    34.97700   29.00300   26.46800  
C    30.27800   24.05600   22.13100  
H    30.30500   24.85700   22.87300  
H    30.49400   24.38800   21.11200  
H    29.28900   23.59300   22.07500  
S    31.34500   22.71800   22.71100  
C    32.91900   23.58100   22.50100  
H    32.87600   24.49400   23.09900  
H    33.76900   22.97700   22.82900  
H    33.10700   23.81000   21.44900  
O    31.37200   21.65900   21.65300  
C    34.24100   23.02400   26.76300  
H    35.19900   22.64700   27.12700  
H    34.22200   23.43300   25.74900  
H    33.85500   23.73500   27.49800  
S    33.23000   21.52600   26.76300  
C    34.52800   20.35200   26.31400  
H    34.86900   20.31000   25.27600  
H    35.46700   20.47400   26.86100  
H    34.01200   19.43300   26.60400  
O    32.47500   21.60700   25.47400  
C    28.75500   34.72800   25.35400  
H    29.10800   33.77900   24.94200  
H    28.63400   35.48700   24.57700  
H    29.48500   35.11800   26.06800  
S    27.28600   34.61500   26.40000  
C    27.40800   36.26300   27.13000  
H    27.13100   36.92000   26.30100  
H    26.64800   36.42700   27.89800  
H    28.36600   36.50400   27.59800  
O    27.81600   33.77500   27.52000  
C    30.67900   29.11000   22.68800  
H    29.99300   28.54400   23.32300  
H    31.14400   29.94700   23.21600  
H    30.12500   29.66700   21.92800  
S    32.11800   28.28100   21.97400  
C    31.90400   28.92900   20.30000  
H    32.44100   28.34000   19.55200  
H    30.82300   28.97400   20.14500  
H    32.38400   29.91100   20.28400  
O    31.69200   26.84900   21.88200  
C    26.25700   25.21600   24.31900  
H    27.28300   25.07500   24.66900  
H    25.51900   25.24000   25.12600  
H    25.93600   24.47600   23.58200  
S    26.19600   26.81900   23.48700  
C    27.53800   26.35700   22.36800  
H    28.48100   26.09700   22.85500  
H    27.18400   25.54100   21.73300  
H    27.77400   27.15600   21.66100  
O    27.03100   27.81300   24.23300  
C    24.56900   19.31900   24.48400  
H    24.89700   19.95100   25.31400  
H    23.57200   18.94900   24.73400  
H    25.44300   18.71400   24.22800  
S    24.44000   20.43400   23.06800  
C    23.76300   21.78500   24.06000  
H    23.60600   22.59600   23.34400  
H    22.88300   21.48400   24.63300  
H    24.46200   22.06700   24.85100  
O    23.18300   20.02100   22.36600  
C    37.70000   21.45300   24.67600  
H    37.51700   21.22200   25.72800  
H    37.76200   20.49200   24.15800  
H    38.59200   22.05700   24.49300  
S    36.29600   22.40200   24.04900  
C    37.16100   22.58600   22.47300  
H    36.70900   23.41500   21.92200  
H    38.23500   22.75500   22.58000  
H    37.03000   21.62300   21.97400  
O    36.39000   23.69300   24.80100  
C    24.61000   32.74800   30.35100  
H    25.36900   32.00700   30.61600  
H    24.29200   33.06100   31.34800  
H    23.87600   32.24900   29.71400  
S    25.29200   34.14900   29.43700  
C    26.29100   34.63200   30.86400  
H    26.83000   33.72500   31.15100  
H    27.08600   35.33500   30.60200  
H    25.61200   34.99800   31.63800  
O    24.20800   35.16500   29.25400  
C    22.26200   28.10200   30.01600  
H    21.77200   28.74000   30.75700  
H    21.56600   27.26000   30.06800  
H    23.27800   27.85300   30.33200  
S    22.32100   28.95200   28.42300  
C    23.55300   27.85700   27.68200  
H    23.79400   28.27300   26.70000  
H    24.53200   27.76300   28.15900  
H    23.12400   26.85200   27.69300  
O    22.99600   30.23500   28.79600  
C    31.49700   32.92600   26.75300  
H    32.44300   32.48900   26.42400  
H    31.21700   33.88300   26.30500  
H    31.32200   33.16600   27.80400  
S    30.22400   31.67200   26.48200  
C    31.20400   30.55900   27.51500  
H    31.78500   31.03600   28.30900  
H    30.49800   29.82500   27.91000  
H    31.88800   30.05900   26.82500  
O    30.47300   31.33300   25.04600  
C    23.11200   17.40500   29.42800  
H    23.66200   17.08000   30.31500  
H    22.04900   17.44200   29.67800  
H    23.30500   16.62700   28.68500  
S    23.69200   19.03700   28.91100  
C    25.42700   18.53500   28.91000  
H    25.54200   18.00600   29.86000  
H    25.60400   17.78700   28.13300  
H    25.99300   19.46800   28.84500  
O    23.44100   19.90900   30.10100  
C    21.68300   29.47800   21.70600  
H    21.62100   30.00000   20.74700  
H    21.15500   28.54500   21.49100  
H    21.16300   30.01800   22.50200  
S    23.40700   29.33400   22.22500  
C    23.83100   28.27700   20.82200  
H    24.92300   28.28800   20.77500  
H    23.40000   27.28200   20.96100  
H    23.53300   28.71700   19.86700  
O    23.29400   28.42900   23.41200  
C    27.72200   22.26800   24.25100  
H    28.49100   23.02700   24.08300  
H    26.96100   22.10000   23.48600  
H    27.19800   22.70500   25.10500  
S    28.56600   20.72700   24.67200  
C    28.47200   20.04900   22.99900  
H    28.65500   18.97200   22.97600  
H    27.57600   20.36600   22.45900  
H    29.24600   20.57000   22.43100  
O    27.57100   19.98300   25.50700  
C    28.99300   32.67100   30.01100  
H    28.65700   33.69400   30.19700  
H    29.82300   32.61700   29.30200  
H    28.23600   32.00400   29.59100  
S    29.40900   31.96600   31.62200  
C    30.22700   30.46200   31.04200  
H    29.76100   30.24100   30.07900  
H    31.27800   30.72100   30.89200  
H    30.08800   29.60700   31.70900  
O    28.05400   31.54100   32.09600  
C    27.40000   22.09300   19.47900  
H    28.12200   21.59400   20.13100  
H    27.27500   21.38400   18.65700  
H    27.69000   23.10700   19.19400  
S    25.81900   22.17900   20.35000  
C    24.74200   23.11200   19.23900  
H    24.64800   22.57400   18.29200  
H    23.85500   23.24600   19.86200  
H    25.17200   24.06900   18.93300  
O    26.04800   23.09000   21.51500  
C    33.37000   26.97200   31.84700  
H    33.70500   25.95400   32.06200  
H    33.79400   27.41600   30.94200  
H    33.61000   27.58100   32.72200  
S    31.58900   27.03000   31.54500  
C    31.16000   25.80300   32.80000  
H    31.68100   24.87200   32.56100  
H    31.46900   26.15900   33.78700  
H    30.07300   25.69400   32.82400  
O    31.44900   26.20200   30.30600  
$end

$rem
JOBTYPE  SP
METHOD  B3LYP
BASIS  6-31+G(D)
SYMMETRY  FALSE
SYM_IGNORE  TRUE
MEM_TOTAL  12000
MEM_STATIC  4000
BASIS_LIN_DEP_THRESH  6
THRESH  14
SCF_CONVERGENCE  8
FD_MAT_VEC_PROD  FALSE
XC_GRID  000075000302
NL_GRID  1
MAX_SCF_CYCLES  200
ENV_METHOD  B3LYP
GEN_SCFMAN_EMBED  TRUE
SPADE_PARTITION  TRUE
EMBEDDING_EARLY_STOP  TRUE
$end

--------------------------------------------------------------
 ----------------------------------------------------------------
             Standard Nuclear Orientation (Angstroms)
    I     Atom           X                Y                Z
 ----------------------------------------------------------------
    1      C      29.9640000000    25.6990000000    26.2190000000
    2      C      29.2830000000    26.6830000000    27.1850000000
    3      C      28.0980000000    26.0240000000    27.9110000000
    4      C      28.5660000000    24.7580000000    28.6470000000
    5      C      29.2510000000    23.7850000000    27.6730000000
    6      C      30.4550000000    24.4720000000    27.0060000000
    7      H      27.6540000000    26.7870000000    28.5610000000
    8      H      29.9570000000    27.1200000000    27.9320000000
    9      H      29.3060000000    25.5300000000    25.3580000000
   10      H      30.8770000000    26.1380000000    25.8010000000
   11      H      29.1920000000    24.9660000000    29.5230000000
   12      H      27.6630000000    24.2730000000    29.0380000000
   13      H      29.4340000000    22.8800000000    28.2640000000
   14      H      28.5170000000    23.3850000000    26.9630000000
   15      H      31.1830000000    24.8480000000    27.7360000000
   16      H      30.9400000000    23.8250000000    26.2650000000
   17      H      27.4210000000    25.6350000000    27.1400000000
   18      N      28.7050000000    27.7930000000    26.4300000000
   19      H      28.3970000000    27.5250000000    25.5030000000
   20      C      28.2120000000    28.9850000000    26.9170000000
   21      H      27.9470000000    29.7470000000    26.1630000000
   22      O      28.2850000000    29.2960000000    28.0930000000
   23      C      25.3110000000    30.8950000000    25.4850000000
   24      H      24.8050000000    30.1320000000    24.8870000000
   25      H      26.2960000000    31.0630000000    25.0420000000
   26      H      25.3730000000    30.6490000000    26.5480000000
   27      S      24.3920000000    32.4340000000    25.2580000000
   28      C      22.7430000000    31.7300000000    25.4870000000
   29      H      22.7450000000    30.9840000000    24.6880000000
   30      H      22.7670000000    31.3450000000    26.5090000000
   31      H      22.0860000000    32.5910000000    25.3380000000
   32      O      24.4280000000    32.5180000000    23.7640000000
   33      C      34.2580000000    30.3230000000    29.1370000000
   34      H      33.8670000000    30.5010000000    28.1320000000
   35      H      35.2010000000    29.8070000000    28.9400000000
   36      H      33.5750000000    29.6790000000    29.6960000000
   37      S      34.3910000000    31.8970000000    30.0130000000
   38      C      34.5950000000    31.3040000000    31.7080000000
   39      H      35.5420000000    30.7650000000    31.6320000000
   40      H      34.6800000000    32.2150000000    32.3060000000
   41      H      33.7440000000    30.7130000000    32.0560000000
   42      O      32.9530000000    32.3130000000    30.0540000000
   43      C      27.3280000000    27.4450000000    32.3070000000
   44      H      27.3370000000    26.4740000000    32.8080000000
   45      H      28.2710000000    27.5660000000    31.7670000000
   46      H      27.0900000000    28.2540000000    33.0030000000
   47      S      25.9280000000    27.3980000000    31.1650000000
   48      C      25.8340000000    29.1550000000    30.7500000000
   49      H      24.8300000000    29.4340000000    30.4210000000
   50      H      26.1490000000    29.7860000000    31.5850000000
   51      H      26.6190000000    29.2550000000    29.9950000000
   52      O      24.7250000000    27.0250000000    31.9740000000
   53      C      35.7520000000    22.2700000000    32.5750000000
   54      H      35.5630000000    21.5040000000    31.8180000000
   55      H      36.3700000000    23.0760000000    32.1700000000
   56      H      36.1740000000    21.8470000000    33.4900000000
   57      S      34.0830000000    22.9210000000    32.8140000000
   58      C      33.8800000000    23.2450000000    31.0480000000
   59      H      32.9820000000    23.8590000000    30.9500000000
   60      H      34.7240000000    23.8230000000    30.6610000000
   61      H      33.7480000000    22.3490000000    30.4370000000
   62      O      34.2120000000    24.2010000000    33.5800000000
   63      C      22.4340000000    24.4740000000    32.6470000000
   64      H      23.3690000000    24.8760000000    32.2470000000
   65      H      21.7540000000    24.0420000000    31.9080000000
   66      H      21.8410000000    25.2140000000    33.1920000000
   67      S      22.9180000000    23.1430000000    33.7690000000
   68      C      24.2300000000    24.0720000000    34.5950000000
   69      H      23.7270000000    24.7280000000    35.3100000000
   70      H      24.8640000000    23.3530000000    35.1210000000
   71      H      24.8530000000    24.5630000000    33.8430000000
   72      O      23.7950000000    22.1750000000    33.0380000000
   73      C      30.7470000000    33.6280000000    22.8270000000
   74      H      29.6810000000    33.4030000000    22.7410000000
   75      H      31.2960000000    32.7530000000    23.1850000000
   76      H      30.9150000000    34.5620000000    23.3690000000
   77      S      31.1840000000    33.8930000000    21.0940000000
   78      C      29.8050000000    34.9750000000    20.6570000000
   79      H      30.1650000000    35.4420000000    19.7370000000
   80      H      28.9150000000    34.4050000000    20.3790000000
   81      H      29.6080000000    35.6520000000    21.4920000000
   82      O      30.8770000000    32.5990000000    20.4070000000
   83      C      26.1440000000    31.6600000000    20.9830000000
   84      H      25.4580000000    32.1260000000    21.6940000000
   85      H      27.0300000000    32.2310000000    20.6930000000
   86      H      25.5710000000    31.3120000000    20.1200000000
   87      S      26.8160000000    30.1950000000    21.7980000000
   88      C      27.9850000000    31.2280000000    22.7100000000
   89      H      28.7990000000    31.6110000000    22.0890000000
   90      H      27.4690000000    32.0380000000    23.2320000000
   91      H      28.3570000000    30.6300000000    23.5450000000
   92      O      27.6460000000    29.5520000000    20.7310000000
   93      C      31.0880000000    20.3860000000    29.4300000000
   94      H      30.7130000000    21.4110000000    29.3660000000
   95      H      30.6280000000    19.9650000000    30.3280000000
   96      H      32.1640000000    20.2930000000    29.5930000000
   97      S      30.7070000000    19.3420000000    28.0050000000
   98      C      28.9310000000    19.3770000000    28.3410000000
   99      H      28.7700000000    19.0140000000    29.3590000000
  100      H      28.5180000000    20.3770000000    28.1830000000
  101      H      28.5100000000    18.6650000000    27.6280000000
  102      O      31.0920000000    17.9730000000    28.4710000000
  103      C      26.9570000000    23.1450000000    32.1960000000
  104      H      26.8610000000    22.8790000000    33.2520000000
  105      H      27.4740000000    24.0770000000    31.9530000000
  106      H      25.9340000000    23.1830000000    31.8120000000
  107      S      27.5750000000    21.6830000000    31.3330000000
  108      C      26.3660000000    20.4330000000    31.8230000000
  109      H      25.8270000000    20.8240000000    32.6900000000
  110      H      25.5840000000    20.2950000000    31.0710000000
  111      H      26.8100000000    19.4610000000    32.0530000000
  112      O      28.7380000000    21.3040000000    32.1960000000
  113      C      22.4890000000    22.2940000000    27.7140000000
  114      H      21.6270000000    22.9240000000    27.9470000000
  115      H      22.4870000000    22.0580000000    26.6470000000
  116      H      22.2910000000    21.4310000000    28.3550000000
  117      S      24.0360000000    23.0490000000    28.2650000000
  118      C      23.5830000000    23.7280000000    29.8770000000
  119      H      22.5920000000    24.1860000000    29.8480000000
  120      H      23.7150000000    23.0020000000    30.6830000000
  121      H      24.3580000000    24.4650000000    30.0990000000
  122      O      24.0980000000    24.2000000000    27.3100000000
  123      C      36.5680000000    26.8120000000    26.8520000000
  124      H      37.3520000000    27.4820000000    27.2160000000
  125      H      36.4490000000    25.9060000000    27.4510000000
  126      H      36.6190000000    26.3490000000    25.8640000000
  127      S      34.9370000000    27.5850000000    26.9460000000
  128      C      34.0940000000    26.7940000000    25.5580000000
  129      H      33.8810000000    25.7490000000    25.7950000000
  130      H      33.1230000000    27.2930000000    25.6230000000
  131      H      34.6000000000    26.8120000000    24.5890000000
  132      O      34.9770000000    29.0030000000    26.4680000000
  133      C      30.2780000000    24.0560000000    22.1310000000
  134      H      30.3050000000    24.8570000000    22.8730000000
  135      H      30.4940000000    24.3880000000    21.1120000000
  136      H      29.2890000000    23.5930000000    22.0750000000
  137      S      31.3450000000    22.7180000000    22.7110000000
  138      C      32.9190000000    23.5810000000    22.5010000000
  139      H      32.8760000000    24.4940000000    23.0990000000
  140      H      33.7690000000    22.9770000000    22.8290000000
  141      H      33.1070000000    23.8100000000    21.4490000000
  142      O      31.3720000000    21.6590000000    21.6530000000
  143      C      34.2410000000    23.0240000000    26.7630000000
  144      H      35.1990000000    22.6470000000    27.1270000000
  145      H      34.2220000000    23.4330000000    25.7490000000
  146      H      33.8550000000    23.7350000000    27.4980000000
  147      S      33.2300000000    21.5260000000    26.7630000000
  148      C      34.5280000000    20.3520000000    26.3140000000
  149      H      34.8690000000    20.3100000000    25.2760000000
  150      H      35.4670000000    20.4740000000    26.8610000000
  151      H      34.0120000000    19.4330000000    26.6040000000
  152      O      32.4750000000    21.6070000000    25.4740000000
  153      C      28.7550000000    34.7280000000    25.3540000000
  154      H      29.1080000000    33.7790000000    24.9420000000
  155      H      28.6340000000    35.4870000000    24.5770000000
  156      H      29.4850000000    35.1180000000    26.0680000000
  157      S      27.2860000000    34.6150000000    26.4000000000
  158      C      27.4080000000    36.2630000000    27.1300000000
  159      H      27.1310000000    36.9200000000    26.3010000000
  160      H      26.6480000000    36.4270000000    27.8980000000
  161      H      28.3660000000    36.5040000000    27.5980000000
  162      O      27.8160000000    33.7750000000    27.5200000000
  163      C      30.6790000000    29.1100000000    22.6880000000
  164      H      29.9930000000    28.5440000000    23.3230000000
  165      H      31.1440000000    29.9470000000    23.2160000000
  166      H      30.1250000000    29.6670000000    21.9280000000
  167      S      32.1180000000    28.2810000000    21.9740000000
  168      C      31.9040000000    28.9290000000    20.3000000000
  169      H      32.4410000000    28.3400000000    19.5520000000
  170      H      30.8230000000    28.9740000000    20.1450000000
  171      H      32.3840000000    29.9110000000    20.2840000000
  172      O      31.6920000000    26.8490000000    21.8820000000
  173      C      26.2570000000    25.2160000000    24.3190000000
  174      H      27.2830000000    25.0750000000    24.6690000000
  175      H      25.5190000000    25.2400000000    25.1260000000
  176      H      25.9360000000    24.4760000000    23.5820000000
  177      S      26.1960000000    26.8190000000    23.4870000000
  178      C      27.5380000000    26.3570000000    22.3680000000
  179      H      28.4810000000    26.0970000000    22.8550000000
  180      H      27.1840000000    25.5410000000    21.7330000000
  181      H      27.7740000000    27.1560000000    21.6610000000
  182      O      27.0310000000    27.8130000000    24.2330000000
  183      C      24.5690000000    19.3190000000    24.4840000000
  184      H      24.8970000000    19.9510000000    25.3140000000
  185      H      23.5720000000    18.9490000000    24.7340000000
  186      H      25.4430000000    18.7140000000    24.2280000000
  187      S      24.4400000000    20.4340000000    23.0680000000
  188      C      23.7630000000    21.7850000000    24.0600000000
  189      H      23.6060000000    22.5960000000    23.3440000000
  190      H      22.8830000000    21.4840000000    24.6330000000
  191      H      24.4620000000    22.0670000000    24.8510000000
  192      O      23.1830000000    20.0210000000    22.3660000000
  193      C      37.7000000000    21.4530000000    24.6760000000
  194      H      37.5170000000    21.2220000000    25.7280000000
  195      H      37.7620000000    20.4920000000    24.1580000000
  196      H      38.5920000000    22.0570000000    24.4930000000
  197      S      36.2960000000    22.4020000000    24.0490000000
  198      C      37.1610000000    22.5860000000    22.4730000000
  199      H      36.7090000000    23.4150000000    21.9220000000
  200      H      38.2350000000    22.7550000000    22.5800000000
  201      H      37.0300000000    21.6230000000    21.9740000000
  202      O      36.3900000000    23.6930000000    24.8010000000
  203      C      24.6100000000    32.7480000000    30.3510000000
  204      H      25.3690000000    32.0070000000    30.6160000000
  205      H      24.2920000000    33.0610000000    31.3480000000
  206      H      23.8760000000    32.2490000000    29.7140000000
  207      S      25.2920000000    34.1490000000    29.4370000000
  208      C      26.2910000000    34.6320000000    30.8640000000
  209      H      26.8300000000    33.7250000000    31.1510000000
  210      H      27.0860000000    35.3350000000    30.6020000000
  211      H      25.6120000000    34.9980000000    31.6380000000
  212      O      24.2080000000    35.1650000000    29.2540000000
  213      C      22.2620000000    28.1020000000    30.0160000000
  214      H      21.7720000000    28.7400000000    30.7570000000
  215      H      21.5660000000    27.2600000000    30.0680000000
  216      H      23.2780000000    27.8530000000    30.3320000000
  217      S      22.3210000000    28.9520000000    28.4230000000
  218      C      23.5530000000    27.8570000000    27.6820000000
  219      H      23.7940000000    28.2730000000    26.7000000000
  220      H      24.5320000000    27.7630000000    28.1590000000
  221      H      23.1240000000    26.8520000000    27.6930000000
  222      O      22.9960000000    30.2350000000    28.7960000000
  223      C      31.4970000000    32.9260000000    26.7530000000
  224      H      32.4430000000    32.4890000000    26.4240000000
  225      H      31.2170000000    33.8830000000    26.3050000000
  226      H      31.3220000000    33.1660000000    27.8040000000
  227      S      30.2240000000    31.6720000000    26.4820000000
  228      C      31.2040000000    30.5590000000    27.5150000000
  229      H      31.7850000000    31.0360000000    28.3090000000
  230      H      30.4980000000    29.8250000000    27.9100000000
  231      H      31.8880000000    30.0590000000    26.8250000000
  232      O      30.4730000000    31.3330000000    25.0460000000
  233      C      23.1120000000    17.4050000000    29.4280000000
  234      H      23.6620000000    17.0800000000    30.3150000000
  235      H      22.0490000000    17.4420000000    29.6780000000
  236      H      23.3050000000    16.6270000000    28.6850000000
  237      S      23.6920000000    19.0370000000    28.9110000000
  238      C      25.4270000000    18.5350000000    28.9100000000
  239      H      25.5420000000    18.0060000000    29.8600000000
  240      H      25.6040000000    17.7870000000    28.1330000000
  241      H      25.9930000000    19.4680000000    28.8450000000
  242      O      23.4410000000    19.9090000000    30.1010000000
  243      C      21.6830000000    29.4780000000    21.7060000000
  244      H      21.6210000000    30.0000000000    20.7470000000
  245      H      21.1550000000    28.5450000000    21.4910000000
  246      H      21.1630000000    30.0180000000    22.5020000000
  247      S      23.4070000000    29.3340000000    22.2250000000
  248      C      23.8310000000    28.2770000000    20.8220000000
  249      H      24.9230000000    28.2880000000    20.7750000000
  250      H      23.4000000000    27.2820000000    20.9610000000
  251      H      23.5330000000    28.7170000000    19.8670000000
  252      O      23.2940000000    28.4290000000    23.4120000000
  253      C      27.7220000000    22.2680000000    24.2510000000
  254      H      28.4910000000    23.0270000000    24.0830000000
  255      H      26.9610000000    22.1000000000    23.4860000000
  256      H      27.1980000000    22.7050000000    25.1050000000
  257      S      28.5660000000    20.7270000000    24.6720000000
  258      C      28.4720000000    20.0490000000    22.9990000000
  259      H      28.6550000000    18.9720000000    22.9760000000
  260      H      27.5760000000    20.3660000000    22.4590000000
  261      H      29.2460000000    20.5700000000    22.4310000000
  262      O      27.5710000000    19.9830000000    25.5070000000
  263      C      28.9930000000    32.6710000000    30.0110000000
  264      H      28.6570000000    33.6940000000    30.1970000000
  265      H      29.8230000000    32.6170000000    29.3020000000
  266      H      28.2360000000    32.0040000000    29.5910000000
  267      S      29.4090000000    31.9660000000    31.6220000000
  268      C      30.2270000000    30.4620000000    31.0420000000
  269      H      29.7610000000    30.2410000000    30.0790000000
  270      H      31.2780000000    30.7210000000    30.8920000000
  271      H      30.0880000000    29.6070000000    31.7090000000
  272      O      28.0540000000    31.5410000000    32.0960000000
  273      C      27.4000000000    22.0930000000    19.4790000000
  274      H      28.1220000000    21.5940000000    20.1310000000
  275      H      27.2750000000    21.3840000000    18.6570000000
  276      H      27.6900000000    23.1070000000    19.1940000000
  277      S      25.8190000000    22.1790000000    20.3500000000
  278      C      24.7420000000    23.1120000000    19.2390000000
  279      H      24.6480000000    22.5740000000    18.2920000000
  280      H      23.8550000000    23.2460000000    19.8620000000
  281      H      25.1720000000    24.0690000000    18.9330000000
  282      O      26.0480000000    23.0900000000    21.5150000000
  283      C      33.3700000000    26.9720000000    31.8470000000
  284      H      33.7050000000    25.9540000000    32.0620000000
  285      H      33.7940000000    27.4160000000    30.9420000000
  286      H      33.6100000000    27.5810000000    32.7220000000
  287      S      31.5890000000    27.0300000000    31.5450000000
  288      C      31.1600000000    25.8030000000    32.8000000000
  289      H      31.6810000000    24.8720000000    32.5610000000
  290      H      31.4690000000    26.1590000000    33.7870000000
  291      H      30.0730000000    25.6940000000    32.8240000000
  292      O      31.4490000000    26.2020000000    30.3060000000
 ----------------------------------------------------------------
 Nuclear Repulsion Energy =       47902.87866450 hartrees
 There are      602 alpha and      602 beta electrons
 Requested basis set is 6-31+G(d)
 There are 962 shells and 2681 basis functions

 Total QAlloc Memory Limit  12000 MB
 Mega-Array Size      3911 MB
 MEM_STATIC part      4000 MB

 A cutoff of  1.0D-14 yielded 173729 shell pairs
 There are   1518107 function pairs
 Smallest overlap matrix eigenvalue = 5.45E-07
 Linear dependence detected in AO basis
 Tighter screening thresholds may be required for diffuse basis sets
 Use S2THRESH > 14 and THRESH = 14 in case of SCF convergence issues
 Number of orthogonalized atomic orbitals = 2679
 Maximum deviation from orthogonality = 7.621E-11

 Scale SEOQF with 1.000000e-03/1.000000e-03/1.000000e-03

 Standard Electronic Orientation quadrupole field applied
 Nucleus-field energy     =     0.0000000334 hartrees
 Guess from superposition of atomic densities
 Warning:  Energy on first SCF cycle will be non-variational
 SAD guess density has 1204.000002 electrons

 -----------------------------------------------------------------------
  General SCF calculation program by
  Eric Jon Sundstrom, Paul Horn, Yuezhi Mao, Dmitri Zuev, Alec White,
  David Stuck, Shaama M.S., Shane Yost, Joonho Lee, David Small,
  Daniel Levine, Susi Lehtola, Hugh Burton, Evgeny Epifanovsky,
  Bang C. Huynh
 -----------------------------------------------------------------------
=================================================
        Doing projection-based embedding         
      F. Manby et al. JCTC, 8, 2564 (2012)       
=================================================

****************************************************
   Low-level SCF calculation for the whole system   
****************************************************
----------------------------------------------
 Summary of the low-level theory: 
 Exchange:     0.2000 Hartree-Fock + 0.0800 Slater + 0.7200 B88
 Correlation:  0.1900 VWN1RPA + 0.8100 LYP
 Using Euler-Maclaurin-Lebedev (75,302) quadrature formula
----------------------------------------------
 using 16 threads for integral computing
 -------------------------------------------------------
 OpenMP Integral computing Module                
 Release: version 1.0, May 2013, Q-Chem Inc. Pittsburgh 
 -------------------------------------------------------
 A restricted SCF calculation will be
 performed using DIIS
 SCF converges when DIIS error is below 1.0e-08
 ---------------------------------------
  Cycle       Energy         DIIS error
 ---------------------------------------
    1  -15359.9766438522      1.35e-02  
    2  -15335.9134890921      2.50e-03  
    3  -15324.5102375311      4.66e-03  
    4  -15339.9936816633      9.36e-04  
    5  -15340.7042572903      1.87e-04  
    6  -15340.7268938306      9.20e-05  
    7  -15340.7323632244      3.92e-05  
    8  -15340.7334683184      7.00e-06  
    9  -15340.7335048263      2.72e-06  
   10  -15340.7335102777      8.44e-07  
   11  -15340.7335107393      3.59e-07  
   12  -15340.7335108277      1.17e-07  
   13  -15340.7335108373      3.47e-08  
   14  -15340.7335108382      1.34e-08  
   15  -15340.7335108383      5.11e-09  Convergence criterion met
 ---------------------------------------
 SCF time:   CPU 280449.01s  wall 20024.00s 
 SCF   energy in the final basis set =   -15340.7335108383
 Total energy in the final basis set =   -15340.7335108383

****************************************************
             Start embedding calculation            
****************************************************
----------------------------------------------
 Summary of the high-level theory: 
 Exchange:     0.2000 Hartree-Fock + 0.0800 Slater + 0.7200 B88
 Correlation:  0.1900 VWN1RPA + 0.8100 LYP
 Using Euler-Maclaurin-Lebedev (75,302) quadrature formula
----------------------------------------------
Doing R-in-R Embedding Calculation
Number of fragments: 2
Embedded fragment(s): 1 
NOcc for each fragment
           35
          567
NBasis for each fragment
          197
         2484
Variational space of the embedded problem: 
NOcc (active)  = 35
NOcc (fixed)   = 567
NVir (total)   = 2077
Read converged orbitals from disk
=========================================================
       Doing SPADE partition for the orbital space       
     D. Claudino and N. Mayhall JCTC 15, 1053 (2019)     
=========================================================
SPADE singular values:
 1.0000 1.0000 1.0000 1.0000 1.0000 1.0000 1.0000 1.0000 1.0000 0.9999
 0.9998 0.9998 0.9997 0.9997 0.9997 0.9996 0.9995 0.9993 0.9983 0.9977
 0.9974 0.9969 0.9968 0.9963 0.9960 0.9957 0.9950 0.9945 0.9939 0.9930
 0.9921 0.9915 0.9903 0.9860 0.9802 0.2159 0.1809 0.1567 0.1397 0.1299
 0.1270 0.1213 0.1178 0.1014 0.1008 0.0876 0.0864 0.0786 0.0774 0.0706
 0.0605 0.0498 0.0455 0.0447 0.0419 0.0391 0.0352 0.0336 0.0320 0.0300
 0.0297 0.0268 0.0261 0.0245 0.0230 0.0214 0.0203 0.0196 0.0179 0.0165
 0.0155 0.0149 0.0131 0.0128 0.0114 0.0108 0.0102 0.0098 0.0093 0.0085
 0.0084 0.0081 0.0073 0.0070 0.0066 0.0063 0.0062 0.0060 0.0055 0.0053
 0.0050 0.0047 0.0044 0.0044 0.0041 0.0040 0.0040 0.0037 0.0034 0.0033
 0.0033 0.0030 0.0029 0.0027 0.0026 0.0026 0.0024 0.0024 0.0023 0.0022
 0.0020 0.0019 0.0018 0.0017 0.0017 0.0016 0.0016 0.0016 0.0015 0.0014
 0.0013 0.0013 0.0013 0.0012 0.0011 0.0011 0.0011 0.0010 0.0010 0.0010
 0.0009 0.0009 0.0009 0.0008 0.0008 0.0008 0.0007 0.0007 0.0006 0.0006
 0.0006 0.0006 0.0006 0.0005 0.0005 0.0005 0.0005 0.0004 0.0004 0.0004
 0.0004 0.0004 0.0004 0.0003 0.0003 0.0003 0.0003 0.0003 0.0003 0.0003
 0.0002 0.0002 0.0002 0.0002 0.0002 0.0002 0.0002 0.0002 0.0002 0.0002
 0.0002 0.0002 0.0002 0.0002 0.0001 0.0001 0.0001 0.0001 0.0001 0.0001
 0.0001 0.0001 0.0001 0.0001 0.0001 0.0001 0.0001 0.0001 0.0001 0.0001
 0.0001 0.0001 0.0001 0.0001 0.0001 0.0000 0.0000
Early stop requested; no embedded SCF will be performed

 567 environment occs will be part of frozen-core in future post-HF calculations

 --------------------------------------------------------------

                    Orbital Energies (a.u.)
 --------------------------------------------------------------

 Alpha MOs
 -- Occupied --
-89.0253 -89.0123 -89.0101 -89.0087 -89.0046 -89.0046 -89.0042 -89.0023
-89.0004 -88.9962 -88.9944 -88.9940 -88.9935 -88.9896 -88.9893 -88.9862
-88.9858 -88.9842 -88.9838 -88.9816 -88.9798 -88.9774 -88.9774 -88.9768
-88.9748 -88.9734 -88.9630 -19.1432 -19.1365 -19.1258 -19.1258 -19.1198
-19.1189 -19.1180 -19.1147 -19.1119 -19.1117 -19.1111 -19.1103 -19.1071
-19.1070 -19.1035 -19.1022 -19.1022 -19.1013 -19.0977 -19.0959 -19.0957
-19.0953 -19.0937 -19.0906 -19.0897 -19.0892 -19.0884 -10.2434 -10.2397
-10.2345 -10.2327 -10.2315 -10.2297 -10.2277 -10.2255 -10.2225 -10.2222
-10.2218 -10.2216 -10.2208 -10.2206 -10.2203 -10.2193 -10.2181 -10.2179
-10.2176 -10.2153 -10.2147 -10.2140 -10.2137 -10.2101 -10.2085 -10.2084
-10.2080 -10.2079 -10.2027 -10.1999 -10.1996 -10.1992 -10.1982 -10.1968
-10.1965 -10.1958 -10.1957 -10.1951 -10.1943 -10.1930 -10.1926 -10.1921
-10.1920 -10.1910 -10.1900 -10.1898 -10.1897 -10.1888 -10.1885 -10.1883
-10.1879 -10.1829 -10.1766 -10.1752  -8.0713  -8.0584  -8.0565  -8.0545
 -8.0511  -8.0503  -8.0503  -8.0483  -8.0456  -8.0429  -8.0404  -8.0398
 -8.0389  -8.0353  -8.0351  -8.0315  -8.0312  -8.0298  -8.0290  -8.0280
 -8.0254  -8.0236  -8.0228  -8.0222  -8.0208  -8.0200  -8.0090  -6.0356
 -6.0342  -6.0289  -6.0228  -6.0215  -6.0208  -6.0196  -6.0188  -6.0177
 -6.0156  -6.0155  -6.0146  -6.0145  -6.0143  -6.0139  -6.0136  -6.0133
 -6.0127  -6.0122  -6.0116  -6.0099  -6.0088  -6.0079  -6.0078  -6.0077
 -6.0072  -6.0059  -6.0055  -6.0047  -6.0040  -6.0035  -6.0033  -6.0031
 -6.0029  -6.0022  -6.0003  -5.9998  -5.9997  -5.9983  -5.9983  -5.9976
 -5.9972  -5.9962  -5.9959  -5.9958  -5.9947  -5.9943  -5.9943  -5.9935
 -5.9926  -5.9925  -5.9922  -5.9922  -5.9918  -5.9911  -5.9896  -5.9889
 -5.9885  -5.9884  -5.9881  -5.9873  -5.9872  -5.9867  -5.9867  -5.9866
 -5.9858  -5.9857  -5.9854  -5.9854  -5.9844  -5.9838  -5.9830  -5.9829
 -5.9809  -5.9806  -5.9794  -5.9781  -5.9775  -5.9735  -5.9720  -5.9663
 -1.0511  -1.0397  -1.0342  -1.0332  -1.0322  -1.0319  -1.0268  -1.0249
 -1.0227  -1.0202  -1.0197  -1.0187  -1.0182  -1.0165  -1.0151  -1.0144
 -1.0137  -1.0111  -1.0050  -1.0047  -1.0046  -1.0043  -1.0041  -1.0039
 -1.0032  -0.9991  -0.9914  -0.8341  -0.8243  -0.8116  -0.8083  -0.8070
 -0.8058  -0.8052  -0.8051  -0.8030  -0.8001  -0.7981  -0.7956  -0.7951
 -0.7944  -0.7897  -0.7882  -0.7860  -0.7844  -0.7823  -0.7819  -0.7809
 -0.7794  -0.7787  -0.7785  -0.7751  -0.7748  -0.7743  -0.7472  -0.7439
 -0.7408  -0.7400  -0.7370  -0.7354  -0.7332  -0.7329  -0.7307  -0.7298
 -0.7282  -0.7224  -0.7196  -0.7190  -0.7140  -0.7134  -0.7112  -0.7085
 -0.7080  -0.7070  -0.7049  -0.7044  -0.7033  -0.7000  -0.6984  -0.6946
 -0.6893  -0.6392  -0.6272  -0.6220  -0.6189  -0.6179  -0.6178  -0.6176
 -0.6163  -0.6133  -0.6118  -0.6088  -0.6066  -0.6036  -0.6029  -0.6022
 -0.5979  -0.5973  -0.5955  -0.5949  -0.5943  -0.5919  -0.5901  -0.5897
 -0.5891  -0.5834  -0.5827  -0.5794  -0.5114  -0.4946  -0.4944  -0.4939
 -0.4931  -0.4917  -0.4906  -0.4879  -0.4868  -0.4863  -0.4854  -0.4844
 -0.4834  -0.4831  -0.4813  -0.4808  -0.4791  -0.4790  -0.4786  -0.4778
 -0.4771  -0.4760  -0.4754  -0.4749  -0.4742  -0.4740  -0.4729  -0.4725
 -0.4723  -0.4711  -0.4709  -0.4701  -0.4699  -0.4697  -0.4684  -0.4672
 -0.4666  -0.4654  -0.4643  -0.4631  -0.4621  -0.4620  -0.4613  -0.4610
 -0.4604  -0.4594  -0.4593  -0.4583  -0.4577  -0.4564  -0.4561  -0.4557
 -0.4555  -0.4541  -0.4527  -0.4522  -0.4520  -0.4509  -0.4497  -0.4485
 -0.4483  -0.4477  -0.4474  -0.4463  -0.4460  -0.4453  -0.4447  -0.4443
 -0.4436  -0.4435  -0.4428  -0.4424  -0.4415  -0.4411  -0.4408  -0.4396
 -0.4391  -0.4379  -0.4371  -0.4369  -0.4359  -0.4355  -0.4349  -0.4338
 -0.4330  -0.4324  -0.4316  -0.4309  -0.4292  -0.4281  -0.4274  -0.4267
 -0.4264  -0.4264  -0.4224  -0.4223  -0.4197  -0.4191  -0.4180  -0.4172
 -0.4169  -0.4163  -0.4155  -0.4152  -0.4149  -0.4145  -0.4124  -0.4120
 -0.4117  -0.4108  -0.4106  -0.4099  -0.4096  -0.4091  -0.4080  -0.4072
 -0.4062  -0.4056  -0.4052  -0.4046  -0.4045  -0.4041  -0.4034  -0.4029
 -0.4028  -0.4021  -0.4012  -0.4008  -0.4006  -0.3999  -0.3990  -0.3983
 -0.3982  -0.3979  -0.3976  -0.3961  -0.3939  -0.3936  -0.3928  -0.3926
 -0.3924  -0.3921  -0.3912  -0.3896  -0.3883  -0.3864  -0.3846  -0.3835
 -0.3819  -0.3817  -0.3816  -0.3807  -0.3802  -0.3798  -0.3783  -0.3742
 -0.3737  -0.3732  -0.3709  -0.3701  -0.3696  -0.3682  -0.3681  -0.3670
 -0.3649  -0.3635  -0.3635  -0.3632  -0.3630  -0.3616  -0.3609  -0.3592
 -0.3587  -0.3581  -0.3547  -0.3524  -0.3514  -0.3502  -0.3488  -0.3475
 -0.3453  -0.3451  -0.3442  -0.3421  -0.3405  -0.3398  -0.3384  -0.3342
 -0.3304  -0.3019  -0.2967  -0.2895  -0.2859  -0.2820  -0.2801  -0.2785
 -0.2772  -0.2728  -0.2727  -0.2726  -0.2708  -0.2699  -0.2676  -0.2675
 -0.2653  -0.2644  -0.2637  -0.2594  -0.2583  -0.2581  -0.2550  -0.2543
 -0.2533  -0.2532  -0.2507  -0.2497  -0.2495  -0.2488  -0.2482  -0.2479
 -0.2464  -0.2443  -0.2419  -0.2393  -0.2389  -0.2379  -0.2368  -0.2346
 -0.2327  -0.2321  -0.2317  -0.2301  -0.2292  -0.2284  -0.2233  -0.2215
 -0.2213  -0.2186  -0.2183  -0.2183  -0.2169  -0.2151  -0.2044 -10.3917
-10.4025 -10.2805 -12.0546 -13.1093 -13.6606 -10.4714 -12.7616 -10.8775
 -0.7597  -0.6297  -0.6168  -0.7629  -0.8762  -0.6975  -0.5832  -0.8551
 -0.4119  -0.4513  -0.4334  -0.4643  -0.4536  -0.4019  -0.4095  -0.4526
 -0.4323  -0.4206  -0.3838  -0.4613  -0.3666  -0.4090  -0.4521  -0.5034
 -0.4671  -0.5425
 -- Virtual --
 -0.0312  -0.0250  -0.0199  -0.0180  -0.0161  -0.0152  -0.0142  -0.0118
 -0.0111  -0.0087  -0.0080  -0.0066  -0.0051  -0.0043  -0.0038  -0.0019
 -0.0009  -0.0002   0.0009   0.0015   0.0021   0.0022   0.0029   0.0033
  0.0041   0.0050   0.0054   0.0068   0.0082   0.0092   0.0100   0.0104
  0.0107   0.0114   0.0117   0.0129   0.0131   0.0139   0.0145   0.0148
  0.0160   0.0171   0.0174   0.0188   0.0197   0.0205   0.0209   0.0214
  0.0219   0.0222   0.0229   0.0235   0.0241   0.0252   0.0258   0.0258
  0.0267   0.0272   0.0287   0.0293   0.0296   0.0302   0.0304   0.0310
  0.0319   0.0328   0.0335   0.0339   0.0345   0.0352   0.0354   0.0356
  0.0365   0.0370   0.0375   0.0384   0.0388   0.0392   0.0408   0.0411
  0.0414   0.0424   0.0432   0.0439   0.0449   0.0452   0.0459   0.0464
  0.0467   0.0476   0.0478   0.0487   0.0495   0.0498   0.0507   0.0509
  0.0512   0.0516   0.0519   0.0527   0.0537   0.0543   0.0549   0.0551
  0.0558   0.0563   0.0571   0.0574   0.0576   0.0587   0.0595   0.0596
  0.0605   0.0608   0.0623   0.0631   0.0634   0.0638   0.0650   0.0653
  0.0659   0.0665   0.0672   0.0677   0.0683   0.0695   0.0702   0.0704
  0.0707   0.0715   0.0721   0.0725   0.0737   0.0742   0.0747   0.0750
  0.0758   0.0759   0.0776   0.0781   0.0786   0.0795   0.0800   0.0808
  0.0815   0.0818   0.0833   0.0841   0.0843   0.0845   0.0856   0.0860
  0.0865   0.0874   0.0880   0.0890   0.0894   0.0901   0.0907   0.0911
  0.0926   0.0930   0.0932   0.0938   0.0943   0.0945   0.0953   0.0964
  0.0967   0.0969   0.0977   0.0982   0.0990   0.0996   0.1003   0.1011
  0.1015   0.1024   0.1032   0.1035   0.1037   0.1050   0.1053   0.1056
  0.1062   0.1069   0.1074   0.1085   0.1092   0.1101   0.1107   0.1110
  0.1118   0.1124   0.1132   0.1137   0.1142   0.1149   0.1156   0.1162
  0.1163   0.1173   0.1174   0.1190   0.1190   0.1194   0.1210   0.1212
  0.1217   0.1224   0.1233   0.1244   0.1246   0.1254   0.1256   0.1261
  0.1267   0.1272   0.1283   0.1287   0.1293   0.1301   0.1309   0.1318
  0.1321   0.1329   0.1331   0.1334   0.1342   0.1353   0.1358   0.1363
  0.1370   0.1375   0.1379   0.1383   0.1392   0.1396   0.1402   0.1410
  0.1411   0.1418   0.1421   0.1429   0.1439   0.1444   0.1450   0.1452
  0.1458   0.1467   0.1476   0.1480   0.1490   0.1495   0.1496   0.1510
  0.1513   0.1515   0.1526   0.1533   0.1535   0.1541   0.1548   0.1549
  0.1559   0.1561   0.1567   0.1571   0.1577   0.1583   0.1591   0.1599
  0.1605   0.1610   0.1619   0.1621   0.1626   0.1628   0.1639   0.1644
  0.1654   0.1659   0.1668   0.1675   0.1676   0.1680   0.1684   0.1697
  0.1703   0.1708   0.1717   0.1725   0.1733   0.1738   0.1742   0.1747
  0.1749   0.1752   0.1775   0.1777   0.1779   0.1790   0.1799   0.1807
  0.1807   0.1814   0.1817   0.1826   0.1833   0.1838   0.1847   0.1854
  0.1854   0.1858   0.1867   0.1873   0.1873   0.1882   0.1890   0.1896
  0.1901   0.1907   0.1911   0.1916   0.1917   0.1932   0.1941   0.1951
  0.1959   0.1970   0.1972   0.1977   0.1986   0.1991   0.1998   0.1999
  0.2005   0.2010   0.2015   0.2018   0.2026   0.2030   0.2035   0.2042
  0.2049   0.2062   0.2069   0.2076   0.2079   0.2085   0.2090   0.2096
  0.2103   0.2110   0.2114   0.2121   0.2126   0.2135   0.2139   0.2141
  0.2143   0.2152   0.2163   0.2174   0.2176   0.2184   0.2188   0.2196
  0.2200   0.2206   0.2208   0.2212   0.2219   0.2223   0.2232   0.2240
  0.2240   0.2251   0.2258   0.2262   0.2271   0.2276   0.2282   0.2288
  0.2295   0.2302   0.2311   0.2314   0.2321   0.2325   0.2338   0.2343
  0.2349   0.2358   0.2366   0.2374   0.2380   0.2385   0.2395   0.2396
  0.2403   0.2410   0.2418   0.2422   0.2429   0.2433   0.2443   0.2445
  0.2453   0.2465   0.2474   0.2482   0.2487   0.2492   0.2498   0.2503
  0.2511   0.2512   0.2525   0.2530   0.2538   0.2544   0.2548   0.2549
  0.2557   0.2561   0.2567   0.2577   0.2580   0.2586   0.2597   0.2602
  0.2608   0.2615   0.2618   0.2632   0.2635   0.2647   0.2654   0.2661
  0.2666   0.2670   0.2677   0.2683   0.2697   0.2701   0.2706   0.2712
  0.2719   0.2726   0.2728   0.2734   0.2744   0.2753   0.2758   0.2772
  0.2775   0.2783   0.2787   0.2803   0.2809   0.2812   0.2817   0.2821
  0.2833   0.2847   0.2848   0.2856   0.2864   0.2867   0.2880   0.2887
  0.2891   0.2897   0.2902   0.2912   0.2923   0.2941   0.2944   0.2951
  0.2960   0.2961   0.2965   0.2975   0.2985   0.2991   0.2999   0.3011
  0.3020   0.3023   0.3029   0.3038   0.3053   0.3065   0.3073   0.3081
  0.3085   0.3090   0.3092   0.3103   0.3117   0.3125   0.3140   0.3153
  0.3158   0.3160   0.3165   0.3170   0.3171   0.3194   0.3200   0.3215
  0.3217   0.3229   0.3238   0.3244   0.3247   0.3254   0.3263   0.3269
  0.3275   0.3281   0.3292   0.3303   0.3307   0.3310   0.3321   0.3324
  0.3329   0.3336   0.3346   0.3359   0.3372   0.3379   0.3388   0.3395
  0.3405   0.3419   0.3424   0.3434   0.3444   0.3444   0.3452   0.3468
  0.3482   0.3485   0.3492   0.3499   0.3504   0.3506   0.3524   0.3533
  0.3545   0.3546   0.3555   0.3561   0.3581   0.3593   0.3604   0.3611
  0.3623   0.3625   0.3630   0.3640   0.3644   0.3662   0.3670   0.3681
  0.3687   0.3694   0.3709   0.3713   0.3719   0.3732   0.3738   0.3746
  0.3750   0.3759   0.3768   0.3783   0.3787   0.3794   0.3798   0.3810
  0.3813   0.3820   0.3831   0.3836   0.3848   0.3859   0.3867   0.3877
  0.3884   0.3900   0.3902   0.3907   0.3911   0.3918   0.3931   0.3942
  0.3949   0.3963   0.3979   0.3987   0.3994   0.4000   0.4009   0.4012
  0.4017   0.4046   0.4051   0.4062   0.4068   0.4082   0.4084   0.4098
  0.4102   0.4119   0.4128   0.4138   0.4148   0.4151   0.4157   0.4165
  0.4172   0.4182   0.4188   0.4200   0.4207   0.4215   0.4220   0.4227
  0.4239   0.4248   0.4260   0.4265   0.4274   0.4287   0.4295   0.4305
  0.4310   0.4328   0.4335   0.4346   0.4351   0.4368   0.4381   0.4389
  0.4395   0.4410   0.4419   0.4433   0.4436   0.4453   0.4463   0.4476
  0.4485   0.4500   0.4503   0.4534   0.4546   0.4560   0.4566   0.4578
  0.4589   0.4603   0.4605   0.4613   0.4628   0.4646   0.4650   0.4664
  0.4672   0.4682   0.4716   0.4726   0.4738   0.4765   0.4770   0.4774
  0.4781   0.4795   0.4810   0.4828   0.4835   0.4843   0.4859   0.4880
  0.4884   0.4893   0.4900   0.4921   0.4934   0.4952   0.4969   0.4969
  0.4987   0.4994   0.5016   0.5033   0.5041   0.5062   0.5087   0.5093
  0.5107   0.5116   0.5147   0.5164   0.5173   0.5177   0.5196   0.5214
  0.5228   0.5229   0.5249   0.5260   0.5288   0.5313   0.5339   0.5355
  0.5377   0.5391   0.5399   0.5424   0.5432   0.5440   0.5460   0.5476
  0.5496   0.5505   0.5514   0.5522   0.5532   0.5555   0.5572   0.5590
  0.5597   0.5623   0.5647   0.5661   0.5680   0.5694   0.5697   0.5708
  0.5728   0.5731   0.5750   0.5758   0.5769   0.5788   0.5805   0.5818
  0.5826   0.5840   0.5855   0.5875   0.5884   0.5904   0.5909   0.5914
  0.5931   0.5948   0.5957   0.5963   0.5984   0.5997   0.6015   0.6031
  0.6040   0.6064   0.6072   0.6094   0.6110   0.6122   0.6128   0.6133
  0.6148   0.6153   0.6168   0.6184   0.6199   0.6214   0.6228   0.6235
  0.6248   0.6251   0.6276   0.6284   0.6300   0.6307   0.6325   0.6338
  0.6345   0.6352   0.6359   0.6367   0.6379   0.6394   0.6406   0.6413
  0.6432   0.6442   0.6451   0.6460   0.6464   0.6479   0.6489   0.6504
  0.6515   0.6520   0.6529   0.6547   0.6558   0.6567   0.6583   0.6593
  0.6601   0.6609   0.6623   0.6624   0.6643   0.6653   0.6666   0.6687
  0.6689   0.6718   0.6721   0.6747   0.6754   0.6760   0.6775   0.6785
  0.6804   0.6807   0.6811   0.6814   0.6831   0.6848   0.6859   0.6876
  0.6885   0.6899   0.6915   0.6931   0.6942   0.6947   0.6956   0.6967
  0.6978   0.6987   0.7012   0.7024   0.7030   0.7042   0.7056   0.7061
  0.7079   0.7090   0.7109   0.7117   0.7124   0.7135   0.7149   0.7162
  0.7176   0.7188   0.7192   0.7210   0.7221   0.7234   0.7239   0.7258
  0.7270   0.7287   0.7302   0.7309   0.7313   0.7337   0.7344   0.7353
  0.7375   0.7386   0.7389   0.7411   0.7427   0.7435   0.7445   0.7464
  0.7472   0.7488   0.7496   0.7506   0.7529   0.7532   0.7555   0.7566
  0.7571   0.7604   0.7615   0.7622   0.7641   0.7651   0.7667   0.7685
  0.7699   0.7716   0.7728   0.7760   0.7774   0.7781   0.7798   0.7808
  0.7815   0.7824   0.7845   0.7852   0.7862   0.7877   0.7892   0.7908
  0.7917   0.7922   0.7925   0.7943   0.7963   0.7981   0.8000   0.8014
  0.8037   0.8050   0.8067   0.8080   0.8093   0.8108   0.8120   0.8133
  0.8150   0.8155   0.8160   0.8176   0.8189   0.8202   0.8220   0.8236
  0.8254   0.8265   0.8266   0.8277   0.8299   0.8303   0.8327   0.8336
  0.8341   0.8356   0.8362   0.8368   0.8384   0.8396   0.8419   0.8431
  0.8444   0.8452   0.8474   0.8485   0.8490   0.8513   0.8529   0.8535
  0.8553   0.8570   0.8579   0.8590   0.8598   0.8612   0.8629   0.8635
  0.8647   0.8663   0.8671   0.8685   0.8711   0.8733   0.8741   0.8744
  0.8753   0.8779   0.8780   0.8787   0.8812   0.8821   0.8828   0.8838
  0.8856   0.8859   0.8873   0.8882   0.8914   0.8924   0.8938   0.8948
  0.8957   0.8964   0.8977   0.8997   0.9001   0.9013   0.9025   0.9052
  0.9074   0.9075   0.9085   0.9102   0.9123   0.9131   0.9134   0.9150
  0.9164   0.9169   0.9193   0.9213   0.9222   0.9231   0.9253   0.9258
  0.9265   0.9270   0.9290   0.9305   0.9322   0.9328   0.9335   0.9344
  0.9355   0.9377   0.9390   0.9398   0.9404   0.9410   0.9428   0.9437
  0.9455   0.9462   0.9473   0.9491   0.9495   0.9508   0.9516   0.9528
  0.9537   0.9545   0.9556   0.9572   0.9581   0.9587   0.9597   0.9613
  0.9619   0.9629   0.9637   0.9643   0.9650   0.9663   0.9672   0.9685
  0.9701   0.9720   0.9730   0.9742   0.9754   0.9760   0.9769   0.9778
  0.9790   0.9798   0.9805   0.9824   0.9831   0.9836   0.9850   0.9864
  0.9864   0.9878   0.9889   0.9893   0.9910   0.9929   0.9939   0.9951
  0.9959   0.9974   0.9981   0.9988   0.9998   1.0010   1.0023   1.0025
  1.0037   1.0055   1.0067   1.0081   1.0090   1.0095   1.0105   1.0113
  1.0119   1.0144   1.0151   1.0164   1.0180   1.0193   1.0197   1.0208
  1.0214   1.0238   1.0240   1.0252   1.0261   1.0274   1.0285   1.0294
  1.0305   1.0316   1.0324   1.0333   1.0349   1.0357   1.0368   1.0375
  1.0399   1.0409   1.0413   1.0419   1.0454   1.0458   1.0476   1.0485
  1.0501   1.0515   1.0524   1.0534   1.0541   1.0560   1.0573   1.0587
  1.0596   1.0609   1.0615   1.0623   1.0656   1.0662   1.0673   1.0677
  1.0694   1.0711   1.0729   1.0753   1.0760   1.0783   1.0784   1.0801
  1.0808   1.0819   1.0833   1.0845   1.0873   1.0881   1.0892   1.0902
  1.0914   1.0933   1.0953   1.0965   1.0974   1.0976   1.0980   1.1002
  1.1014   1.1023   1.1040   1.1068   1.1078   1.1083   1.1093   1.1109
  1.1127   1.1131   1.1149   1.1156   1.1178   1.1189   1.1213   1.1228
  1.1242   1.1261   1.1270   1.1278   1.1285   1.1300   1.1305   1.1319
  1.1325   1.1354   1.1368   1.1376   1.1380   1.1394   1.1402   1.1414
  1.1427   1.1441   1.1458   1.1477   1.1487   1.1507   1.1516   1.1521
  1.1532   1.1538   1.1550   1.1575   1.1585   1.1598   1.1603   1.1608
  1.1630   1.1647   1.1654   1.1657   1.1669   1.1678   1.1695   1.1713
  1.1728   1.1734   1.1743   1.1760   1.1769   1.1784   1.1794   1.1813
  1.1819   1.1827   1.1833   1.1859   1.1868   1.1884   1.1902   1.1916
  1.1947   1.1952   1.1954   1.1985   1.2003   1.2019   1.2022   1.2035
  1.2049   1.2074   1.2077   1.2095   1.2117   1.2122   1.2155   1.2160
  1.2185   1.2217   1.2238   1.2259   1.2273   1.2286   1.2294   1.2325
  1.2329   1.2353   1.2378   1.2385   1.2411   1.2413   1.2454   1.2481
  1.2490   1.2502   1.2519   1.2532   1.2543   1.2583   1.2603   1.2608
  1.2622   1.2641   1.2659   1.2706   1.2732   1.2758   1.2760   1.2803
  1.2824   1.2840   1.2857   1.2875   1.2896   1.2906   1.2927   1.2940
  1.2951   1.2964   1.2988   1.3016   1.3032   1.3072   1.3078   1.3104
  1.3134   1.3145   1.3165   1.3216   1.3236   1.3259   1.3285   1.3309
  1.3334   1.3347   1.3366   1.3405   1.3411   1.3437   1.3454   1.3480
  1.3505   1.3540   1.3555   1.3579   1.3593   1.3611   1.3622   1.3639
  1.3655   1.3668   1.3677   1.3715   1.3732   1.3750   1.3765   1.3786
  1.3792   1.3820   1.3830   1.3859   1.3872   1.3885   1.3905   1.3917
  1.3942   1.3955   1.3973   1.3991   1.3994   1.4031   1.4042   1.4050
  1.4070   1.4090   1.4098   1.4104   1.4130   1.4137   1.4150   1.4162
  1.4172   1.4196   1.4215   1.4229   1.4231   1.4246   1.4262   1.4273
  1.4287   1.4297   1.4309   1.4312   1.4332   1.4340   1.4351   1.4375
  1.4382   1.4396   1.4410   1.4422   1.4442   1.4447   1.4456   1.4478
  1.4494   1.4528   1.4535   1.4545   1.4564   1.4582   1.4600   1.4606
  1.4626   1.4636   1.4656   1.4687   1.4702   1.4726   1.4746   1.4770
  1.4781   1.4800   1.4802   1.4832   1.4838   1.4850   1.4877   1.4893
  1.4903   1.4927   1.4947   1.4960   1.4969   1.4987   1.5015   1.5037
  1.5063   1.5077   1.5097   1.5109   1.5127   1.5134   1.5148   1.5184
  1.5198   1.5212   1.5246   1.5272   1.5294   1.5306   1.5317   1.5333
  1.5361   1.5365   1.5392   1.5421   1.5430   1.5448   1.5472   1.5502
  1.5522   1.5561   1.5583   1.5622   1.5649   1.5670   1.5720   1.5764
  1.5778   1.5783   1.5816   1.5870   1.5882   1.5967   1.6016   1.6082
  1.6088   1.6120   1.6130   1.6165   1.6221   1.6270   1.6282   1.6325
  1.6345   1.6459   1.6473   1.6486   1.6534   1.6539   1.6574   1.6577
  1.6594   1.6621   1.6653   1.6676   1.6700   1.6713   1.6747   1.6755
  1.6769   1.6774   1.6781   1.6803   1.6827   1.6849   1.6864   1.6869
  1.6896   1.6901   1.6910   1.6921   1.6939   1.6946   1.6966   1.6968
  1.6988   1.6991   1.6999   1.7013   1.7022   1.7029   1.7039   1.7047
  1.7066   1.7075   1.7083   1.7090   1.7122   1.7132   1.7142   1.7150
  1.7172   1.7182   1.7202   1.7215   1.7240   1.7262   1.7274   1.7282
  1.7287   1.7315   1.7327   1.7334   1.7358   1.7366   1.7382   1.7394
  1.7410   1.7414   1.7418   1.7429   1.7436   1.7480   1.7492   1.7502
  1.7519   1.7535   1.7551   1.7573   1.7585   1.7595   1.7623   1.7632
  1.7650   1.7666   1.7677   1.7687   1.7700   1.7717   1.7738   1.7754
  1.7765   1.7767   1.7789   1.7818   1.7830   1.7848   1.7889   1.7904
  1.7923   1.7926   1.7940   1.7945   1.7957   1.7974   1.7995   1.8012
  1.8026   1.8064   1.8065   1.8092   1.8094   1.8115   1.8126   1.8153
  1.8164   1.8169   1.8211   1.8233   1.8244   1.8257   1.8293   1.8340
  1.8366   1.8427   1.8432   1.8446   1.8502   1.8517   1.8572   1.8583
  1.8597   1.8623   1.8629   1.8640   1.8682   1.8707   1.8719   1.8746
  1.8761   1.8770   1.8779   1.8798   1.8824   1.8826   1.8849   1.8856
  1.8865   1.8871   1.8901   1.8927   1.8930   1.8943   1.8949   1.8967
  1.8984   1.8997   1.9011   1.9017   1.9033   1.9043   1.9045   1.9064
  1.9071   1.9089   1.9092   1.9092   1.9116   1.9130   1.9137   1.9152
  1.9164   1.9183   1.9209   1.9219   1.9229   1.9248   1.9259   1.9262
  1.9277   1.9289   1.9295   1.9313   1.9316   1.9329   1.9362   1.9369
  1.9396   1.9398   1.9423   1.9433   1.9445   1.9470   1.9476   1.9505
  1.9533   1.9544   1.9591   1.9616   1.9632   1.9687   1.9751   1.9784
  1.9819   1.9844   1.9885   1.9913   1.9939   1.9991   2.0034   2.0087
  2.0181   2.0208   2.0222   2.0274   2.0392   2.0468   2.0502   2.0535
  2.0563   2.0590   2.0607   2.0631   2.0658   2.0673   2.0693   2.0714
  2.0735   2.0765   2.0787   2.0799   2.0808   2.0829   2.0837   2.0845
  2.0853   2.0863   2.0870   2.0887   2.0894   2.0904   2.0910   2.0929
  2.0932   2.0955   2.0963   2.0967   2.0987   2.0999   2.1003   2.1038
  2.1051   2.1052   2.1064   2.1070   2.1079   2.1090   2.1106   2.1118
  2.1139   2.1142   2.1164   2.1167   2.1192   2.1217   2.1230   2.1247
  2.1318   2.1334   2.1358   2.1422   2.1445   2.1473   2.1555   2.1601
  2.1613   2.1633   2.1636   2.1677   2.1773   2.1813   2.1833   2.1848
  2.1876   2.1910   2.1925   2.1955   2.1988   2.2036   2.2041   2.2053
  2.2074   2.2084   2.2100   2.2105   2.2117   2.2135   2.2151   2.2173
  2.2182   2.2202   2.2205   2.2221   2.2232   2.2240   2.2252   2.2282
  2.2307   2.2331   2.2354   2.2359   2.2369   2.2373   2.2391   2.2416
  2.2425   2.2427   2.2437   2.2446   2.2456   2.2475   2.2481   2.2501
  2.2506   2.2522   2.2532   2.2554   2.2557   2.2572   2.2592   2.2599
  2.2611   2.2618   2.2627   2.2640   2.2645   2.2656   2.2660   2.2672
  2.2673   2.2686   2.2691   2.2696   2.2707   2.2717   2.2727   2.2743
  2.2759   2.2761   2.2767   2.2775   2.2783   2.2796   2.2804   2.2807
  2.2822   2.2829   2.2837   2.2843   2.2852   2.2856   2.2863   2.2867
  2.2887   2.2889   2.2902   2.2904   2.2918   2.2933   2.2940   2.2946
  2.2949   2.2963   2.2973   2.2979   2.3000   2.3004   2.3008   2.3028
  2.3040   2.3044   2.3053   2.3069   2.3073   2.3080   2.3094   2.3107
  2.3110   2.3134   2.3146   2.3169   2.3192   2.3201   2.3225   2.3238
  2.3245   2.3267   2.3274   2.3277   2.3299   2.3311   2.3320   2.3332
  2.3340   2.3347   2.3363   2.3384   2.3394   2.3402   2.3405   2.3437
  2.3446   2.3463   2.3471   2.3484   2.3505   2.3515   2.3531   2.3543
  2.3599   2.3625   2.3641   2.3673   2.3704   2.3725   2.3736   2.3745
  2.3751   2.3764   2.3774   2.3807   2.3837   2.3857   2.3881   2.3905
  2.3914   2.3936   2.3941   2.3976   2.4019   2.4071   2.4108   2.4171
  2.4192   2.4399   2.4410   2.4455   2.4938   2.5001   2.5160   2.5332
  2.5835   2.6025   2.6940   2.7219   2.7365   2.7687   2.8068   2.8161
  2.8288   2.8303   2.8326   2.8367   2.8402   2.8422   2.8449   2.8490
  2.8538   2.8589   2.8640   2.8643   2.8656   2.8663   2.8669   2.8689
  2.8700   2.8728   2.8755   2.8777   2.8788   2.8805   2.8851   2.8871
  2.8881   2.8919   2.8970   2.8991   2.9132   2.9690   3.1251   3.2639
  3.9497   3.9527   3.9667   3.9713   3.9727   3.9752   3.9826   3.9850
  3.9877   3.9906   3.9923   3.9937   3.9989   4.0004   4.0040   4.0053
  4.0096   4.0108   4.0137   4.0138   4.0188   4.0218   4.0243   4.0326
  4.0392   4.0454   4.0552   4.2007   4.2142   4.2231   4.2287   4.2379
  4.2394   4.2433   4.2446   4.2473   4.2529   4.2571   4.2581   4.2604
  4.2626   4.2633   4.2641   4.2672   4.2701   4.2721   4.2746   4.2776
  4.2823   4.2882   4.2911   4.2937   4.2955   4.2988   4.3014   4.3020
  4.3037   4.3052   4.3064   4.3128   4.3145   4.3173   4.3181   4.3209
  4.3262   4.3283   4.3318   4.3339   4.3350   4.3360   4.3389   4.3426
  4.3456   4.3485   4.3501   4.3514   4.3540   4.3611   4.3665   4.3683
  4.3697   4.3737   4.3818   4.3844   4.3877   4.3908   4.3962   4.4001
  4.4029   4.4047   4.4056   4.4131   4.4219   4.4299   4.4331   4.4357
  4.4387   4.4468   4.4497   4.4625   4.4754   4.4790   4.4906   4.4945
  4.5047   4.5143   4.5340   4.5402   4.5510   4.5651   4.6191   4.6396
  4.6938   4.7194   4.7611   4.7985   4.9463
 --------------------------------------------------------------

          Ground-State Mulliken Net Atomic Charges

     Atom                 Charge (a.u.)
  ----------------------------------------
      1 C                    -0.487535
      2 C                    -0.081653
      3 C                    -0.413333
      4 C                    -0.494958
      5 C                    -0.472038
      6 C                    -0.525799
      7 H                     0.219325
      8 H                     0.236379
      9 H                     0.189221
     10 H                     0.212396
     11 H                     0.242642
     12 H                     0.202340
     13 H                     0.186684
     14 H                     0.212333
     15 H                     0.239978
     16 H                     0.233233
     17 H                     0.233231
     18 N                     0.229549
     19 H                     0.482272
     20 C                    -0.900867
     21 H                     0.172260
     22 O                    -0.232970
     23 C                    -1.033937
     24 H                     0.292925
     25 H                     0.261601
     26 H                     0.268467
     27 S                     0.995634
     28 C                    -0.873301
     29 H                     0.246051
     30 H                     0.271520
     31 H                     0.245227
     32 O                    -0.744150
     33 C                    -0.878339
     34 H                     0.315083
     35 H                     0.246251
     36 H                     0.247843
     37 S                     0.926255
     38 C                    -0.825910
     39 H                     0.224680
     40 H                     0.257444
     41 H                     0.255786
     42 O                    -0.741730
     43 C                    -1.003001
     44 H                     0.244740
     45 H                     0.247076
     46 H                     0.267285
     47 S                     1.035951
     48 C                    -0.995935
     49 H                     0.288478
     50 H                     0.292911
     51 H                     0.301422
     52 O                    -0.656202
     53 C                    -0.823236
     54 H                     0.222843
     55 H                     0.249679
     56 H                     0.252997
     57 S                     0.976000
     58 C                    -0.961232
     59 H                     0.285693
     60 H                     0.246876
     61 H                     0.250438
     62 O                    -0.691319
     63 C                    -0.689305
     64 H                     0.286972
     65 H                     0.242532
     66 H                     0.244998
     67 S                     0.750639
     68 C                    -0.806564
     69 H                     0.228687
     70 H                     0.258238
     71 H                     0.265850
     72 O                    -0.722870
     73 C                    -0.758855
     74 H                     0.251847
     75 H                     0.307357
     76 H                     0.234066
     77 S                     0.732619
     78 C                    -0.806228
     79 H                     0.246667
     80 H                     0.269179
     81 H                     0.227451
     82 O                    -0.702090
     83 C                    -1.142107
     84 H                     0.322543
     85 H                     0.238874
     86 H                     0.233673
     87 S                     1.361483
     88 C                    -1.442263
     89 H                     0.287396
     90 H                     0.264545
     91 H                     0.327515
     92 O                    -0.658626
     93 C                    -0.998226
     94 H                     0.251253
     95 H                     0.299225
     96 H                     0.227506
     97 S                     1.261956
     98 C                    -1.076188
     99 H                     0.252864
    100 H                     0.270800
    101 H                     0.283936
    102 O                    -0.725989
    103 C                    -1.121847
    104 H                     0.275334
    105 H                     0.236625
    106 H                     0.267341
    107 S                     1.282629
    108 C                    -1.040713
    109 H                     0.292295
    110 H                     0.279877
    111 H                     0.262715
    112 O                    -0.716876
    113 C                    -0.850473
    114 H                     0.249413
    115 H                     0.243147
    116 H                     0.264046
    117 S                     0.559536
    118 C                    -0.796905
    119 H                     0.233419
    120 H                     0.326507
    121 H                     0.286712
    122 O                    -0.642541
    123 C                    -0.918288
    124 H                     0.251140
    125 H                     0.248528
    126 H                     0.288634
    127 S                     0.939397
    128 C                    -0.895648
    129 H                     0.247273
    130 H                     0.257901
    131 H                     0.276440
    132 O                    -0.702229
    133 C                    -0.993248
    134 H                     0.275698
    135 H                     0.281486
    136 H                     0.263517
    137 S                     1.170051
    138 C                    -1.081136
    139 H                     0.257364
    140 H                     0.232855
    141 H                     0.260889
    142 O                    -0.676305
    143 C                    -1.373226
    144 H                     0.223274
    145 H                     0.303331
    146 H                     0.256977
    147 S                     1.402898
    148 C                    -0.922462
    149 H                     0.265025
    150 H                     0.215401
    151 H                     0.268148
    152 O                    -0.634379
    153 C                    -0.669165
    154 H                     0.287492
    155 H                     0.236023
    156 H                     0.244233
    157 S                     0.713222
    158 C                    -0.769753
    159 H                     0.226746
    160 H                     0.295498
    161 H                     0.252663
    162 O                    -0.589106
    163 C                    -0.788811
    164 H                     0.277224
    165 H                     0.277913
    166 H                     0.281098
    167 S                     0.957655
    168 C                    -0.891667
    169 H                     0.240505
    170 H                     0.276755
    171 H                     0.255859
    172 O                    -0.743860
    173 C                    -0.901598
    174 H                     0.231000
    175 H                     0.308574
    176 H                     0.308636
    177 S                     0.818115
    178 C                    -0.833478
    179 H                     0.249054
    180 H                     0.268227
    181 H                     0.323668
    182 O                    -0.607887
    183 C                    -0.928410
    184 H                     0.267266
    185 H                     0.264238
    186 H                     0.260093
    187 S                     1.130623
    188 C                    -0.952267
    189 H                     0.253421
    190 H                     0.248527
    191 H                     0.249490
    192 O                    -0.740409
    193 C                    -0.848877
    194 H                     0.240693
    195 H                     0.250603
    196 H                     0.244967
    197 S                     0.905379
    198 C                    -0.915333
    199 H                     0.260639
    200 H                     0.238683
    201 H                     0.251022
    202 O                    -0.647727
    203 C                    -0.937611
    204 H                     0.259109
    205 H                     0.236568
    206 H                     0.296738
    207 S                     0.878160
    208 C                    -0.811002
    209 H                     0.266135
    210 H                     0.225215
    211 H                     0.250161
    212 O                    -0.661588
    213 C                    -0.808891
    214 H                     0.256858
    215 H                     0.226226
    216 H                     0.257356
    217 S                     0.795620
    218 C                    -0.823456
    219 H                     0.282243
    220 H                     0.278484
    221 H                     0.279942
    222 O                    -0.689813
    223 C                    -0.885872
    224 H                     0.260059
    225 H                     0.233257
    226 H                     0.259694
    227 S                     1.258559
    228 C                    -1.229887
    229 H                     0.288689
    230 H                     0.301341
    231 H                     0.285327
    232 O                    -0.661515
    233 C                    -0.939753
    234 H                     0.248059
    235 H                     0.255797
    236 H                     0.240810
    237 S                     0.930442
    238 C                    -0.800686
    239 H                     0.244384
    240 H                     0.260887
    241 H                     0.267545
    242 O                    -0.664526
    243 C                    -0.990049
    244 H                     0.233261
    245 H                     0.252562
    246 H                     0.245615
    247 S                     1.094596
    248 C                    -0.991300
    249 H                     0.273379
    250 H                     0.264138
    251 H                     0.243117
    252 O                    -0.611410
    253 C                    -1.234138
    254 H                     0.257007
    255 H                     0.291735
    256 H                     0.287730
    257 S                     1.274432
    258 C                    -1.081861
    259 H                     0.253558
    260 H                     0.248493
    261 H                     0.293516
    262 O                    -0.657544
    263 C                    -0.949689
    264 H                     0.249035
    265 H                     0.245115
    266 H                     0.342243
    267 S                     0.625396
    268 C                    -0.773417
    269 H                     0.291477
    270 H                     0.274008
    271 H                     0.239531
    272 O                    -0.700425
    273 C                    -0.759688
    274 H                     0.279485
    275 H                     0.243832
    276 H                     0.256766
    277 S                     0.661836
    278 C                    -0.710886
    279 H                     0.239275
    280 H                     0.259371
    281 H                     0.254538
    282 O                    -0.732130
    283 C                    -0.827310
    284 H                     0.286066
    285 H                     0.243016
    286 H                     0.241120
    287 S                     0.664068
    288 C                    -0.703766
    289 H                     0.252398
    290 H                     0.250890
    291 H                     0.243591
    292 O                    -0.661560
  ----------------------------------------
  Sum of atomic charges =     0.000000

 -----------------------------------------------------------------
                    Cartesian Multipole Moments
 -----------------------------------------------------------------
    Charge (ESU x 10^10)
                 0.0000
    Dipole Moment (Debye)
         X      12.4668      Y      -1.7058      Z      -1.9895
       Tot      12.7392
    Quadrupole Moments (Debye-Ang)
        XX    -103.6106     XY     301.8160     YY   -1073.3062
        XZ     296.0598     YZ    -114.6061     ZZ   -1038.2412
    Octopole Moments (Debye-Ang^2)
       XXX  -38187.6430    XXY   -3675.6724    XYY  -20264.4659
       YYY  -81074.4812    XXZ   -3271.4394    XYZ    7076.4375
[...]
          205         206         207         208         209         210
    1  -2.3105874  -3.0450873  -0.7952328   0.0602099   0.4339913   1.2633352
    2   1.5103558   0.4944848   1.6623355   2.6137467   0.9354573   3.7765715
    3   3.6862388   0.5914826   0.7030285   2.6251506   2.7906646   1.5291018
          211         212         213         214         215         216
    1  -1.5251354  -3.0510018  -2.6315782  -3.2965681  -3.7782805  -0.9111729
    2   2.8324817   3.6120242  -0.1476559   1.4350277  -1.2666009  -0.1557161
    3   3.5037517   0.4821845   2.0642742   2.9892403   1.3422730   2.0074500
          217         218         219         220         221         222
    1  -3.1615986  -1.1145109  -1.1367300   0.5566584  -2.5132742  -1.3908310
    2   0.2538943  -0.5945781   0.3735738  -0.2666610  -1.7894522   2.6883729
    3   0.0588356  -0.4027019  -1.6223505   0.6977308  -0.2105837   1.2451084
          223         224         225         226         227         228
    1   2.4099066   3.8040043   1.5885408   1.4830774   0.2004067   1.4574335
    2   2.9313290   1.6631135   4.1400488   3.1082527   1.2172091  -0.1059079
    3   0.1060957  -0.8104753  -0.6588267   2.0028762   0.4353395   0.8279662
          229         230         231         232         233         234
    1   2.0055062  -0.3174501   2.4939625   1.3095590  -1.8132125  -0.3794163
    2   1.3196363  -1.2033350  -0.5470199   0.5836676  -3.2671947  -3.2926481
    3   1.5918920   1.1434879  -0.8781949  -2.2985519   0.7758469   2.4785956
          235         236         237         238         239         240
    1  -3.4857325  -1.0371344  -1.6061020   0.5395754   0.3659666   0.1812547
    2  -2.2854739  -3.9159210  -2.0384323  -2.6951173  -3.5369204  -3.8825029
    3   1.0409479  -0.8632804  -0.4183796   0.3417503   2.3588010  -1.0829420
          241         242         243         244         245         246
    1   0.7799254  -2.0852089  -3.5506161  -2.6861174  -3.7265241  -3.9043286
    2  -0.8443975  -0.6064753   0.7395504   1.6797154  -1.2539811   1.6530156
    3   0.2732179   2.4995820  -1.8080958  -3.3651912  -1.8572961  -0.0231260
          247         248         249         250         251         252
    1  -1.8488489  -1.4578810   0.2741181  -2.4701137  -1.9051798  -2.5116636
    2   1.2072815  -0.6096338  -0.3156529  -2.1391735   0.6891219  -1.1231398
    3  -1.8078317  -3.2736295  -3.1765394  -2.3267254  -4.3618828   0.7161351
          253         254         255         256         257         258
    1  -0.5077217   1.0557691  -1.4870075  -1.1480834   0.9604935   0.2972950
    2  -0.0009102   0.7912714  -0.9139692   0.2417514  -1.6095200  -2.8894561
    3  -0.6574012  -0.6785548  -1.8869445   1.2183685  -0.5026982  -2.4045422
          259         260         261         262         263         264
    1   0.6267313  -1.1521283   1.4991041  -1.3735463   0.2480944   0.1163376
    2  -4.4940459  -2.0773405  -1.7655367  -3.0975784   2.2267962   3.9114034
    3  -1.7889228  -2.8013600  -2.9377029   0.8717866   0.5228829   1.5157895
          265         266         267         268         269         270
    1   1.7681963  -1.2564400   1.0864135   1.1049311  -0.1373496   2.4611901
    2   2.0053585   0.2726856   1.8888938  -0.0961312  -0.2941286   0.9025094
    3   0.0036276   0.0926103   2.4176358   1.5077242  -0.3582402   1.5271714
          271         272         273         274         275         276
    1   0.4372489  -1.8630105   1.0198963   1.7174949   0.1989858   1.0353716
    2  -0.8032909   0.6843318  -1.1910531  -2.2243192  -2.4233678   0.9262774
    3   2.9502461   3.1343996  -3.1782861  -1.8015399  -4.0206735  -3.4461047
          277         278         279         280         281         282
    1  -1.0248504  -1.9852751  -1.5209615  -3.5027140  -0.6225097  -0.5869287
    2  -1.7250059   0.0007435  -1.3219394  -0.0050052   1.4981594   0.5226632
    3  -2.5509935  -3.1315071  -4.1397890  -1.5055330  -3.3102711  -0.4744473
          283         284         285         286         287         288
    1   2.7314016   2.6490358   3.0076137   2.3797456   0.5289186   0.0917408
    2   0.4328533  -1.0117123   0.9516334   1.4861171   0.9471791  -0.8351681
    3   1.8806409   1.9098475   0.0668788   3.5068592   1.9247627   3.0901547
          289         290         291         292
    1   0.9428732   0.8424563  -1.4717067   0.3904386
    2  -2.1130709   0.3695741  -0.6780168  -1.1695515
    3   2.0589636   4.4665632   2.6459888  -0.8766991
 EField
            1           2           3           4           5           6
    1  -0.0029178  -0.0019609   0.0002048   0.0033043   0.0003953  -0.0014918
    2   0.0025467  -0.0008127  -0.0004960   0.0021756   0.0033183   0.0016921
    3   0.0007264  -0.0033195  -0.0045256  -0.0021679  -0.0000985   0.0009595
            7           8           9          10          11          12
    1   0.0004020   0.0025999   0.0001798  -0.0064134   0.0115639   0.0018157
    2  -0.0065009  -0.0094736   0.0085098  -0.0000858   0.0045283   0.0011098
    3  -0.0076396   0.0022376   0.0035476  -0.0001694  -0.0032131  -0.0059795
           13          14          15          16          17          18
    1  -0.0022469   0.0009602  -0.0049340  -0.0006217  -0.0024326  -0.0107014
    2   0.0063033   0.0027285   0.0058289  -0.0061320   0.0027165  -0.0040734
    3  -0.0023576   0.0026036   0.0066497  -0.0048401  -0.0024415  -0.0177791
           19          20          21          22          23          24
    1  -0.0280900  -0.0076539  -0.0061182  -0.0069468   0.0039675  -0.0081725
    2   0.0055839  -0.0096163  -0.0125965  -0.0070434  -0.0110519  -0.0288399
    3  -0.0265143  -0.0163544  -0.0126822  -0.0131064  -0.0025889  -0.0162473
           25          26          27          28          29          30
    1   0.0313147   0.0063066   0.0122340  -0.0029242  -0.0134316  -0.0165283
    2  -0.0036358  -0.0142844   0.0367883  -0.0048058  -0.0237430  -0.0164458
    3  -0.0090862   0.0251159   0.0358719   0.0007881  -0.0191134   0.0313858
           31          32          33          34          35          36
    1  -0.0283847   0.0017186   0.0001042  -0.0067904   0.0300642  -0.0205846
    2   0.0157050   0.0064775  -0.0094961   0.0031493  -0.0135045  -0.0198601
    3  -0.0040373  -0.1088920  -0.0082773  -0.0278555  -0.0053551   0.0117543
           37          38          39          40          41          42
    1   0.0417159   0.0014247   0.0304517   0.0051117  -0.0232105  -0.1028221
    2   0.0296995  -0.0015379  -0.0216561   0.0223094  -0.0171761   0.0338517
    3  -0.0153777   0.0047034   0.0182870   0.0226821   0.0062488   0.0042351
           43          44          45          46          47          48
    1   0.0027853  -0.0009765   0.0267270   0.0029557   0.0139805  -0.0032719
    2   0.0003423  -0.0269147   0.0063404   0.0207084  -0.0316461   0.0109934
    3   0.0080985   0.0198851  -0.0125220   0.0273169  -0.0525506   0.0022863
           49          50          51          52          53          54
    1  -0.0291414   0.0051025   0.0051193  -0.0898645   0.0060801   0.0105270
    2   0.0099583   0.0220294   0.0118619  -0.0285754  -0.0010659  -0.0297996
    3  -0.0150932   0.0287661  -0.0220209   0.0577438  -0.0008980  -0.0208241
           55          56          57          58          59          60
    1   0.0220381   0.0113579  -0.0370996  -0.0030948  -0.0273361   0.0230953
    2   0.0216063  -0.0111102  -0.0469649   0.0058881   0.0179766   0.0194412
    3  -0.0085189   0.0255890   0.0174042  -0.0087404  -0.0128704  -0.0124715
           61          62          63          64          65          66
    1  -0.0066531   0.0078032   0.0017472   0.0168549  -0.0148285  -0.0113267
    2  -0.0285153   0.0905704   0.0061639   0.0237154  -0.0113199   0.0271743
    3  -0.0139765   0.0611605  -0.0063980  -0.0181370  -0.0248155   0.0161464
           67          68          69          70          71          72
    1  -0.0401499   0.0049069  -0.0028688   0.0138670   0.0139025   0.0627525
    2  -0.0142934   0.0035254   0.0286620  -0.0224547   0.0206011  -0.0752798
    3   0.0359501   0.0028223   0.0229649   0.0164749  -0.0181992  -0.0502126
           73          74          75          76          77          78
    1  -0.0033061  -0.0291750   0.0104986   0.0072847   0.0500861  -0.0053408
    2  -0.0059385  -0.0121720  -0.0231295   0.0217592   0.0269137   0.0005254
    3   0.0044690   0.0121201   0.0185532   0.0226551  -0.0046630  -0.0037095
           79          80          81          82          83          84
    1   0.0025555  -0.0237870  -0.0095062  -0.0206124  -0.0041817  -0.0177611
    2   0.0249638  -0.0230366   0.0277898  -0.0957617   0.0047506   0.0223193
    3  -0.0244512  -0.0041993   0.0163439  -0.0531121  -0.0002049   0.0225475
           85          86          87          88          89          90
    1   0.0174393  -0.0127008  -0.0373426   0.0070218   0.0203232  -0.0195253
    2   0.0203523  -0.0060345  -0.0245655  -0.0003399   0.0002269   0.0250661
    3  -0.0145584  -0.0288621   0.0347405   0.0081627  -0.0230846   0.0083823
           91          92          93          94          95          96
    1   0.0220556   0.0601525  -0.0008815  -0.0055143  -0.0154169   0.0315613
    2  -0.0212743  -0.0481700   0.0013623   0.0322880  -0.0145096   0.0044683
    3   0.0215185  -0.0765240   0.0092523  -0.0054392   0.0253695   0.0040922
           97          98          99         100         101         102
    1   0.0117302  -0.0081667  -0.0022192  -0.0167321  -0.0199709   0.0284671
    2   0.0242044  -0.0015460  -0.0109864   0.0264483  -0.0131586  -0.1014802
    3  -0.0488263  -0.0007610   0.0288985  -0.0081719  -0.0226661   0.0320457
          103         104         105         106         107         108
    1  -0.0077246   0.0059280   0.0209477  -0.0366411   0.0059091  -0.0135541
    2   0.0002313  -0.0041369   0.0191122   0.0119849   0.0062992  -0.0051780
    3   0.0042085   0.0305455  -0.0064430  -0.0025443  -0.0553642   0.0036334
          109         110         111         112         113         114
    1  -0.0193645  -0.0271793   0.0232592   0.0852889  -0.0095479  -0.0211694
    2   0.0045753  -0.0018435  -0.0206828  -0.0285263  -0.0050270   0.0291319
    3   0.0273398  -0.0189443   0.0074221   0.0641195   0.0015580  -0.0009898
          115         116         117         118         119         120
    1   0.0059160  -0.0020328   0.0432500  -0.0012464  -0.0259317  -0.0067364
    2  -0.0041425  -0.0335755  -0.0394200   0.0004574   0.0151152  -0.0318484
    3  -0.0264978   0.0133456   0.0032491   0.0089276  -0.0008631   0.0203747
          121         122         123         124         125         126
    1   0.0175313   0.0061328   0.0041434   0.0238782   0.0057444   0.0210305
    2   0.0298402   0.0827262  -0.0061359   0.0161539  -0.0253727  -0.0034906
    3   0.0009483  -0.0730246  -0.0049376   0.0025865   0.0272657  -0.0349477
          127         128         129         130         131         132
    1  -0.0277853  -0.0067033  -0.0067634  -0.0289491   0.0126380   0.0011593
    2  -0.0161006  -0.0056731  -0.0334157   0.0144260   0.0117420   0.1037262
    3   0.0495654  -0.0061520   0.0054550  -0.0153725  -0.0272259  -0.0356266
          133         134         135         136         137         138
    1  -0.0041974   0.0011891   0.0146904  -0.0324981  -0.0125332   0.0059375
    2   0.0066545   0.0316693   0.0170049  -0.0052727  -0.0090109   0.0060448
    3  -0.0040843   0.0137915  -0.0235904   0.0010717   0.0601139  -0.0017450
          139         140         141         142         143         144
    1   0.0012073   0.0144276  -0.0037927   0.0037018   0.0023857   0.0369815
    2   0.0329084  -0.0234984   0.0103440  -0.0786670   0.0053952   0.0084248
    3   0.0112301   0.0152080  -0.0310947  -0.0749122  -0.0039956   0.0018749
          145         146         147         148         149         150
    1   0.0073744  -0.0144691  -0.0217482   0.0032388  -0.0124679   0.0228768
    2   0.0098833   0.0233517  -0.0095816  -0.0064508   0.0044257  -0.0020891
    3  -0.0255643   0.0181199   0.0468690  -0.0024249  -0.0357151   0.0282292
          151         152         153         154         155         156
    1  -0.0011700  -0.0584270   0.0074847   0.0013534  -0.0044407   0.0271195
    2  -0.0377804   0.0057402   0.0017208  -0.0285161   0.0201936   0.0076899
    3   0.0009108  -0.0950666  -0.0030083  -0.0103016  -0.0277133   0.0154756
          157         158         159         160         161         162
    1  -0.0491088  -0.0016017  -0.0034348  -0.0274946   0.0316986   0.0350082
    2  -0.0092200   0.0084665   0.0340567  -0.0027822   0.0022056  -0.0600565
    3  -0.0261138   0.0024581  -0.0195226   0.0192026   0.0073663   0.0807279
          163         164         165         166         167         168
    1  -0.0095899  -0.0155222   0.0004862  -0.0245619   0.0446789  -0.0049925
    2   0.0096605  -0.0244297   0.0209539   0.0022496   0.0164556   0.0041003
    3   0.0030746   0.0185984   0.0341197  -0.0244284   0.0248258  -0.0063303
          169         170         171         172         173         174
    1   0.0103525  -0.0283571   0.0020354  -0.0321518   0.0012263   0.0287753
    2  -0.0250749   0.0027771   0.0366033  -0.1048256  -0.0034470  -0.0012536
    3  -0.0180392  -0.0160584  -0.0047865  -0.0055929   0.0062813   0.0147732
          175         176         177         178         179         180
    1  -0.0133940  -0.0025542  -0.0421975   0.0066785   0.0201074  -0.0037751
    2  -0.0038371  -0.0242008   0.0075118  -0.0008154  -0.0024087  -0.0308296
    3   0.0295017  -0.0205184  -0.0253148  -0.0068041   0.0268182  -0.0157915
          181         182         183         184         185         186
    1   0.0043653   0.0743530   0.0035699   0.0179854  -0.0250990   0.0161959
    2   0.0319060   0.0721055  -0.0008772   0.0099257  -0.0230420  -0.0338786
    3  -0.0114445   0.0633721   0.0059207   0.0272790  -0.0028597   0.0065074
          187         188         189         190         191         192
    1   0.0459864   0.0005639  -0.0097678  -0.0334607   0.0265790  -0.0921437
    2   0.0113570   0.0065295   0.0279083  -0.0130309   0.0208165  -0.0299300
    3  -0.0192553   0.0035769  -0.0114149  -0.0012440   0.0171835  -0.0523377
          193         194         195         196         197         198
    1   0.0056502   0.0026729   0.0060271   0.0272853  -0.0465661   0.0032757
    2  -0.0028354  -0.0019242  -0.0290040   0.0147907  -0.0313452   0.0028679
    3   0.0032720   0.0319905  -0.0161867   0.0061196  -0.0068240  -0.0075727
          199         200         201         202         203         204
    1  -0.0127085   0.0296196  -0.0057174   0.0039676  -0.0068994   0.0256770
    2   0.0206966   0.0115282  -0.0242972   0.0937359  -0.0075382  -0.0196648
    3  -0.0205796   0.0039477  -0.0261016   0.0560370   0.0032347  -0.0010119
          205         206         207         208         209         210
    1  -0.0274192  -0.0298128   0.0356761   0.0025492   0.0079737   0.0148037
    2   0.0136022  -0.0154215  -0.0199671   0.0004340  -0.0242106   0.0303054
    3   0.0249668  -0.0100866  -0.0473309   0.0062845   0.0221569  -0.0075848
          211         212         213         214         215         216
    1  -0.0165384  -0.0798733   0.0021914  -0.0035192  -0.0124614   0.0188011
    2   0.0141851   0.0745764  -0.0041187   0.0304784  -0.0355447  -0.0132977
    3   0.0240039  -0.0170605   0.0100195   0.0196845  -0.0089819   0.0179856
          217         218         219         220         221         222
    1  -0.0487887   0.0076874   0.0009080   0.0238690  -0.0074478   0.0448297
    2  -0.0060508  -0.0071976  -0.0007066   0.0020894  -0.0346220   0.0946135
    3  -0.0306080  -0.0072604  -0.0373780   0.0214032  -0.0161344   0.0268623
          223         224         225         226         227         228
    1   0.0019982   0.0300803   0.0001376   0.0227591  -0.0502300   0.0091850
    2   0.0067708  -0.0042643   0.0222556   0.0091107   0.0162760  -0.0084226
    3   0.0015724  -0.0071201  -0.0272832   0.0363194   0.0207140   0.0008773
          229         230         231         232         233         234
    1   0.0131706  -0.0010856   0.0226318   0.0144574  -0.0025375   0.0120256
    2   0.0187228  -0.0236383  -0.0166596  -0.0250246  -0.0074479  -0.0042639
    3   0.0223344   0.0065664  -0.0248686  -0.1063087   0.0047687   0.0315904
          235         236         237         238         239         240
    1  -0.0302629   0.0008254  -0.0175056   0.0070793   0.0177422   0.0118799
    2   0.0022647  -0.0215114   0.0127231  -0.0013504  -0.0074321  -0.0130784
    3   0.0059672  -0.0272100  -0.0555672   0.0029604   0.0300444  -0.0297167
          241         242         243         244         245         246
    1   0.0266355  -0.0214197  -0.0072182  -0.0029576  -0.0074368  -0.0184149
    2   0.0178582   0.0648985   0.0007346   0.0264211  -0.0354463   0.0157410
    3  -0.0064425   0.0868663  -0.0015713  -0.0241304   0.0065207   0.0186178
          247         248         249         250         251         252
    1   0.0274948   0.0051956   0.0332885  -0.0079544  -0.0134091  -0.0067755
    2   0.0502743  -0.0057587  -0.0144165  -0.0285471   0.0117833  -0.0661483
    3  -0.0022458  -0.0040160  -0.0013064   0.0075835  -0.0277883   0.0875594
          253         254         255         256         257         258
    1  -0.0058473   0.0186538  -0.0152057  -0.0145670   0.0574385   0.0011212
    2   0.0083742   0.0231339   0.0082478   0.0015007   0.0110489   0.0005643
    3  -0.0028056  -0.0193800  -0.0294609   0.0330577   0.0165935  -0.0096635
          259         260         261         262         263         264
    1   0.0043562  -0.0347864   0.0364779  -0.0696009  -0.0021759  -0.0082740
    2  -0.0290134  -0.0017165   0.0066246  -0.0533744   0.0049115   0.0285719
    3   0.0010977  -0.0069306  -0.0182303   0.0626705  -0.0076816  -0.0074707
          265         266         267         268         269         270
    1   0.0269682  -0.0289877   0.0377374   0.0072557  -0.0024385   0.0356252
    2   0.0129163  -0.0011547   0.0363295  -0.0043718  -0.0120971   0.0073983
    3  -0.0161578  -0.0092900   0.0321359  -0.0021099  -0.0174881  -0.0047898
          271         272         273         274         275         276
    1  -0.0019642  -0.0985759   0.0072830   0.0242794  -0.0004074   0.0173356
    2  -0.0189126  -0.0275157   0.0009874  -0.0048470  -0.0145027   0.0266000
    3   0.0268062   0.0403794  -0.0028146   0.0220901  -0.0327114  -0.0098929
          277         278         279         280         281         282
    1  -0.0224367  -0.0021703  -0.0178561  -0.0326809   0.0135752   0.0168376
    2  -0.0578470   0.0062347  -0.0212039   0.0051649   0.0339525   0.0655967
    3   0.0067798  -0.0046899  -0.0244152   0.0066458   0.0022790   0.0867105
          283         284         285         286         287         288
    1   0.0088175   0.0124500   0.0205997   0.0128487  -0.0202839   0.0000805
    2  -0.0050333  -0.0280256   0.0056527   0.0178018   0.0449777  -0.0080058
    3   0.0018716   0.0048398  -0.0248278   0.0263572   0.0089540   0.0059217
          289         290         291         292
    1   0.0086022   0.0115754  -0.0291138  -0.0126989
    2  -0.0260656   0.0032973  -0.0116676  -0.0626909
    3  -0.0049722   0.0321624  -0.0019157  -0.0949000
  --- DONE ESP SUMMARY ---
 Total job time:  34.57s(wall), 87.01s(cpu) 
 Thu Jul 21 08:53:26 2022

        *************************************************************
        *                                                           *
        *  Thank you very much for using Q-Chem.  Have a nice day.  *
        *                                                           *
        *************************************************************


