                  Welcome to Q-Chem
     A Quantum Leap Into The Future Of Chemistry


 Q-Chem 6.0 (devel), Q-Chem, Inc., Pleasanton, CA (2022)

 E. Epifanovsky,  A. T. B. Gilbert,  Xintian Feng,  Joonho Lee,  Yuezhi Mao,  
 N. Mardirossian,  P. Pokhilko,  A. White,  M. Wormit,  M. P. Coons,  
 A. L. Dempwolff,  Zhengting Gan,  D. Hait,  P. R. Horn,  L. D. Jacobson,  
 I. Kaliman,  J. Kussmann,  A. W. Lange,  Ka Un Lao,  D. S. Levine,  Jie Liu,  
 S. C. McKenzie,  A. F. Morrison,  K. Nanda,  F. Plasser,  D. R. Rehn,  
 M. L. Vidal,  Zhi-Qiang You,  Ying Zhu,  B. Alam,  B. Albrecht,  
 A. Aldossary,  E. Alguire,  J. H. Andersen,  V. Athavale,  D. Barton,  
 K. Begam,  A. Behn,  N. Bellonzi,  Y. A. Bernard,  E. J. Berquist,  
 H. Burton,  A. Carreras,  K. Carter-Fenk,  Romit Chakraborty,  
 Chandrima Chakravarty,  Junhan Chen,  A. D. Chien,  K. D. Closser,  
 V. Cofer-Shabica,  L. Cunha,  S. Dasgupta,  Jia Deng,  M. de Wergifosse,  
 M. Diedenhofen,  Hainam Do,  S. Ehlert,  Po-Tung Fang,  S. Fatehi,  
 Qingguo Feng,  T. Friedhoff,  B. Ganoe,  J. Gayvert,  Qinghui Ge,  
 G. Gidofalvi,  M. Goldey,  J. Gomes,  C. Gonzalez-Espinoza,  S. Gulania,  
 A. Gunina,  J. A. Gyamfi,  M. W. D. Hanson-Heine,  P. H. P. Harbach,  
 A. W. Hauser,  M. F. Herbst,  M. Hernandez Vera,  M. Hodecker,  
 Z. C. Holden,  S. Houck,  Xunkun Huang,  Kerwin Hui,  B. C. Huynh,  
 K. Ikeda,  M. Ivanov,  Hyunjun Ji,  Zuxin Jin,  Hanjie Jiang,  B. Kaduk,  
 S. Kaehler,  R. Kang,  K. Khistyaev,  Jaehoon Kim,  Yongbin Kim,  
 P. Klunzinger,  Z. Koczor-Benda,  Joong Hoon Koh,  D. Kosenkov,  
 Saikiran Kotaru,  L. Koulias,  T. Kowalczyk,  C. M. Krauter,  K. Kue,  
 A. Kunitsa,  T. Kus,  A. Landau,  K. V. Lawler,  D. Lefrancois,  S. Lehtola,  
 Rain Li,  Shaozhi Li,  Yi-Pei Li,  Jiashu Liang,  M. Liebenthal,  
 Hung-Hsuan Lin,  You-Sheng Lin,  Fenglai Liu,  Kuan-Yu Liu,  
 M. Loipersberger,  A. Luenser,  C. Malbon,  A. Manjanath,  P. Manohar,  
 E. Mansoor,  S. F. Manzer,  Shan-Ping Mao,  A. V. Marenich,  T. Markovich,  
 S. Mason,  F. Matz,  S. A. Maurer,  P. F. McLaughlin,  M. F. S. J. Menger,  
 J.-M. Mewes,  S. A. Mewes,  P. Morgante,  Mohammad Mostafanejad,  
 J. W. Mullinax,  K. J. Oosterbaan,  G. Paran,  V. Parravicini,  
 Alexander C. Paul,  Suranjan K. Paul,  F. Pavosevic,  Zheng Pei,  S. Prager,  
 E. I. Proynov,  E. Ramos,  B. Rana,  A. E. Rask,  A. Rettig,  R. M. Richard,  
 F. Rob,  E. Rossomme,  T. Scheele,  M. Scheurer,  M. Schneider,  
 P. E. Schneider,  N. Sergueev,  S. M. Sharada,  Hengyuan Shen,  
 W. Skomorowski,  D. W. Small,  C. J. Stein,  Yingli Su,  Yu-Chuan Su,  
 E. J. Sundstrom,  Zhen Tao,  J. Thirman,  Hung-Yi Tsai,  T. Tsuchimochi,  
 N. M. Tubman,  C. Utku,  S. P. Veccham,  O. Vydrov,  J. Wenzel,  
 Jonathan Wong,  J. Witte,  A. Yamada,  Chou-Hsun Yang,  Kun Yao,  
 S. Yeganeh,  S. R. Yost,  A. Zech,  F. Zeller,  Igor Ying Zhang,  
 Xing Zhang,  Yu Zhang,  D. Zuev,  A. Aspuru-Guzik,  A. T. Bell,  
 N. A. Besley,  K. B. Bravaya,  B. R. Brooks,  D. Casanova,  Jeng-Da Chai,  
 Hsing-Ta Chen,  S. Coriani,  C. J. Cramer,  A. E. DePrince, III,  
 R. A. DiStasio Jr.,  A. Dreuw,  B. D. Dunietz,  T. R. Furlani,  
 W. A. Goddard III,  S. Grimme,  S. Hammes-Schiffer,  T. Head-Gordon,  
 W. J. Hehre,  Chao-Ping Hsu,  T.-C. Jagau,  Yousung Jung,  A. Klamt,  
 Jing Kong,  D. S. Lambrecht,  Xiangyuan Li,  WanZhen Liang,  N. J. Mayhall,  
 C. W. McCurdy,  J. B. Neaton,  T. Neudecker,  C. Ochsenfeld,  
 J. A. Parkhill,  R. Peverati,  V. A. Rassolov,  Haisheng Ren,  Yihan Shao,  
 L. V. Slipchenko,  R. P. Steele,  J. E. Subotnik,  A. J. W. Thom,  
 A. Tkatchenko,  D. G. Truhlar,  T. Van Voorhis,  Fan Wang,  
 T. A. Wesolowski,  K. B. Whaley,  H. L. Woodcock III,  P. M. Zimmerman,  
 S. Faraji,  P. M. W. Gill,  M. Head-Gordon,  J. M. Herbert,  A. I. Krylov

 Contributors to earlier versions of Q-Chem not listed above: 
 R. D. Adamson,  B. Austin,  R. Baer,  J. Baker,  G. J. O. Beran,  
 K. Brandhorst,  S. T. Brown,  E. F. C. Byrd,  Arup K. Chakraborty,  
 G. K. L. Chan,  Chun-Min Chang,  Yunqing Chen,  C.-L. Cheng,  
 Siu Hung Chien,  D. M. Chipman,  D. L. Crittenden,  H. Dachsel,  
 R. J. Doerksen,  A. D. Dutoi,  R. G. Edgar,  J. Fosso-Tande,  
 L. Fusti-Molnar,  D. Ghosh,  A. Ghysels,  A. Golubeva-Zadorozhnaya,  
 J. Gonthier,  M. S. Gordon,  S. R. Gwaltney,  G. Hawkins,  J. E. Herr,  
 A. Heyden,  S. Hirata,  E. G. Hohenstein,  G. Kedziora,  F. J. Keil,  
 C. Kelley,  Jihan Kim,  R. A. King,  R. Z. Khaliullin,  P. P. Korambath,  
 W. Kurlancheek,  A. Laurent,  A. M. Lee,  M. S. Lee,  S. V. Levchenko,  
 Ching Yeh Lin,  D. Liotard,  E. Livshits,  R. C. Lochan,  I. Lotan,  
 L. A. Martinez-Martinez,  P. E. Maslen,  N. Nair,  D. P. O'Neill,  
 D. Neuhauser,  E. Neuscamman,  C. M. Oana,  R. Olivares-Amaya,  R. Olson,  
 T. M. Perrine,  B. Peters,  P. A. Pieniazek,  A. Prociuk,  Y. M. Rhee,  
 J. Ritchie,  M. A. Rohrdanz,  E. Rosta,  N. J. Russ,  H. F. Schaefer III,  
 M. W. Schmidt,  N. E. Schultz,  S. Sharma,  N. Shenvi,  C. D. Sherrill,  
 A. C. Simmonett,  A. Sodt,  T. Stein,  D. Stuck,  K. S. Thanthiriwatte,  
 V. Vanovschi,  L. Vogt,  Tao Wang,  A. Warshel,  M. A. Watson,  
 C. F. Williams,  Q. Wu,  X. Xu,  Jun Yang,  W. Zhang,  Yan Zhao

   Please cite Q-Chem as follows:
  "Software for the frontiers of quantum chemistry:
   An overview of developments in the Q-Chem 5 package"
   J. Chem. Phys. 155, 084801 (2021)
   https://doi.org/10.1063/5.0055522 (open access)

 Q-Chem 6.0.0 for Intel X86 EM64T Linux

 Parts of Q-Chem use Armadillo 9.900.5 (Nocturnal Misbehaviour).
 http://arma.sourceforge.net/

 Q-Chem begins on Thu Jul 21 03:13:29 2022  

 Host: nid00526
0

     Scratch files written to /global/cscratch1/sd/ymao90/r7.00_frame_0036_spade_B3LYP_dp20220721031321//
 Processing $rem in /global/homes/y/ymao90/my_qchem/qchem_embedding_5p4/config/preferences:
 Processing $rem in /global/homes/y/ymao90/.qchemrc:
 No nuclear gradient supported for projection-based embedding or EMFT. Set max ideriv = 0.

 Checking the input file for inconsistencies... 	...done.

--------------------------------------------------------------
User input:
--------------------------------------------------------------
$molecule
0 1
--
0 1
C    23.55300   15.93400   28.60800  
C    22.55300   15.51900   29.70000  
C    22.75100   16.34000   30.98500  
C    22.79700   17.85900   30.75000  
C    23.61600   18.31100   29.53000  
C    23.48600   17.43400   28.27400  
H    22.03100   16.03900   31.75600  
H    21.56900   15.69300   29.24700  
H    24.57600   15.72500   28.94400  
H    23.33900   15.34900   27.70500  
H    21.81200   18.23400   30.44900  
H    23.04300   18.34800   31.70100  
H    23.28400   19.31800   29.25000  
H    24.65000   18.40300   29.88600  
H    22.44100   17.53700   27.95800  
H    24.15100   17.68800   27.43900  
H    23.70300   16.05600   31.45000  
N    22.67000   14.08800   29.97500  
H    23.59000   13.73400   30.21000  
C    21.77500   13.11700   29.58000  
H    22.26000   12.12700   29.50500  
O    20.65400   13.34100   29.16000  
--
0 1
C    24.67400   19.22500   23.88100  
H    24.95900   18.95700   22.86100  
H    25.53600   19.57500   24.45500  
H    24.38200   18.29300   24.37200  
S    23.27700   20.36100   24.03200  
C    22.41600   19.65000   25.45300  
H    21.69600   20.42000   25.74200  
H    22.10700   18.63600   25.18600  
H    23.21700   19.59900   26.19500  
O    22.38400   19.96100   22.90000  
C    16.88000   18.30200   32.59700  
H    16.60500   19.12500   31.93200  
H    16.82800   17.37600   32.01900  
H    16.17000   18.31700   33.42800  
S    18.49100   18.57400   33.36700  
C    18.14900   20.09400   34.28200  
H    17.85000   20.84700   33.54900  
H    17.33500   19.91600   34.99000  
H    18.95800   20.31900   34.98300  
O    19.33500   19.11000   32.25300  
C    22.56900   16.97600   21.09800  
H    21.71200   17.36900   21.65200  
H    23.42000   17.66100   21.13800  
H    22.22700   16.91900   20.06200  
S    23.02500   15.42500   21.90600  
C    24.42200   14.92600   20.87400  
H    25.08900   14.21900   21.37300  
H    23.96500   14.61800   19.92900  
H    24.99900   15.84300   20.72700  
O    21.94600   14.41100   21.68400  
C    24.81800   25.38200   31.65100  
H    23.84600   25.40700   32.15100  
H    25.54200   26.15700   31.91500  
H    24.63700   25.39400   30.57400  
S    25.63700   23.83000   32.08500  
C    27.01700   24.05700   30.94100  
H    27.74100   23.24900   31.07000  
H    26.62200   24.01400   29.92300  
H    27.50700   25.02900   31.04000  
O    24.75500   22.96200   31.24200  
C    29.96100   13.88200   25.03700  
H    29.23800   13.98500   24.22400  
H    30.87600   13.73200   24.45900  
H    29.76600   12.94300   25.56300  
S    29.89400   15.31800   26.13200  
C    30.84900   14.38300   27.34800  
H    31.62500   13.75900   26.89800  
H    31.24800   14.98600   28.16800  
H    30.16000   13.62400   27.72600  
O    28.50500   15.37300   26.68700  
C    26.16100   19.90900   32.01800  
H    25.88100   19.68000   33.04900  
H    25.56200   20.80600   31.84100  
H    26.09600   19.08600   31.30100  
S    27.87500   20.48000   31.96300  
C    28.52900   19.10400   32.93500  
H    27.77300   18.85400   33.68300  
H    28.73200   18.26800   32.26100  
H    29.39300   19.47000   33.49600  
O    27.88600   21.62900   32.92200  
C    24.43700   21.38100   34.59700  
H    24.53800   21.92900   33.65700  
H    23.94200   22.05200   35.30500  
H    25.40300   21.06700   35.00100  
S    23.12000   20.14400   34.56400  
C    22.13000   21.27300   33.55800  
H    22.49700   21.18200   32.53300  
H    21.10300   20.91300   33.66700  
H    22.11300   22.33100   33.83100  
O    22.37700   20.21000   35.86200  
C    24.21500   10.35600   31.59100  
H    23.71800   10.33400   30.61800  
H    25.28500   10.25600   31.39300  
H    23.95500   9.43400    32.11600  
S    23.92000   11.83300   32.59000  
C    24.31600   11.17500   34.22500  
H    23.93300   11.93800   34.90700  
H    23.77500   10.22700   34.28800  
H    25.39600   11.04400   34.33200  
O    22.44100   12.06800   32.58900  
C    21.38100   14.53100   25.33400  
H    22.41200   14.57500   24.97300  
H    20.59500   14.80600   24.62700  
H    21.14700   15.22800   26.14200  
S    21.09900   12.77300   25.64300  
C    21.23800   12.15000   23.95300  
H    20.76100   11.16700   23.96500  
H    20.63700   12.90100   23.43400  
H    22.26900   12.07500   23.59600  
O    19.62000   12.59000   25.77800  
C    30.67700   20.16000   27.50500  
H    30.30000   20.95900   28.14800  
H    31.74700   19.93400   27.50800  
H    30.32600   20.32500   26.48300  
S    29.90700   18.65200   28.13600  
C    28.21400   19.20200   27.82600  
H    27.53600   18.50200   28.32200  
H    28.18000   20.19000   28.29200  
H    28.05700   19.25800   26.74600  
O    30.15200   18.74400   29.61000  
C    18.97100   15.60800   30.68800  
H    18.78600   16.01100   31.68700  
H    19.97300   15.18100   30.59800  
H    18.87500   16.39800   29.93900  
S    17.67100   14.41500   30.29500  
C    17.82700   14.48800   28.49600  
H    17.28900   13.67600   28.00100  
H    17.45300   15.47100   28.20000  
H    18.86900   14.47100   28.16600  
O    16.47800   15.25800   30.62200  
C    21.46200   17.05000   34.84800  
H    21.10600   17.98900   35.27900  
H    22.53300   16.90800   35.01500  
H    21.31800   17.12100   33.76600  
S    20.64500   15.60000   35.55100  
C    21.62300   14.25400   34.84700  
H    21.37600   14.10600   33.79200  
H    22.67000   14.49900   35.03900  
H    21.39500   13.35700   35.42800  
O    19.38500   15.46600   34.75300  
C    27.97500   11.08100   32.69200  
H    27.69800   10.29500   33.39900  
H    27.85100   12.05800   33.16700  
H    27.22100   10.99600   31.90500  
S    29.57600   10.92000   31.87100  
C    30.62100   11.37400   33.27400  
H    30.38100   10.74200   34.13300  
H    31.64500   11.37100   32.89400  
H    30.28200   12.39300   33.47600  
O    29.67300   11.97300   30.81100  
C    23.09200   6.23300    32.17700  
H    22.69400   5.76400    33.08100  
H    22.59300   7.18500    31.97800  
H    23.20500   5.65600    31.25600  
S    24.72900   6.90300    32.54800  
C    25.70500   5.42000    32.88200  
H    25.80800   4.90100    31.92500  
H    26.72200   5.70700    33.16300  
H    25.36600   4.83000    33.73700  
O    24.38600   7.46300    33.89400  
C    17.50900   18.34200   25.84000  
H    17.15500   17.82600   24.94500  
H    17.37700   17.76800   26.76100  
H    16.98200   19.29400   25.93700  
S    19.23200   18.67500   25.41100  
C    18.93200   19.25500   23.72600  
H    18.11900   19.97000   23.87600  
H    19.79800   19.81500   23.36400  
H    18.73000   18.39600   23.08100  
O    19.90400   17.35800   25.17800  
C    19.29200   21.60400   28.78500  
H    18.67300   21.25400   27.95500  
H    18.77700   21.43800   29.73400  
H    19.34500   22.69500   28.76000  
S    20.97200   21.01500   28.47300  
C    21.63500   21.40000   30.10900  
H    21.17700   20.69800   30.81100  
H    22.72300   21.29000   30.10300  
H    21.28600   22.41200   30.32900  
O    21.51100   22.06500   27.55200  
C    26.87000   15.51800   35.89400  
H    26.73600   14.46200   36.14000  
H    27.74600   15.70500   35.26900  
H    26.91700   16.03000   36.85900  
S    25.49700   15.97200   34.81000  
C    25.71500   14.70100   33.54400  
H    26.60400   14.89400   32.93800  
H    25.85800   13.71500   33.99400  
H    24.81000   14.62100   32.93700  
O    25.98700   17.26900   34.24600  
C    17.05500   13.22500   35.69700  
H    16.03300   13.17800   36.08000  
H    17.52400   12.27900   35.98100  
H    17.47900   14.07200   36.24300  
S    16.99700   13.50200   33.91300  
C    15.89800   14.93600   33.90300  
H    15.11000   14.78100   34.64500  
H    16.48200   15.84900   34.04700  
H    15.51300   15.01600   32.88400  
O    16.13900   12.39000   33.39400  
C    28.74100   17.80600   21.93700  
H    28.32400   18.36700   21.09800  
H    29.80400   17.96900   22.13600  
H    28.47700   16.74600   21.93500  
S    27.88900   18.49400   23.37400  
C    27.78000   20.20700   22.80700  
H    26.86400   20.51100   22.29400  
H    27.84100   20.77100   23.74100  
H    28.72600   20.39200   22.29200  
O    29.05000   18.63400   24.30900  
C    25.04100   13.34700   24.43200  
H    24.23000   13.66300   23.77100  
H    25.60400   12.49600   24.04100  
H    24.64700   13.11800   25.42600  
S    26.24000   14.68600   24.62400  
C    25.23400   15.62500   25.79600  
H    24.28300   15.63800   25.25600  
H    25.31100   15.09300   26.74700  
H    25.65400   16.61100   26.00800  
O    26.00600   15.51000   23.39600  
C    16.37000   10.59400   25.54600  
H    16.27400   10.50500   24.46000  
H    15.32600   10.49500   25.85500  
H    16.83900   11.55700   25.76400  
S    17.17300   9.16100    26.29800  
C    18.29800   9.00100    24.89300  
H    18.96700   9.86400    24.85400  
H    18.77800   8.06400    25.18700  
H    17.76600   8.91500    23.94300  
O    16.24200   8.06000    25.89300  
C    20.81200   9.20900    31.26100  
H    21.13800   8.39100    30.61300  
H    21.59700   9.75800    31.78800  
H    20.08700   8.84800    31.99400  
S    19.72200   10.24900   30.26300  
C    19.06500   11.19900   31.65300  
H    19.67300   12.04100   31.99400  
H    18.10000   11.62400   31.36600  
H    18.96900   10.46300   32.45500  
O    18.74000   9.18000    29.89800  
C    16.05500   11.00000   29.74400  
H    15.58300   10.76600   28.78600  
H    15.86500   12.04700   29.99500  
H    17.12900   10.84100   29.61400  
S    15.34900   9.81600    30.91200  
C    15.40200   8.51800    29.65600  
H    15.19300   7.65400    30.29200  
H    14.59700   8.67000    28.93300  
H    16.32300   8.44900    29.07000  
O    13.88200   10.10400   30.83100  
C    24.71100   23.77200   27.56400  
H    24.12700   23.76900   28.48800  
H    25.71100   24.08100   27.87800  
H    24.23500   24.56900   26.98600  
S    24.71000   22.17400   26.72200  
C    25.35000   21.35700   28.20100  
H    25.67200   20.36800   27.86500  
H    26.20900   21.96500   28.49600  
H    24.61300   21.36200   29.00800  
O    25.94700   22.10100   25.88200  
C    26.51600   6.64000    29.14200  
H    26.19500   6.68600    28.09900  
H    27.32600   5.90600    29.13700  
H    25.67800   6.34600    29.77900  
S    27.09700   8.29300    29.58300  
C    28.50800   8.26100    28.45500  
H    29.31300   7.79700    29.03100  
H    28.25300   7.64600    27.58800  
H    28.77700   9.27500    28.14900  
O    27.75500   8.12400    30.91700  
C    27.45400   11.76600   28.75300  
H    28.45800   12.02900   28.41000  
H    27.38300   11.28600   29.73300  
H    26.90000   11.11900   28.06800  
S    26.40900   13.23900   28.72100  
C    27.53500   14.34400   29.60200  
H    28.29300   14.67100   28.88600  
H    26.98800   15.20100   30.00500  
H    28.01100   13.68600   30.33400  
O    25.34000   12.84800   29.69300  
C    22.34900   8.86500    26.08600  
H    23.24300   8.72300    25.47300  
H    21.91500   7.86700    26.18700  
H    21.64000   9.59900    25.69400  
S    22.92500   9.18900    27.76800  
C    24.17900   10.45600   27.47100  
H    24.98300   10.06300   26.84200  
H    23.63600   11.23800   26.93500  
H    24.62400   10.80000   28.40800  
O    23.77600   8.03300    28.19200  
$end

$rem
JOBTYPE  SP
METHOD  B3LYP
BASIS  6-31+G(D)
SYMMETRY  FALSE
SYM_IGNORE  TRUE
MEM_TOTAL  12000
MEM_STATIC  4000
BASIS_LIN_DEP_THRESH  6
THRESH  14
SCF_CONVERGENCE  8
FD_MAT_VEC_PROD  FALSE
XC_GRID  000075000302
NL_GRID  1
MAX_SCF_CYCLES  200
ENV_METHOD  B3LYP
GEN_SCFMAN_EMBED  TRUE
SPADE_PARTITION  TRUE
EMBEDDING_EARLY_STOP  TRUE
$end

--------------------------------------------------------------
 ----------------------------------------------------------------
             Standard Nuclear Orientation (Angstroms)
    I     Atom           X                Y                Z
 ----------------------------------------------------------------
    1      C      23.5530000000    15.9340000000    28.6080000000
    2      C      22.5530000000    15.5190000000    29.7000000000
    3      C      22.7510000000    16.3400000000    30.9850000000
    4      C      22.7970000000    17.8590000000    30.7500000000
    5      C      23.6160000000    18.3110000000    29.5300000000
    6      C      23.4860000000    17.4340000000    28.2740000000
    7      H      22.0310000000    16.0390000000    31.7560000000
    8      H      21.5690000000    15.6930000000    29.2470000000
    9      H      24.5760000000    15.7250000000    28.9440000000
   10      H      23.3390000000    15.3490000000    27.7050000000
   11      H      21.8120000000    18.2340000000    30.4490000000
   12      H      23.0430000000    18.3480000000    31.7010000000
   13      H      23.2840000000    19.3180000000    29.2500000000
   14      H      24.6500000000    18.4030000000    29.8860000000
   15      H      22.4410000000    17.5370000000    27.9580000000
   16      H      24.1510000000    17.6880000000    27.4390000000
   17      H      23.7030000000    16.0560000000    31.4500000000
   18      N      22.6700000000    14.0880000000    29.9750000000
   19      H      23.5900000000    13.7340000000    30.2100000000
   20      C      21.7750000000    13.1170000000    29.5800000000
   21      H      22.2600000000    12.1270000000    29.5050000000
   22      O      20.6540000000    13.3410000000    29.1600000000
   23      C      24.6740000000    19.2250000000    23.8810000000
   24      H      24.9590000000    18.9570000000    22.8610000000
   25      H      25.5360000000    19.5750000000    24.4550000000
   26      H      24.3820000000    18.2930000000    24.3720000000
   27      S      23.2770000000    20.3610000000    24.0320000000
   28      C      22.4160000000    19.6500000000    25.4530000000
   29      H      21.6960000000    20.4200000000    25.7420000000
   30      H      22.1070000000    18.6360000000    25.1860000000
   31      H      23.2170000000    19.5990000000    26.1950000000
   32      O      22.3840000000    19.9610000000    22.9000000000
   33      C      16.8800000000    18.3020000000    32.5970000000
   34      H      16.6050000000    19.1250000000    31.9320000000
   35      H      16.8280000000    17.3760000000    32.0190000000
   36      H      16.1700000000    18.3170000000    33.4280000000
   37      S      18.4910000000    18.5740000000    33.3670000000
   38      C      18.1490000000    20.0940000000    34.2820000000
   39      H      17.8500000000    20.8470000000    33.5490000000
   40      H      17.3350000000    19.9160000000    34.9900000000
   41      H      18.9580000000    20.3190000000    34.9830000000
   42      O      19.3350000000    19.1100000000    32.2530000000
   43      C      22.5690000000    16.9760000000    21.0980000000
   44      H      21.7120000000    17.3690000000    21.6520000000
   45      H      23.4200000000    17.6610000000    21.1380000000
   46      H      22.2270000000    16.9190000000    20.0620000000
   47      S      23.0250000000    15.4250000000    21.9060000000
   48      C      24.4220000000    14.9260000000    20.8740000000
   49      H      25.0890000000    14.2190000000    21.3730000000
   50      H      23.9650000000    14.6180000000    19.9290000000
   51      H      24.9990000000    15.8430000000    20.7270000000
   52      O      21.9460000000    14.4110000000    21.6840000000
   53      C      24.8180000000    25.3820000000    31.6510000000
   54      H      23.8460000000    25.4070000000    32.1510000000
   55      H      25.5420000000    26.1570000000    31.9150000000
   56      H      24.6370000000    25.3940000000    30.5740000000
   57      S      25.6370000000    23.8300000000    32.0850000000
   58      C      27.0170000000    24.0570000000    30.9410000000
   59      H      27.7410000000    23.2490000000    31.0700000000
   60      H      26.6220000000    24.0140000000    29.9230000000
   61      H      27.5070000000    25.0290000000    31.0400000000
   62      O      24.7550000000    22.9620000000    31.2420000000
   63      C      29.9610000000    13.8820000000    25.0370000000
   64      H      29.2380000000    13.9850000000    24.2240000000
   65      H      30.8760000000    13.7320000000    24.4590000000
   66      H      29.7660000000    12.9430000000    25.5630000000
   67      S      29.8940000000    15.3180000000    26.1320000000
   68      C      30.8490000000    14.3830000000    27.3480000000
   69      H      31.6250000000    13.7590000000    26.8980000000
   70      H      31.2480000000    14.9860000000    28.1680000000
   71      H      30.1600000000    13.6240000000    27.7260000000
   72      O      28.5050000000    15.3730000000    26.6870000000
   73      C      26.1610000000    19.9090000000    32.0180000000
   74      H      25.8810000000    19.6800000000    33.0490000000
   75      H      25.5620000000    20.8060000000    31.8410000000
   76      H      26.0960000000    19.0860000000    31.3010000000
   77      S      27.8750000000    20.4800000000    31.9630000000
   78      C      28.5290000000    19.1040000000    32.9350000000
   79      H      27.7730000000    18.8540000000    33.6830000000
   80      H      28.7320000000    18.2680000000    32.2610000000
   81      H      29.3930000000    19.4700000000    33.4960000000
   82      O      27.8860000000    21.6290000000    32.9220000000
   83      C      24.4370000000    21.3810000000    34.5970000000
   84      H      24.5380000000    21.9290000000    33.6570000000
   85      H      23.9420000000    22.0520000000    35.3050000000
   86      H      25.4030000000    21.0670000000    35.0010000000
   87      S      23.1200000000    20.1440000000    34.5640000000
   88      C      22.1300000000    21.2730000000    33.5580000000
   89      H      22.4970000000    21.1820000000    32.5330000000
   90      H      21.1030000000    20.9130000000    33.6670000000
   91      H      22.1130000000    22.3310000000    33.8310000000
   92      O      22.3770000000    20.2100000000    35.8620000000
   93      C      24.2150000000    10.3560000000    31.5910000000
   94      H      23.7180000000    10.3340000000    30.6180000000
   95      H      25.2850000000    10.2560000000    31.3930000000
   96      H      23.9550000000     9.4340000000    32.1160000000
   97      S      23.9200000000    11.8330000000    32.5900000000
   98      C      24.3160000000    11.1750000000    34.2250000000
   99      H      23.9330000000    11.9380000000    34.9070000000
  100      H      23.7750000000    10.2270000000    34.2880000000
  101      H      25.3960000000    11.0440000000    34.3320000000
  102      O      22.4410000000    12.0680000000    32.5890000000
  103      C      21.3810000000    14.5310000000    25.3340000000
  104      H      22.4120000000    14.5750000000    24.9730000000
  105      H      20.5950000000    14.8060000000    24.6270000000
  106      H      21.1470000000    15.2280000000    26.1420000000
  107      S      21.0990000000    12.7730000000    25.6430000000
  108      C      21.2380000000    12.1500000000    23.9530000000
  109      H      20.7610000000    11.1670000000    23.9650000000
  110      H      20.6370000000    12.9010000000    23.4340000000
  111      H      22.2690000000    12.0750000000    23.5960000000
  112      O      19.6200000000    12.5900000000    25.7780000000
  113      C      30.6770000000    20.1600000000    27.5050000000
  114      H      30.3000000000    20.9590000000    28.1480000000
  115      H      31.7470000000    19.9340000000    27.5080000000
  116      H      30.3260000000    20.3250000000    26.4830000000
  117      S      29.9070000000    18.6520000000    28.1360000000
  118      C      28.2140000000    19.2020000000    27.8260000000
  119      H      27.5360000000    18.5020000000    28.3220000000
  120      H      28.1800000000    20.1900000000    28.2920000000
  121      H      28.0570000000    19.2580000000    26.7460000000
  122      O      30.1520000000    18.7440000000    29.6100000000
  123      C      18.9710000000    15.6080000000    30.6880000000
  124      H      18.7860000000    16.0110000000    31.6870000000
  125      H      19.9730000000    15.1810000000    30.5980000000
  126      H      18.8750000000    16.3980000000    29.9390000000
  127      S      17.6710000000    14.4150000000    30.2950000000
  128      C      17.8270000000    14.4880000000    28.4960000000
  129      H      17.2890000000    13.6760000000    28.0010000000
  130      H      17.4530000000    15.4710000000    28.2000000000
  131      H      18.8690000000    14.4710000000    28.1660000000
  132      O      16.4780000000    15.2580000000    30.6220000000
  133      C      21.4620000000    17.0500000000    34.8480000000
  134      H      21.1060000000    17.9890000000    35.2790000000
  135      H      22.5330000000    16.9080000000    35.0150000000
  136      H      21.3180000000    17.1210000000    33.7660000000
  137      S      20.6450000000    15.6000000000    35.5510000000
  138      C      21.6230000000    14.2540000000    34.8470000000
  139      H      21.3760000000    14.1060000000    33.7920000000
  140      H      22.6700000000    14.4990000000    35.0390000000
  141      H      21.3950000000    13.3570000000    35.4280000000
  142      O      19.3850000000    15.4660000000    34.7530000000
  143      C      27.9750000000    11.0810000000    32.6920000000
  144      H      27.6980000000    10.2950000000    33.3990000000
  145      H      27.8510000000    12.0580000000    33.1670000000
  146      H      27.2210000000    10.9960000000    31.9050000000
  147      S      29.5760000000    10.9200000000    31.8710000000
  148      C      30.6210000000    11.3740000000    33.2740000000
  149      H      30.3810000000    10.7420000000    34.1330000000
  150      H      31.6450000000    11.3710000000    32.8940000000
  151      H      30.2820000000    12.3930000000    33.4760000000
  152      O      29.6730000000    11.9730000000    30.8110000000
  153      C      23.0920000000     6.2330000000    32.1770000000
  154      H      22.6940000000     5.7640000000    33.0810000000
  155      H      22.5930000000     7.1850000000    31.9780000000
  156      H      23.2050000000     5.6560000000    31.2560000000
  157      S      24.7290000000     6.9030000000    32.5480000000
  158      C      25.7050000000     5.4200000000    32.8820000000
  159      H      25.8080000000     4.9010000000    31.9250000000
  160      H      26.7220000000     5.7070000000    33.1630000000
  161      H      25.3660000000     4.8300000000    33.7370000000
  162      O      24.3860000000     7.4630000000    33.8940000000
  163      C      17.5090000000    18.3420000000    25.8400000000
  164      H      17.1550000000    17.8260000000    24.9450000000
  165      H      17.3770000000    17.7680000000    26.7610000000
  166      H      16.9820000000    19.2940000000    25.9370000000
  167      S      19.2320000000    18.6750000000    25.4110000000
  168      C      18.9320000000    19.2550000000    23.7260000000
  169      H      18.1190000000    19.9700000000    23.8760000000
  170      H      19.7980000000    19.8150000000    23.3640000000
  171      H      18.7300000000    18.3960000000    23.0810000000
  172      O      19.9040000000    17.3580000000    25.1780000000
  173      C      19.2920000000    21.6040000000    28.7850000000
  174      H      18.6730000000    21.2540000000    27.9550000000
  175      H      18.7770000000    21.4380000000    29.7340000000
  176      H      19.3450000000    22.6950000000    28.7600000000
  177      S      20.9720000000    21.0150000000    28.4730000000
  178      C      21.6350000000    21.4000000000    30.1090000000
  179      H      21.1770000000    20.6980000000    30.8110000000
  180      H      22.7230000000    21.2900000000    30.1030000000
  181      H      21.2860000000    22.4120000000    30.3290000000
  182      O      21.5110000000    22.0650000000    27.5520000000
  183      C      26.8700000000    15.5180000000    35.8940000000
  184      H      26.7360000000    14.4620000000    36.1400000000
  185      H      27.7460000000    15.7050000000    35.2690000000
  186      H      26.9170000000    16.0300000000    36.8590000000
  187      S      25.4970000000    15.9720000000    34.8100000000
  188      C      25.7150000000    14.7010000000    33.5440000000
  189      H      26.6040000000    14.8940000000    32.9380000000
  190      H      25.8580000000    13.7150000000    33.9940000000
  191      H      24.8100000000    14.6210000000    32.9370000000
  192      O      25.9870000000    17.2690000000    34.2460000000
  193      C      17.0550000000    13.2250000000    35.6970000000
  194      H      16.0330000000    13.1780000000    36.0800000000
  195      H      17.5240000000    12.2790000000    35.9810000000
  196      H      17.4790000000    14.0720000000    36.2430000000
  197      S      16.9970000000    13.5020000000    33.9130000000
  198      C      15.8980000000    14.9360000000    33.9030000000
  199      H      15.1100000000    14.7810000000    34.6450000000
  200      H      16.4820000000    15.8490000000    34.0470000000
  201      H      15.5130000000    15.0160000000    32.8840000000
  202      O      16.1390000000    12.3900000000    33.3940000000
  203      C      28.7410000000    17.8060000000    21.9370000000
  204      H      28.3240000000    18.3670000000    21.0980000000
  205      H      29.8040000000    17.9690000000    22.1360000000
  206      H      28.4770000000    16.7460000000    21.9350000000
  207      S      27.8890000000    18.4940000000    23.3740000000
  208      C      27.7800000000    20.2070000000    22.8070000000
  209      H      26.8640000000    20.5110000000    22.2940000000
  210      H      27.8410000000    20.7710000000    23.7410000000
  211      H      28.7260000000    20.3920000000    22.2920000000
  212      O      29.0500000000    18.6340000000    24.3090000000
  213      C      25.0410000000    13.3470000000    24.4320000000
  214      H      24.2300000000    13.6630000000    23.7710000000
  215      H      25.6040000000    12.4960000000    24.0410000000
  216      H      24.6470000000    13.1180000000    25.4260000000
  217      S      26.2400000000    14.6860000000    24.6240000000
  218      C      25.2340000000    15.6250000000    25.7960000000
  219      H      24.2830000000    15.6380000000    25.2560000000
  220      H      25.3110000000    15.0930000000    26.7470000000
  221      H      25.6540000000    16.6110000000    26.0080000000
  222      O      26.0060000000    15.5100000000    23.3960000000
  223      C      16.3700000000    10.5940000000    25.5460000000
  224      H      16.2740000000    10.5050000000    24.4600000000
  225      H      15.3260000000    10.4950000000    25.8550000000
  226      H      16.8390000000    11.5570000000    25.7640000000
  227      S      17.1730000000     9.1610000000    26.2980000000
  228      C      18.2980000000     9.0010000000    24.8930000000
  229      H      18.9670000000     9.8640000000    24.8540000000
  230      H      18.7780000000     8.0640000000    25.1870000000
  231      H      17.7660000000     8.9150000000    23.9430000000
  232      O      16.2420000000     8.0600000000    25.8930000000
  233      C      20.8120000000     9.2090000000    31.2610000000
  234      H      21.1380000000     8.3910000000    30.6130000000
  235      H      21.5970000000     9.7580000000    31.7880000000
  236      H      20.0870000000     8.8480000000    31.9940000000
  237      S      19.7220000000    10.2490000000    30.2630000000
  238      C      19.0650000000    11.1990000000    31.6530000000
  239      H      19.6730000000    12.0410000000    31.9940000000
  240      H      18.1000000000    11.6240000000    31.3660000000
  241      H      18.9690000000    10.4630000000    32.4550000000
  242      O      18.7400000000     9.1800000000    29.8980000000
  243      C      16.0550000000    11.0000000000    29.7440000000
  244      H      15.5830000000    10.7660000000    28.7860000000
  245      H      15.8650000000    12.0470000000    29.9950000000
  246      H      17.1290000000    10.8410000000    29.6140000000
  247      S      15.3490000000     9.8160000000    30.9120000000
  248      C      15.4020000000     8.5180000000    29.6560000000
  249      H      15.1930000000     7.6540000000    30.2920000000
  250      H      14.5970000000     8.6700000000    28.9330000000
  251      H      16.3230000000     8.4490000000    29.0700000000
  252      O      13.8820000000    10.1040000000    30.8310000000
  253      C      24.7110000000    23.7720000000    27.5640000000
  254      H      24.1270000000    23.7690000000    28.4880000000
  255      H      25.7110000000    24.0810000000    27.8780000000
  256      H      24.2350000000    24.5690000000    26.9860000000
  257      S      24.7100000000    22.1740000000    26.7220000000
  258      C      25.3500000000    21.3570000000    28.2010000000
  259      H      25.6720000000    20.3680000000    27.8650000000
  260      H      26.2090000000    21.9650000000    28.4960000000
  261      H      24.6130000000    21.3620000000    29.0080000000
  262      O      25.9470000000    22.1010000000    25.8820000000
  263      C      26.5160000000     6.6400000000    29.1420000000
  264      H      26.1950000000     6.6860000000    28.0990000000
  265      H      27.3260000000     5.9060000000    29.1370000000
  266      H      25.6780000000     6.3460000000    29.7790000000
  267      S      27.0970000000     8.2930000000    29.5830000000
  268      C      28.5080000000     8.2610000000    28.4550000000
  269      H      29.3130000000     7.7970000000    29.0310000000
  270      H      28.2530000000     7.6460000000    27.5880000000
  271      H      28.7770000000     9.2750000000    28.1490000000
  272      O      27.7550000000     8.1240000000    30.9170000000
  273      C      27.4540000000    11.7660000000    28.7530000000
  274      H      28.4580000000    12.0290000000    28.4100000000
  275      H      27.3830000000    11.2860000000    29.7330000000
  276      H      26.9000000000    11.1190000000    28.0680000000
  277      S      26.4090000000    13.2390000000    28.7210000000
  278      C      27.5350000000    14.3440000000    29.6020000000
  279      H      28.2930000000    14.6710000000    28.8860000000
  280      H      26.9880000000    15.2010000000    30.0050000000
  281      H      28.0110000000    13.6860000000    30.3340000000
  282      O      25.3400000000    12.8480000000    29.6930000000
  283      C      22.3490000000     8.8650000000    26.0860000000
  284      H      23.2430000000     8.7230000000    25.4730000000
  285      H      21.9150000000     7.8670000000    26.1870000000
  286      H      21.6400000000     9.5990000000    25.6940000000
  287      S      22.9250000000     9.1890000000    27.7680000000
  288      C      24.1790000000    10.4560000000    27.4710000000
  289      H      24.9830000000    10.0630000000    26.8420000000
  290      H      23.6360000000    11.2380000000    26.9350000000
  291      H      24.6240000000    10.8000000000    28.4080000000
  292      O      23.7760000000     8.0330000000    28.1920000000
 ----------------------------------------------------------------
 Nuclear Repulsion Energy =       48401.05717221 hartrees
 There are      602 alpha and      602 beta electrons
 Requested basis set is 6-31+G(d)
 There are 962 shells and 2681 basis functions

 Total QAlloc Memory Limit  12000 MB
 Mega-Array Size      3911 MB
 MEM_STATIC part      4000 MB

 A cutoff of  1.0D-14 yielded 175880 shell pairs
 There are   1537213 function pairs
 Smallest overlap matrix eigenvalue = 4.20E-07
 Linear dependence detected in AO basis
 Tighter screening thresholds may be required for diffuse basis sets
 Use S2THRESH > 14 and THRESH = 14 in case of SCF convergence issues
 Number of orthogonalized atomic orbitals = 2678
 Maximum deviation from orthogonality = 6.318E-11

 Scale SEOQF with 1.000000e-03/1.000000e-03/1.000000e-03

 Standard Electronic Orientation quadrupole field applied
 Nucleus-field energy     =    -0.0000006670 hartrees
 Guess from superposition of atomic densities
 Warning:  Energy on first SCF cycle will be non-variational
 SAD guess density has 1204.000002 electrons

 -----------------------------------------------------------------------
  General SCF calculation program by
  Eric Jon Sundstrom, Paul Horn, Yuezhi Mao, Dmitri Zuev, Alec White,
  David Stuck, Shaama M.S., Shane Yost, Joonho Lee, David Small,
  Daniel Levine, Susi Lehtola, Hugh Burton, Evgeny Epifanovsky,
  Bang C. Huynh
 -----------------------------------------------------------------------
=================================================
        Doing projection-based embedding         
      F. Manby et al. JCTC, 8, 2564 (2012)       
=================================================

****************************************************
   Low-level SCF calculation for the whole system   
****************************************************
----------------------------------------------
 Summary of the low-level theory: 
 Exchange:     0.2000 Hartree-Fock + 0.0800 Slater + 0.7200 B88
 Correlation:  0.1900 VWN1RPA + 0.8100 LYP
 Using Euler-Maclaurin-Lebedev (75,302) quadrature formula
----------------------------------------------
 using 16 threads for integral computing
 -------------------------------------------------------
 OpenMP Integral computing Module                
 Release: version 1.0, May 2013, Q-Chem Inc. Pittsburgh 
 -------------------------------------------------------
 A restricted SCF calculation will be
 performed using DIIS
 SCF converges when DIIS error is below 1.0e-08
 ---------------------------------------
  Cycle       Energy         DIIS error
 ---------------------------------------
    1  -15359.9479237094      1.35e-02  
    2  -15335.9199155844      2.50e-03  
    3  -15318.6199489916      4.91e-03  
    4  -15333.0134672366      2.04e-03  
    5  -15340.3334552519      6.76e-04  
    6  -15340.6771740608      2.90e-04  
    7  -15340.7181506535      1.68e-04  
    8  -15340.7394793546      2.87e-05  
    9  -15340.7399751275      1.76e-05  
   10  -15340.7401847943      6.94e-06  
   11  -15340.7402201907      2.01e-06  
   12  -15340.7402229477      9.06e-07  
   13  -15340.7402235062      3.41e-07  
   14  -15340.7402235853      1.22e-07  
   15  -15340.7402235972      3.52e-08  
   16  -15340.7402235983      1.69e-08  
   17  -15340.7402235984      5.99e-09  Convergence criterion met
 ---------------------------------------
 SCF time:   CPU 330219.68s  wall 23794.00s 
 SCF   energy in the final basis set =   -15340.7402235984
 Total energy in the final basis set =   -15340.7402235984

****************************************************
             Start embedding calculation            
****************************************************
----------------------------------------------
 Summary of the high-level theory: 
 Exchange:     0.2000 Hartree-Fock + 0.0800 Slater + 0.7200 B88
 Correlation:  0.1900 VWN1RPA + 0.8100 LYP
 Using Euler-Maclaurin-Lebedev (75,302) quadrature formula
----------------------------------------------
Doing R-in-R Embedding Calculation
Number of fragments: 2
Embedded fragment(s): 1 
NOcc for each fragment
           35
          567
NBasis for each fragment
          197
         2484
Variational space of the embedded problem: 
NOcc (active)  = 35
NOcc (fixed)   = 567
NVir (total)   = 2076
Read converged orbitals from disk
=========================================================
       Doing SPADE partition for the orbital space       
     D. Claudino and N. Mayhall JCTC 15, 1053 (2019)     
=========================================================
SPADE singular values:
 1.0000 1.0000 1.0000 1.0000 1.0000 1.0000 1.0000 1.0000 1.0000 0.9999
 0.9998 0.9997 0.9997 0.9995 0.9994 0.9993 0.9992 0.9989 0.9983 0.9971
 0.9966 0.9962 0.9959 0.9956 0.9950 0.9948 0.9940 0.9935 0.9930 0.9919
 0.9911 0.9898 0.9876 0.9837 0.9772 0.2162 0.1804 0.1785 0.1692 0.1601
 0.1493 0.1442 0.1359 0.1184 0.1107 0.1097 0.0959 0.0888 0.0777 0.0693
 0.0656 0.0592 0.0517 0.0501 0.0486 0.0417 0.0400 0.0377 0.0367 0.0343
 0.0312 0.0288 0.0271 0.0261 0.0257 0.0232 0.0226 0.0221 0.0210 0.0204
 0.0189 0.0176 0.0160 0.0150 0.0147 0.0141 0.0126 0.0125 0.0120 0.0111
 0.0101 0.0099 0.0097 0.0089 0.0087 0.0083 0.0079 0.0074 0.0070 0.0065
 0.0063 0.0060 0.0058 0.0053 0.0050 0.0049 0.0049 0.0044 0.0042 0.0040
 0.0038 0.0036 0.0034 0.0032 0.0032 0.0031 0.0029 0.0027 0.0026 0.0025
 0.0024 0.0023 0.0021 0.0021 0.0020 0.0019 0.0018 0.0018 0.0018 0.0017
 0.0016 0.0016 0.0015 0.0014 0.0014 0.0013 0.0012 0.0012 0.0012 0.0011
 0.0011 0.0010 0.0010 0.0010 0.0009 0.0009 0.0009 0.0008 0.0008 0.0008
 0.0007 0.0007 0.0007 0.0007 0.0007 0.0006 0.0006 0.0005 0.0005 0.0005
 0.0005 0.0005 0.0004 0.0004 0.0004 0.0004 0.0004 0.0003 0.0003 0.0003
 0.0003 0.0003 0.0003 0.0003 0.0003 0.0003 0.0003 0.0002 0.0002 0.0002
 0.0002 0.0002 0.0002 0.0002 0.0002 0.0002 0.0002 0.0002 0.0002 0.0002
 0.0001 0.0001 0.0001 0.0001 0.0001 0.0001 0.0001 0.0001 0.0001 0.0001
 0.0001 0.0001 0.0001 0.0001 0.0001 0.0001 0.0001
Early stop requested; no embedded SCF will be performed

 567 environment occs will be part of frozen-core in future post-HF calculations

 --------------------------------------------------------------

                    Orbital Energies (a.u.)
 --------------------------------------------------------------

 Alpha MOs
 -- Occupied --
-89.0259 -89.0255 -89.0220 -89.0194 -89.0190 -89.0146 -89.0136 -89.0113
-89.0100 -89.0064 -89.0052 -89.0006 -88.9997 -88.9972 -88.9967 -88.9961
-88.9927 -88.9914 -88.9892 -88.9891 -88.9873 -88.9866 -88.9692 -88.9692
-88.9683 -88.9586 -88.9378 -19.1495 -19.1462 -19.1425 -19.1376 -19.1322
-19.1319 -19.1272 -19.1243 -19.1235 -19.1231 -19.1166 -19.1162 -19.1147
-19.1147 -19.1133 -19.1119 -19.1103 -19.1099 -19.1068 -19.1014 -19.0996
-19.0993 -19.0871 -19.0847 -19.0776 -19.0699 -19.0472 -10.2461 -10.2432
-10.2431 -10.2429 -10.2411 -10.2387 -10.2378 -10.2365 -10.2354 -10.2351
-10.2335 -10.2320 -10.2303 -10.2294 -10.2263 -10.2260 -10.2253 -10.2242
-10.2234 -10.2228 -10.2227 -10.2208 -10.2207 -10.2191 -10.2187 -10.2155
-10.2137 -10.2126 -10.2124 -10.2124 -10.2122 -10.2113 -10.2113 -10.2101
-10.2074 -10.2068 -10.2068 -10.2064 -10.2063 -10.2055 -10.2048 -10.2036
-10.2013 -10.1991 -10.1913 -10.1891 -10.1850 -10.1812 -10.1795 -10.1787
-10.1772 -10.1748 -10.1521 -10.1486  -8.0708  -8.0706  -8.0676  -8.0656
 -8.0647  -8.0599  -8.0597  -8.0570  -8.0550  -8.0518  -8.0517  -8.0472
 -8.0457  -8.0425  -8.0423  -8.0418  -8.0385  -8.0374  -8.0351  -8.0345
 -8.0334  -8.0326  -8.0155  -8.0145  -8.0137  -8.0037  -7.9837  -6.0351
 -6.0350  -6.0341  -6.0337  -6.0322  -6.0306  -6.0300  -6.0291  -6.0288
 -6.0281  -6.0281  -6.0278  -6.0250  -6.0244  -6.0240  -6.0232  -6.0226
 -6.0224  -6.0222  -6.0214  -6.0200  -6.0196  -6.0184  -6.0173  -6.0171
 -6.0162  -6.0160  -6.0150  -6.0148  -6.0144  -6.0122  -6.0114  -6.0102
 -6.0102  -6.0092  -6.0090  -6.0088  -6.0068  -6.0066  -6.0063  -6.0055
 -6.0052  -6.0050  -6.0046  -6.0030  -6.0029  -6.0017  -6.0017  -6.0004
 -6.0001  -6.0000  -5.9996  -5.9990  -5.9989  -5.9983  -5.9979  -5.9977
 -5.9971  -5.9963  -5.9958  -5.9958  -5.9948  -5.9922  -5.9921  -5.9908
 -5.9897  -5.9795  -5.9789  -5.9785  -5.9780  -5.9777  -5.9768  -5.9733
 -5.9720  -5.9711  -5.9681  -5.9670  -5.9610  -5.9477  -5.9467  -5.9414
 -1.0534  -1.0520  -1.0519  -1.0466  -1.0427  -1.0405  -1.0400  -1.0376
 -1.0346  -1.0325  -1.0297  -1.0291  -1.0250  -1.0227  -1.0224  -1.0211
 -1.0187  -1.0167  -1.0152  -1.0137  -1.0116  -1.0114  -0.9977  -0.9955
 -0.9918  -0.9788  -0.9593  -0.8301  -0.8293  -0.8262  -0.8234  -0.8203
 -0.8162  -0.8156  -0.8131  -0.8068  -0.8063  -0.8053  -0.8025  -0.8020
 -0.8004  -0.7994  -0.7984  -0.7953  -0.7940  -0.7908  -0.7898  -0.7890
 -0.7875  -0.7708  -0.7656  -0.7653  -0.7581  -0.7569  -0.7554  -0.7510
 -0.7473  -0.7443  -0.7434  -0.7428  -0.7425  -0.7410  -0.7361  -0.7359
 -0.7347  -0.7332  -0.7286  -0.7272  -0.7237  -0.7232  -0.7229  -0.7213
 -0.7194  -0.7184  -0.7156  -0.7116  -0.6964  -0.6946  -0.6944  -0.6910
 -0.6599  -0.6443  -0.6391  -0.6368  -0.6317  -0.6285  -0.6280  -0.6267
 -0.6251  -0.6233  -0.6194  -0.6156  -0.6140  -0.6134  -0.6106  -0.6101
 -0.6087  -0.6037  -0.6021  -0.6016  -0.6004  -0.5982  -0.5976  -0.5844
 -0.5833  -0.5805  -0.5736  -0.5533  -0.5091  -0.5085  -0.5078  -0.5066
 -0.5045  -0.5019  -0.4977  -0.4974  -0.4958  -0.4934  -0.4914  -0.4903
 -0.4897  -0.4894  -0.4887  -0.4885  -0.4874  -0.4869  -0.4859  -0.4855
 -0.4849  -0.4833  -0.4831  -0.4823  -0.4822  -0.4813  -0.4808  -0.4800
 -0.4796  -0.4792  -0.4790  -0.4787  -0.4783  -0.4765  -0.4764  -0.4761
 -0.4743  -0.4727  -0.4706  -0.4698  -0.4698  -0.4686  -0.4681  -0.4669
 -0.4654  -0.4644  -0.4632  -0.4629  -0.4624  -0.4621  -0.4612  -0.4609
 -0.4607  -0.4600  -0.4595  -0.4594  -0.4587  -0.4585  -0.4579  -0.4571
 -0.4560  -0.4558  -0.4539  -0.4539  -0.4536  -0.4534  -0.4527  -0.4524
 -0.4522  -0.4516  -0.4506  -0.4502  -0.4493  -0.4486  -0.4482  -0.4479
 -0.4472  -0.4442  -0.4425  -0.4424  -0.4414  -0.4398  -0.4377  -0.4361
 -0.4351  -0.4344  -0.4341  -0.4336  -0.4318  -0.4314  -0.4310  -0.4302
 -0.4300  -0.4295  -0.4281  -0.4269  -0.4259  -0.4257  -0.4252  -0.4244
 -0.4243  -0.4234  -0.4225  -0.4223  -0.4219  -0.4213  -0.4211  -0.4206
 -0.4190  -0.4189  -0.4186  -0.4176  -0.4171  -0.4165  -0.4160  -0.4155
 -0.4134  -0.4130  -0.4115  -0.4114  -0.4100  -0.4095  -0.4086  -0.4085
 -0.4062  -0.4056  -0.4042  -0.4041  -0.4035  -0.4021  -0.4015  -0.4013
 -0.4010  -0.3998  -0.3990  -0.3988  -0.3986  -0.3966  -0.3964  -0.3957
 -0.3948  -0.3946  -0.3939  -0.3919  -0.3909  -0.3903  -0.3884  -0.3872
 -0.3869  -0.3860  -0.3860  -0.3854  -0.3850  -0.3844  -0.3818  -0.3812
 -0.3809  -0.3798  -0.3783  -0.3775  -0.3760  -0.3752  -0.3694  -0.3683
 -0.3678  -0.3677  -0.3672  -0.3661  -0.3654  -0.3636  -0.3630  -0.3599
 -0.3592  -0.3584  -0.3561  -0.3554  -0.3549  -0.3548  -0.3521  -0.3505
 -0.3497  -0.3455  -0.3425  -0.3351  -0.3324  -0.3311  -0.3242  -0.3190
 -0.3128  -0.3091  -0.3041  -0.3001  -0.3001  -0.2946  -0.2935  -0.2916
 -0.2872  -0.2841  -0.2819  -0.2771  -0.2768  -0.2760  -0.2743  -0.2734
 -0.2730  -0.2726  -0.2714  -0.2709  -0.2672  -0.2659  -0.2641  -0.2627
 -0.2618  -0.2610  -0.2606  -0.2583  -0.2573  -0.2535  -0.2523  -0.2501
 -0.2490  -0.2463  -0.2445  -0.2443  -0.2426  -0.2422  -0.2400  -0.2389
 -0.2367  -0.2351  -0.2345  -0.2326  -0.2293  -0.2290  -0.2265  -0.2245
 -0.2226  -0.2135  -0.2112  -0.2089  -0.2042  -0.1942  -0.1795 -10.7885
-12.0946 -11.1718 -10.3971 -12.9635 -12.1668 -12.1611 -10.6925 -11.4462
 -0.8800  -0.7431  -0.7561  -0.6176  -0.8320  -0.8030  -0.8897  -0.6103
 -0.4153  -0.5151  -0.4900  -0.4697  -0.4427  -0.4509  -0.3775  -0.4860
 -0.4399  -0.4222  -0.3784  -0.4177  -0.4354  -0.4522  -0.5249  -0.4989
 -0.5624  -0.5867
 -- Virtual --
 -0.0421  -0.0370  -0.0288  -0.0243  -0.0235  -0.0216  -0.0207  -0.0189
 -0.0184  -0.0159  -0.0157  -0.0145  -0.0131  -0.0123  -0.0118  -0.0098
 -0.0095  -0.0078  -0.0068  -0.0059  -0.0053  -0.0047  -0.0046  -0.0033
 -0.0022  -0.0015  -0.0014   0.0001   0.0010   0.0032   0.0037   0.0043
  0.0061   0.0066   0.0071   0.0080   0.0081   0.0087   0.0091   0.0098
  0.0111   0.0120   0.0122   0.0131   0.0138   0.0142   0.0149   0.0154
  0.0167   0.0168   0.0170   0.0177   0.0192   0.0200   0.0204   0.0210
  0.0212   0.0217   0.0236   0.0237   0.0240   0.0243   0.0250   0.0254
  0.0264   0.0268   0.0272   0.0279   0.0283   0.0297   0.0310   0.0318
  0.0320   0.0336   0.0338   0.0349   0.0355   0.0359   0.0368   0.0371
  0.0380   0.0389   0.0393   0.0395   0.0403   0.0407   0.0411   0.0416
  0.0422   0.0431   0.0438   0.0445   0.0450   0.0457   0.0462   0.0465
  0.0473   0.0475   0.0483   0.0484   0.0501   0.0505   0.0507   0.0522
  0.0528   0.0529   0.0533   0.0537   0.0550   0.0552   0.0558   0.0560
  0.0566   0.0574   0.0580   0.0584   0.0600   0.0604   0.0611   0.0615
  0.0616   0.0618   0.0633   0.0640   0.0650   0.0655   0.0661   0.0664
  0.0670   0.0675   0.0677   0.0692   0.0692   0.0698   0.0707   0.0713
  0.0722   0.0725   0.0728   0.0742   0.0746   0.0750   0.0754   0.0760
  0.0767   0.0767   0.0784   0.0788   0.0795   0.0802   0.0807   0.0811
  0.0816   0.0826   0.0834   0.0842   0.0848   0.0853   0.0858   0.0873
  0.0874   0.0878   0.0884   0.0890   0.0895   0.0902   0.0909   0.0912
  0.0919   0.0926   0.0932   0.0943   0.0948   0.0959   0.0963   0.0965
  0.0974   0.0981   0.0985   0.0994   0.0998   0.1000   0.1011   0.1013
  0.1020   0.1028   0.1038   0.1041   0.1047   0.1061   0.1062   0.1065
  0.1069   0.1079   0.1085   0.1089   0.1098   0.1105   0.1112   0.1115
  0.1125   0.1128   0.1139   0.1142   0.1156   0.1158   0.1165   0.1171
  0.1177   0.1182   0.1190   0.1193   0.1201   0.1209   0.1212   0.1220
  0.1228   0.1234   0.1238   0.1243   0.1249   0.1255   0.1258   0.1263
  0.1271   0.1280   0.1286   0.1288   0.1296   0.1307   0.1314   0.1317
  0.1326   0.1330   0.1334   0.1340   0.1344   0.1346   0.1357   0.1369
  0.1375   0.1383   0.1386   0.1391   0.1394   0.1403   0.1405   0.1413
  0.1423   0.1425   0.1433   0.1439   0.1453   0.1455   0.1459   0.1461
  0.1470   0.1478   0.1488   0.1490   0.1497   0.1502   0.1511   0.1516
  0.1522   0.1530   0.1535   0.1549   0.1555   0.1560   0.1562   0.1563
  0.1571   0.1575   0.1587   0.1589   0.1591   0.1599   0.1602   0.1605
  0.1618   0.1627   0.1631   0.1641   0.1645   0.1651   0.1655   0.1662
  0.1666   0.1669   0.1677   0.1677   0.1683   0.1688   0.1702   0.1709
  0.1717   0.1725   0.1726   0.1729   0.1735   0.1746   0.1749   0.1756
  0.1758   0.1766   0.1773   0.1777   0.1783   0.1787   0.1794   0.1800
  0.1805   0.1808   0.1816   0.1827   0.1834   0.1838   0.1842   0.1845
  0.1856   0.1865   0.1871   0.1878   0.1882   0.1886   0.1890   0.1895
  0.1907   0.1914   0.1921   0.1927   0.1930   0.1937   0.1942   0.1946
  0.1953   0.1957   0.1972   0.1980   0.1982   0.1984   0.1997   0.2006
  0.2011   0.2012   0.2020   0.2029   0.2034   0.2036   0.2043   0.2056
  0.2063   0.2064   0.2074   0.2079   0.2081   0.2089   0.2099   0.2103
  0.2107   0.2118   0.2123   0.2130   0.2135   0.2138   0.2146   0.2151
  0.2161   0.2163   0.2171   0.2179   0.2185   0.2189   0.2197   0.2200
  0.2202   0.2210   0.2219   0.2223   0.2232   0.2236   0.2238   0.2241
  0.2254   0.2261   0.2269   0.2277   0.2281   0.2291   0.2295   0.2304
  0.2308   0.2309   0.2322   0.2327   0.2331   0.2333   0.2340   0.2353
  0.2356   0.2364   0.2371   0.2375   0.2381   0.2384   0.2393   0.2406
  0.2407   0.2415   0.2422   0.2427   0.2428   0.2444   0.2452   0.2454
  0.2466   0.2473   0.2476   0.2483   0.2494   0.2495   0.2503   0.2506
  0.2511   0.2516   0.2519   0.2527   0.2532   0.2540   0.2553   0.2556
  0.2562   0.2571   0.2579   0.2583   0.2595   0.2596   0.2614   0.2622
  0.2625   0.2629   0.2639   0.2649   0.2657   0.2663   0.2680   0.2684
  0.2686   0.2696   0.2700   0.2706   0.2713   0.2717   0.2722   0.2731
  0.2735   0.2745   0.2753   0.2759   0.2760   0.2772   0.2786   0.2794
  0.2803   0.2805   0.2811   0.2820   0.2825   0.2838   0.2845   0.2854
  0.2859   0.2870   0.2877   0.2878   0.2889   0.2898   0.2908   0.2930
  0.2934   0.2937   0.2943   0.2956   0.2958   0.2970   0.2978   0.2984
  0.2991   0.3001   0.3007   0.3016   0.3020   0.3032   0.3036   0.3050
  0.3061   0.3078   0.3079   0.3092   0.3095   0.3101   0.3112   0.3113
  0.3126   0.3134   0.3144   0.3147   0.3165   0.3170   0.3176   0.3177
  0.3188   0.3201   0.3208   0.3215   0.3222   0.3228   0.3241   0.3255
  0.3259   0.3271   0.3277   0.3282   0.3287   0.3300   0.3309   0.3316
  0.3328   0.3331   0.3337   0.3354   0.3362   0.3367   0.3375   0.3386
  0.3393   0.3402   0.3409   0.3424   0.3427   0.3432   0.3434   0.3440
  0.3446   0.3467   0.3472   0.3489   0.3500   0.3507   0.3515   0.3519
  0.3526   0.3537   0.3544   0.3547   0.3558   0.3562   0.3574   0.3586
  0.3588   0.3604   0.3608   0.3619   0.3622   0.3627   0.3638   0.3656
  0.3658   0.3666   0.3678   0.3688   0.3699   0.3706   0.3715   0.3717
  0.3734   0.3738   0.3753   0.3764   0.3771   0.3775   0.3779   0.3787
  0.3797   0.3810   0.3819   0.3820   0.3827   0.3839   0.3843   0.3854
  0.3861   0.3869   0.3882   0.3891   0.3901   0.3907   0.3931   0.3936
  0.3941   0.3948   0.3960   0.3963   0.3971   0.3979   0.3987   0.3996
  0.4006   0.4012   0.4027   0.4034   0.4047   0.4063   0.4072   0.4076
  0.4085   0.4094   0.4100   0.4109   0.4115   0.4126   0.4131   0.4142
  0.4149   0.4154   0.4165   0.4172   0.4177   0.4186   0.4200   0.4214
  0.4221   0.4228   0.4236   0.4250   0.4256   0.4266   0.4280   0.4287
  0.4293   0.4309   0.4320   0.4324   0.4328   0.4336   0.4345   0.4359
  0.4365   0.4381   0.4392   0.4399   0.4409   0.4417   0.4424   0.4438
  0.4448   0.4459   0.4469   0.4485   0.4487   0.4513   0.4517   0.4527
  0.4534   0.4543   0.4560   0.4576   0.4589   0.4600   0.4604   0.4624
  0.4627   0.4632   0.4646   0.4667   0.4685   0.4692   0.4699   0.4702
  0.4705   0.4720   0.4737   0.4748   0.4760   0.4769   0.4781   0.4793
  0.4812   0.4818   0.4837   0.4841   0.4857   0.4877   0.4884   0.4905
  0.4906   0.4928   0.4930   0.4937   0.4972   0.4978   0.4982   0.5009
  0.5020   0.5033   0.5055   0.5069   0.5090   0.5099   0.5128   0.5138
  0.5155   0.5177   0.5184   0.5201   0.5214   0.5243   0.5264   0.5287
  0.5299   0.5308   0.5319   0.5347   0.5378   0.5401   0.5422   0.5436
  0.5441   0.5460   0.5472   0.5528   0.5531   0.5568   0.5601   0.5613
  0.5616   0.5627   0.5640   0.5666   0.5688   0.5695   0.5717   0.5730
  0.5756   0.5771   0.5787   0.5799   0.5813   0.5825   0.5839   0.5854
  0.5863   0.5873   0.5898   0.5911   0.5935   0.5938   0.5957   0.5969
  0.5973   0.5981   0.5999   0.6008   0.6038   0.6045   0.6058   0.6067
  0.6082   0.6097   0.6106   0.6120   0.6126   0.6145   0.6159   0.6170
  0.6175   0.6187   0.6189   0.6193   0.6227   0.6241   0.6250   0.6268
  0.6279   0.6282   0.6288   0.6302   0.6317   0.6321   0.6329   0.6342
  0.6365   0.6376   0.6384   0.6397   0.6407   0.6414   0.6432   0.6454
  0.6461   0.6469   0.6482   0.6488   0.6498   0.6516   0.6520   0.6543
  0.6550   0.6563   0.6579   0.6586   0.6615   0.6620   0.6623   0.6630
  0.6647   0.6659   0.6675   0.6681   0.6694   0.6705   0.6713   0.6717
  0.6742   0.6750   0.6755   0.6767   0.6786   0.6793   0.6810   0.6819
  0.6831   0.6840   0.6847   0.6857   0.6866   0.6876   0.6885   0.6899
  0.6917   0.6924   0.6936   0.6942   0.6946   0.6960   0.6966   0.6980
  0.6991   0.7014   0.7016   0.7020   0.7032   0.7049   0.7060   0.7071
  0.7073   0.7089   0.7093   0.7106   0.7129   0.7133   0.7150   0.7152
  0.7186   0.7195   0.7203   0.7216   0.7225   0.7239   0.7243   0.7259
  0.7271   0.7287   0.7298   0.7312   0.7322   0.7323   0.7350   0.7355
  0.7364   0.7376   0.7395   0.7407   0.7419   0.7427   0.7443   0.7444
  0.7457   0.7474   0.7487   0.7498   0.7510   0.7532   0.7534   0.7551
  0.7565   0.7587   0.7599   0.7603   0.7613   0.7619   0.7642   0.7647
  0.7669   0.7685   0.7704   0.7707   0.7718   0.7728   0.7748   0.7762
  0.7779   0.7782   0.7799   0.7810   0.7832   0.7837   0.7861   0.7887
  0.7899   0.7909   0.7925   0.7930   0.7962   0.7976   0.7989   0.8018
  0.8036   0.8046   0.8062   0.8074   0.8094   0.8112   0.8114   0.8133
  0.8142   0.8153   0.8161   0.8169   0.8188   0.8193   0.8203   0.8215
  0.8238   0.8243   0.8261   0.8277   0.8288   0.8301   0.8304   0.8318
  0.8333   0.8341   0.8355   0.8368   0.8385   0.8394   0.8403   0.8424
  0.8438   0.8448   0.8466   0.8480   0.8489   0.8505   0.8519   0.8532
  0.8549   0.8558   0.8566   0.8575   0.8585   0.8593   0.8615   0.8624
  0.8634   0.8652   0.8664   0.8669   0.8686   0.8691   0.8724   0.8730
  0.8752   0.8759   0.8765   0.8782   0.8790   0.8802   0.8817   0.8824
  0.8837   0.8857   0.8863   0.8884   0.8896   0.8911   0.8917   0.8927
  0.8944   0.8971   0.8976   0.8986   0.8988   0.9002   0.9004   0.9027
  0.9033   0.9044   0.9051   0.9075   0.9084   0.9097   0.9108   0.9124
  0.9127   0.9146   0.9151   0.9173   0.9186   0.9201   0.9210   0.9214
  0.9228   0.9241   0.9249   0.9270   0.9282   0.9291   0.9296   0.9315
  0.9327   0.9345   0.9357   0.9369   0.9383   0.9386   0.9411   0.9416
  0.9430   0.9440   0.9442   0.9455   0.9458   0.9473   0.9482   0.9498
  0.9514   0.9531   0.9539   0.9546   0.9551   0.9562   0.9571   0.9586
  0.9596   0.9611   0.9623   0.9629   0.9633   0.9650   0.9667   0.9674
  0.9687   0.9698   0.9707   0.9718   0.9727   0.9733   0.9752   0.9756
  0.9764   0.9788   0.9792   0.9804   0.9819   0.9821   0.9834   0.9844
  0.9856   0.9859   0.9883   0.9889   0.9906   0.9914   0.9924   0.9938
  0.9954   0.9961   0.9974   0.9986   0.9994   1.0005   1.0008   1.0025
  1.0028   1.0035   1.0036   1.0056   1.0075   1.0089   1.0094   1.0103
  1.0106   1.0119   1.0135   1.0145   1.0158   1.0160   1.0171   1.0182
  1.0185   1.0202   1.0218   1.0230   1.0240   1.0246   1.0249   1.0267
  1.0285   1.0287   1.0294   1.0300   1.0316   1.0324   1.0334   1.0345
  1.0355   1.0381   1.0382   1.0395   1.0408   1.0428   1.0439   1.0440
  1.0449   1.0464   1.0484   1.0487   1.0504   1.0516   1.0520   1.0538
  1.0544   1.0556   1.0566   1.0575   1.0575   1.0589   1.0601   1.0620
  1.0628   1.0639   1.0646   1.0659   1.0664   1.0677   1.0692   1.0697
  1.0708   1.0719   1.0737   1.0744   1.0761   1.0783   1.0791   1.0801
  1.0820   1.0829   1.0855   1.0861   1.0889   1.0895   1.0923   1.0939
  1.0954   1.0961   1.0976   1.0983   1.0986   1.1005   1.1023   1.1026
  1.1040   1.1047   1.1061   1.1085   1.1109   1.1118   1.1139   1.1152
  1.1162   1.1171   1.1178   1.1207   1.1223   1.1227   1.1239   1.1258
  1.1266   1.1274   1.1296   1.1318   1.1342   1.1358   1.1368   1.1392
  1.1402   1.1423   1.1426   1.1431   1.1457   1.1468   1.1474   1.1478
  1.1502   1.1510   1.1522   1.1536   1.1543   1.1558   1.1566   1.1568
  1.1581   1.1596   1.1614   1.1628   1.1647   1.1662   1.1670   1.1682
  1.1690   1.1702   1.1712   1.1743   1.1753   1.1773   1.1778   1.1801
  1.1818   1.1830   1.1844   1.1861   1.1868   1.1900   1.1925   1.1933
  1.1945   1.1954   1.1958   1.1996   1.2010   1.2017   1.2037   1.2046
  1.2054   1.2058   1.2082   1.2086   1.2106   1.2125   1.2150   1.2152
  1.2163   1.2179   1.2189   1.2211   1.2232   1.2243   1.2253   1.2261
  1.2289   1.2289   1.2315   1.2345   1.2351   1.2377   1.2399   1.2415
  1.2466   1.2469   1.2499   1.2502   1.2514   1.2528   1.2540   1.2574
  1.2597   1.2603   1.2632   1.2645   1.2674   1.2693   1.2731   1.2743
  1.2755   1.2761   1.2773   1.2819   1.2850   1.2871   1.2899   1.2918
  1.2933   1.2959   1.2987   1.3023   1.3039   1.3058   1.3104   1.3131
  1.3148   1.3165   1.3183   1.3215   1.3234   1.3277   1.3283   1.3304
  1.3332   1.3346   1.3370   1.3390   1.3422   1.3436   1.3458   1.3482
  1.3526   1.3536   1.3573   1.3585   1.3600   1.3614   1.3629   1.3638
  1.3655   1.3674   1.3683   1.3702   1.3722   1.3743   1.3754   1.3764
  1.3776   1.3800   1.3812   1.3819   1.3849   1.3853   1.3859   1.3897
  1.3909   1.3921   1.3931   1.3955   1.3960   1.3986   1.4007   1.4013
  1.4022   1.4059   1.4073   1.4087   1.4101   1.4116   1.4125   1.4133
  1.4141   1.4160   1.4172   1.4188   1.4199   1.4211   1.4220   1.4235
  1.4239   1.4260   1.4271   1.4291   1.4300   1.4327   1.4345   1.4353
  1.4370   1.4380   1.4409   1.4424   1.4427   1.4433   1.4446   1.4460
  1.4484   1.4492   1.4516   1.4543   1.4556   1.4559   1.4578   1.4596
  1.4608   1.4614   1.4625   1.4649   1.4670   1.4690   1.4707   1.4722
  1.4742   1.4749   1.4765   1.4774   1.4791   1.4805   1.4828   1.4847
  1.4851   1.4861   1.4875   1.4904   1.4922   1.4952   1.4963   1.4972
  1.4987   1.5008   1.5027   1.5054   1.5068   1.5085   1.5097   1.5135
  1.5141   1.5168   1.5177   1.5212   1.5241   1.5257   1.5278   1.5296
  1.5320   1.5339   1.5364   1.5385   1.5407   1.5428   1.5440   1.5473
  1.5520   1.5529   1.5550   1.5574   1.5606   1.5632   1.5667   1.5702
  1.5720   1.5754   1.5782   1.5799   1.5860   1.5904   1.5913   1.5929
  1.5946   1.6044   1.6051   1.6068   1.6126   1.6166   1.6194   1.6226
  1.6274   1.6311   1.6408   1.6415   1.6470   1.6534   1.6537   1.6573
  1.6575   1.6613   1.6631   1.6656   1.6687   1.6710   1.6729   1.6738
  1.6746   1.6758   1.6778   1.6785   1.6807   1.6811   1.6825   1.6828
  1.6846   1.6857   1.6862   1.6873   1.6887   1.6892   1.6899   1.6909
  1.6920   1.6937   1.6943   1.6953   1.6976   1.7001   1.7014   1.7021
  1.7036   1.7054   1.7057   1.7095   1.7104   1.7117   1.7133   1.7136
  1.7156   1.7177   1.7191   1.7218   1.7232   1.7243   1.7253   1.7273
  1.7281   1.7300   1.7322   1.7328   1.7335   1.7345   1.7357   1.7371
  1.7387   1.7409   1.7421   1.7439   1.7467   1.7483   1.7493   1.7511
  1.7519   1.7540   1.7548   1.7563   1.7577   1.7580   1.7593   1.7608
  1.7614   1.7642   1.7648   1.7660   1.7680   1.7683   1.7707   1.7717
  1.7742   1.7758   1.7767   1.7797   1.7808   1.7818   1.7825   1.7831
  1.7866   1.7874   1.7889   1.7908   1.7921   1.7923   1.7952   1.7954
  1.7978   1.8011   1.8029   1.8050   1.8056   1.8108   1.8120   1.8128
  1.8145   1.8170   1.8189   1.8218   1.8245   1.8286   1.8344   1.8360
  1.8383   1.8400   1.8413   1.8427   1.8454   1.8475   1.8501   1.8525
  1.8551   1.8605   1.8619   1.8631   1.8660   1.8672   1.8689   1.8727
  1.8735   1.8754   1.8776   1.8787   1.8804   1.8812   1.8821   1.8829
  1.8833   1.8862   1.8868   1.8878   1.8903   1.8912   1.8927   1.8933
  1.8943   1.8949   1.8956   1.8978   1.9007   1.9014   1.9034   1.9041
  1.9061   1.9075   1.9083   1.9091   1.9100   1.9113   1.9126   1.9150
  1.9153   1.9178   1.9187   1.9194   1.9217   1.9221   1.9239   1.9260
  1.9269   1.9290   1.9305   1.9306   1.9320   1.9343   1.9360   1.9395
  1.9429   1.9446   1.9461   1.9479   1.9496   1.9505   1.9512   1.9541
  1.9554   1.9581   1.9596   1.9624   1.9648   1.9671   1.9686   1.9724
  1.9764   1.9794   1.9816   1.9858   1.9893   1.9899   2.0007   2.0065
  2.0112   2.0138   2.0252   2.0328   2.0383   2.0435   2.0504   2.0517
  2.0565   2.0588   2.0593   2.0604   2.0621   2.0630   2.0650   2.0658
  2.0671   2.0673   2.0714   2.0737   2.0748   2.0756   2.0760   2.0768
  2.0785   2.0820   2.0825   2.0840   2.0863   2.0873   2.0892   2.0898
  2.0909   2.0922   2.0937   2.0946   2.0966   2.0992   2.0996   2.1009
  2.1022   2.1034   2.1063   2.1074   2.1081   2.1094   2.1126   2.1135
  2.1146   2.1161   2.1175   2.1189   2.1201   2.1243   2.1262   2.1271
  2.1307   2.1358   2.1380   2.1436   2.1464   2.1476   2.1537   2.1548
  2.1574   2.1590   2.1635   2.1655   2.1675   2.1697   2.1720   2.1747
  2.1762   2.1772   2.1795   2.1833   2.1850   2.1868   2.1889   2.1913
  2.1917   2.1971   2.1989   2.2069   2.2084   2.2100   2.2111   2.2165
  2.2175   2.2194   2.2210   2.2214   2.2225   2.2237   2.2247   2.2267
  2.2299   2.2317   2.2329   2.2335   2.2342   2.2369   2.2370   2.2381
  2.2405   2.2431   2.2438   2.2455   2.2458   2.2461   2.2480   2.2497
  2.2503   2.2527   2.2531   2.2543   2.2546   2.2547   2.2568   2.2586
  2.2602   2.2608   2.2617   2.2626   2.2639   2.2654   2.2660   2.2677
  2.2682   2.2686   2.2699   2.2713   2.2717   2.2722   2.2727   2.2738
  2.2750   2.2754   2.2757   2.2764   2.2766   2.2774   2.2781   2.2789
  2.2803   2.2807   2.2821   2.2830   2.2837   2.2848   2.2861   2.2868
  2.2874   2.2876   2.2891   2.2905   2.2917   2.2923   2.2932   2.2936
  2.2951   2.2957   2.2968   2.2981   2.2990   2.3000   2.3012   2.3017
  2.3026   2.3033   2.3043   2.3054   2.3064   2.3068   2.3074   2.3095
  2.3108   2.3117   2.3127   2.3133   2.3152   2.3164   2.3173   2.3193
  2.3203   2.3213   2.3233   2.3246   2.3247   2.3265   2.3278   2.3281
  2.3293   2.3305   2.3315   2.3354   2.3362   2.3368   2.3387   2.3397
  2.3399   2.3426   2.3431   2.3442   2.3471   2.3476   2.3493   2.3505
  2.3521   2.3561   2.3589   2.3595   2.3605   2.3624   2.3651   2.3661
  2.3671   2.3705   2.3730   2.3737   2.3770   2.3784   2.3804   2.3838
  2.3852   2.3864   2.3887   2.3926   2.3936   2.3956   2.4009   2.4073
  2.4139   2.4233   2.4329   2.4341   2.4597   2.4947   2.5083   2.5369
  2.6032   2.6855   2.7082   2.7517   2.7899   2.8021   2.8109   2.8234
  2.8283   2.8316   2.8341   2.8349   2.8431   2.8444   2.8477   2.8491
  2.8505   2.8514   2.8541   2.8558   2.8582   2.8611   2.8650   2.8667
  2.8687   2.8699   2.8712   2.8755   2.8761   2.8787   2.8857   2.8952
  2.8975   2.9052   2.9098   2.9236   2.9400   3.1043   3.2564   3.9474
  3.9563   3.9679   3.9691   3.9743   3.9759   3.9769   3.9795   3.9830
  3.9870   3.9891   3.9913   3.9942   3.9963   3.9987   3.9998   4.0033
  4.0047   4.0070   4.0101   4.0124   4.0146   4.0213   4.0259   4.0349
  4.0479   4.0519   4.2125   4.2253   4.2272   4.2342   4.2384   4.2424
  4.2445   4.2462   4.2499   4.2518   4.2564   4.2585   4.2617   4.2635
  4.2657   4.2669   4.2713   4.2745   4.2770   4.2789   4.2842   4.2895
  4.2900   4.2946   4.2974   4.3006   4.3030   4.3037   4.3059   4.3076
  4.3087   4.3102   4.3136   4.3149   4.3177   4.3191   4.3206   4.3236
  4.3292   4.3310   4.3341   4.3371   4.3382   4.3401   4.3452   4.3480
  4.3506   4.3525   4.3577   4.3595   4.3627   4.3656   4.3672   4.3692
  4.3736   4.3759   4.3795   4.3821   4.3827   4.3894   4.3961   4.3977
  4.4010   4.4058   4.4141   4.4202   4.4211   4.4269   4.4311   4.4370
  4.4396   4.4454   4.4469   4.4520   4.4605   4.4652   4.4818   4.4901
  4.5004   4.5100   4.5240   4.5503   4.5631   4.6082   4.6391   4.6741
  4.6892   4.7329   4.7654   4.9266
 --------------------------------------------------------------

          Ground-State Mulliken Net Atomic Charges

     Atom                 Charge (a.u.)
  ----------------------------------------
      1 C                    -0.874406
      2 C                    -0.940023
      3 C                    -0.141048
      4 C                    -0.091973
      5 C                    -0.735176
      6 C                    -0.203860
      7 H                     0.228407
      8 H                     0.235672
      9 H                     0.203522
     10 H                     0.227862
     11 H                     0.240606
     12 H                     0.215099
     13 H                     0.190394
     14 H                     0.190356
     15 H                     0.232314
     16 H                     0.190201
     17 H                     0.196508
     18 N                     0.373820
     19 H                     0.481774
     20 C                    -0.339737
     21 H                     0.162598
     22 O                    -0.269488
     23 C                    -0.842733
     24 H                     0.252430
     25 H                     0.263257
     26 H                     0.264930
     27 S                     1.037809
     28 C                    -1.132536
     29 H                     0.289048
     30 H                     0.302846
     31 H                     0.232128
     32 O                    -0.695942
     33 C                    -0.828576
     34 H                     0.252145
     35 H                     0.327871
     36 H                     0.230856
     37 S                     0.775199
     38 C                    -0.814007
     39 H                     0.250064
     40 H                     0.237890
     41 H                     0.270960
     42 O                    -0.680279
     43 C                    -0.868198
     44 H                     0.282443
     45 H                     0.235656
     46 H                     0.246331
     47 S                     0.824458
     48 C                    -0.740128
     49 H                     0.261536
     50 H                     0.251894
     51 H                     0.239363
     52 O                    -0.666906
     53 C                    -0.755249
     54 H                     0.249321
     55 H                     0.224069
     56 H                     0.259414
     57 S                     0.837708
     58 C                    -0.766214
     59 H                     0.295449
     60 H                     0.240844
     61 H                     0.229426
     62 O                    -0.769121
     63 C                    -0.968056
     64 H                     0.262942
     65 H                     0.257140
     66 H                     0.242067
     67 S                     1.230650
     68 C                    -0.920193
     69 H                     0.249776
     70 H                     0.267263
     71 H                     0.254236
     72 O                    -0.708867
     73 C                    -1.190502
     74 H                     0.296030
     75 H                     0.310349
     76 H                     0.218730
     77 S                     1.248567
     78 C                    -0.994626
     79 H                     0.280470
     80 H                     0.253881
     81 H                     0.254769
     82 O                    -0.704294
     83 C                    -1.035047
     84 H                     0.261155
     85 H                     0.259856
     86 H                     0.272809
     87 S                     1.153801
     88 C                    -0.967729
     89 H                     0.249958
     90 H                     0.268213
     91 H                     0.250653
     92 O                    -0.708697
     93 C                    -1.484038
     94 H                     0.302306
     95 H                     0.255521
     96 H                     0.272458
     97 S                     1.018088
     98 C                    -0.844584
     99 H                     0.256729
    100 H                     0.306424
    101 H                     0.236680
    102 O                    -0.404229
    103 C                    -0.748894
    104 H                     0.203777
    105 H                     0.296356
    106 H                     0.299704
    107 S                     0.674258
    108 C                    -0.836700
    109 H                     0.241080
    110 H                     0.288356
    111 H                     0.224484
    112 O                    -0.656834
    113 C                    -0.848280
    114 H                     0.244520
    115 H                     0.239159
    116 H                     0.268721
    117 S                     0.603339
    118 C                    -0.730891
    119 H                     0.247205
    120 H                     0.246091
    121 H                     0.292247
    122 O                    -0.650148
    123 C                    -0.991492
    124 H                     0.267157
    125 H                     0.271211
    126 H                     0.248231
    127 S                     1.105695
    128 C                    -1.002756
    129 H                     0.255222
    130 H                     0.233525
    131 H                     0.309893
    132 O                    -0.708288
    133 C                    -0.773472
    134 H                     0.297725
    135 H                     0.248446
    136 H                     0.287578
    137 S                     0.639463
    138 C                    -0.778032
    139 H                     0.319183
    140 H                     0.213963
    141 H                     0.255662
    142 O                    -0.749016
    143 C                    -0.981367
    144 H                     0.281252
    145 H                     0.238927
    146 H                     0.255557
    147 S                     0.850750
    148 C                    -0.807606
    149 H                     0.246199
    150 H                     0.255027
    151 H                     0.244196
    152 O                    -0.621574
    153 C                    -0.740113
    154 H                     0.266916
    155 H                     0.251019
    156 H                     0.227492
    157 S                     0.824510
    158 C                    -0.867996
    159 H                     0.226035
    160 H                     0.272080
    161 H                     0.257222
    162 O                    -0.741225
    163 C                    -0.869678
    164 H                     0.254680
    165 H                     0.264497
    166 H                     0.237103
    167 S                     0.974545
    168 C                    -0.864535
    169 H                     0.218831
    170 H                     0.310220
    171 H                     0.265236
    172 O                    -0.675467
    173 C                    -1.090933
    174 H                     0.238995
    175 H                     0.266331
    176 H                     0.266722
    177 S                     1.164490
    178 C                    -1.074884
    179 H                     0.309830
    180 H                     0.268031
    181 H                     0.247673
    182 O                    -0.618709
    183 C                    -0.875814
    184 H                     0.221704
    185 H                     0.260204
    186 H                     0.264358
    187 S                     0.766459
    188 C                    -0.724611
    189 H                     0.267881
    190 H                     0.233502
    191 H                     0.281013
    192 O                    -0.642680
    193 C                    -1.069818
    194 H                     0.246173
    195 H                     0.243637
    196 H                     0.255192
    197 S                     1.094006
    198 C                    -0.868149
    199 H                     0.225164
    200 H                     0.234099
    201 H                     0.314269
    202 O                    -0.656937
    203 C                    -0.979948
    204 H                     0.233392
    205 H                     0.276279
    206 H                     0.263507
    207 S                     1.063220
    208 C                    -0.929006
    209 H                     0.241321
    210 H                     0.300173
    211 H                     0.245752
    212 O                    -0.741701
    213 C                    -0.871236
    214 H                     0.289158
    215 H                     0.243249
    216 H                     0.259532
    217 S                     0.500616
    218 C                    -0.805115
    219 H                     0.257488
    220 H                     0.263001
    221 H                     0.279877
    222 O                    -0.576228
    223 C                    -0.909696
    224 H                     0.238251
    225 H                     0.256644
    226 H                     0.268682
    227 S                     1.130469
    228 C                    -0.950049
    229 H                     0.232722
    230 H                     0.225460
    231 H                     0.257666
    232 O                    -0.751597
    233 C                    -0.939446
    234 H                     0.246105
    235 H                     0.268479
    236 H                     0.251115
    237 S                     1.161828
    238 C                    -0.957342
    239 H                     0.287090
    240 H                     0.304004
    241 H                     0.227739
    242 O                    -0.670823
    243 C                    -0.904321
    244 H                     0.239194
    245 H                     0.263374
    246 H                     0.231140
    247 S                     1.167158
    248 C                    -0.939844
    249 H                     0.219122
    250 H                     0.274882
    251 H                     0.266848
    252 O                    -0.759064
    253 C                    -1.124713
    254 H                     0.284304
    255 H                     0.238789
    256 H                     0.251246
    257 S                     1.199503
    258 C                    -0.942929
    259 H                     0.251094
    260 H                     0.248541
    261 H                     0.266256
    262 O                    -0.644742
    263 C                    -1.033035
    264 H                     0.271863
    265 H                     0.252636
    266 H                     0.262250
    267 S                     1.289931
    268 C                    -1.058576
    269 H                     0.284529
    270 H                     0.239434
    271 H                     0.254775
    272 O                    -0.646862
    273 C                    -1.366052
    274 H                     0.268554
    275 H                     0.280321
    276 H                     0.251608
    277 S                     1.140067
    278 C                    -0.876780
    279 H                     0.314341
    280 H                     0.251569
    281 H                     0.297295
    282 O                    -0.562826
    283 C                    -1.101132
    284 H                     0.246882
    285 H                     0.274680
    286 H                     0.261297
    287 S                     1.138805
    288 C                    -1.073100
    289 H                     0.246822
    290 H                     0.262400
    291 H                     0.296951
    292 O                    -0.632040
  ----------------------------------------
  Sum of atomic charges =     0.000000

 -----------------------------------------------------------------
                    Cartesian Multipole Moments
 -----------------------------------------------------------------
    Charge (ESU x 10^10)
                 0.0000
    Dipole Moment (Debye)
         X      30.0248      Y       6.7463      Z      -1.7733
       Tot      30.8245
    Quadrupole Moments (Debye-Ang)
        XX     316.8020     XY     392.0426     YY    -703.0010
        XZ     825.9675     YZ     180.8349     ZZ   -1025.2964
    Octopole Moments (Debye-Ang^2)
       XXX  -24521.1044    XXY    -805.7665    XYY  -15249.0740
[...]
          205         206         207         208         209         210
    1   3.9521789   1.4580653   0.6468924   1.0936938  -0.4592445   1.4567575
    2   0.4208968  -1.8664161   0.5971573   2.7288419   2.5145687   3.3478870
    3  -2.3264692  -2.9412349  -1.9747912  -2.4454454  -3.2227874  -0.4016059
          211         212         213         214         215         216
    1   2.9140110   3.4750019   0.0228913  -0.9887888   1.5512795  -0.3536307
    2   2.4425530   1.1473595  -2.2502287  -1.2616982  -3.3705051  -1.8602728
    3  -2.9879828  -0.2186172  -1.8738068  -2.8271967  -2.7016816   0.0120495
          217         218         219         220         221         222
    1   1.5522242  -0.3455439  -1.7910582  -0.0139652   0.7331417   0.8311930
    2  -1.0739293   0.7490409   0.5362196  -0.3318948   2.1314869   0.6803434
    3  -1.2089684   0.1222747  -1.1633012   1.2224604   0.1327066  -3.6678781
          223         224         225         226         227         228
    1  -2.4832391  -2.2692802  -4.1572112  -1.5818064  -1.0267289  -0.1439382
    2   0.4165893  -0.2753555  -0.1831654   1.4378559  -1.2168761  -1.7592164
    3  -1.8684005  -3.6668041  -0.9943751  -1.2939595  -0.4485158  -2.6201325
          229         230         231         232         233         234
    1   0.2601205   0.4764104  -1.5200991  -2.8678485  -0.0554720  -0.0520324
    2  -0.3389514  -3.6466527  -1.6411241  -3.3301221  -2.6720311  -3.9143202
    3  -2.2898575  -1.4856213  -3.8715467  -1.5407420   1.4829697  -0.2368142
          235         236         237         238         239         240
    1   0.4495121  -1.6911828  -0.4047926  -1.2801356   0.0058684  -2.5984745
    2  -1.3229349  -3.2036013  -0.8364190  -0.5554127   0.5523325  -0.2208512
    3   2.0749845   2.9235209  -0.1061572   1.8567228   1.8185513   0.6985618
          241         242         243         244         245         246
    1  -1.3920759  -2.2208239  -1.8603988  -2.9765120  -2.7772626  -0.4648072
    2  -2.4491020  -3.4931995   0.0676980  -0.4641433   1.3189982  -0.7459428
    3   3.3267504  -0.4138706  -0.7968128  -2.3362492  -0.1026815  -0.7191269
          247         248         249         250         251         252
    1  -1.5720825  -1.8992142  -2.0246502  -3.5290515  -0.4657651  -4.5132596
    2  -1.5205148  -2.8494269  -3.9375317  -1.7850443  -2.6625376  -0.5112729
    3   1.2895081  -0.6091491   1.0498890  -1.7262142  -1.0467467   0.4603693
          253         254         255         256         257         258
    1   0.1481562  -1.0893849   2.2523508  -0.7824502  -0.4156188   0.9267528
    2   3.7886869   3.1846177   3.6745414   4.4232576   2.1134203   0.8684179
    3  -0.2908865   1.0494128  -0.0811884  -1.5891959  -0.9199057   0.6941191
          259         260         261         262         263         264
    1   1.1651316   2.6116457  -0.6676545   2.5634597   0.5949366   0.2442874
    2  -0.6752224   2.4558819   1.0495585   2.1896472  -3.6754042  -3.0088058
    3  -0.2835827   0.5609394   1.4255474  -2.3458167  -0.9073710  -2.8446805
          265         266         267         268         269         270
    1   2.2806081  -0.6983550   0.8704271   2.8132496   3.8916916   1.6676630
    2  -4.2273786  -3.6650120  -1.6010823  -1.8758088  -2.6944747  -2.9020367
    3  -0.6416369   0.3075956  -0.7094078  -1.7217441  -0.0394528  -2.9594697
          271         272         273         274         275         276
    1   2.8486530   2.5357410   2.2568110   3.7623339   1.5709546   0.9254453
    2  -0.2158289  -2.2833285  -1.8582283  -1.0890823  -1.9269932  -2.5814231
    3  -1.8739227   2.2971738  -0.7455694  -1.3531075   1.1635884  -2.2714274
          277         278         279         280         281         282
    1   0.9428648   2.0867483   3.0305820   0.5436071   2.7559144  -1.0174272
    2  -0.0283897   0.9459849   0.7516785   2.0115309  -0.3462158  -0.5566163
    3  -0.9327017   1.0430925  -0.1865175   1.4250779   2.0705630   1.2374737
          283         284         285         286         287         288
    1  -0.5878901   1.4280036  -1.2065452  -1.4374888  -0.7976508   1.0127379
    2  -2.3568898  -2.4877736  -4.1376042  -1.1046737  -1.5828079  -0.6505513
    3  -2.6831906  -3.4144833  -1.8120154  -2.5877361  -0.7379008  -1.3638166
          289         290         291         292
    1   2.2724570  -0.3101895   1.0167821   0.9794041
    2  -1.9837847   0.2848274  -0.6335959  -4.0115649
    3  -2.7422432  -2.0041601   0.4372073  -0.3213835
 EField
            1           2           3           4           5           6
    1  -0.0022969   0.0038107  -0.0002544  -0.0027577  -0.0023692  -0.0035308
    2  -0.0029359  -0.0033566  -0.0006171  -0.0010405  -0.0023765  -0.0012383
    3   0.0041577   0.0017016  -0.0001258   0.0022239   0.0020729   0.0020685
            7           8           9          10          11          12
    1   0.0007424   0.0070360  -0.0072071  -0.0025480  -0.0054748  -0.0014874
    2   0.0006139   0.0023568  -0.0037069  -0.0004409  -0.0020669  -0.0020237
    3  -0.0023889   0.0004282   0.0058753   0.0058600   0.0047113   0.0025124
           13          14          15          16          17          18
    1  -0.0005108  -0.0051160  -0.0036276  -0.0047589  -0.0021814   0.0115514
    2  -0.0075558  -0.0015239   0.0002504  -0.0019907   0.0001987  -0.0085291
    3   0.0009785   0.0014506   0.0004030   0.0037601  -0.0039129   0.0038748
           19          20          21          22          23          24
    1   0.0219923   0.0088051   0.0033349   0.0100382   0.0057885   0.0003382
    2  -0.0135590  -0.0038078   0.0052606  -0.0091692  -0.0072348   0.0000980
    3  -0.0055899   0.0055574   0.0057986   0.0004000   0.0036199  -0.0297519
           25          26          27          28          29          30
    1   0.0236988  -0.0073075   0.0153590  -0.0017332  -0.0228774  -0.0201032
    2   0.0179176  -0.0322813   0.0563683  -0.0035630   0.0153286  -0.0258981
    3   0.0136463   0.0077683   0.0111711   0.0050844   0.0144602  -0.0065261
           31          32          33          34          35          36
    1   0.0131963  -0.0650213  -0.0087336  -0.0016558  -0.0014729  -0.0305990
    2  -0.0041578  -0.0276262  -0.0013877   0.0260845  -0.0288352  -0.0075305
    3   0.0353161  -0.0838324  -0.0051161  -0.0212164  -0.0141322   0.0191779
           37          38          39          40          41          42
    1   0.0166194  -0.0032453   0.0000404  -0.0321080   0.0324452   0.0628426
    2  -0.0456025   0.0052236   0.0275170  -0.0028962   0.0129928   0.0381522
    3   0.0349898   0.0035937  -0.0175803   0.0181313   0.0077409  -0.0815212
           43          44          45          46          47          48
    1  -0.0044206  -0.0173046   0.0178828  -0.0081358   0.0210110   0.0052670
    2   0.0091868   0.0188780   0.0272066  -0.0114627   0.0137769  -0.0003507
    3  -0.0037860   0.0204889   0.0063867  -0.0333618   0.0581074  -0.0056763
           49          50          51          52          53          54
    1   0.0144607  -0.0064603   0.0240876  -0.0792345  -0.0012925  -0.0246588
    2  -0.0199805  -0.0172276   0.0225321  -0.0745111   0.0047454   0.0070579
    3   0.0137315  -0.0278224  -0.0070614  -0.0142777  -0.0032912   0.0173985
           55          56          57          58          59          60
    1   0.0079027  -0.0043085   0.0125352   0.0087134   0.0206719  -0.0165778
    2   0.0370567  -0.0040843  -0.0034587  -0.0017820  -0.0210777  -0.0050966
    3   0.0104300  -0.0307186   0.0506587  -0.0075597   0.0117974  -0.0256493
           61          62          63          64          65          66
    1   0.0200874  -0.0645605  -0.0031026  -0.0296738   0.0363534  -0.0114844
    2   0.0268477  -0.0615348  -0.0078935   0.0050147   0.0033385  -0.0252343
    3   0.0068439  -0.0621277  -0.0070741  -0.0166220  -0.0081186   0.0159694
           67          68          69          70          71          72
    1   0.0325057   0.0026201   0.0301317   0.0089967  -0.0221170  -0.1006143
    2   0.0485836  -0.0056616  -0.0089737   0.0177335  -0.0165198   0.0084544
    3  -0.0230305   0.0083761  -0.0144902   0.0230286   0.0214598   0.0392410
           73          74          75          76          77          78
    1  -0.0081375  -0.0023947  -0.0210857  -0.0173648   0.0189967  -0.0002130
    2   0.0008287  -0.0235926   0.0219382  -0.0255668  -0.0011538  -0.0069886
    3   0.0039743   0.0268782  -0.0247631  -0.0166867  -0.0530193   0.0074735
           79          80          81          82          83          84
    1  -0.0219270   0.0131126   0.0296049   0.0032279   0.0057709   0.0052504
    2  -0.0157058  -0.0260560   0.0088403   0.0838405   0.0086619   0.0082693
    3   0.0197376  -0.0160068   0.0084321   0.0701435   0.0031128  -0.0276419
           85          86          87          88          89          90
    1  -0.0017776   0.0265510   0.0119361  -0.0064789   0.0042682  -0.0282783
    2   0.0266713  -0.0111234  -0.0474849   0.0010701   0.0007333  -0.0126313
    3   0.0259960   0.0092589  -0.0318163  -0.0063005  -0.0313208  -0.0074681
           91          92          93          94          95          96
    1   0.0069932  -0.0545989   0.0022679  -0.0173199   0.0293305  -0.0113247
    2   0.0283160   0.0024125  -0.0081429   0.0150873   0.0017263  -0.0207325
    3   0.0167014   0.0940143  -0.0058966  -0.0243540  -0.0092118   0.0180124
           97          98          99         100         101         102
    1   0.0415955  -0.0021708  -0.0117377  -0.0106632   0.0297271  -0.1036266
    2   0.0480198  -0.0065432   0.0153039  -0.0290446  -0.0083685   0.0205856
    3  -0.0214136   0.0042453   0.0245705   0.0136020   0.0062103  -0.0047288
          103         104         105         106         107         108
    1  -0.0018683   0.0261561  -0.0130201   0.0024182   0.0403163  -0.0008497
    2   0.0105048   0.0173198   0.0157765   0.0166463  -0.0226854   0.0023022
    3  -0.0062856  -0.0166280  -0.0328693   0.0292182   0.0320738  -0.0103361
          109         110         111         112         113         114
    1  -0.0163964  -0.0114334   0.0274710  -0.1082919   0.0003440   0.0028041
    2  -0.0246856   0.0120821   0.0017846  -0.0149816   0.0050431   0.0262538
    3  -0.0049076  -0.0344044  -0.0199447   0.0060343  -0.0033558   0.0220837
          115         116         117         118         119         120
    1   0.0316936  -0.0062549   0.0135654  -0.0054082  -0.0204145  -0.0120399
    2   0.0074857   0.0054200  -0.0465028   0.0039902  -0.0190990   0.0277278
    3   0.0036701  -0.0333992  -0.0336940  -0.0023094   0.0117949   0.0134920
          121         122         123         124         125         126
    1  -0.0061126   0.0205535   0.0068372  -0.0021078   0.0287496  -0.0021249
    2  -0.0001606   0.0046150   0.0110795   0.0093364  -0.0036474   0.0345382
    3  -0.0321701   0.1076259   0.0055151   0.0307369   0.0086685  -0.0152939
          127         128         129         130         131         132
    1   0.0060500  -0.0036230  -0.0215007  -0.0243523   0.0198202  -0.0903200
    2  -0.0510621   0.0060858  -0.0211237   0.0298785  -0.0029956   0.0605465
    3   0.0252379  -0.0118053  -0.0156000  -0.0094029  -0.0130699   0.0251872
          133         134         135         136         137         138
    1   0.0060164  -0.0048846   0.0342961  -0.0086714   0.0025627   0.0038287
    2   0.0072546   0.0241895   0.0086901  -0.0030366   0.0005194  -0.0045770
    3  -0.0064722   0.0196842   0.0062829  -0.0324227   0.0546229  -0.0068714
          139         140         141         142         143         144
    1  -0.0035230   0.0365753  -0.0090915  -0.0911640  -0.0106419   0.0018717
    2  -0.0056196   0.0022468  -0.0283453  -0.0100168   0.0026893  -0.0282789
    3  -0.0283263  -0.0025608   0.0106447  -0.0579587   0.0019671   0.0185484
          145         146         147         148         149         150
    1  -0.0032550  -0.0209672   0.0101375   0.0018982   0.0019427   0.0317133
    2   0.0314328   0.0006871  -0.0671195   0.0063957  -0.0209463  -0.0010805
    3   0.0110959  -0.0222110  -0.0143511   0.0033812   0.0249332  -0.0013863
          151         152         153         154         155         156
    1   0.0021626   0.0081817  -0.0044405  -0.0115101  -0.0289213  -0.0139440
    2   0.0353402   0.0729092  -0.0003474  -0.0152989   0.0182645  -0.0229844
    3   0.0129846  -0.0804754  -0.0009917   0.0227467  -0.0073526  -0.0271079
          157         158         159         160         161         162
    1   0.0187638   0.0050618   0.0030999   0.0295156  -0.0211284  -0.0260025
    2   0.0290148  -0.0056336  -0.0273181   0.0172983  -0.0181633   0.0408696
    3  -0.0429317   0.0031202  -0.0226151   0.0047040   0.0203142   0.0992807
          163         164         165         166         167         168
    1  -0.0075758  -0.0228745   0.0000816  -0.0196066   0.0249442   0.0018714
    2  -0.0025492  -0.0231494  -0.0186506   0.0281459   0.0436295   0.0037205
    3  -0.0014741  -0.0182561   0.0224297   0.0034553   0.0319204  -0.0077755
          169         170         171         172         173         174
    1  -0.0293808   0.0309254  -0.0082022   0.0513202  -0.0081952  -0.0193880
    2   0.0224376   0.0108909  -0.0237857  -0.0945409   0.0065861  -0.0070980
    3  -0.0152835  -0.0120514  -0.0179798  -0.0184120   0.0015581  -0.0222385
          175         176         177         178         179         180
    1  -0.0077607   0.0065408   0.0044701   0.0015749  -0.0126078   0.0290754
    2  -0.0228890   0.0336542  -0.0594425   0.0000843  -0.0220095   0.0031605
    3   0.0311870  -0.0126504  -0.0084705   0.0081610   0.0237391   0.0033690
          181         182         183         184         185         186
    1   0.0016142   0.0391293   0.0071311   0.0056297   0.0313431  -0.0024564
    2   0.0314474   0.0751189  -0.0031514  -0.0350415   0.0058275   0.0249451
    3   0.0116410  -0.0683200   0.0020030   0.0077073  -0.0111099   0.0206432
          187         188         189         190         191         192
    1  -0.0525912   0.0010714   0.0213187   0.0023053  -0.0225470   0.0341208
    2  -0.0047918  -0.0059496   0.0112775  -0.0290109   0.0003966   0.0959897
    3   0.0256274  -0.0101835  -0.0227240   0.0121132  -0.0256447  -0.0407754
          193         194         195         196         197         198
    1  -0.0028594  -0.0349552   0.0173368   0.0239520   0.0536175  -0.0056749
    2   0.0012105  -0.0085314  -0.0260547   0.0249070   0.0123308   0.0059353
    3   0.0092227   0.0056389   0.0011828   0.0096260  -0.0242119  -0.0024126
          199         200         201         202         203         204
    1  -0.0264351   0.0177501  -0.0140819  -0.0629012   0.0032518  -0.0021282
    2  -0.0009119   0.0248058  -0.0040677  -0.0819559  -0.0024248   0.0065198
    3   0.0179654   0.0141293  -0.0306220  -0.0385703  -0.0024633  -0.0367699
          205         206         207         208         209         210
    1   0.0291540  -0.0052812  -0.0500026   0.0017715  -0.0234665  -0.0014528
    2   0.0066277  -0.0316912  -0.0251832   0.0088763   0.0090241   0.0203855
    3   0.0044923  -0.0081005   0.0112535   0.0016837  -0.0197348   0.0265798
          211         212         213         214         215         216
    1   0.0235670   0.0853841  -0.0047381  -0.0179261   0.0087225  -0.0131793
    2   0.0134185   0.0089787  -0.0023431   0.0100205  -0.0281975  -0.0134781
    3  -0.0191081   0.0676660  -0.0001724  -0.0203254  -0.0138587   0.0280425
          217         218         219         220         221         222
    1   0.0503615  -0.0037490  -0.0315097  -0.0110584   0.0141649  -0.0166202
    2  -0.0163840   0.0022587   0.0115952  -0.0158232   0.0282732   0.0611980
    3   0.0215858   0.0074303  -0.0008667   0.0294182  -0.0037740  -0.0879818
          223         224         225         226         227         228
    1  -0.0068203   0.0034501  -0.0314968   0.0117995   0.0225030   0.0039057
    2   0.0060192  -0.0092015   0.0065278   0.0274953   0.0077927  -0.0008565
    3  -0.0040760  -0.0322972   0.0158328   0.0099214   0.0432485  -0.0041421
          229         230         231         232         233         234
    1   0.0240903   0.0238742  -0.0224283  -0.0685291   0.0037251   0.0112180
    2   0.0235449  -0.0288306  -0.0089384  -0.0828997  -0.0022608  -0.0215233
    3  -0.0013176  -0.0084903  -0.0212166  -0.0290010   0.0068103  -0.0168299
          235         236         237         238         239         240
    1   0.0240515  -0.0135283   0.0333830  -0.0059270   0.0284452  -0.0304732
    2   0.0183777  -0.0234114   0.0315581   0.0015206   0.0178329   0.0059437
    3   0.0125545   0.0223888  -0.0377342   0.0121812   0.0108985   0.0038148
          241         242         243         244         245         246
    1  -0.0147127  -0.0696466   0.0021394  -0.0189084  -0.0143903   0.0240766
    2  -0.0138067  -0.0810962   0.0039651  -0.0009903   0.0248817  -0.0137065
    3   0.0309497  -0.0282701  -0.0051179  -0.0259748   0.0159687  -0.0047150
          247         248         249         250         251         252
    1   0.0282354   0.0000212  -0.0045913  -0.0306497   0.0330160  -0.1086075
    2  -0.0109668  -0.0053363  -0.0386228   0.0075108  -0.0089324   0.0204529
    3   0.0422798  -0.0060828   0.0025406  -0.0113407  -0.0045739  -0.0038505
          253         254         255         256         257         258
    1  -0.0008180  -0.0206231   0.0333182  -0.0090902  -0.0533728   0.0018391
    2   0.0091290  -0.0113853   0.0064635   0.0199110  -0.0194176  -0.0014825
    3   0.0053301   0.0273222  -0.0030456  -0.0250468  -0.0151525   0.0062283
          259         260         261         262         263         264
    1   0.0098115   0.0269126  -0.0160140   0.0889327  -0.0038931  -0.0246235
    2  -0.0280421   0.0096097  -0.0029953  -0.0056036  -0.0074032   0.0011522
    3  -0.0023749   0.0101797   0.0266181  -0.0629437  -0.0042953  -0.0277348
          265         266         267         268         269         270
    1   0.0256150  -0.0231441  -0.0392376   0.0068848   0.0234997  -0.0007401
    2  -0.0205809  -0.0048394   0.0401142  -0.0014995  -0.0110365  -0.0152769
    3   0.0119630   0.0130441  -0.0121888  -0.0020867   0.0173988  -0.0285016
          271         272         273         274         275         276
    1   0.0112043   0.0478859   0.0021508   0.0306158   0.0034137  -0.0052263
    2   0.0276897  -0.0114552  -0.0051463  -0.0025724  -0.0017416  -0.0247100
    3  -0.0075525   0.0977475   0.0031469  -0.0018983   0.0275374  -0.0216599
          277         278         279         280         281         282
    1  -0.0103784   0.0081286   0.0173110  -0.0161603   0.0164263  -0.0907509
    2   0.0199847   0.0022814   0.0162119   0.0211053  -0.0084432  -0.0228656
    3  -0.0515822   0.0055124  -0.0209624   0.0142229   0.0295037   0.0750067
          283         284         285         286         287         288
    1   0.0005871   0.0241927  -0.0190770  -0.0190522  -0.0426102   0.0041572
    2  -0.0045778  -0.0021472  -0.0278299   0.0184667   0.0251300   0.0075905
    3  -0.0073708  -0.0244379  -0.0022909  -0.0090754   0.0372757   0.0008480
          289         290         291         292
    1   0.0202780  -0.0071003   0.0024490   0.0620302
    2  -0.0160625   0.0348401   0.0168074  -0.0834409
    3  -0.0183167  -0.0088393   0.0313153   0.0343667
  --- DONE ESP SUMMARY ---
 Total job time:  34.71s(wall), 83.96s(cpu) 
 Thu Jul 21 09:55:51 2022

        *************************************************************
        *                                                           *
        *  Thank you very much for using Q-Chem.  Have a nice day.  *
        *                                                           *
        *************************************************************


