                  Welcome to Q-Chem
     A Quantum Leap Into The Future Of Chemistry


 Q-Chem 6.0 (devel), Q-Chem, Inc., Pleasanton, CA (2022)

 E. Epifanovsky,  A. T. B. Gilbert,  Xintian Feng,  Joonho Lee,  Yuezhi Mao,  
 N. Mardirossian,  P. Pokhilko,  A. White,  M. Wormit,  M. P. Coons,  
 A. L. Dempwolff,  Zhengting Gan,  D. Hait,  P. R. Horn,  L. D. Jacobson,  
 I. Kaliman,  J. Kussmann,  A. W. Lange,  Ka Un Lao,  D. S. Levine,  Jie Liu,  
 S. C. McKenzie,  A. F. Morrison,  K. Nanda,  F. Plasser,  D. R. Rehn,  
 M. L. Vidal,  Zhi-Qiang You,  Ying Zhu,  B. Alam,  B. Albrecht,  
 A. Aldossary,  E. Alguire,  J. H. Andersen,  V. Athavale,  D. Barton,  
 K. Begam,  A. Behn,  N. Bellonzi,  Y. A. Bernard,  E. J. Berquist,  
 H. Burton,  A. Carreras,  K. Carter-Fenk,  Romit Chakraborty,  
 Chandrima Chakravarty,  Junhan Chen,  A. D. Chien,  K. D. Closser,  
 V. Cofer-Shabica,  L. Cunha,  S. Dasgupta,  Jia Deng,  M. de Wergifosse,  
 M. Diedenhofen,  Hainam Do,  S. Ehlert,  Po-Tung Fang,  S. Fatehi,  
 Qingguo Feng,  T. Friedhoff,  B. Ganoe,  J. Gayvert,  Qinghui Ge,  
 G. Gidofalvi,  M. Goldey,  J. Gomes,  C. Gonzalez-Espinoza,  S. Gulania,  
 A. Gunina,  J. A. Gyamfi,  M. W. D. Hanson-Heine,  P. H. P. Harbach,  
 A. W. Hauser,  M. F. Herbst,  M. Hernandez Vera,  M. Hodecker,  
 Z. C. Holden,  S. Houck,  Xunkun Huang,  Kerwin Hui,  B. C. Huynh,  
 K. Ikeda,  M. Ivanov,  Hyunjun Ji,  Zuxin Jin,  Hanjie Jiang,  B. Kaduk,  
 S. Kaehler,  R. Kang,  K. Khistyaev,  Jaehoon Kim,  Yongbin Kim,  
 P. Klunzinger,  Z. Koczor-Benda,  Joong Hoon Koh,  D. Kosenkov,  
 Saikiran Kotaru,  L. Koulias,  T. Kowalczyk,  C. M. Krauter,  K. Kue,  
 A. Kunitsa,  T. Kus,  A. Landau,  K. V. Lawler,  D. Lefrancois,  S. Lehtola,  
 Rain Li,  Shaozhi Li,  Yi-Pei Li,  Jiashu Liang,  M. Liebenthal,  
 Hung-Hsuan Lin,  You-Sheng Lin,  Fenglai Liu,  Kuan-Yu Liu,  
 M. Loipersberger,  A. Luenser,  C. Malbon,  A. Manjanath,  P. Manohar,  
 E. Mansoor,  S. F. Manzer,  Shan-Ping Mao,  A. V. Marenich,  T. Markovich,  
 S. Mason,  F. Matz,  S. A. Maurer,  P. F. McLaughlin,  M. F. S. J. Menger,  
 J.-M. Mewes,  S. A. Mewes,  P. Morgante,  Mohammad Mostafanejad,  
 J. W. Mullinax,  K. J. Oosterbaan,  G. Paran,  V. Parravicini,  
 Alexander C. Paul,  Suranjan K. Paul,  F. Pavosevic,  Zheng Pei,  S. Prager,  
 E. I. Proynov,  E. Ramos,  B. Rana,  A. E. Rask,  A. Rettig,  R. M. Richard,  
 F. Rob,  E. Rossomme,  T. Scheele,  M. Scheurer,  M. Schneider,  
 P. E. Schneider,  N. Sergueev,  S. M. Sharada,  Hengyuan Shen,  
 W. Skomorowski,  D. W. Small,  C. J. Stein,  Yingli Su,  Yu-Chuan Su,  
 E. J. Sundstrom,  Zhen Tao,  J. Thirman,  Hung-Yi Tsai,  T. Tsuchimochi,  
 N. M. Tubman,  C. Utku,  S. P. Veccham,  O. Vydrov,  J. Wenzel,  
 Jonathan Wong,  J. Witte,  A. Yamada,  Chou-Hsun Yang,  Kun Yao,  
 S. Yeganeh,  S. R. Yost,  A. Zech,  F. Zeller,  Igor Ying Zhang,  
 Xing Zhang,  Yu Zhang,  D. Zuev,  A. Aspuru-Guzik,  A. T. Bell,  
 N. A. Besley,  K. B. Bravaya,  B. R. Brooks,  D. Casanova,  Jeng-Da Chai,  
 Hsing-Ta Chen,  S. Coriani,  C. J. Cramer,  A. E. DePrince, III,  
 R. A. DiStasio Jr.,  A. Dreuw,  B. D. Dunietz,  T. R. Furlani,  
 W. A. Goddard III,  S. Grimme,  S. Hammes-Schiffer,  T. Head-Gordon,  
 W. J. Hehre,  Chao-Ping Hsu,  T.-C. Jagau,  Yousung Jung,  A. Klamt,  
 Jing Kong,  D. S. Lambrecht,  Xiangyuan Li,  WanZhen Liang,  N. J. Mayhall,  
 C. W. McCurdy,  J. B. Neaton,  T. Neudecker,  C. Ochsenfeld,  
 J. A. Parkhill,  R. Peverati,  V. A. Rassolov,  Haisheng Ren,  Yihan Shao,  
 L. V. Slipchenko,  R. P. Steele,  J. E. Subotnik,  A. J. W. Thom,  
 A. Tkatchenko,  D. G. Truhlar,  T. Van Voorhis,  Fan Wang,  
 T. A. Wesolowski,  K. B. Whaley,  H. L. Woodcock III,  P. M. Zimmerman,  
 S. Faraji,  P. M. W. Gill,  M. Head-Gordon,  J. M. Herbert,  A. I. Krylov

 Contributors to earlier versions of Q-Chem not listed above: 
 R. D. Adamson,  B. Austin,  R. Baer,  J. Baker,  G. J. O. Beran,  
 K. Brandhorst,  S. T. Brown,  E. F. C. Byrd,  Arup K. Chakraborty,  
 G. K. L. Chan,  Chun-Min Chang,  Yunqing Chen,  C.-L. Cheng,  
 Siu Hung Chien,  D. M. Chipman,  D. L. Crittenden,  H. Dachsel,  
 R. J. Doerksen,  A. D. Dutoi,  R. G. Edgar,  J. Fosso-Tande,  
 L. Fusti-Molnar,  D. Ghosh,  A. Ghysels,  A. Golubeva-Zadorozhnaya,  
 J. Gonthier,  M. S. Gordon,  S. R. Gwaltney,  G. Hawkins,  J. E. Herr,  
 A. Heyden,  S. Hirata,  E. G. Hohenstein,  G. Kedziora,  F. J. Keil,  
 C. Kelley,  Jihan Kim,  R. A. King,  R. Z. Khaliullin,  P. P. Korambath,  
 W. Kurlancheek,  A. Laurent,  A. M. Lee,  M. S. Lee,  S. V. Levchenko,  
 Ching Yeh Lin,  D. Liotard,  E. Livshits,  R. C. Lochan,  I. Lotan,  
 L. A. Martinez-Martinez,  P. E. Maslen,  N. Nair,  D. P. O'Neill,  
 D. Neuhauser,  E. Neuscamman,  C. M. Oana,  R. Olivares-Amaya,  R. Olson,  
 T. M. Perrine,  B. Peters,  P. A. Pieniazek,  A. Prociuk,  Y. M. Rhee,  
 J. Ritchie,  M. A. Rohrdanz,  E. Rosta,  N. J. Russ,  H. F. Schaefer III,  
 M. W. Schmidt,  N. E. Schultz,  S. Sharma,  N. Shenvi,  C. D. Sherrill,  
 A. C. Simmonett,  A. Sodt,  T. Stein,  D. Stuck,  K. S. Thanthiriwatte,  
 V. Vanovschi,  L. Vogt,  Tao Wang,  A. Warshel,  M. A. Watson,  
 C. F. Williams,  Q. Wu,  X. Xu,  Jun Yang,  W. Zhang,  Yan Zhao

   Please cite Q-Chem as follows:
  "Software for the frontiers of quantum chemistry:
   An overview of developments in the Q-Chem 5 package"
   J. Chem. Phys. 155, 084801 (2021)
   https://doi.org/10.1063/5.0055522 (open access)

 Q-Chem 6.0.0 for Intel X86 EM64T Linux

 Parts of Q-Chem use Armadillo 9.900.5 (Nocturnal Misbehaviour).
 http://arma.sourceforge.net/

 Q-Chem begins on Thu Jul 21 03:14:49 2022  

 Host: nid00537
0

     Scratch files written to /global/cscratch1/sd/ymao90/r7.00_frame_0063_spade_B3LYP_dp20220721031330//
 Processing $rem in /global/homes/y/ymao90/my_qchem/qchem_embedding_5p4/config/preferences:
 Processing $rem in /global/homes/y/ymao90/.qchemrc:
 No nuclear gradient supported for projection-based embedding or EMFT. Set max ideriv = 0.

 Checking the input file for inconsistencies... 	...done.

--------------------------------------------------------------
User input:
--------------------------------------------------------------
$molecule
0 1
--
0 1
C    25.47100   23.09200   25.93900  
C    26.63100   23.75100   26.70200  
C    27.65500   24.28700   25.68800  
C    27.09400   25.14600   24.54300  
C    25.96900   24.40100   23.80500  
C    24.90200   24.00300   24.83800  
H    28.40400   24.92500   26.17300  
H    26.16100   24.56200   27.27200  
H    25.66300   22.09100   25.53200  
H    24.73000   22.84900   26.71000  
H    26.69200   26.11300   24.87000  
H    27.85000   25.38900   23.78600  
H    25.49000   24.97200   23.00100  
H    26.29800   23.44900   23.37100  
H    24.45100   24.91900   25.24000  
H    24.01800   23.52400   24.40000  
H    28.25500   23.42600   25.36800  
N    27.34600   22.82100   27.57400  
H    28.02900   22.19300   27.17000  
C    27.13600   22.72700   28.93400  
H    27.88800   22.07800   29.41800  
O    26.18600   23.25100   29.48800  
--
0 1
C    25.85700   29.66300   24.00400  
H    26.29900   30.60500   23.67000  
H    25.27300   29.85900   24.90700  
H    26.60600   28.87900   24.14200  
S    24.79300   29.14100   22.64000  
C    24.18900   27.68700   23.52600  
H    23.49200   27.12600   22.89700  
H    24.99200   27.00900   23.82500  
H    23.58300   28.03800   24.36500  
O    25.74100   28.57700   21.62800  
C    22.56900   26.83000   32.54700  
H    22.02100   27.10600   33.45100  
H    23.64700   26.91800   32.70500  
H    22.24200   27.49900   31.74700  
S    22.32200   25.11900   32.02000  
C    20.54100   25.34700   32.23000  
H    20.21900   25.59400   33.24400  
H    20.23500   25.99700   31.40600  
H    20.05100   24.38800   32.04300  
O    22.79100   24.50400   33.30200  
C    27.74500   26.16500   31.33900  
H    26.87700   26.61200   31.83100  
H    27.45300   25.40300   30.61200  
H    28.52400   25.88700   32.05400  
S    28.49300   27.58400   30.50800  
C    27.26500   27.58400   29.18300  
H    27.26900   26.69100   28.55200  
H    26.27000   27.71300   29.61600  
H    27.52400   28.49500   28.63800  
O    29.71100   26.98600   29.87400  
C    32.72500   24.36800   33.90800  
H    33.68000   24.10100   34.36800  
H    32.32000   25.17600   34.52200  
H    32.08400   23.48300   33.94100  
S    32.77000   25.08500   32.25000  
C    30.97200   24.95400   32.13400  
H    30.65900   25.30500   31.14700  
H    30.80100   23.89500   32.34400  
H    30.44600   25.41400   32.97400  
O    33.31500   24.03200   31.33600  
C    32.29400   23.18800   24.18000  
H    32.88300   23.98600   23.71900  
H    31.69100   23.54600   25.01800  
H    33.01300   22.41700   24.46800  
S    31.03500   22.60500   23.02200  
C    30.47600   21.31500   24.15800  
H    29.47200   21.04600   23.81900  
H    31.15100   20.45800   24.09800  
H    30.42500   21.80700   25.13200  
O    31.63500   21.86300   21.87000  
C    32.00900   18.95900   26.75200  
H    31.22500   19.71000   26.63100  
H    32.42000   18.63700   25.79200  
H    31.65200   18.08200   27.29900  
S    33.26500   19.68200   27.83100  
C    34.40500   18.28900   27.66900  
H    33.79300   17.49300   28.10000  
H    34.64700   18.12300   26.61600  
H    35.35100   18.60000   28.11900  
O    32.89300   19.59900   29.27900  
C    29.60400   19.64700   30.76500  
H    30.33200   18.84000   30.63800  
H    29.10800   19.42900   31.71400  
H    28.91500   19.69800   29.91900  
S    30.59400   21.15800   30.71000  
C    31.38300   20.85600   32.30800  
H    31.76900   19.83300   32.28800  
H    32.17000   21.59200   32.49000  
H    30.58100   20.96800   33.04200  
O    29.61000   22.20900   31.11900  
C    27.80000   23.45400   20.68600  
H    27.81800   23.86900   21.69700  
H    28.38600   23.96500   19.91800  
H    26.75000   23.57600   20.40500  
S    28.05300   21.68400   20.94300  
C    28.01300   21.26200   19.18600  
H    27.44900   22.05700   18.69100  
H    29.05700   21.28000   18.86600  
H    27.43800   20.33700   19.08400  
O    26.74000   21.18100   21.45600  
C    28.07300   21.74400   34.08400  
H    27.76400   21.96600   35.10900  
H    28.68200   20.84400   34.19400  
H    28.67000   22.55000   33.64900  
S    26.79500   21.37700   32.86000  
C    25.73500   22.78900   33.24500  
H    26.30800   23.71200   33.12400  
H    24.83600   22.72100   32.62700  
H    25.45800   22.74500   34.30100  
O    26.00700   20.25800   33.46600  
C    21.80300   22.60400   25.25300  
H    21.05800   23.38900   25.40600  
H    22.74500   22.76000   25.78500  
H    21.86000   22.63000   24.16100  
S    20.95800   21.04700   25.61100  
C    22.33000   19.98500   25.10600  
H    23.16400   20.30800   25.73500  
H    22.01000   18.97300   25.36700  
H    22.58600   20.06200   24.04600  
O    19.90100   20.89300   24.56300  
C    18.27700   24.47600   23.95000  
H    18.54800   23.44700   24.20300  
H    18.23200   24.87600   24.96600  
H    17.31500   24.46900   23.43100  
S    19.57400   25.38300   23.07700  
C    20.01800   23.96500   22.04800  
H    19.28900   23.82700   21.24600  
H    21.02000   24.14600   21.65200  
H    20.26700   23.10800   22.67900  
O    20.73400   25.42600   24.02200  
C    20.39000   22.62300   29.03000  
H    20.58900   23.60800   29.45900  
H    20.24600   21.86000   29.79900  
H    21.10300   22.27300   28.27900  
S    18.80700   22.79900   28.17600  
C    19.07000   24.54200   27.77500  
H    19.40900   24.98600   28.71400  
H    19.87600   24.59200   27.03700  
H    18.09700   24.91200   27.44300  
O    17.72200   22.74000   29.20500  
C    30.58200   28.24300   26.71200  
H    30.75200   29.31000   26.55200  
H    29.83700   28.17800   27.51000  
H    31.52100   27.68400   26.75800  
S    29.88900   27.59200   25.17600  
C    31.45000   27.56300   24.26500  
H    32.03100   26.75000   24.70700  
H    31.16600   27.17500   23.28300  
H    32.00800   28.49700   24.37100  
O    29.14700   28.73400   24.55400  
C    27.47600   15.74300   33.98400  
H    27.52000   16.03700   35.03600  
H    27.15000   14.71700   33.79900  
H    28.48900   15.96200   33.63700  
S    26.56200   17.00500   33.06900  
C    24.97300   16.43500   33.71300  
H    24.23000   17.01600   33.16100  
H    24.87400   15.42100   33.31600  
H    24.96700   16.48100   34.80500  
O    26.55900   16.52600   31.65100  
C    28.51300   26.86400   20.47800  
H    29.13700   26.05000   20.85500  
H    28.94300   27.82800   20.76300  
H    27.52700   26.75900   20.93800  
S    28.38400   26.84300   18.67500  
C    27.30300   28.29100   18.63100  
H    27.00500   28.39200   17.58500  
H    26.40400   28.09900   19.22300  
H    27.79200   29.18500   19.02500  
O    27.54500   25.68700   18.22800  
C    24.52900   29.61800   33.30300  
H    24.92600   29.17700   34.22100  
H    24.42700   30.69700   33.44100  
H    23.53200   29.18100   33.21000  
S    25.46300   29.08400   31.85100  
C    26.59000   30.49500   31.78400  
H    26.06700   31.44000   31.95200  
H    27.32400   30.34400   32.58000  
H    27.11200   30.51400   30.82400  
O    24.53700   29.38600   30.71500  
C    30.90700   32.02200   25.23000  
H    30.81600   32.40500   26.25000  
H    31.14200   30.95500   25.24900  
H    31.58600   32.63100   24.62700  
S    29.24800   32.05200   24.51600  
C    29.77000   31.93600   22.79000  
H    28.91300   32.11500   22.13600  
H    30.49200   32.69800   22.48600  
H    30.29300   30.97600   22.77000  
O    28.96500   33.51100   24.69400  
C    24.00000   31.53900   27.51100  
H    24.09000   32.36200   28.22400  
H    24.15700   30.64200   28.11500  
H    24.64300   31.66200   26.63500  
S    22.31900   31.43400   26.85600  
C    21.62300   30.93800   28.44800  
H    20.55700   30.76000   28.28700  
H    22.12500   30.02000   28.76400  
H    21.88900   31.76300   29.11500  
O    22.28600   30.16800   26.05800  
C    23.96000   26.01800   28.88100  
H    24.80100   26.06200   28.18400  
H    23.85500   27.02500   29.29300  
H    24.21200   25.26900   29.63600  
S    22.34600   25.53300   28.23000  
C    22.24500   26.98900   27.16500  
H    21.18700   27.25700   27.12200  
H    22.93800   27.79400   27.42400  
H    22.53500   26.69300   26.15400  
O    21.44800   26.01700   29.32600  
C    24.47600   15.95400   23.07000  
H    24.23700   17.00700   23.23700  
H    25.23200   15.93000   22.28100  
H    23.56100   15.44500   22.75600  
S    25.03600   15.17600   24.60200  
C    23.53800   15.44600   25.57600  
H    22.73400   14.86700   25.11300  
H    23.73200   15.13800   26.60600  
H    23.32300   16.49500   25.79200  
O    25.91300   16.22100   25.21900  
C    33.36700   30.38700   19.99200  
H    32.84100   31.30300   20.27200  
H    34.44400   30.53400   20.11200  
H    33.05400   30.03300   19.00700  
S    32.99300   29.20000   21.30200  
C    31.23400   29.08000   20.90400  
H    30.77700   30.05900   20.74100  
H    31.03500   28.49500   20.00300  
H    30.64700   28.61800   21.70200  
O    33.06500   30.06700   22.52000  
C    23.78600   20.69300   21.53100  
H    22.83200   20.51800   22.03400  
H    24.49600   19.91800   21.83400  
H    24.21700   21.63400   21.88100  
S    23.70300   20.78700   19.72900  
C    22.41200   22.04900   19.66300  
H    21.48000   21.60700   20.02400  
H    22.67600   23.00000   20.13400  
H    22.20300   22.28500   18.61700  
O    22.95900   19.65800   19.08700  
C    24.87600   18.92800   28.02100  
H    25.86800   18.51900   28.22900  
H    24.09400   18.17800   28.16600  
H    24.84500   19.29100   26.99100  
S    24.47400   20.35400   29.05600  
C    24.07000   19.32800   30.48800  
H    23.57800   18.38500   30.24000  
H    24.90200   19.12000   31.16600  
H    23.36800   19.96400   31.03400  
O    23.15500   20.67000   28.42200  
C    23.82200   27.04700   19.34900  
H    24.43400   27.09600   18.44500  
H    23.72800   28.06800   19.72800  
H    24.29800   26.38000   20.07300  
S    22.22900   26.41900   18.77100  
C    21.67000   26.67000   20.47100  
H    22.20700   25.96500   21.11100  
H    21.72200   27.70200   20.82700  
H    20.60500   26.42500   20.45900  
O    22.49500   24.94600   18.75500  
C    34.66300   25.75000   20.66200  
H    35.48500   25.24400   21.17500  
H    34.93200   25.82500   19.60500  
H    34.61700   26.78100   21.02000  
S    33.10000   24.94100   21.07100  
C    32.27000   25.18800   19.48500  
H    32.38700   26.22400   19.16000  
H    32.69600   24.44800   18.80200  
H    31.20200   25.00400   19.62500  
O    32.33300   25.88000   21.94900  
C    25.51800   26.29500   34.81500  
H    25.21300   26.08700   33.78600  
H    25.41600   25.37300   35.39200  
H    25.06200   27.24600   35.10500  
S    27.31200   26.49000   34.90400  
C    27.15600   27.12800   36.58800  
H    26.73700   26.37000   37.25400  
H    28.13000   27.51200   36.90200  
H    26.58000   28.04500   36.43900  
O    27.61000   27.68400   34.05300  
C    28.10500   18.14100   26.89500  
H    28.36800   18.54100   27.87800  
H    27.41300   17.29500   26.88200  
H    29.02300   17.99500   26.32100  
S    27.29100   19.51800   26.05400  
C    27.49400   18.89800   24.36800  
H    27.16200   19.62800   23.62600  
H    28.57300   18.75000   24.27600  
H    26.89400   17.99700   24.21600  
O    28.20100   20.70100   26.17900  
C    32.80000   23.12300   28.19700  
H    33.45500   22.98000   27.33300  
H    33.30700   22.87200   29.13200  
H    31.91400   22.48600   28.12500  
S    32.18300   24.82100   28.20900  
C    30.45900   24.33800   28.45000  
H    29.94000   25.28100   28.64000  
H    30.09100   23.93700   27.50200  
H    30.41100   23.67700   29.31900  
O    32.32500   25.24200   26.78000  
$end

$rem
JOBTYPE  SP
METHOD  B3LYP
BASIS  6-31+G(D)
SYMMETRY  FALSE
SYM_IGNORE  TRUE
MEM_TOTAL  12000
MEM_STATIC  4000
BASIS_LIN_DEP_THRESH  6
THRESH  14
SCF_CONVERGENCE  8
FD_MAT_VEC_PROD  FALSE
XC_GRID  000075000302
NL_GRID  1
MAX_SCF_CYCLES  200
ENV_METHOD  B3LYP
GEN_SCFMAN_EMBED  TRUE
SPADE_PARTITION  TRUE
EMBEDDING_EARLY_STOP  TRUE
$end

--------------------------------------------------------------
 ----------------------------------------------------------------
             Standard Nuclear Orientation (Angstroms)
    I     Atom           X                Y                Z
 ----------------------------------------------------------------
    1      C      25.4710000000    23.0920000000    25.9390000000
    2      C      26.6310000000    23.7510000000    26.7020000000
    3      C      27.6550000000    24.2870000000    25.6880000000
    4      C      27.0940000000    25.1460000000    24.5430000000
    5      C      25.9690000000    24.4010000000    23.8050000000
    6      C      24.9020000000    24.0030000000    24.8380000000
    7      H      28.4040000000    24.9250000000    26.1730000000
    8      H      26.1610000000    24.5620000000    27.2720000000
    9      H      25.6630000000    22.0910000000    25.5320000000
   10      H      24.7300000000    22.8490000000    26.7100000000
   11      H      26.6920000000    26.1130000000    24.8700000000
   12      H      27.8500000000    25.3890000000    23.7860000000
   13      H      25.4900000000    24.9720000000    23.0010000000
   14      H      26.2980000000    23.4490000000    23.3710000000
   15      H      24.4510000000    24.9190000000    25.2400000000
   16      H      24.0180000000    23.5240000000    24.4000000000
   17      H      28.2550000000    23.4260000000    25.3680000000
   18      N      27.3460000000    22.8210000000    27.5740000000
   19      H      28.0290000000    22.1930000000    27.1700000000
   20      C      27.1360000000    22.7270000000    28.9340000000
   21      H      27.8880000000    22.0780000000    29.4180000000
   22      O      26.1860000000    23.2510000000    29.4880000000
   23      C      25.8570000000    29.6630000000    24.0040000000
   24      H      26.2990000000    30.6050000000    23.6700000000
   25      H      25.2730000000    29.8590000000    24.9070000000
   26      H      26.6060000000    28.8790000000    24.1420000000
   27      S      24.7930000000    29.1410000000    22.6400000000
   28      C      24.1890000000    27.6870000000    23.5260000000
   29      H      23.4920000000    27.1260000000    22.8970000000
   30      H      24.9920000000    27.0090000000    23.8250000000
   31      H      23.5830000000    28.0380000000    24.3650000000
   32      O      25.7410000000    28.5770000000    21.6280000000
   33      C      22.5690000000    26.8300000000    32.5470000000
   34      H      22.0210000000    27.1060000000    33.4510000000
   35      H      23.6470000000    26.9180000000    32.7050000000
   36      H      22.2420000000    27.4990000000    31.7470000000
   37      S      22.3220000000    25.1190000000    32.0200000000
   38      C      20.5410000000    25.3470000000    32.2300000000
   39      H      20.2190000000    25.5940000000    33.2440000000
   40      H      20.2350000000    25.9970000000    31.4060000000
   41      H      20.0510000000    24.3880000000    32.0430000000
   42      O      22.7910000000    24.5040000000    33.3020000000
   43      C      27.7450000000    26.1650000000    31.3390000000
   44      H      26.8770000000    26.6120000000    31.8310000000
   45      H      27.4530000000    25.4030000000    30.6120000000
   46      H      28.5240000000    25.8870000000    32.0540000000
   47      S      28.4930000000    27.5840000000    30.5080000000
   48      C      27.2650000000    27.5840000000    29.1830000000
   49      H      27.2690000000    26.6910000000    28.5520000000
   50      H      26.2700000000    27.7130000000    29.6160000000
   51      H      27.5240000000    28.4950000000    28.6380000000
   52      O      29.7110000000    26.9860000000    29.8740000000
   53      C      32.7250000000    24.3680000000    33.9080000000
   54      H      33.6800000000    24.1010000000    34.3680000000
   55      H      32.3200000000    25.1760000000    34.5220000000
   56      H      32.0840000000    23.4830000000    33.9410000000
   57      S      32.7700000000    25.0850000000    32.2500000000
   58      C      30.9720000000    24.9540000000    32.1340000000
   59      H      30.6590000000    25.3050000000    31.1470000000
   60      H      30.8010000000    23.8950000000    32.3440000000
   61      H      30.4460000000    25.4140000000    32.9740000000
   62      O      33.3150000000    24.0320000000    31.3360000000
   63      C      32.2940000000    23.1880000000    24.1800000000
   64      H      32.8830000000    23.9860000000    23.7190000000
   65      H      31.6910000000    23.5460000000    25.0180000000
   66      H      33.0130000000    22.4170000000    24.4680000000
   67      S      31.0350000000    22.6050000000    23.0220000000
   68      C      30.4760000000    21.3150000000    24.1580000000
   69      H      29.4720000000    21.0460000000    23.8190000000
   70      H      31.1510000000    20.4580000000    24.0980000000
   71      H      30.4250000000    21.8070000000    25.1320000000
   72      O      31.6350000000    21.8630000000    21.8700000000
   73      C      32.0090000000    18.9590000000    26.7520000000
   74      H      31.2250000000    19.7100000000    26.6310000000
   75      H      32.4200000000    18.6370000000    25.7920000000
   76      H      31.6520000000    18.0820000000    27.2990000000
   77      S      33.2650000000    19.6820000000    27.8310000000
   78      C      34.4050000000    18.2890000000    27.6690000000
   79      H      33.7930000000    17.4930000000    28.1000000000
   80      H      34.6470000000    18.1230000000    26.6160000000
   81      H      35.3510000000    18.6000000000    28.1190000000
   82      O      32.8930000000    19.5990000000    29.2790000000
   83      C      29.6040000000    19.6470000000    30.7650000000
   84      H      30.3320000000    18.8400000000    30.6380000000
   85      H      29.1080000000    19.4290000000    31.7140000000
   86      H      28.9150000000    19.6980000000    29.9190000000
   87      S      30.5940000000    21.1580000000    30.7100000000
   88      C      31.3830000000    20.8560000000    32.3080000000
   89      H      31.7690000000    19.8330000000    32.2880000000
   90      H      32.1700000000    21.5920000000    32.4900000000
   91      H      30.5810000000    20.9680000000    33.0420000000
   92      O      29.6100000000    22.2090000000    31.1190000000
   93      C      27.8000000000    23.4540000000    20.6860000000
   94      H      27.8180000000    23.8690000000    21.6970000000
   95      H      28.3860000000    23.9650000000    19.9180000000
   96      H      26.7500000000    23.5760000000    20.4050000000
   97      S      28.0530000000    21.6840000000    20.9430000000
   98      C      28.0130000000    21.2620000000    19.1860000000
   99      H      27.4490000000    22.0570000000    18.6910000000
  100      H      29.0570000000    21.2800000000    18.8660000000
  101      H      27.4380000000    20.3370000000    19.0840000000
  102      O      26.7400000000    21.1810000000    21.4560000000
  103      C      28.0730000000    21.7440000000    34.0840000000
  104      H      27.7640000000    21.9660000000    35.1090000000
  105      H      28.6820000000    20.8440000000    34.1940000000
  106      H      28.6700000000    22.5500000000    33.6490000000
  107      S      26.7950000000    21.3770000000    32.8600000000
  108      C      25.7350000000    22.7890000000    33.2450000000
  109      H      26.3080000000    23.7120000000    33.1240000000
  110      H      24.8360000000    22.7210000000    32.6270000000
  111      H      25.4580000000    22.7450000000    34.3010000000
  112      O      26.0070000000    20.2580000000    33.4660000000
  113      C      21.8030000000    22.6040000000    25.2530000000
  114      H      21.0580000000    23.3890000000    25.4060000000
  115      H      22.7450000000    22.7600000000    25.7850000000
  116      H      21.8600000000    22.6300000000    24.1610000000
  117      S      20.9580000000    21.0470000000    25.6110000000
  118      C      22.3300000000    19.9850000000    25.1060000000
  119      H      23.1640000000    20.3080000000    25.7350000000
  120      H      22.0100000000    18.9730000000    25.3670000000
  121      H      22.5860000000    20.0620000000    24.0460000000
  122      O      19.9010000000    20.8930000000    24.5630000000
  123      C      18.2770000000    24.4760000000    23.9500000000
  124      H      18.5480000000    23.4470000000    24.2030000000
  125      H      18.2320000000    24.8760000000    24.9660000000
  126      H      17.3150000000    24.4690000000    23.4310000000
  127      S      19.5740000000    25.3830000000    23.0770000000
  128      C      20.0180000000    23.9650000000    22.0480000000
  129      H      19.2890000000    23.8270000000    21.2460000000
  130      H      21.0200000000    24.1460000000    21.6520000000
  131      H      20.2670000000    23.1080000000    22.6790000000
  132      O      20.7340000000    25.4260000000    24.0220000000
  133      C      20.3900000000    22.6230000000    29.0300000000
  134      H      20.5890000000    23.6080000000    29.4590000000
  135      H      20.2460000000    21.8600000000    29.7990000000
  136      H      21.1030000000    22.2730000000    28.2790000000
  137      S      18.8070000000    22.7990000000    28.1760000000
  138      C      19.0700000000    24.5420000000    27.7750000000
  139      H      19.4090000000    24.9860000000    28.7140000000
  140      H      19.8760000000    24.5920000000    27.0370000000
  141      H      18.0970000000    24.9120000000    27.4430000000
  142      O      17.7220000000    22.7400000000    29.2050000000
  143      C      30.5820000000    28.2430000000    26.7120000000
  144      H      30.7520000000    29.3100000000    26.5520000000
  145      H      29.8370000000    28.1780000000    27.5100000000
  146      H      31.5210000000    27.6840000000    26.7580000000
  147      S      29.8890000000    27.5920000000    25.1760000000
  148      C      31.4500000000    27.5630000000    24.2650000000
  149      H      32.0310000000    26.7500000000    24.7070000000
  150      H      31.1660000000    27.1750000000    23.2830000000
  151      H      32.0080000000    28.4970000000    24.3710000000
  152      O      29.1470000000    28.7340000000    24.5540000000
  153      C      27.4760000000    15.7430000000    33.9840000000
  154      H      27.5200000000    16.0370000000    35.0360000000
  155      H      27.1500000000    14.7170000000    33.7990000000
  156      H      28.4890000000    15.9620000000    33.6370000000
  157      S      26.5620000000    17.0050000000    33.0690000000
  158      C      24.9730000000    16.4350000000    33.7130000000
  159      H      24.2300000000    17.0160000000    33.1610000000
  160      H      24.8740000000    15.4210000000    33.3160000000
  161      H      24.9670000000    16.4810000000    34.8050000000
  162      O      26.5590000000    16.5260000000    31.6510000000
  163      C      28.5130000000    26.8640000000    20.4780000000
  164      H      29.1370000000    26.0500000000    20.8550000000
  165      H      28.9430000000    27.8280000000    20.7630000000
  166      H      27.5270000000    26.7590000000    20.9380000000
  167      S      28.3840000000    26.8430000000    18.6750000000
  168      C      27.3030000000    28.2910000000    18.6310000000
  169      H      27.0050000000    28.3920000000    17.5850000000
  170      H      26.4040000000    28.0990000000    19.2230000000
  171      H      27.7920000000    29.1850000000    19.0250000000
  172      O      27.5450000000    25.6870000000    18.2280000000
  173      C      24.5290000000    29.6180000000    33.3030000000
  174      H      24.9260000000    29.1770000000    34.2210000000
  175      H      24.4270000000    30.6970000000    33.4410000000
  176      H      23.5320000000    29.1810000000    33.2100000000
  177      S      25.4630000000    29.0840000000    31.8510000000
  178      C      26.5900000000    30.4950000000    31.7840000000
  179      H      26.0670000000    31.4400000000    31.9520000000
  180      H      27.3240000000    30.3440000000    32.5800000000
  181      H      27.1120000000    30.5140000000    30.8240000000
  182      O      24.5370000000    29.3860000000    30.7150000000
  183      C      30.9070000000    32.0220000000    25.2300000000
  184      H      30.8160000000    32.4050000000    26.2500000000
  185      H      31.1420000000    30.9550000000    25.2490000000
  186      H      31.5860000000    32.6310000000    24.6270000000
  187      S      29.2480000000    32.0520000000    24.5160000000
  188      C      29.7700000000    31.9360000000    22.7900000000
  189      H      28.9130000000    32.1150000000    22.1360000000
  190      H      30.4920000000    32.6980000000    22.4860000000
  191      H      30.2930000000    30.9760000000    22.7700000000
  192      O      28.9650000000    33.5110000000    24.6940000000
  193      C      24.0000000000    31.5390000000    27.5110000000
  194      H      24.0900000000    32.3620000000    28.2240000000
  195      H      24.1570000000    30.6420000000    28.1150000000
  196      H      24.6430000000    31.6620000000    26.6350000000
  197      S      22.3190000000    31.4340000000    26.8560000000
  198      C      21.6230000000    30.9380000000    28.4480000000
  199      H      20.5570000000    30.7600000000    28.2870000000
  200      H      22.1250000000    30.0200000000    28.7640000000
  201      H      21.8890000000    31.7630000000    29.1150000000
  202      O      22.2860000000    30.1680000000    26.0580000000
  203      C      23.9600000000    26.0180000000    28.8810000000
  204      H      24.8010000000    26.0620000000    28.1840000000
  205      H      23.8550000000    27.0250000000    29.2930000000
  206      H      24.2120000000    25.2690000000    29.6360000000
  207      S      22.3460000000    25.5330000000    28.2300000000
  208      C      22.2450000000    26.9890000000    27.1650000000
  209      H      21.1870000000    27.2570000000    27.1220000000
  210      H      22.9380000000    27.7940000000    27.4240000000
  211      H      22.5350000000    26.6930000000    26.1540000000
  212      O      21.4480000000    26.0170000000    29.3260000000
  213      C      24.4760000000    15.9540000000    23.0700000000
  214      H      24.2370000000    17.0070000000    23.2370000000
  215      H      25.2320000000    15.9300000000    22.2810000000
  216      H      23.5610000000    15.4450000000    22.7560000000
  217      S      25.0360000000    15.1760000000    24.6020000000
  218      C      23.5380000000    15.4460000000    25.5760000000
  219      H      22.7340000000    14.8670000000    25.1130000000
  220      H      23.7320000000    15.1380000000    26.6060000000
  221      H      23.3230000000    16.4950000000    25.7920000000
  222      O      25.9130000000    16.2210000000    25.2190000000
  223      C      33.3670000000    30.3870000000    19.9920000000
  224      H      32.8410000000    31.3030000000    20.2720000000
  225      H      34.4440000000    30.5340000000    20.1120000000
  226      H      33.0540000000    30.0330000000    19.0070000000
  227      S      32.9930000000    29.2000000000    21.3020000000
  228      C      31.2340000000    29.0800000000    20.9040000000
  229      H      30.7770000000    30.0590000000    20.7410000000
  230      H      31.0350000000    28.4950000000    20.0030000000
  231      H      30.6470000000    28.6180000000    21.7020000000
  232      O      33.0650000000    30.0670000000    22.5200000000
  233      C      23.7860000000    20.6930000000    21.5310000000
  234      H      22.8320000000    20.5180000000    22.0340000000
  235      H      24.4960000000    19.9180000000    21.8340000000
  236      H      24.2170000000    21.6340000000    21.8810000000
  237      S      23.7030000000    20.7870000000    19.7290000000
  238      C      22.4120000000    22.0490000000    19.6630000000
  239      H      21.4800000000    21.6070000000    20.0240000000
  240      H      22.6760000000    23.0000000000    20.1340000000
  241      H      22.2030000000    22.2850000000    18.6170000000
  242      O      22.9590000000    19.6580000000    19.0870000000
  243      C      24.8760000000    18.9280000000    28.0210000000
  244      H      25.8680000000    18.5190000000    28.2290000000
  245      H      24.0940000000    18.1780000000    28.1660000000
  246      H      24.8450000000    19.2910000000    26.9910000000
  247      S      24.4740000000    20.3540000000    29.0560000000
  248      C      24.0700000000    19.3280000000    30.4880000000
  249      H      23.5780000000    18.3850000000    30.2400000000
  250      H      24.9020000000    19.1200000000    31.1660000000
  251      H      23.3680000000    19.9640000000    31.0340000000
  252      O      23.1550000000    20.6700000000    28.4220000000
  253      C      23.8220000000    27.0470000000    19.3490000000
  254      H      24.4340000000    27.0960000000    18.4450000000
  255      H      23.7280000000    28.0680000000    19.7280000000
  256      H      24.2980000000    26.3800000000    20.0730000000
  257      S      22.2290000000    26.4190000000    18.7710000000
  258      C      21.6700000000    26.6700000000    20.4710000000
  259      H      22.2070000000    25.9650000000    21.1110000000
  260      H      21.7220000000    27.7020000000    20.8270000000
  261      H      20.6050000000    26.4250000000    20.4590000000
  262      O      22.4950000000    24.9460000000    18.7550000000
  263      C      34.6630000000    25.7500000000    20.6620000000
  264      H      35.4850000000    25.2440000000    21.1750000000
  265      H      34.9320000000    25.8250000000    19.6050000000
  266      H      34.6170000000    26.7810000000    21.0200000000
  267      S      33.1000000000    24.9410000000    21.0710000000
  268      C      32.2700000000    25.1880000000    19.4850000000
  269      H      32.3870000000    26.2240000000    19.1600000000
  270      H      32.6960000000    24.4480000000    18.8020000000
  271      H      31.2020000000    25.0040000000    19.6250000000
  272      O      32.3330000000    25.8800000000    21.9490000000
  273      C      25.5180000000    26.2950000000    34.8150000000
  274      H      25.2130000000    26.0870000000    33.7860000000
  275      H      25.4160000000    25.3730000000    35.3920000000
  276      H      25.0620000000    27.2460000000    35.1050000000
  277      S      27.3120000000    26.4900000000    34.9040000000
  278      C      27.1560000000    27.1280000000    36.5880000000
  279      H      26.7370000000    26.3700000000    37.2540000000
  280      H      28.1300000000    27.5120000000    36.9020000000
  281      H      26.5800000000    28.0450000000    36.4390000000
  282      O      27.6100000000    27.6840000000    34.0530000000
  283      C      28.1050000000    18.1410000000    26.8950000000
  284      H      28.3680000000    18.5410000000    27.8780000000
  285      H      27.4130000000    17.2950000000    26.8820000000
  286      H      29.0230000000    17.9950000000    26.3210000000
  287      S      27.2910000000    19.5180000000    26.0540000000
  288      C      27.4940000000    18.8980000000    24.3680000000
  289      H      27.1620000000    19.6280000000    23.6260000000
  290      H      28.5730000000    18.7500000000    24.2760000000
  291      H      26.8940000000    17.9970000000    24.2160000000
  292      O      28.2010000000    20.7010000000    26.1790000000
  293      C      32.8000000000    23.1230000000    28.1970000000
  294      H      33.4550000000    22.9800000000    27.3330000000
  295      H      33.3070000000    22.8720000000    29.1320000000
  296      H      31.9140000000    22.4860000000    28.1250000000
  297      S      32.1830000000    24.8210000000    28.2090000000
  298      C      30.4590000000    24.3380000000    28.4500000000
  299      H      29.9400000000    25.2810000000    28.6400000000
  300      H      30.0910000000    23.9370000000    27.5020000000
  301      H      30.4110000000    23.6770000000    29.3190000000
  302      O      32.3250000000    25.2420000000    26.7800000000
 ----------------------------------------------------------------
 Nuclear Repulsion Energy =       50710.79281776 hartrees
 There are      623 alpha and      623 beta electrons
 Requested basis set is 6-31+G(d)
 There are 995 shells and 2773 basis functions

 Total QAlloc Memory Limit  12000 MB
 Mega-Array Size      3911 MB
 MEM_STATIC part      4000 MB

 A cutoff of  1.0D-14 yielded 183062 shell pairs
 There are   1597491 function pairs
 Smallest overlap matrix eigenvalue = 4.40E-07
 Linear dependence detected in AO basis
 Tighter screening thresholds may be required for diffuse basis sets
 Use S2THRESH > 14 and THRESH = 14 in case of SCF convergence issues
 Number of orthogonalized atomic orbitals = 2771
 Maximum deviation from orthogonality = 9.853E-11

 Scale SEOQF with 1.000000e-03/1.000000e-03/1.000000e-03

 Standard Electronic Orientation quadrupole field applied
 Nucleus-field energy     =    -0.0000001070 hartrees
 Guess from superposition of atomic densities
 Warning:  Energy on first SCF cycle will be non-variational
 SAD guess density has 1246.000002 electrons

 -----------------------------------------------------------------------
  General SCF calculation program by
  Eric Jon Sundstrom, Paul Horn, Yuezhi Mao, Dmitri Zuev, Alec White,
  David Stuck, Shaama M.S., Shane Yost, Joonho Lee, David Small,
  Daniel Levine, Susi Lehtola, Hugh Burton, Evgeny Epifanovsky,
  Bang C. Huynh
 -----------------------------------------------------------------------
=================================================
        Doing projection-based embedding         
      F. Manby et al. JCTC, 8, 2564 (2012)       
=================================================

****************************************************
   Low-level SCF calculation for the whole system   
****************************************************
----------------------------------------------
 Summary of the low-level theory: 
 Exchange:     0.2000 Hartree-Fock + 0.0800 Slater + 0.7200 B88
 Correlation:  0.1900 VWN1RPA + 0.8100 LYP
 Using Euler-Maclaurin-Lebedev (75,302) quadrature formula
----------------------------------------------
 using 16 threads for integral computing
 -------------------------------------------------------
 OpenMP Integral computing Module                
 Release: version 1.0, May 2013, Q-Chem Inc. Pittsburgh 
 -------------------------------------------------------
 A restricted SCF calculation will be
 performed using DIIS
 SCF converges when DIIS error is below 1.0e-08
 ---------------------------------------
  Cycle       Energy         DIIS error
 ---------------------------------------
    1  -15913.8795377551      1.33e-02  
    2  -15889.0080325097      2.45e-03  
    3  -15877.9004523154      4.49e-03  
    4  -15893.2236492863      9.07e-04  
    5  -15893.9351464934      1.75e-04  
    6  -15893.9560936105      8.98e-05  
    7  -15893.9616646664      3.77e-05  
    8  -15893.9627658923      6.38e-06  
    9  -15893.9627981958      2.62e-06  
   10  -15893.9628032487      9.89e-07  
   11  -15893.9628039497      3.37e-07  
   12  -15893.9628040363      1.01e-07  
   13  -15893.9628040439      3.56e-08  
   14  -15893.9628040449      1.56e-08  
   15  -15893.9628040451      4.86e-09  Convergence criterion met
 ---------------------------------------
 SCF time:   CPU 289032.95s  wall 20810.00s 
 SCF   energy in the final basis set =   -15893.9628040451
 Total energy in the final basis set =   -15893.9628040451

****************************************************
             Start embedding calculation            
****************************************************
----------------------------------------------
 Summary of the high-level theory: 
 Exchange:     0.2000 Hartree-Fock + 0.0800 Slater + 0.7200 B88
 Correlation:  0.1900 VWN1RPA + 0.8100 LYP
 Using Euler-Maclaurin-Lebedev (75,302) quadrature formula
----------------------------------------------
Doing R-in-R Embedding Calculation
Number of fragments: 2
Embedded fragment(s): 1 
NOcc for each fragment
           35
          588
NBasis for each fragment
          197
         2576
Variational space of the embedded problem: 
NOcc (active)  = 35
NOcc (fixed)   = 588
NVir (total)   = 2148
Read converged orbitals from disk
=========================================================
       Doing SPADE partition for the orbital space       
     D. Claudino and N. Mayhall JCTC 15, 1053 (2019)     
=========================================================
SPADE singular values:
 1.0000 1.0000 1.0000 1.0000 1.0000 1.0000 1.0000 1.0000 1.0000 0.9999
 0.9998 0.9997 0.9997 0.9996 0.9995 0.9993 0.9992 0.9991 0.9985 0.9976
 0.9969 0.9968 0.9962 0.9959 0.9950 0.9947 0.9941 0.9939 0.9934 0.9929
 0.9917 0.9897 0.9887 0.9867 0.9790 0.2149 0.1988 0.1708 0.1664 0.1610
 0.1453 0.1414 0.1240 0.1177 0.1034 0.0947 0.0908 0.0748 0.0699 0.0607
 0.0596 0.0571 0.0533 0.0489 0.0457 0.0433 0.0421 0.0378 0.0335 0.0315
 0.0310 0.0286 0.0275 0.0251 0.0232 0.0212 0.0194 0.0189 0.0179 0.0174
 0.0160 0.0151 0.0146 0.0144 0.0130 0.0126 0.0119 0.0112 0.0108 0.0102
 0.0096 0.0090 0.0082 0.0080 0.0073 0.0071 0.0068 0.0066 0.0060 0.0056
 0.0054 0.0053 0.0050 0.0049 0.0047 0.0044 0.0043 0.0041 0.0040 0.0038
 0.0036 0.0035 0.0034 0.0032 0.0030 0.0027 0.0025 0.0024 0.0023 0.0023
 0.0022 0.0020 0.0020 0.0019 0.0018 0.0018 0.0018 0.0016 0.0016 0.0015
 0.0014 0.0014 0.0013 0.0013 0.0012 0.0012 0.0012 0.0011 0.0011 0.0010
 0.0010 0.0010 0.0009 0.0009 0.0008 0.0008 0.0008 0.0007 0.0007 0.0006
 0.0006 0.0006 0.0005 0.0005 0.0005 0.0005 0.0005 0.0005 0.0004 0.0004
 0.0004 0.0004 0.0004 0.0004 0.0003 0.0003 0.0003 0.0003 0.0003 0.0003
 0.0003 0.0003 0.0002 0.0002 0.0002 0.0002 0.0002 0.0002 0.0002 0.0002
 0.0002 0.0002 0.0002 0.0002 0.0002 0.0002 0.0002 0.0001 0.0001 0.0001
 0.0001 0.0001 0.0001 0.0001 0.0001 0.0001 0.0001 0.0001 0.0001 0.0001
 0.0001 0.0001 0.0001 0.0001 0.0001 0.0001 0.0000
Early stop requested; no embedded SCF will be performed

 588 environment occs will be part of frozen-core in future post-HF calculations

 --------------------------------------------------------------

                    Orbital Energies (a.u.)
 --------------------------------------------------------------

 Alpha MOs
 -- Occupied --
-89.0232 -89.0198 -89.0197 -89.0113 -89.0050 -89.0026 -89.0021 -89.0021
-89.0018 -88.9989 -88.9985 -88.9973 -88.9961 -88.9943 -88.9941 -88.9921
-88.9920 -88.9917 -88.9897 -88.9894 -88.9867 -88.9837 -88.9794 -88.9726
-88.9711 -88.9707 -88.9662 -88.9624 -19.1417 -19.1366 -19.1301 -19.1289
-19.1289 -19.1212 -19.1172 -19.1171 -19.1160 -19.1155 -19.1143 -19.1143
-19.1142 -19.1121 -19.1101 -19.1085 -19.1077 -19.1075 -19.1063 -19.1055
-19.1041 -19.1010 -19.0971 -19.0961 -19.0916 -19.0863 -19.0844 -19.0764
-10.2435 -10.2374 -10.2361 -10.2340 -10.2334 -10.2316 -10.2307 -10.2292
-10.2254 -10.2251 -10.2219 -10.2219 -10.2218 -10.2194 -10.2182 -10.2182
-10.2180 -10.2156 -10.2153 -10.2149 -10.2144 -10.2141 -10.2098 -10.2093
-10.2092 -10.2068 -10.2063 -10.2058 -10.2051 -10.2046 -10.2044 -10.2044
-10.2043 -10.2037 -10.2025 -10.2021 -10.2018 -10.2016 -10.1996 -10.1990
-10.1988 -10.1980 -10.1979 -10.1970 -10.1962 -10.1950 -10.1919 -10.1906
-10.1906 -10.1889 -10.1886 -10.1882 -10.1839 -10.1819 -10.1775 -10.1741
 -8.0695  -8.0659  -8.0651  -8.0576  -8.0510  -8.0481  -8.0481  -8.0475
 -8.0475  -8.0446  -8.0441  -8.0429  -8.0428  -8.0407  -8.0404  -8.0379
 -8.0372  -8.0368  -8.0352  -8.0349  -8.0328  -8.0292  -8.0250  -8.0184
 -8.0171  -8.0168  -8.0116  -8.0090  -6.0339  -6.0322  -6.0302  -6.0295
 -6.0289  -6.0283  -6.0271  -6.0233  -6.0226  -6.0218  -6.0207  -6.0154
 -6.0149  -6.0142  -6.0128  -6.0123  -6.0119  -6.0118  -6.0113  -6.0110
 -6.0105  -6.0104  -6.0090  -6.0086  -6.0081  -6.0076  -6.0072  -6.0071
 -6.0070  -6.0058  -6.0057  -6.0056  -6.0053  -6.0050  -6.0049  -6.0048
 -6.0046  -6.0034  -6.0034  -6.0023  -6.0022  -6.0017  -6.0016  -6.0011
 -6.0010  -6.0007  -6.0003  -6.0002  -5.9999  -5.9996  -5.9992  -5.9988
 -5.9981  -5.9977  -5.9977  -5.9972  -5.9958  -5.9954  -5.9946  -5.9945
 -5.9938  -5.9928  -5.9927  -5.9922  -5.9901  -5.9893  -5.9882  -5.9867
 -5.9829  -5.9822  -5.9814  -5.9814  -5.9813  -5.9801  -5.9798  -5.9760
 -5.9757  -5.9748  -5.9745  -5.9743  -5.9734  -5.9720  -5.9690  -5.9663
 -1.0511  -1.0419  -1.0412  -1.0412  -1.0376  -1.0316  -1.0288  -1.0285
 -1.0256  -1.0248  -1.0238  -1.0230  -1.0225  -1.0225  -1.0188  -1.0181
 -1.0174  -1.0171  -1.0160  -1.0150  -1.0114  -1.0105  -1.0063  -1.0042
 -1.0007  -0.9913  -0.9909  -0.9897  -0.8332  -0.8235  -0.8140  -0.8132
 -0.8095  -0.8076  -0.8061  -0.8049  -0.8038  -0.8025  -0.8024  -0.8023
 -0.7963  -0.7955  -0.7935  -0.7931  -0.7909  -0.7906  -0.7899  -0.7886
 -0.7870  -0.7858  -0.7856  -0.7793  -0.7782  -0.7751  -0.7716  -0.7667
 -0.7483  -0.7443  -0.7443  -0.7440  -0.7370  -0.7308  -0.7303  -0.7288
 -0.7275  -0.7271  -0.7236  -0.7204  -0.7198  -0.7195  -0.7162  -0.7147
 -0.7134  -0.7124  -0.7120  -0.7106  -0.7103  -0.7094  -0.7092  -0.7034
 -0.6997  -0.6972  -0.6961  -0.6924  -0.6342  -0.6322  -0.6320  -0.6250
 -0.6221  -0.6175  -0.6173  -0.6143  -0.6138  -0.6119  -0.6115  -0.6095
 -0.6086  -0.6076  -0.6065  -0.6054  -0.6041  -0.6036  -0.6031  -0.5990
 -0.5969  -0.5945  -0.5926  -0.5856  -0.5842  -0.5803  -0.5790  -0.5759
 -0.5160  -0.5080  -0.4989  -0.4981  -0.4958  -0.4898  -0.4890  -0.4880
 -0.4864  -0.4845  -0.4831  -0.4828  -0.4818  -0.4809  -0.4804  -0.4802
 -0.4794  -0.4793  -0.4765  -0.4759  -0.4759  -0.4752  -0.4751  -0.4738
 -0.4736  -0.4729  -0.4726  -0.4718  -0.4715  -0.4713  -0.4704  -0.4700
 -0.4693  -0.4677  -0.4673  -0.4670  -0.4668  -0.4662  -0.4659  -0.4656
 -0.4651  -0.4645  -0.4642  -0.4639  -0.4633  -0.4631  -0.4626  -0.4618
 -0.4616  -0.4613  -0.4601  -0.4599  -0.4597  -0.4588  -0.4584  -0.4578
 -0.4569  -0.4564  -0.4560  -0.4558  -0.4553  -0.4549  -0.4545  -0.4531
 -0.4527  -0.4520  -0.4518  -0.4495  -0.4494  -0.4493  -0.4485  -0.4480
 -0.4478  -0.4465  -0.4454  -0.4448  -0.4432  -0.4429  -0.4417  -0.4415
 -0.4409  -0.4403  -0.4380  -0.4371  -0.4352  -0.4344  -0.4339  -0.4337
 -0.4328  -0.4321  -0.4312  -0.4307  -0.4294  -0.4291  -0.4283  -0.4282
 -0.4281  -0.4269  -0.4268  -0.4224  -0.4210  -0.4209  -0.4205  -0.4204
 -0.4192  -0.4185  -0.4184  -0.4181  -0.4167  -0.4162  -0.4155  -0.4154
 -0.4147  -0.4147  -0.4137  -0.4134  -0.4126  -0.4122  -0.4118  -0.4109
 -0.4102  -0.4097  -0.4094  -0.4078  -0.4077  -0.4064  -0.4057  -0.4055
 -0.4053  -0.4050  -0.4031  -0.4027  -0.4023  -0.4019  -0.3996  -0.3993
 -0.3989  -0.3982  -0.3977  -0.3972  -0.3949  -0.3943  -0.3932  -0.3924
 -0.3920  -0.3917  -0.3904  -0.3873  -0.3864  -0.3860  -0.3852  -0.3848
 -0.3840  -0.3837  -0.3824  -0.3802  -0.3792  -0.3786  -0.3779  -0.3775
 -0.3768  -0.3758  -0.3749  -0.3742  -0.3730  -0.3710  -0.3704  -0.3695
 -0.3679  -0.3672  -0.3668  -0.3663  -0.3648  -0.3641  -0.3637  -0.3635
 -0.3620  -0.3618  -0.3609  -0.3601  -0.3585  -0.3574  -0.3572  -0.3569
 -0.3559  -0.3549  -0.3529  -0.3528  -0.3518  -0.3490  -0.3442  -0.3427
 -0.3355  -0.3341  -0.3322  -0.3290  -0.2998  -0.2979  -0.2965  -0.2908
 -0.2882  -0.2846  -0.2794  -0.2769  -0.2754  -0.2753  -0.2749  -0.2740
 -0.2739  -0.2735  -0.2716  -0.2707  -0.2679  -0.2677  -0.2677  -0.2657
 -0.2651  -0.2626  -0.2617  -0.2595  -0.2590  -0.2578  -0.2562  -0.2542
 -0.2506  -0.2494  -0.2476  -0.2470  -0.2459  -0.2455  -0.2454  -0.2446
 -0.2420  -0.2412  -0.2411  -0.2399  -0.2395  -0.2391  -0.2362  -0.2352
 -0.2351  -0.2337  -0.2320  -0.2305  -0.2285  -0.2281  -0.2217  -0.2191
 -0.2170  -0.2062  -0.2049  -0.2037 -10.6744 -10.4815 -16.4676 -10.4277
-10.4556 -13.5990 -10.5756 -10.9967 -10.0962  -0.9059  -0.6655  -0.9548
 -0.5488  -0.8170  -0.7052  -0.5793  -0.7177  -0.5882  -0.4150  -0.4307
 -0.4884  -0.4309  -0.4147  -0.4616  -0.4635  -0.4181  -0.3989  -0.3987
 -0.4801  -0.4362  -0.4486  -0.4417  -0.5137  -0.4760  -0.5376
 -- Virtual --
 -0.0290  -0.0245  -0.0203  -0.0189  -0.0168  -0.0166  -0.0158  -0.0131
 -0.0120  -0.0105  -0.0097  -0.0094  -0.0086  -0.0077  -0.0070  -0.0056
 -0.0039  -0.0029  -0.0014  -0.0008  -0.0001   0.0009   0.0015   0.0022
  0.0029   0.0032   0.0039   0.0046   0.0051   0.0059   0.0064   0.0071
  0.0077   0.0095   0.0097   0.0102   0.0106   0.0111   0.0125   0.0130
  0.0135   0.0144   0.0148   0.0151   0.0162   0.0167   0.0174   0.0181
  0.0188   0.0198   0.0209   0.0210   0.0214   0.0224   0.0226   0.0240
  0.0242   0.0242   0.0256   0.0258   0.0273   0.0276   0.0282   0.0285
  0.0292   0.0295   0.0304   0.0311   0.0316   0.0318   0.0321   0.0325
  0.0328   0.0344   0.0346   0.0350   0.0357   0.0359   0.0363   0.0369
  0.0374   0.0381   0.0386   0.0392   0.0399   0.0405   0.0414   0.0420
  0.0425   0.0431   0.0441   0.0443   0.0454   0.0456   0.0467   0.0476
  0.0482   0.0486   0.0491   0.0501   0.0509   0.0515   0.0520   0.0525
  0.0531   0.0533   0.0543   0.0550   0.0555   0.0558   0.0563   0.0572
  0.0574   0.0575   0.0581   0.0592   0.0603   0.0608   0.0611   0.0619
  0.0631   0.0632   0.0639   0.0646   0.0649   0.0653   0.0662   0.0666
  0.0676   0.0678   0.0682   0.0693   0.0699   0.0705   0.0710   0.0724
  0.0729   0.0732   0.0740   0.0747   0.0753   0.0755   0.0762   0.0765
  0.0777   0.0780   0.0782   0.0794   0.0798   0.0800   0.0815   0.0822
  0.0826   0.0831   0.0834   0.0845   0.0845   0.0848   0.0856   0.0862
  0.0865   0.0868   0.0881   0.0886   0.0888   0.0890   0.0900   0.0906
  0.0912   0.0917   0.0924   0.0933   0.0935   0.0937   0.0949   0.0955
  0.0963   0.0972   0.0979   0.0982   0.0988   0.0997   0.1004   0.1009
  0.1018   0.1023   0.1035   0.1038   0.1042   0.1046   0.1055   0.1059
  0.1068   0.1076   0.1078   0.1086   0.1092   0.1095   0.1113   0.1120
  0.1121   0.1126   0.1129   0.1134   0.1141   0.1144   0.1147   0.1151
  0.1160   0.1168   0.1178   0.1183   0.1192   0.1194   0.1199   0.1209
  0.1211   0.1216   0.1218   0.1227   0.1235   0.1238   0.1241   0.1254
  0.1257   0.1264   0.1270   0.1276   0.1283   0.1290   0.1293   0.1305
  0.1307   0.1314   0.1324   0.1331   0.1338   0.1343   0.1346   0.1352
  0.1356   0.1361   0.1366   0.1379   0.1386   0.1390   0.1394   0.1397
  0.1409   0.1416   0.1421   0.1425   0.1431   0.1441   0.1442   0.1447
  0.1454   0.1460   0.1471   0.1478   0.1481   0.1484   0.1493   0.1499
  0.1502   0.1509   0.1511   0.1522   0.1523   0.1530   0.1539   0.1541
  0.1550   0.1553   0.1559   0.1560   0.1569   0.1578   0.1581   0.1585
  0.1587   0.1591   0.1598   0.1604   0.1611   0.1614   0.1615   0.1626
  0.1633   0.1639   0.1642   0.1654   0.1657   0.1662   0.1669   0.1673
  0.1680   0.1686   0.1690   0.1703   0.1705   0.1707   0.1714   0.1722
  0.1723   0.1733   0.1736   0.1749   0.1754   0.1761   0.1765   0.1771
  0.1775   0.1785   0.1789   0.1792   0.1800   0.1803   0.1810   0.1816
  0.1821   0.1824   0.1830   0.1837   0.1843   0.1846   0.1852   0.1858
  0.1864   0.1873   0.1877   0.1881   0.1888   0.1892   0.1898   0.1902
  0.1908   0.1918   0.1918   0.1923   0.1927   0.1935   0.1944   0.1949
  0.1959   0.1962   0.1967   0.1976   0.1981   0.1990   0.1992   0.2001
  0.2002   0.2011   0.2017   0.2025   0.2033   0.2035   0.2038   0.2044
  0.2053   0.2055   0.2062   0.2063   0.2073   0.2074   0.2077   0.2083
  0.2092   0.2101   0.2106   0.2109   0.2117   0.2124   0.2127   0.2136
  0.2139   0.2148   0.2154   0.2161   0.2167   0.2174   0.2180   0.2187
  0.2191   0.2196   0.2198   0.2211   0.2218   0.2230   0.2232   0.2238
  0.2240   0.2245   0.2249   0.2259   0.2261   0.2270   0.2275   0.2281
  0.2287   0.2289   0.2294   0.2301   0.2302   0.2318   0.2323   0.2329
  0.2337   0.2349   0.2352   0.2353   0.2361   0.2367   0.2378   0.2382
  0.2388   0.2391   0.2400   0.2405   0.2416   0.2423   0.2437   0.2441
  0.2446   0.2459   0.2463   0.2467   0.2484   0.2487   0.2492   0.2499
  0.2501   0.2505   0.2510   0.2518   0.2521   0.2534   0.2538   0.2540
  0.2555   0.2557   0.2562   0.2565   0.2574   0.2581   0.2588   0.2597
  0.2600   0.2606   0.2615   0.2621   0.2628   0.2634   0.2649   0.2653
  0.2656   0.2662   0.2670   0.2671   0.2684   0.2686   0.2708   0.2714
  0.2720   0.2724   0.2732   0.2741   0.2745   0.2751   0.2757   0.2762
  0.2771   0.2774   0.2781   0.2784   0.2787   0.2799   0.2805   0.2808
  0.2818   0.2825   0.2836   0.2844   0.2855   0.2860   0.2868   0.2873
  0.2888   0.2894   0.2901   0.2915   0.2921   0.2926   0.2935   0.2939
  0.2946   0.2956   0.2965   0.2971   0.2981   0.2984   0.2994   0.2995
  0.3006   0.3019   0.3022   0.3031   0.3035   0.3040   0.3047   0.3058
  0.3059   0.3061   0.3075   0.3087   0.3096   0.3097   0.3112   0.3115
  0.3128   0.3129   0.3139   0.3153   0.3158   0.3169   0.3180   0.3185
  0.3194   0.3199   0.3204   0.3215   0.3222   0.3233   0.3242   0.3248
  0.3260   0.3265   0.3276   0.3279   0.3291   0.3301   0.3303   0.3319
  0.3334   0.3336   0.3340   0.3354   0.3359   0.3365   0.3371   0.3382
  0.3391   0.3397   0.3402   0.3409   0.3420   0.3430   0.3436   0.3449
  0.3459   0.3461   0.3473   0.3483   0.3486   0.3492   0.3505   0.3512
  0.3520   0.3531   0.3536   0.3541   0.3553   0.3559   0.3565   0.3575
  0.3585   0.3600   0.3609   0.3617   0.3626   0.3634   0.3651   0.3654
  0.3659   0.3667   0.3679   0.3684   0.3695   0.3705   0.3706   0.3713
  0.3715   0.3726   0.3730   0.3738   0.3755   0.3766   0.3779   0.3780
  0.3782   0.3785   0.3792   0.3800   0.3811   0.3818   0.3828   0.3831
  0.3843   0.3852   0.3856   0.3860   0.3872   0.3883   0.3886   0.3893
  0.3902   0.3910   0.3922   0.3930   0.3939   0.3949   0.3952   0.3963
  0.3966   0.3974   0.3982   0.3985   0.3998   0.4001   0.4010   0.4031
  0.4033   0.4046   0.4052   0.4058   0.4069   0.4083   0.4090   0.4099
  0.4106   0.4116   0.4130   0.4130   0.4137   0.4142   0.4150   0.4157
  0.4169   0.4182   0.4189   0.4196   0.4212   0.4215   0.4220   0.4227
  0.4245   0.4252   0.4263   0.4274   0.4283   0.4289   0.4300   0.4309
  0.4316   0.4326   0.4344   0.4362   0.4372   0.4376   0.4379   0.4398
  0.4400   0.4406   0.4427   0.4430   0.4440   0.4448   0.4456   0.4472
  0.4489   0.4492   0.4497   0.4511   0.4526   0.4531   0.4555   0.4561
  0.4571   0.4577   0.4588   0.4595   0.4621   0.4637   0.4640   0.4643
  0.4654   0.4665   0.4680   0.4685   0.4702   0.4714   0.4727   0.4743
  0.4747   0.4766   0.4772   0.4775   0.4801   0.4816   0.4822   0.4845
  0.4852   0.4864   0.4880   0.4889   0.4895   0.4910   0.4915   0.4920
  0.4941   0.4952   0.4964   0.4981   0.4996   0.5011   0.5014   0.5027
  0.5048   0.5054   0.5067   0.5082   0.5104   0.5138   0.5143   0.5158
  0.5169   0.5181   0.5198   0.5208   0.5232   0.5250   0.5261   0.5273
  0.5309   0.5314   0.5331   0.5346   0.5349   0.5359   0.5363   0.5376
  0.5422   0.5438   0.5456   0.5466   0.5477   0.5486   0.5504   0.5510
  0.5523   0.5547   0.5554   0.5565   0.5591   0.5598   0.5609   0.5628
  0.5651   0.5669   0.5678   0.5696   0.5722   0.5728   0.5752   0.5758
  0.5778   0.5800   0.5803   0.5809   0.5826   0.5834   0.5843   0.5846
  0.5860   0.5874   0.5890   0.5914   0.5931   0.5943   0.5944   0.5966
  0.5982   0.5988   0.6006   0.6030   0.6034   0.6044   0.6057   0.6082
  0.6095   0.6107   0.6113   0.6132   0.6146   0.6151   0.6168   0.6182
  0.6204   0.6208   0.6225   0.6231   0.6250   0.6252   0.6258   0.6281
  0.6298   0.6305   0.6329   0.6335   0.6352   0.6370   0.6378   0.6383
  0.6401   0.6408   0.6412   0.6424   0.6429   0.6444   0.6466   0.6469
  0.6485   0.6487   0.6503   0.6507   0.6520   0.6534   0.6547   0.6558
  0.6573   0.6579   0.6596   0.6602   0.6610   0.6613   0.6625   0.6629
  0.6639   0.6656   0.6659   0.6663   0.6682   0.6686   0.6697   0.6707
  0.6718   0.6731   0.6743   0.6755   0.6757   0.6780   0.6791   0.6797
  0.6806   0.6824   0.6839   0.6846   0.6853   0.6860   0.6869   0.6898
  0.6902   0.6913   0.6923   0.6927   0.6942   0.6950   0.6964   0.6974
  0.6988   0.7002   0.7016   0.7024   0.7047   0.7048   0.7055   0.7063
  0.7079   0.7080   0.7092   0.7096   0.7123   0.7128   0.7139   0.7143
  0.7170   0.7192   0.7200   0.7212   0.7216   0.7239   0.7249   0.7255
  0.7262   0.7268   0.7286   0.7301   0.7320   0.7329   0.7337   0.7356
  0.7368   0.7382   0.7384   0.7413   0.7430   0.7440   0.7450   0.7454
  0.7478   0.7488   0.7502   0.7522   0.7531   0.7539   0.7548   0.7563
  0.7575   0.7597   0.7603   0.7612   0.7622   0.7627   0.7644   0.7652
  0.7664   0.7682   0.7691   0.7700   0.7718   0.7738   0.7748   0.7755
  0.7773   0.7780   0.7793   0.7808   0.7825   0.7840   0.7849   0.7860
  0.7866   0.7873   0.7891   0.7925   0.7944   0.7949   0.7963   0.7978
  0.7994   0.8024   0.8041   0.8049   0.8051   0.8079   0.8090   0.8096
  0.8111   0.8123   0.8136   0.8154   0.8164   0.8177   0.8193   0.8200
  0.8211   0.8223   0.8232   0.8242   0.8262   0.8274   0.8286   0.8295
  0.8306   0.8310   0.8331   0.8347   0.8368   0.8376   0.8381   0.8388
  0.8399   0.8418   0.8441   0.8444   0.8454   0.8468   0.8471   0.8494
  0.8516   0.8524   0.8530   0.8552   0.8555   0.8573   0.8591   0.8610
  0.8623   0.8628   0.8637   0.8647   0.8661   0.8677   0.8681   0.8694
  0.8705   0.8713   0.8730   0.8741   0.8759   0.8768   0.8783   0.8793
  0.8797   0.8819   0.8824   0.8844   0.8857   0.8866   0.8877   0.8889
  0.8902   0.8905   0.8920   0.8924   0.8944   0.8963   0.8986   0.8996
  0.9008   0.9016   0.9029   0.9038   0.9055   0.9063   0.9079   0.9094
  0.9101   0.9116   0.9129   0.9141   0.9157   0.9169   0.9184   0.9187
  0.9210   0.9214   0.9222   0.9237   0.9248   0.9253   0.9261   0.9273
  0.9283   0.9304   0.9320   0.9328   0.9339   0.9350   0.9357   0.9369
  0.9379   0.9389   0.9394   0.9405   0.9425   0.9441   0.9449   0.9458
  0.9475   0.9477   0.9495   0.9503   0.9521   0.9531   0.9535   0.9545
  0.9551   0.9557   0.9566   0.9568   0.9589   0.9604   0.9610   0.9635
  0.9642   0.9651   0.9663   0.9668   0.9677   0.9693   0.9702   0.9712
  0.9715   0.9735   0.9740   0.9752   0.9766   0.9767   0.9786   0.9799
  0.9807   0.9810   0.9826   0.9850   0.9857   0.9874   0.9880   0.9886
  0.9896   0.9915   0.9916   0.9932   0.9936   0.9950   0.9973   0.9977
  0.9989   0.9999   1.0011   1.0023   1.0031   1.0045   1.0055   1.0067
  1.0071   1.0083   1.0093   1.0102   1.0112   1.0118   1.0127   1.0143
  1.0151   1.0165   1.0174   1.0183   1.0194   1.0204   1.0207   1.0222
  1.0230   1.0247   1.0249   1.0257   1.0289   1.0294   1.0296   1.0313
  1.0322   1.0329   1.0336   1.0340   1.0348   1.0360   1.0385   1.0393
  1.0407   1.0424   1.0431   1.0444   1.0447   1.0456   1.0460   1.0484
  1.0504   1.0513   1.0522   1.0529   1.0562   1.0573   1.0581   1.0596
  1.0608   1.0614   1.0627   1.0642   1.0643   1.0651   1.0661   1.0667
  1.0699   1.0704   1.0726   1.0729   1.0750   1.0762   1.0775   1.0801
  1.0804   1.0809   1.0829   1.0851   1.0865   1.0872   1.0890   1.0894
  1.0903   1.0920   1.0949   1.0953   1.0964   1.0979   1.0989   1.0995
  1.1011   1.1037   1.1042   1.1056   1.1059   1.1066   1.1083   1.1095
  1.1107   1.1115   1.1124   1.1146   1.1165   1.1173   1.1186   1.1188
  1.1205   1.1215   1.1226   1.1236   1.1253   1.1279   1.1293   1.1303
  1.1314   1.1315   1.1325   1.1343   1.1347   1.1358   1.1378   1.1391
  1.1396   1.1415   1.1424   1.1435   1.1445   1.1471   1.1473   1.1485
  1.1494   1.1513   1.1531   1.1538   1.1549   1.1560   1.1578   1.1587
  1.1599   1.1606   1.1614   1.1628   1.1637   1.1645   1.1659   1.1686
  1.1698   1.1720   1.1731   1.1739   1.1758   1.1768   1.1783   1.1795
  1.1803   1.1808   1.1838   1.1845   1.1852   1.1858   1.1869   1.1891
  1.1894   1.1908   1.1924   1.1937   1.1950   1.1961   1.1994   1.2001
  1.2021   1.2034   1.2054   1.2070   1.2091   1.2101   1.2115   1.2132
  1.2144   1.2168   1.2187   1.2204   1.2234   1.2248   1.2293   1.2306
  1.2315   1.2327   1.2329   1.2342   1.2376   1.2402   1.2411   1.2421
  1.2443   1.2469   1.2472   1.2489   1.2503   1.2507   1.2541   1.2561
  1.2573   1.2610   1.2643   1.2645   1.2687   1.2704   1.2718   1.2724
  1.2739   1.2758   1.2792   1.2816   1.2846   1.2866   1.2878   1.2892
  1.2922   1.2939   1.2948   1.2977   1.3020   1.3031   1.3049   1.3071
  1.3099   1.3114   1.3148   1.3163   1.3184   1.3209   1.3230   1.3245
  1.3273   1.3274   1.3297   1.3320   1.3339   1.3360   1.3378   1.3386
  1.3403   1.3414   1.3428   1.3433   1.3474   1.3503   1.3509   1.3528
  1.3531   1.3536   1.3552   1.3559   1.3572   1.3590   1.3614   1.3617
  1.3631   1.3649   1.3666   1.3671   1.3696   1.3716   1.3722   1.3728
  1.3742   1.3773   1.3785   1.3795   1.3822   1.3829   1.3838   1.3852
  1.3868   1.3881   1.3893   1.3911   1.3915   1.3921   1.3934   1.3946
  1.3964   1.3985   1.4016   1.4028   1.4034   1.4062   1.4072   1.4083
  1.4118   1.4126   1.4152   1.4167   1.4171   1.4180   1.4193   1.4218
  1.4231   1.4246   1.4258   1.4284   1.4290   1.4307   1.4321   1.4336
  1.4346   1.4373   1.4379   1.4391   1.4416   1.4424   1.4442   1.4456
  1.4464   1.4481   1.4508   1.4517   1.4534   1.4551   1.4571   1.4590
  1.4603   1.4615   1.4631   1.4652   1.4671   1.4694   1.4713   1.4721
  1.4734   1.4756   1.4761   1.4787   1.4801   1.4810   1.4821   1.4853
  1.4861   1.4873   1.4891   1.4915   1.4944   1.4961   1.4970   1.4976
  1.5004   1.5005   1.5030   1.5051   1.5073   1.5079   1.5098   1.5124
  1.5134   1.5161   1.5179   1.5204   1.5246   1.5259   1.5278   1.5308
  1.5318   1.5363   1.5381   1.5388   1.5408   1.5456   1.5475   1.5497
  1.5514   1.5527   1.5591   1.5593   1.5616   1.5639   1.5678   1.5729
  1.5743   1.5763   1.5782   1.5824   1.5835   1.5850   1.5899   1.5920
  1.5931   1.5964   1.6020   1.6045   1.6074   1.6108   1.6135   1.6198
  1.6231   1.6274   1.6313   1.6329   1.6384   1.6413   1.6435   1.6476
  1.6506   1.6535   1.6562   1.6588   1.6618   1.6623   1.6641   1.6666
  1.6671   1.6685   1.6725   1.6740   1.6750   1.6757   1.6778   1.6799
  1.6816   1.6840   1.6852   1.6859   1.6868   1.6877   1.6896   1.6916
  1.6929   1.6937   1.6945   1.6955   1.6966   1.6977   1.6993   1.7000
  1.7022   1.7046   1.7071   1.7091   1.7104   1.7122   1.7134   1.7137
  1.7146   1.7154   1.7177   1.7191   1.7195   1.7210   1.7227   1.7233
  1.7248   1.7261   1.7269   1.7277   1.7288   1.7299   1.7304   1.7313
  1.7320   1.7345   1.7348   1.7363   1.7370   1.7389   1.7403   1.7409
  1.7421   1.7435   1.7454   1.7466   1.7479   1.7488   1.7509   1.7515
  1.7528   1.7539   1.7547   1.7561   1.7571   1.7577   1.7591   1.7608
  1.7613   1.7634   1.7644   1.7646   1.7658   1.7676   1.7686   1.7703
  1.7725   1.7732   1.7746   1.7754   1.7772   1.7786   1.7790   1.7804
  1.7817   1.7846   1.7866   1.7877   1.7898   1.7904   1.7912   1.7940
  1.7944   1.7954   1.7980   1.8011   1.8020   1.8027   1.8052   1.8063
  1.8098   1.8107   1.8165   1.8186   1.8202   1.8224   1.8246   1.8269
  1.8307   1.8326   1.8349   1.8392   1.8408   1.8424   1.8470   1.8487
  1.8498   1.8549   1.8605   1.8625   1.8658   1.8669   1.8686   1.8687
  1.8711   1.8716   1.8732   1.8739   1.8769   1.8774   1.8804   1.8820
  1.8834   1.8841   1.8873   1.8893   1.8898   1.8916   1.8923   1.8934
  1.8943   1.8949   1.8961   1.8970   1.8981   1.8988   1.8996   1.9016
  1.9023   1.9033   1.9045   1.9072   1.9077   1.9085   1.9087   1.9095
  1.9105   1.9105   1.9113   1.9125   1.9129   1.9153   1.9160   1.9179
  1.9191   1.9201   1.9222   1.9242   1.9247   1.9260   1.9275   1.9285
  1.9295   1.9313   1.9349   1.9370   1.9384   1.9408   1.9419   1.9433
  1.9448   1.9477   1.9501   1.9522   1.9557   1.9586   1.9618   1.9663
  1.9680   1.9710   1.9732   1.9786   1.9852   1.9863   1.9887   1.9993
  2.0021   2.0090   2.0169   2.0197   2.0327   2.0381   2.0415   2.0462
  2.0492   2.0526   2.0561   2.0601   2.0610   2.0614   2.0619   2.0630
  2.0640   2.0647   2.0662   2.0683   2.0692   2.0699   2.0711   2.0722
  2.0732   2.0739   2.0755   2.0770   2.0803   2.0814   2.0827   2.0855
  2.0873   2.0877   2.0886   2.0897   2.0914   2.0932   2.0944   2.0958
  2.0984   2.0994   2.0997   2.1023   2.1032   2.1051   2.1062   2.1079
  2.1084   2.1088   2.1091   2.1102   2.1126   2.1133   2.1139   2.1167
  2.1199   2.1213   2.1271   2.1299   2.1301   2.1314   2.1355   2.1377
  2.1421   2.1434   2.1508   2.1538   2.1552   2.1567   2.1597   2.1667
  2.1699   2.1701   2.1720   2.1740   2.1758   2.1860   2.1908   2.1918
  2.1924   2.1938   2.1975   2.1982   2.2065   2.2096   2.2098   2.2101
  2.2118   2.2126   2.2134   2.2176   2.2178   2.2197   2.2231   2.2237
  2.2255   2.2264   2.2272   2.2278   2.2295   2.2297   2.2304   2.2313
  2.2321   2.2336   2.2342   2.2356   2.2369   2.2375   2.2435   2.2438
  2.2451   2.2457   2.2472   2.2477   2.2486   2.2498   2.2507   2.2525
  2.2530   2.2536   2.2539   2.2555   2.2561   2.2568   2.2573   2.2580
  2.2592   2.2596   2.2596   2.2618   2.2629   2.2635   2.2640   2.2654
  2.2671   2.2675   2.2684   2.2693   2.2701   2.2703   2.2724   2.2726
  2.2741   2.2748   2.2757   2.2768   2.2775   2.2785   2.2800   2.2812
  2.2819   2.2821   2.2837   2.2841   2.2846   2.2850   2.2865   2.2875
  2.2881   2.2892   2.2906   2.2920   2.2925   2.2942   2.2958   2.2974
  2.2981   2.2987   2.3000   2.3010   2.3031   2.3038   2.3051   2.3057
  2.3070   2.3084   2.3087   2.3098   2.3105   2.3108   2.3110   2.3116
  2.3124   2.3133   2.3143   2.3148   2.3153   2.3168   2.3190   2.3200
  2.3222   2.3233   2.3242   2.3254   2.3282   2.3290   2.3298   2.3321
  2.3335   2.3355   2.3370   2.3378   2.3396   2.3408   2.3419   2.3429
  2.3454   2.3463   2.3475   2.3483   2.3514   2.3521   2.3543   2.3565
  2.3595   2.3611   2.3629   2.3642   2.3676   2.3697   2.3713   2.3720
  2.3733   2.3745   2.3749   2.3755   2.3784   2.3803   2.3811   2.3840
  2.3860   2.3893   2.3908   2.3961   2.3974   2.3987   2.4020   2.4063
  2.4084   2.4146   2.4211   2.4255   2.4410   2.4427   2.4706   2.4968
  2.5053   2.5345   2.5427   2.6177   2.6755   2.7429   2.7695   2.7828
  2.8061   2.8208   2.8261   2.8273   2.8384   2.8426   2.8430   2.8442
  2.8482   2.8486   2.8499   2.8518   2.8538   2.8551   2.8619   2.8637
  2.8661   2.8692   2.8720   2.8742   2.8762   2.8791   2.8823   2.8829
  2.8850   2.8858   2.8884   2.8897   2.8930   2.8964   2.8999   2.9048
  2.9548   3.1157   3.2519   3.9540   3.9589   3.9619   3.9671   3.9683
  3.9760   3.9832   3.9848   3.9891   3.9901   3.9915   3.9934   3.9980
  3.9986   4.0000   4.0025   4.0053   4.0086   4.0125   4.0165   4.0180
  4.0186   4.0210   4.0284   4.0301   4.0364   4.0384   4.0635   4.2102
  4.2194   4.2216   4.2296   4.2329   4.2378   4.2457   4.2470   4.2483
  4.2539   4.2547   4.2563   4.2588   4.2642   4.2662   4.2693   4.2727
  4.2763   4.2765   4.2784   4.2789   4.2836   4.2845   4.2857   4.2872
  4.2908   4.2923   4.2982   4.2996   4.3021   4.3032   4.3049   4.3073
  4.3083   4.3096   4.3121   4.3184   4.3231   4.3247   4.3265   4.3272
  4.3301   4.3339   4.3353   4.3398   4.3429   4.3458   4.3481   4.3495
  4.3525   4.3571   4.3588   4.3602   4.3640   4.3685   4.3700   4.3719
  4.3738   4.3772   4.3807   4.3854   4.3879   4.3901   4.3915   4.3947
  4.4000   4.4028   4.4043   4.4132   4.4179   4.4221   4.4267   4.4360
  4.4403   4.4427   4.4615   4.4726   4.4806   4.4990   4.5125   4.5229
  4.5402   4.5532   4.5770   4.5949   4.6298   4.6508   4.6747   4.6909
  4.7055   4.7271   4.8020   4.9286
 --------------------------------------------------------------

          Ground-State Mulliken Net Atomic Charges

     Atom                 Charge (a.u.)
  ----------------------------------------
      1 C                    -0.488077
      2 C                    -0.292857
      3 C                     0.268933
      4 C                    -1.027767
      5 C                    -0.479272
      6 C                    -0.641391
      7 H                     0.230651
      8 H                     0.209296
      9 H                     0.228574
     10 H                     0.236966
     11 H                     0.203582
     12 H                     0.218113
     13 H                     0.206357
     14 H                     0.229378
     15 H                     0.203620
     16 H                     0.198587
     17 H                     0.230533
     18 N                     0.233121
     19 H                     0.511296
     20 C                    -0.627028
     21 H                     0.192332
     22 O                    -0.178512
     23 C                    -0.816057
     24 H                     0.245637
     25 H                     0.238340
     26 H                     0.304500
     27 S                     0.783228
     28 C                    -0.876310
     29 H                     0.261963
     30 H                     0.253568
     31 H                     0.275053
     32 O                    -0.674319
     33 C                    -0.980326
     34 H                     0.258295
     35 H                     0.209370
     36 H                     0.283293
     37 S                     0.960263
     38 C                    -0.819764
     39 H                     0.243727
     40 H                     0.277720
     41 H                     0.264636
     42 O                    -0.726460
     43 C                    -0.977954
     44 H                     0.255648
     45 H                     0.311943
     46 H                     0.241861
     47 S                     1.068196
     48 C                    -1.072563
     49 H                     0.283346
     50 H                     0.260364
     51 H                     0.252463
     52 O                    -0.721033
     53 C                    -0.804804
     54 H                     0.251388
     55 H                     0.232469
     56 H                     0.239161
     57 S                     0.823310
     58 C                    -0.893938
     59 H                     0.319885
     60 H                     0.275133
     61 H                     0.228990
     62 O                    -0.673694
     63 C                    -1.075206
     64 H                     0.265329
     65 H                     0.256600
     66 H                     0.240310
     67 S                     1.283300
     68 C                    -0.889521
     69 H                     0.268930
     70 H                     0.250438
     71 H                     0.235577
     72 O                    -0.675146
     73 C                    -0.824274
     74 H                     0.283116
     75 H                     0.252815
     76 H                     0.253542
     77 S                     0.828778
     78 C                    -0.825501
     79 H                     0.242380
     80 H                     0.231840
     81 H                     0.255132
     82 O                    -0.639373
     83 C                    -0.788895
     84 H                     0.261561
     85 H                     0.267009
     86 H                     0.236552
     87 S                     0.473152
     88 C                    -0.703677
     89 H                     0.246482
     90 H                     0.277473
     91 H                     0.252741
     92 O                    -0.566293
     93 C                    -0.750633
     94 H                     0.269959
     95 H                     0.267386
     96 H                     0.299815
     97 S                     0.574683
     98 C                    -0.848103
     99 H                     0.280564
    100 H                     0.244710
    101 H                     0.268304
    102 O                    -0.656976
    103 C                    -0.981011
    104 H                     0.243681
    105 H                     0.240704
    106 H                     0.262988
    107 S                     1.041970
    108 C                    -0.881878
    109 H                     0.224798
    110 H                     0.289718
    111 H                     0.258834
    112 O                    -0.680178
    113 C                    -1.139573
    114 H                     0.304188
    115 H                     0.258471
    116 H                     0.266463
    117 S                     0.918442
    118 C                    -0.806751
    119 H                     0.251706
    120 H                     0.234988
    121 H                     0.239796
    122 O                    -0.605691
    123 C                    -0.882448
    124 H                     0.308086
    125 H                     0.255532
    126 H                     0.241344
    127 S                     0.951824
    128 C                    -0.818975
    129 H                     0.238531
    130 H                     0.262436
    131 H                     0.297848
    132 O                    -0.733177
    133 C                    -0.893156
    134 H                     0.232138
    135 H                     0.255846
    136 H                     0.284465
    137 S                     1.030800
    138 C                    -0.940732
    139 H                     0.284920
    140 H                     0.235020
    141 H                     0.242576
    142 O                    -0.698615
    143 C                    -0.752473
    144 H                     0.244992
    145 H                     0.253536
    146 H                     0.283163
    147 S                     0.472208
    148 C                    -0.901766
    149 H                     0.309421
    150 H                     0.260781
    151 H                     0.286730
    152 O                    -0.560484
    153 C                    -0.864916
    154 H                     0.234376
    155 H                     0.245721
    156 H                     0.236446
    157 S                     0.897027
    158 C                    -0.811703
    159 H                     0.256788
    160 H                     0.246777
    161 H                     0.229399
    162 O                    -0.673934
    163 C                    -0.969576
    164 H                     0.263851
    165 H                     0.228866
    166 H                     0.321323
    167 S                     0.880473
    168 C                    -0.895804
    169 H                     0.243455
    170 H                     0.305287
    171 H                     0.238100
    172 O                    -0.641605
    173 C                    -0.996748
    174 H                     0.233871
    175 H                     0.244898
    176 H                     0.281932
    177 S                     1.155070
    178 C                    -1.022707
    179 H                     0.249123
    180 H                     0.273833
    181 H                     0.266978
    182 O                    -0.647314
    183 C                    -0.885956
    184 H                     0.249448
    185 H                     0.239609
    186 H                     0.254783
    187 S                     1.075947
    188 C                    -0.844721
    189 H                     0.235683
    190 H                     0.251435
    191 H                     0.253247
    192 O                    -0.760533
    193 C                    -0.770684
    194 H                     0.240976
    195 H                     0.270336
    196 H                     0.244587
    197 S                     0.817486
    198 C                    -0.803797
    199 H                     0.250523
    200 H                     0.274458
    201 H                     0.224007
    202 O                    -0.725962
    203 C                    -1.101277
    204 H                     0.243367
    205 H                     0.305289
    206 H                     0.293089
    207 S                     1.258295
    208 C                    -1.024981
    209 H                     0.273783
    210 H                     0.258194
    211 H                     0.273204
    212 O                    -0.766517
    213 C                    -0.811491
    214 H                     0.268139
    215 H                     0.264651
    216 H                     0.237799
    217 S                     0.947966
    218 C                    -0.839672
    219 H                     0.227141
    220 H                     0.265797
    221 H                     0.268968
    222 O                    -0.815511
    223 C                    -0.806857
    224 H                     0.267141
    225 H                     0.243966
    226 H                     0.228254
    227 S                     0.879236
    228 C                    -0.953069
    229 H                     0.259673
    230 H                     0.243559
    231 H                     0.305477
    232 O                    -0.657044
    233 C                    -0.883398
    234 H                     0.232855
    235 H                     0.259544
    236 H                     0.270694
    237 S                     0.930375
    238 C                    -0.883776
    239 H                     0.248058
    240 H                     0.246703
    241 H                     0.276053
    242 O                    -0.686151
    243 C                    -0.855037
    244 H                     0.235913
    245 H                     0.242641
    246 H                     0.253502
    247 S                     1.073557
    248 C                    -1.033335
    249 H                     0.236497
    250 H                     0.290228
    251 H                     0.259565
    252 O                    -0.592783
    253 C                    -0.857798
    254 H                     0.246034
    255 H                     0.247633
    256 H                     0.279377
    257 S                     0.909212
    258 C                    -0.936958
    259 H                     0.261231
    260 H                     0.245970
    261 H                     0.240497
    262 O                    -0.717371
    263 C                    -0.993198
    264 H                     0.249017
[...]
    2   2.2718105   3.7685451   1.9616735   1.0796158   0.6928528   1.3762176
    3  -2.5204640  -1.4946711  -1.5266453  -3.8186257  -1.4704945  -1.9580184
          229         230         231         232         233         234
    1  -0.4362331   0.4032398  -0.3862044   2.2810285  -0.8133947  -2.5629176
    2   3.2846886   0.4649836   0.7038891   2.7946732  -1.3685665  -1.7004083
    3  -2.1817574  -3.5330515  -0.3864999   1.1370374  -0.2344245  -0.1749992
          235         236         237         238         239         240
    1   0.3561579  -0.1267731  -0.0986425  -2.0446170  -3.5545616  -0.9176903
    2  -2.8932114   0.6853067  -0.8928431   0.0191193  -1.3013047   0.9803701
    3  -0.4435442  -0.1249772  -2.0840311  -2.0057944  -1.2508197  -1.0050758
          241         242         243         244         245         246
    1  -1.9179982  -1.8649056  -0.4713621   1.0750265  -2.2003229  -0.8772629
    2  -0.1063441  -3.1093539  -2.7836592  -3.0446917  -3.8566412  -1.4447455
    3  -3.9756987  -2.9064209  -0.1469430   0.8737522   0.4181565  -1.7263997
          247         248         249         250         251         252
    1  -0.0680970  -1.5054111  -2.3773477   0.0134603  -2.8321783  -2.8486630
    2  -0.7408870  -2.2627484  -3.7236621  -2.1144991  -0.7194568  -0.7215665
    3   0.9868193   2.0866360   1.0736821   2.3029720   2.7798474  -0.0942474
          253         254         255         256         257         258
    1   0.1076100   0.5423632  -0.8856097   0.4355953  -1.7388993  -2.0530911
    2   1.3811681   1.1533011   3.2030931  -0.4230978   1.3407741   1.2634532
    3  -1.8610878  -3.7724005  -1.4822863  -0.5877829  -2.7805423  -0.6237103
          259         260         261         262         263         264
    1  -0.5586642  -1.8536506  -3.7628551  -0.8686182   3.5634687   4.2813511
    2  -0.3727462   3.1500053   0.7734491  -1.8350860   0.3791060  -0.7821279
    3   0.0209660  -0.5918989  -1.4618386  -2.5023071  -1.5826960  -0.2627492
          265         266         267         268         269         270
    1   3.0912033   3.1381878   2.4408778   1.0349319   1.4807736   2.0135511
    2   0.2713498   2.0254674  -1.0450555  -0.1779988   1.7868312  -1.6440896
    3  -3.3695686  -0.7124364  -1.5683855  -3.3872955  -3.4435916  -3.8774743
          271         272         273         274         275         276
    1  -0.5164579   0.8605915  -1.7001767  -1.3575650  -1.3202515  -2.0519352
    2  -0.5833244   1.2473193   0.1973582  -0.0644596  -1.5363907   2.1858056
    3  -2.5881380   0.0767825   2.6412460   0.8908616   3.7355894   3.2028763
          277         278         279         280         281         282
    1   0.7564886   0.2345891  -0.6170507   2.1566775  -0.9477496   1.2805717
    2  -0.2164021   1.0724085  -0.6845343   1.5983597   2.8809219   2.8245546
    3   2.7240506   3.8914223   4.2465994   3.4987714   3.0637486   1.3206493
          283         284         285         286         287         288
    1   1.1796683   1.2624666  -0.1846902   2.6728874  -0.4950904   0.4624846
    2  -3.2276461  -2.0251885  -4.1326766  -3.1598791  -1.5968277  -2.2486134
    3   0.6435156   2.0722132   0.4717744  -0.8614999  -0.2512921  -2.1100137
          289         290         291         292         293         294
    1  -0.3542770   2.5972231  -0.3909869   1.4217978   2.9500522   4.0051541
    2  -0.7949055  -2.6294413  -3.2691818   0.6900861  -1.2118023  -0.8920529
    3  -2.4885805  -1.8213259  -1.8626037   0.0068026   0.1769299  -1.3338216
          295         296         297         298         299         300
    1   3.7538501   0.7085181   2.3984491  -0.1578758  -0.3657006  -0.4880002
    2  -0.9996373  -1.8840201   0.7867921  -0.2086903   1.3960702  -0.8794042
    3   1.7584203  -0.1439823   0.9838972   0.3216742   0.3953624  -1.4345511
          301         302
    1   0.3718342   2.5715318
    2  -0.9835434   1.1015633
    3   1.5257241  -1.7189007
 EField
            1           2           3           4           5           6
    1   0.0085153   0.0073860   0.0035778   0.0048698   0.0019798   0.0033121
    2  -0.0039247  -0.0094112  -0.0058731  -0.0017849  -0.0043442  -0.0023494
    3  -0.0017428  -0.0034523  -0.0012352   0.0003986   0.0000165  -0.0034530
            7           8           9          10          11          12
    1   0.0026219   0.0063232   0.0106838   0.0070145   0.0089889   0.0030549
    2  -0.0014956  -0.0101085   0.0005487  -0.0039329  -0.0024001   0.0015452
    3  -0.0054580  -0.0069892  -0.0002469   0.0008867  -0.0009667   0.0037321
           13          14          15          16          17          18
    1   0.0018336  -0.0005656   0.0008129   0.0030487  -0.0027193   0.0108880
    2  -0.0039601  -0.0074792  -0.0034634   0.0018115  -0.0101495  -0.0142298
    3  -0.0011077   0.0011493  -0.0051002  -0.0047517   0.0035868  -0.0091885
           19          20          21          22          23          24
    1   0.0038526   0.0094675   0.0108104   0.0073939   0.0089037   0.0228288
    2  -0.0312420  -0.0068368   0.0033612  -0.0093910  -0.0001204   0.0241916
    3  -0.0203703  -0.0045945   0.0045803  -0.0054726   0.0056120  -0.0035417
           25          26          27          28          29          30
    1  -0.0167003   0.0315725  -0.0407685  -0.0037235  -0.0180145   0.0264860
    2   0.0034048  -0.0154663   0.0353861  -0.0070780  -0.0166734  -0.0148330
    3   0.0268046   0.0050780  -0.0079868   0.0043748  -0.0185869   0.0073519
           31          32          33          34          35          36
    1  -0.0164888   0.0689226  -0.0010262  -0.0160044   0.0255962  -0.0046921
    2   0.0081117  -0.0399864   0.0088119  -0.0045897   0.0073999   0.0240095
    3   0.0283855  -0.0745311  -0.0019035   0.0294926   0.0051722  -0.0255946
           37          38          39          40          41          42
    1   0.0116805  -0.0116961  -0.0015264  -0.0160822  -0.0166687   0.0326037
    2  -0.0099178  -0.0009388   0.0153721   0.0227481  -0.0293451  -0.0451474
    3  -0.0463058  -0.0018735   0.0301803  -0.0194893  -0.0085853   0.0951387
           43          44          45          46          47          48
    1  -0.0000100  -0.0217910   0.0055091   0.0139840  -0.0035240  -0.0038008
    2  -0.0026923   0.0058724  -0.0205586  -0.0163549   0.0439661   0.0029470
    3   0.0050008   0.0242060  -0.0143326   0.0227232   0.0303032  -0.0068092
           49          50          51          52          53          54
    1   0.0116834  -0.0305393  -0.0007471   0.0914722   0.0006379   0.0333710
    2  -0.0227485   0.0098384   0.0232395  -0.0406469  -0.0035226  -0.0064323
    3  -0.0191352   0.0053677  -0.0299166  -0.0456377   0.0055471   0.0026235
           55          56          57          58          59          60
    1  -0.0150269  -0.0177227   0.0181128  -0.0084962  -0.0133366  -0.0152752
    2   0.0193676  -0.0246316   0.0555166  -0.0065292   0.0093675  -0.0336925
    3   0.0257026   0.0012088   0.0008622  -0.0055297  -0.0245542  -0.0187602
           61          62          63          64          65          66
    1  -0.0112566   0.0435558   0.0044022   0.0074753  -0.0020476   0.0159851
    2   0.0270168  -0.0739307   0.0048420   0.0288494   0.0223630  -0.0270962
    3   0.0202830  -0.0686746   0.0051118  -0.0060216   0.0318424   0.0103818
           67          68          69          70          71          72
    1  -0.0416763  -0.0079216  -0.0290841   0.0192777  -0.0148997   0.0413027
    2   0.0402229  -0.0023602  -0.0102132  -0.0211692  -0.0005680  -0.0538401
    3  -0.0015480   0.0052891   0.0030115  -0.0010088   0.0368887  -0.0849332
           73          74          75          76          77          78
    1  -0.0092000  -0.0300892   0.0104819  -0.0211910   0.0238010   0.0025888
    2  -0.0018354   0.0182222  -0.0048407  -0.0243772   0.0522518  -0.0038020
    3  -0.0008400  -0.0066568  -0.0289126   0.0122849  -0.0276602  -0.0011429
           79          80          81          82          83          84
    1   0.0004560   0.0045192   0.0231731  -0.0240750  -0.0017851   0.0161532
    2  -0.0325498  -0.0108990  -0.0017880  -0.0013701  -0.0056916  -0.0281292
    3   0.0196829  -0.0322434   0.0255768   0.1054701  -0.0023688  -0.0147864
           85          86          87          88          89          90
    1  -0.0198579  -0.0235752   0.0329610   0.0034325   0.0193103   0.0254349
    2   0.0045460   0.0002555   0.0018896  -0.0014757  -0.0270808   0.0178428
    3   0.0234429  -0.0233145  -0.0475319   0.0053980   0.0053579  -0.0012011
           91          92          93          94          95          96
    1  -0.0206004  -0.0716167  -0.0059357   0.0108239   0.0188939  -0.0302678
    2   0.0029997   0.0745982   0.0080247   0.0213000   0.0122765  -0.0000120
    3   0.0185252   0.0228340   0.0001011   0.0262856  -0.0193204  -0.0136557
           97          98          99         100         101         102
    1   0.0534861  -0.0028196  -0.0160230   0.0286518  -0.0087434  -0.0943130
    2  -0.0118046   0.0000953   0.0190812  -0.0091725  -0.0290621  -0.0376073
    3   0.0240440  -0.0067057  -0.0199095  -0.0191249  -0.0041257   0.0385709
          103         104         105         106         107         108
    1   0.0070407  -0.0206426   0.0197704   0.0248604   0.0222502  -0.0061172
    2   0.0012290   0.0087202  -0.0271885   0.0205701  -0.0015929   0.0039306
    3   0.0039007   0.0267848  -0.0010389  -0.0100327  -0.0520149   0.0073945
          109         110         111         112         113         114
    1   0.0117710  -0.0274794  -0.0143445  -0.0571073   0.0016012  -0.0125658
    2   0.0304192   0.0047635  -0.0102454  -0.0840645   0.0075308   0.0295783
    3  -0.0082591  -0.0082099   0.0314765   0.0444814  -0.0060002   0.0082234
          115         116         117         118         119         120
    1   0.0227039   0.0166434  -0.0087725   0.0062829   0.0277324  -0.0034466
    2   0.0038567   0.0016281  -0.0076486  -0.0025917   0.0006423  -0.0307599
    3   0.0117893  -0.0320448   0.0590850  -0.0024278   0.0182772   0.0046168
          121         122         123         124         125         126
    1   0.0027703  -0.0800395  -0.0049200   0.0125216  -0.0112180  -0.0295053
    2   0.0036139  -0.0145531  -0.0083077  -0.0348912   0.0238812   0.0030648
    3  -0.0300699  -0.0742761   0.0076622  -0.0059859   0.0249879  -0.0121970
          127         128         129         130         131         132
    1  -0.0198573   0.0060992  -0.0180571   0.0237573  -0.0131886   0.0856399
    2   0.0405430  -0.0083279  -0.0148792   0.0129663  -0.0302486   0.0055165
    3  -0.0309654  -0.0032602  -0.0243516  -0.0232520   0.0189934   0.0671379
          133         134         135         136         137         138
    1   0.0047410   0.0159294  -0.0020127   0.0290273  -0.0000498   0.0005228
    2  -0.0007444   0.0216003  -0.0224660  -0.0114532  -0.0345244   0.0057460
    3   0.0025383   0.0180952   0.0213668  -0.0118026  -0.0504885   0.0048321
          139         140         141         142         143         144
    1   0.0040116   0.0173568  -0.0245503  -0.0823167   0.0042529   0.0088670
    2   0.0273919   0.0091460   0.0176858  -0.0081377   0.0023656   0.0293938
    3   0.0207449  -0.0264855  -0.0102008   0.0731769   0.0041871  -0.0068786
          145         146         147         148         149         150
    1  -0.0078092   0.0265679  -0.0168778   0.0077111   0.0218557   0.0053631
    2  -0.0142573  -0.0165840  -0.0536511  -0.0052983  -0.0257285  -0.0046388
    3   0.0288158   0.0253181   0.0067254  -0.0036390   0.0117231  -0.0312762
          151         152         153         154         155         156
    1   0.0128197  -0.0549468   0.0046113  -0.0033237  -0.0074444   0.0352428
    2   0.0287919   0.0809467  -0.0022089   0.0012142  -0.0288017  -0.0116547
    3  -0.0102065  -0.0455381   0.0007613   0.0349042  -0.0079794  -0.0118643
          157         158         159         160         161         162
    1   0.0146370  -0.0056544  -0.0279081  -0.0048173  -0.0107588   0.0011817
    2   0.0533908  -0.0032733   0.0198960  -0.0323245   0.0037889  -0.0333898
    3   0.0190765  -0.0024100  -0.0027997  -0.0076035   0.0305351  -0.1054857
          163         164         165         166         167         168
    1  -0.0038187   0.0209836   0.0070576  -0.0296160   0.0522351  -0.0099095
    2  -0.0006800  -0.0207481   0.0239476   0.0032202   0.0138530   0.0042969
    3   0.0115824   0.0118761   0.0154922   0.0137331  -0.0217092   0.0020046
          169         170         171         172         173         174
    1  -0.0091254  -0.0229175   0.0123752  -0.0599819  -0.0064629   0.0189250
    2   0.0093327  -0.0039400   0.0277374  -0.0850754   0.0028368  -0.0068695
    3  -0.0302042   0.0214604   0.0094246  -0.0361835   0.0083960   0.0259331
          175         176         177         178         179         180
    1  -0.0016074  -0.0296416   0.0273002   0.0074045  -0.0174937   0.0273150
    2   0.0325322  -0.0070326  -0.0464789   0.0075995   0.0264190  -0.0010097
    3  -0.0016613  -0.0079377   0.0067495   0.0016673   0.0001042   0.0225679
          181         182         183         184         185         186
    1   0.0132696  -0.0677472   0.0059301  -0.0016472   0.0241683   0.0200769
    2   0.0007583   0.0229182  -0.0026860   0.0134143  -0.0281889   0.0150252
    3  -0.0270759  -0.0834693   0.0011686   0.0267390   0.0006198  -0.0149071
          187         188         189         190         191         192
    1  -0.0317324   0.0054076  -0.0273816   0.0225504   0.0087893  -0.0208489
    2  -0.0385880  -0.0011659  -0.0075487   0.0275741  -0.0317252   0.1075498
    3   0.0161536  -0.0048079  -0.0185192   0.0037814  -0.0158358   0.0141663
          193         194         195         196         197         198
    1   0.0065458   0.0074254   0.0158294   0.0271106  -0.0197248  -0.0007925
    2  -0.0022449   0.0304206  -0.0296557   0.0020911   0.0491440  -0.0041293
    3   0.0031690   0.0155186   0.0103366  -0.0174591  -0.0155792   0.0047454
          199         200         201         202         203         204
    1  -0.0315202   0.0107125  -0.0050252  -0.0057298   0.0051284   0.0203039
    2  -0.0030078  -0.0265907   0.0196546  -0.0911631   0.0074120  -0.0008678
    3   0.0036413   0.0111382   0.0311938  -0.0610683   0.0037267  -0.0328526
          205         206         207         208         209         210
    1  -0.0089577   0.0052211  -0.0017478  -0.0021271  -0.0269368   0.0083345
    2   0.0295851  -0.0097163  -0.0426803   0.0077377   0.0159777   0.0277335
    3   0.0177507   0.0214730  -0.0308782  -0.0101606  -0.0005386   0.0119933
          211         212         213         214         215         216
    1   0.0020055  -0.0682902  -0.0040057  -0.0059778   0.0224265  -0.0264469
    2  -0.0067104   0.0370689   0.0068415   0.0311220  -0.0053087  -0.0122328
    3  -0.0371698   0.0756823  -0.0069497   0.0094563  -0.0218196  -0.0194225
          217         218         219         220         221         222
    1   0.0118799  -0.0068035  -0.0326237   0.0080462  -0.0055362   0.0651172
    2  -0.0511162   0.0023235  -0.0119548  -0.0244494   0.0363182   0.0756594
    3  -0.0053581   0.0046863  -0.0043058   0.0272881  -0.0138565   0.0460444
          223         224         225         226         227         228
    1   0.0003682  -0.0123322   0.0307957  -0.0038747   0.0273447  -0.0115436
    2   0.0061747   0.0281551   0.0115309  -0.0078695  -0.0498767  -0.0005541
    3  -0.0012212   0.0077252  -0.0070638  -0.0322607  -0.0069164   0.0005621
          229         230         231         232         233         234
    1  -0.0082776  -0.0006124  -0.0065638   0.0074454   0.0017233  -0.0318578
    2   0.0319072  -0.0205187  -0.0135646   0.0618820  -0.0006934  -0.0060525
    3  -0.0017973  -0.0270553   0.0277160   0.0906952   0.0087703   0.0060690
          235         236         237         238         239         240
    1   0.0241062   0.0182587   0.0520618  -0.0062915  -0.0249508   0.0064100
    2  -0.0192031   0.0260078   0.0220725   0.0078664  -0.0151041   0.0285670
    3   0.0048241   0.0102018  -0.0217051  -0.0020088   0.0155809   0.0101911
          241         242         243         244         245         246
    1   0.0007735  -0.0531713   0.0030435   0.0265506  -0.0204117   0.0020665
    2   0.0090459  -0.0815517  -0.0057282  -0.0167020  -0.0206200   0.0060086
    3  -0.0307299  -0.0511370  -0.0080229   0.0075093   0.0020220  -0.0277621
          247         248         249         250         251         252
    1   0.0453068  -0.0025643  -0.0160237   0.0288387  -0.0237617  -0.0964798
    2   0.0284800  -0.0069099  -0.0261827  -0.0052878   0.0099989   0.0209169
    3   0.0058549   0.0092125  -0.0115857   0.0178806   0.0221025  -0.0483312
          253         254         255         256         257         258
    1   0.0101764   0.0282649   0.0047833   0.0108694  -0.0194978  -0.0048516
    2   0.0032636  -0.0017876   0.0285550  -0.0201431   0.0296986  -0.0008293
    3  -0.0000909  -0.0205793   0.0138997   0.0176561  -0.0318329   0.0062338
          259         260         261         262         263         264
    1   0.0155535   0.0054198  -0.0312718   0.0199305   0.0075335   0.0229526
    2  -0.0182792   0.0296720  -0.0102449  -0.1089878   0.0077469  -0.0143544
    3   0.0161733   0.0107936   0.0075248  -0.0041814   0.0005540   0.0167850
          265         266         267         268         269         270
    1   0.0032178  -0.0056863   0.0054835  -0.0040592   0.0047412   0.0066676
    2  -0.0041116   0.0282214  -0.0601567  -0.0000536   0.0284567  -0.0183251
    3  -0.0333525   0.0166191   0.0118012  -0.0055736  -0.0119739  -0.0282955
          271         272         273         274         275         276
    1  -0.0284485  -0.0565087  -0.0057440  -0.0091047  -0.0316687  -0.0207756
    2  -0.0095297   0.0654388  -0.0013906  -0.0118504  -0.0229754   0.0173124
    3   0.0053418   0.0665072  -0.0031932  -0.0230236   0.0213837   0.0183044
          277         278         279         280         281         282
    1   0.0234495   0.0013130  -0.0129884   0.0308126  -0.0227642   0.0252250
    2  -0.0488086   0.0070694  -0.0152767   0.0039669   0.0254831   0.0859347
    3  -0.0023535   0.0052974   0.0258640   0.0150805   0.0067285  -0.0633326
          283         284         285         286         287         288
    1   0.0039976   0.0073503  -0.0131155   0.0281197  -0.0605663   0.0009198
    2  -0.0029409   0.0052443  -0.0292580  -0.0127252   0.0048634  -0.0018086
    3   0.0017860   0.0299630  -0.0004024  -0.0110040   0.0155306  -0.0097822
          289         290         291         292         293         294
    1  -0.0076191   0.0297776  -0.0109769   0.0636003   0.0022278   0.0165170
    2   0.0291121  -0.0073971  -0.0314293   0.1071055  -0.0088734  -0.0001836
    3  -0.0191906  -0.0123517   0.0031206   0.0191937   0.0014888  -0.0235089
          295         296         297         298         299         300
    1   0.0144581  -0.0213409   0.0189150  -0.0089547  -0.0172446  -0.0108599
    2  -0.0034956  -0.0246575   0.0288980  -0.0004271   0.0220298  -0.0212683
    3   0.0275572  -0.0064333   0.0481630  -0.0003280   0.0103483  -0.0264016
          301         302
    1  -0.0142423   0.0129338
    2  -0.0229952   0.0306657
    3   0.0225094  -0.1029118
  --- DONE ESP SUMMARY ---
 Total job time:  35.14s(wall), 90.46s(cpu) 
 Thu Jul 21 09:06:46 2022

        *************************************************************
        *                                                           *
        *  Thank you very much for using Q-Chem.  Have a nice day.  *
        *                                                           *
        *************************************************************


