                  Welcome to Q-Chem
     A Quantum Leap Into The Future Of Chemistry


 Q-Chem 6.0 (devel), Q-Chem, Inc., Pleasanton, CA (2022)

 E. Epifanovsky,  A. T. B. Gilbert,  Xintian Feng,  Joonho Lee,  Yuezhi Mao,  
 N. Mardirossian,  P. Pokhilko,  A. White,  M. Wormit,  M. P. Coons,  
 A. L. Dempwolff,  Zhengting Gan,  D. Hait,  P. R. Horn,  L. D. Jacobson,  
 I. Kaliman,  J. Kussmann,  A. W. Lange,  Ka Un Lao,  D. S. Levine,  Jie Liu,  
 S. C. McKenzie,  A. F. Morrison,  K. Nanda,  F. Plasser,  D. R. Rehn,  
 M. L. Vidal,  Zhi-Qiang You,  Ying Zhu,  B. Alam,  B. Albrecht,  
 A. Aldossary,  E. Alguire,  J. H. Andersen,  V. Athavale,  D. Barton,  
 K. Begam,  A. Behn,  N. Bellonzi,  Y. A. Bernard,  E. J. Berquist,  
 H. Burton,  A. Carreras,  K. Carter-Fenk,  Romit Chakraborty,  
 Chandrima Chakravarty,  Junhan Chen,  A. D. Chien,  K. D. Closser,  
 V. Cofer-Shabica,  L. Cunha,  S. Dasgupta,  Jia Deng,  M. de Wergifosse,  
 M. Diedenhofen,  Hainam Do,  S. Ehlert,  Po-Tung Fang,  S. Fatehi,  
 Qingguo Feng,  T. Friedhoff,  B. Ganoe,  J. Gayvert,  Qinghui Ge,  
 G. Gidofalvi,  M. Goldey,  J. Gomes,  C. Gonzalez-Espinoza,  S. Gulania,  
 A. Gunina,  J. A. Gyamfi,  M. W. D. Hanson-Heine,  P. H. P. Harbach,  
 A. W. Hauser,  M. F. Herbst,  M. Hernandez Vera,  M. Hodecker,  
 Z. C. Holden,  S. Houck,  Xunkun Huang,  Kerwin Hui,  B. C. Huynh,  
 K. Ikeda,  M. Ivanov,  Hyunjun Ji,  Zuxin Jin,  Hanjie Jiang,  B. Kaduk,  
 S. Kaehler,  R. Kang,  K. Khistyaev,  Jaehoon Kim,  Yongbin Kim,  
 P. Klunzinger,  Z. Koczor-Benda,  Joong Hoon Koh,  D. Kosenkov,  
 Saikiran Kotaru,  L. Koulias,  T. Kowalczyk,  C. M. Krauter,  K. Kue,  
 A. Kunitsa,  T. Kus,  A. Landau,  K. V. Lawler,  D. Lefrancois,  S. Lehtola,  
 Rain Li,  Shaozhi Li,  Yi-Pei Li,  Jiashu Liang,  M. Liebenthal,  
 Hung-Hsuan Lin,  You-Sheng Lin,  Fenglai Liu,  Kuan-Yu Liu,  
 M. Loipersberger,  A. Luenser,  C. Malbon,  A. Manjanath,  P. Manohar,  
 E. Mansoor,  S. F. Manzer,  Shan-Ping Mao,  A. V. Marenich,  T. Markovich,  
 S. Mason,  F. Matz,  S. A. Maurer,  P. F. McLaughlin,  M. F. S. J. Menger,  
 J.-M. Mewes,  S. A. Mewes,  P. Morgante,  Mohammad Mostafanejad,  
 J. W. Mullinax,  K. J. Oosterbaan,  G. Paran,  V. Parravicini,  
 Alexander C. Paul,  Suranjan K. Paul,  F. Pavosevic,  Zheng Pei,  S. Prager,  
 E. I. Proynov,  E. Ramos,  B. Rana,  A. E. Rask,  A. Rettig,  R. M. Richard,  
 F. Rob,  E. Rossomme,  T. Scheele,  M. Scheurer,  M. Schneider,  
 P. E. Schneider,  N. Sergueev,  S. M. Sharada,  Hengyuan Shen,  
 W. Skomorowski,  D. W. Small,  C. J. Stein,  Yingli Su,  Yu-Chuan Su,  
 E. J. Sundstrom,  Zhen Tao,  J. Thirman,  Hung-Yi Tsai,  T. Tsuchimochi,  
 N. M. Tubman,  C. Utku,  S. P. Veccham,  O. Vydrov,  J. Wenzel,  
 Jonathan Wong,  J. Witte,  A. Yamada,  Chou-Hsun Yang,  Kun Yao,  
 S. Yeganeh,  S. R. Yost,  A. Zech,  F. Zeller,  Igor Ying Zhang,  
 Xing Zhang,  Yu Zhang,  D. Zuev,  A. Aspuru-Guzik,  A. T. Bell,  
 N. A. Besley,  K. B. Bravaya,  B. R. Brooks,  D. Casanova,  Jeng-Da Chai,  
 Hsing-Ta Chen,  S. Coriani,  C. J. Cramer,  A. E. DePrince, III,  
 R. A. DiStasio Jr.,  A. Dreuw,  B. D. Dunietz,  T. R. Furlani,  
 W. A. Goddard III,  S. Grimme,  S. Hammes-Schiffer,  T. Head-Gordon,  
 W. J. Hehre,  Chao-Ping Hsu,  T.-C. Jagau,  Yousung Jung,  A. Klamt,  
 Jing Kong,  D. S. Lambrecht,  Xiangyuan Li,  WanZhen Liang,  N. J. Mayhall,  
 C. W. McCurdy,  J. B. Neaton,  T. Neudecker,  C. Ochsenfeld,  
 J. A. Parkhill,  R. Peverati,  V. A. Rassolov,  Haisheng Ren,  Yihan Shao,  
 L. V. Slipchenko,  R. P. Steele,  J. E. Subotnik,  A. J. W. Thom,  
 A. Tkatchenko,  D. G. Truhlar,  T. Van Voorhis,  Fan Wang,  
 T. A. Wesolowski,  K. B. Whaley,  H. L. Woodcock III,  P. M. Zimmerman,  
 S. Faraji,  P. M. W. Gill,  M. Head-Gordon,  J. M. Herbert,  A. I. Krylov

 Contributors to earlier versions of Q-Chem not listed above: 
 R. D. Adamson,  B. Austin,  R. Baer,  J. Baker,  G. J. O. Beran,  
 K. Brandhorst,  S. T. Brown,  E. F. C. Byrd,  Arup K. Chakraborty,  
 G. K. L. Chan,  Chun-Min Chang,  Yunqing Chen,  C.-L. Cheng,  
 Siu Hung Chien,  D. M. Chipman,  D. L. Crittenden,  H. Dachsel,  
 R. J. Doerksen,  A. D. Dutoi,  R. G. Edgar,  J. Fosso-Tande,  
 L. Fusti-Molnar,  D. Ghosh,  A. Ghysels,  A. Golubeva-Zadorozhnaya,  
 J. Gonthier,  M. S. Gordon,  S. R. Gwaltney,  G. Hawkins,  J. E. Herr,  
 A. Heyden,  S. Hirata,  E. G. Hohenstein,  G. Kedziora,  F. J. Keil,  
 C. Kelley,  Jihan Kim,  R. A. King,  R. Z. Khaliullin,  P. P. Korambath,  
 W. Kurlancheek,  A. Laurent,  A. M. Lee,  M. S. Lee,  S. V. Levchenko,  
 Ching Yeh Lin,  D. Liotard,  E. Livshits,  R. C. Lochan,  I. Lotan,  
 L. A. Martinez-Martinez,  P. E. Maslen,  N. Nair,  D. P. O'Neill,  
 D. Neuhauser,  E. Neuscamman,  C. M. Oana,  R. Olivares-Amaya,  R. Olson,  
 T. M. Perrine,  B. Peters,  P. A. Pieniazek,  A. Prociuk,  Y. M. Rhee,  
 J. Ritchie,  M. A. Rohrdanz,  E. Rosta,  N. J. Russ,  H. F. Schaefer III,  
 M. W. Schmidt,  N. E. Schultz,  S. Sharma,  N. Shenvi,  C. D. Sherrill,  
 A. C. Simmonett,  A. Sodt,  T. Stein,  D. Stuck,  K. S. Thanthiriwatte,  
 V. Vanovschi,  L. Vogt,  Tao Wang,  A. Warshel,  M. A. Watson,  
 C. F. Williams,  Q. Wu,  X. Xu,  Jun Yang,  W. Zhang,  Yan Zhao

   Please cite Q-Chem as follows:
  "Software for the frontiers of quantum chemistry:
   An overview of developments in the Q-Chem 5 package"
   J. Chem. Phys. 155, 084801 (2021)
   https://doi.org/10.1063/5.0055522 (open access)

 Q-Chem 6.0.0 for Intel X86 EM64T Linux

 Parts of Q-Chem use Armadillo 9.900.5 (Nocturnal Misbehaviour).
 http://arma.sourceforge.net/

 Q-Chem begins on Thu Jul 21 03:13:29 2022  

 Host: nid00534
0

     Scratch files written to /global/cscratch1/sd/ymao90/r7.00_frame_0066_spade_B3LYP_dp20220721031327//
 Processing $rem in /global/homes/y/ymao90/my_qchem/qchem_embedding_5p4/config/preferences:
 Processing $rem in /global/homes/y/ymao90/.qchemrc:
 No nuclear gradient supported for projection-based embedding or EMFT. Set max ideriv = 0.

 Checking the input file for inconsistencies... 	...done.

--------------------------------------------------------------
User input:
--------------------------------------------------------------
$molecule
0 1
--
0 1
C    26.73600   22.17400   27.09200  
C    27.01200   23.53700   27.74700  
C    27.51600   24.59100   26.74800  
C    26.78500   24.65800   25.39700  
C    26.44100   23.27500   24.81900  
C    25.86700   22.26500   25.82700  
H    27.45800   25.57300   27.23300  
H    26.06900   23.90000   28.17400  
H    27.66700   21.60200   26.98900  
H    26.22300   21.65600   27.91200  
H    25.93900   25.34900   25.49100  
H    27.39300   25.23200   24.68600  
H    25.66500   23.50200   24.07800  
H    27.39600   22.88600   24.44700  
H    24.83600   22.56500   26.05000  
H    25.80700   21.27300   25.36400  
H    28.57300   24.40200   26.52700  
N    27.87900   23.33200   28.90600  
H    28.85600   23.11700   28.75100  
C    27.50700   23.53300   30.21900  
H    28.35400   23.43800   30.92300  
O    26.38800   23.91200   30.51300  
--
0 1
C    23.98000   30.15800   23.78300  
H    23.59400   30.96900   23.15900  
H    23.87200   30.42400   24.83700  
H    25.05700   30.12700   23.60000  
S    23.39200   28.57900   23.13300  
C    24.56300   27.59000   24.08900  
H    25.58000   27.98300   24.01400  
H    24.27100   27.58100   25.14300  
H    24.56200   26.54400   23.77100  
O    23.84200   28.45300   21.71000  
C    24.22000   26.65700   32.07600  
H    23.71200   27.17200   31.25700  
H    24.81700   27.38000   32.63700  
H    24.93600   25.94000   31.66700  
S    23.07400   25.82000   33.19600  
C    22.04500   25.03300   31.93700  
H    21.66500   25.84500   31.31200  
H    22.58100   24.18400   31.50500  
H    21.17300   24.61400   32.44400  
O    22.30900   26.96900   33.77500  
C    29.19200   26.27500   30.49500  
H    29.43000   25.75700   31.42800  
H    28.13500   26.12000   30.26500  
H    29.77400   25.88300   29.65800  
S    29.42400   28.01600   30.92100  
C    28.25200   28.25200   32.27600  
H    27.31700   27.78800   31.95400  
H    28.73000   27.80100   33.15000  
H    27.98100   29.25900   32.60500  
O    28.79600   28.73800   29.76900  
C    31.60100   24.82800   34.93300  
H    30.56700   25.07800   35.18700  
H    31.80600   23.78900   35.20200  
H    32.34100   25.46800   35.41900  
S    31.94300   25.08800   33.17700  
C    33.71800   24.75200   33.21900  
H    33.77900   23.66500   33.31300  
H    34.17900   25.17400   32.32200  
H    34.07600   25.17700   34.16000  
O    32.11000   26.56800   33.02900  
C    26.18100   19.85800   22.73400  
H    26.15700   19.12400   21.92500  
H    25.30000   19.75600   23.37200  
H    26.25800   20.90600   22.43200  
S    27.49600   19.35800   23.86800  
C    28.66500   20.05000   22.67600  
H    28.70900   21.14200   22.68900  
H    29.63000   19.63800   22.98300  
H    28.45900   19.65800   21.67700  
O    27.43500   17.86600   23.76500  
C    23.40300   20.90800   35.17400  
H    23.14200   19.86400   35.36500  
H    23.57000   20.87800   34.09400  
H    24.38800   21.07300   35.61900  
S    22.23800   22.25100   35.49300  
C    21.02100   21.19600   36.31100  
H    21.35600   20.90700   37.31100  
H    19.99900   21.58200   36.34500  
H    20.87900   20.33600   35.65100  
O    21.60300   22.33300   34.14000  
C    31.20200   20.60100   27.35700  
H    31.01100   21.02700   26.36800  
H    30.31500   20.17000   27.82700  
H    31.37300   21.48900   27.97100  
S    32.60900   19.50500   27.06400  
C    31.56900   18.07300   26.70000  
H    31.32700   17.61000   27.66000  
H    30.61000   18.30900   26.23100  
H    32.06000   17.34300   26.05100  
O    33.16900   19.32900   28.44100  
C    31.45200   20.16000   30.78100  
H    32.47500   19.85900   31.01900  
H    30.96400   19.42400   30.13700  
H    31.46600   21.11400   30.24600  
S    30.49200   20.48300   32.27700  
C    28.82200   20.56700   31.59400  
H    28.13300   20.83200   32.40000  
H    28.76400   21.26500   30.75500  
H    28.50100   19.62200   31.14600  
O    30.88300   21.89200   32.59900  
C    27.63200   24.09400   18.39700  
H    26.88900   24.57600   19.03700  
H    28.55700   24.67400   18.45600  
H    27.25500   23.91500   17.38600  
S    28.07500   22.60400   19.31900  
C    26.49900   21.75800   19.06500  
H    25.66900   22.46800   19.10200  
H    26.52900   21.25800   18.09300  
H    26.38000   20.93600   19.77600  
O    27.97300   22.94700   20.77300  
C    25.48800   23.78300   34.77400  
H    25.59000   24.83500   35.05300  
H    25.15600   23.90800   33.74000  
H    24.78500   23.18100   35.35500  
S    26.96700   22.75100   34.88400  
C    27.96400   23.66300   33.68500  
H    28.92700   23.17700   33.50600  
H    27.43300   23.53000   32.73800  
H    27.86100   24.72400   33.92700  
O    26.48400   21.60600   34.05000  
C    21.34400   19.76500   25.35200  
H    20.91300   18.76000   25.36500  
H    20.87700   20.35600   24.55900  
H    22.41900   19.66300   25.18400  
S    21.09500   20.63400   26.91600  
C    19.35000   20.17800   27.01600  
H    19.38300   19.09300   27.13900  
H    18.88900   20.79100   27.79500  
H    19.03700   20.40000   25.99300  
O    20.93500   22.07400   26.54100  
C    21.66700   29.58900   30.98000  
H    21.52300   29.30600   32.02500  
H    22.64100   30.07000   30.85800  
H    20.86800   30.23700   30.61200  
S    21.69300   28.16100   29.87200  
C    21.73600   29.11900   28.34100  
H    21.30600   28.45600   27.58700  
H    21.09200   29.97600   28.55300  
H    22.79500   29.22200   28.08800  
O    20.29500   27.62500   29.90100  
C    29.21600   29.77900   26.67200  
H    30.08700   30.22000   26.18200  
H    28.32500   30.30100   26.31200  
H    29.28900   29.88000   27.75800  
S    29.13900   28.00800   26.31800  
C    30.82500   27.69500   26.88800  
H    31.37300   28.59600   26.60100  
H    30.84800   27.52100   27.96700  
H    31.22800   26.85200   26.32100  
O    29.32600   27.86500   24.83900  
C    29.60800   27.68500   20.61900  
H    29.87400   26.71300   20.19500  
H    29.90900   28.42700   19.87500  
H    30.17500   27.86300   21.53600  
S    27.81000   27.58700   20.77500  
C    27.84700   26.02200   21.67900  
H    26.79200   25.76600   21.80300  
H    28.43300   25.21800   21.22700  
H    28.32000   26.33000   22.61400  
O    27.38500   27.09400   19.42700  
C    26.00000   31.74300   28.72300  
H    25.75200   31.54400   29.76900  
H    27.05900   31.54600   28.54200  
H    25.68800   32.74900   28.43200  
S    25.03800   30.60700   27.69700  
C    25.98000   29.14500   28.18600  
H    25.88500   28.34300   27.44900  
H    27.02400   29.46800   28.21000  
H    25.72400   28.80400   29.19200  
O    25.71600   30.84700   26.38500  
C    20.51100   25.25000   22.62800  
H    21.30300   24.97600   23.32800  
H    20.70500   24.57500   21.79000  
H    20.74000   26.26600   22.29600  
S    18.88500   24.86200   23.31500  
C    19.36000   23.15700   23.67700  
H    20.21800   23.03700   24.34400  
H    18.45900   22.83000   24.20300  
H    19.54000   22.72000   22.69200  
O    18.05700   24.75400   22.07200  
C    22.69700   25.25800   25.74900  
H    23.39000   25.04000   24.93200  
H    21.85000   24.56800   25.71900  
H    22.19200   26.22700   25.74900  
S    23.56000   25.25800   27.33600  
C    22.07600   25.14500   28.36100  
H    22.32700   25.48400   29.37000  
H    21.43200   25.86900   27.85600  
H    21.59500   24.16800   28.27200  
O    24.07700   26.65800   27.44900  
C    22.59400   16.76000   22.89600  
H    22.65200   16.97500   21.82600  
H    22.12400   15.79000   23.08300  
H    22.10100   17.60000   23.39200  
S    24.27400   16.71400   23.55900  
C    24.49200   14.93100   23.36200  
H    24.55900   14.75300   22.28500  
H    25.41700   14.69200   23.89300  
H    23.61800   14.42100   23.77400  
O    23.86000   16.69000   24.99700  
C    30.44300   30.82700   23.31100  
H    31.35600   31.41300   23.17900  
H    29.93900   31.17500   24.21600  
H    30.58600   29.75000   23.19400  
S    29.18700   31.32500   22.11000  
C    28.00100   30.12200   22.75200  
H    27.12500   29.96400   22.11800  
H    28.59000   29.20100   22.77900  
H    27.75400   30.32500   23.79800  
O    29.52300   30.71800   20.78400  
C    22.22000   21.29400   19.62500  
H    22.76900   20.54600   19.04600  
H    21.16800   21.04300   19.78500  
H    22.23200   22.23000   19.06000  
S    22.92800   21.71400   21.23300  
C    22.72900   20.07900   21.97700  
H    21.65200   19.89300   21.96800  
H    23.19600   19.33700   21.32400  
H    23.19000   20.06600   22.96800  
O    21.89300   22.55400   21.91300  
C    24.63300   21.40300   31.77600  
H    25.41600   22.13800   31.98000  
H    23.64200   21.51500   32.22400  
H    24.97500   20.53400   32.34500  
S    24.50000   20.94100   30.03400  
C    23.30800   22.17700   29.47200  
H    23.69200   23.20100   29.47300  
H    23.00000   21.89400   28.46200  
H    22.45400   22.11900   30.15100  
O    23.66300   19.70100   30.09500  
C    23.80300   26.89700   18.62100  
H    23.27100   27.64300   19.21700  
H    24.86100   27.08700   18.81900  
H    23.62800   27.08800   17.55900  
S    23.24500   25.23300   19.04900  
C    24.26600   25.13200   20.53600  
H    25.25000   25.43900   20.17300  
H    23.99300   25.76700   21.38300  
H    24.32000   24.09300   20.87000  
O    23.90700   24.29900   18.08400  
C    31.89200   23.13200   21.88100  
H    32.64200   23.36800   21.12200  
H    32.07000   22.26100   22.51700  
H    30.96600   23.05500   21.30600  
S    31.87300   24.53800   23.01600  
C    30.27200   24.25700   23.80500  
H    29.91200   25.18000   24.26600  
H    29.59000   24.02200   22.98300  
H    30.21200   23.49500   24.58700  
O    31.65000   25.64600   22.03600  
C    27.06900   26.36000   37.33500  
H    27.73600   26.40000   38.20000  
H    26.11200   26.78800   37.64300  
H    26.98400   25.31500   37.02800  
S    27.69700   27.22500   35.87800  
C    27.55700   28.82900   36.69700  
H    28.27900   28.74800   37.51300  
H    27.78900   29.67700   36.04700  
H    26.56900   28.96500   37.14400  
O    26.55700   27.37500   34.92000  
C    25.67400   18.57100   27.34000  
H    24.89300   17.88200   27.67300  
H    25.60100   19.60600   27.68100  
H    25.67100   18.63900   26.24900  
S    27.25400   17.83900   27.82600  
C    26.64600   17.52500   29.49800  
H    25.60000   17.20900   29.46700  
H    27.38000   16.77600   29.80800  
H    26.74100   18.43900   30.09000  
O    28.16200   19.01700   28.00100  
C    33.98900   24.09400   28.13700  
H    33.79500   24.57100   27.17400  
H    34.90200   24.56400   28.51200  
H    34.11900   23.04900   27.84400  
S    32.71200   24.34500   29.39100  
C    33.42600   23.06600   30.45000  
H    34.42900   23.30300   30.81300  
H    32.74400   22.94400   31.29500  
H    33.55100   22.15000   29.86800  
O    31.46500   23.77700   28.78900  
$end

$rem
JOBTYPE  SP
METHOD  B3LYP
BASIS  6-31+G(D)
SYMMETRY  FALSE
SYM_IGNORE  TRUE
MEM_TOTAL  12000
MEM_STATIC  4000
BASIS_LIN_DEP_THRESH  6
THRESH  14
SCF_CONVERGENCE  8
FD_MAT_VEC_PROD  FALSE
XC_GRID  000075000302
NL_GRID  1
MAX_SCF_CYCLES  200
ENV_METHOD  B3LYP
GEN_SCFMAN_EMBED  TRUE
SPADE_PARTITION  TRUE
EMBEDDING_EARLY_STOP  TRUE
$end

--------------------------------------------------------------
 ----------------------------------------------------------------
             Standard Nuclear Orientation (Angstroms)
    I     Atom           X                Y                Z
 ----------------------------------------------------------------
    1      C      26.7360000000    22.1740000000    27.0920000000
    2      C      27.0120000000    23.5370000000    27.7470000000
    3      C      27.5160000000    24.5910000000    26.7480000000
    4      C      26.7850000000    24.6580000000    25.3970000000
    5      C      26.4410000000    23.2750000000    24.8190000000
    6      C      25.8670000000    22.2650000000    25.8270000000
    7      H      27.4580000000    25.5730000000    27.2330000000
    8      H      26.0690000000    23.9000000000    28.1740000000
    9      H      27.6670000000    21.6020000000    26.9890000000
   10      H      26.2230000000    21.6560000000    27.9120000000
   11      H      25.9390000000    25.3490000000    25.4910000000
   12      H      27.3930000000    25.2320000000    24.6860000000
   13      H      25.6650000000    23.5020000000    24.0780000000
   14      H      27.3960000000    22.8860000000    24.4470000000
   15      H      24.8360000000    22.5650000000    26.0500000000
   16      H      25.8070000000    21.2730000000    25.3640000000
   17      H      28.5730000000    24.4020000000    26.5270000000
   18      N      27.8790000000    23.3320000000    28.9060000000
   19      H      28.8560000000    23.1170000000    28.7510000000
   20      C      27.5070000000    23.5330000000    30.2190000000
   21      H      28.3540000000    23.4380000000    30.9230000000
   22      O      26.3880000000    23.9120000000    30.5130000000
   23      C      23.9800000000    30.1580000000    23.7830000000
   24      H      23.5940000000    30.9690000000    23.1590000000
   25      H      23.8720000000    30.4240000000    24.8370000000
   26      H      25.0570000000    30.1270000000    23.6000000000
   27      S      23.3920000000    28.5790000000    23.1330000000
   28      C      24.5630000000    27.5900000000    24.0890000000
   29      H      25.5800000000    27.9830000000    24.0140000000
   30      H      24.2710000000    27.5810000000    25.1430000000
   31      H      24.5620000000    26.5440000000    23.7710000000
   32      O      23.8420000000    28.4530000000    21.7100000000
   33      C      24.2200000000    26.6570000000    32.0760000000
   34      H      23.7120000000    27.1720000000    31.2570000000
   35      H      24.8170000000    27.3800000000    32.6370000000
   36      H      24.9360000000    25.9400000000    31.6670000000
   37      S      23.0740000000    25.8200000000    33.1960000000
   38      C      22.0450000000    25.0330000000    31.9370000000
   39      H      21.6650000000    25.8450000000    31.3120000000
   40      H      22.5810000000    24.1840000000    31.5050000000
   41      H      21.1730000000    24.6140000000    32.4440000000
   42      O      22.3090000000    26.9690000000    33.7750000000
   43      C      29.1920000000    26.2750000000    30.4950000000
   44      H      29.4300000000    25.7570000000    31.4280000000
   45      H      28.1350000000    26.1200000000    30.2650000000
   46      H      29.7740000000    25.8830000000    29.6580000000
   47      S      29.4240000000    28.0160000000    30.9210000000
   48      C      28.2520000000    28.2520000000    32.2760000000
   49      H      27.3170000000    27.7880000000    31.9540000000
   50      H      28.7300000000    27.8010000000    33.1500000000
   51      H      27.9810000000    29.2590000000    32.6050000000
   52      O      28.7960000000    28.7380000000    29.7690000000
   53      C      31.6010000000    24.8280000000    34.9330000000
   54      H      30.5670000000    25.0780000000    35.1870000000
   55      H      31.8060000000    23.7890000000    35.2020000000
   56      H      32.3410000000    25.4680000000    35.4190000000
   57      S      31.9430000000    25.0880000000    33.1770000000
   58      C      33.7180000000    24.7520000000    33.2190000000
   59      H      33.7790000000    23.6650000000    33.3130000000
   60      H      34.1790000000    25.1740000000    32.3220000000
   61      H      34.0760000000    25.1770000000    34.1600000000
   62      O      32.1100000000    26.5680000000    33.0290000000
   63      C      26.1810000000    19.8580000000    22.7340000000
   64      H      26.1570000000    19.1240000000    21.9250000000
   65      H      25.3000000000    19.7560000000    23.3720000000
   66      H      26.2580000000    20.9060000000    22.4320000000
   67      S      27.4960000000    19.3580000000    23.8680000000
   68      C      28.6650000000    20.0500000000    22.6760000000
   69      H      28.7090000000    21.1420000000    22.6890000000
   70      H      29.6300000000    19.6380000000    22.9830000000
   71      H      28.4590000000    19.6580000000    21.6770000000
   72      O      27.4350000000    17.8660000000    23.7650000000
   73      C      23.4030000000    20.9080000000    35.1740000000
   74      H      23.1420000000    19.8640000000    35.3650000000
   75      H      23.5700000000    20.8780000000    34.0940000000
   76      H      24.3880000000    21.0730000000    35.6190000000
   77      S      22.2380000000    22.2510000000    35.4930000000
   78      C      21.0210000000    21.1960000000    36.3110000000
   79      H      21.3560000000    20.9070000000    37.3110000000
   80      H      19.9990000000    21.5820000000    36.3450000000
   81      H      20.8790000000    20.3360000000    35.6510000000
   82      O      21.6030000000    22.3330000000    34.1400000000
   83      C      31.2020000000    20.6010000000    27.3570000000
   84      H      31.0110000000    21.0270000000    26.3680000000
   85      H      30.3150000000    20.1700000000    27.8270000000
   86      H      31.3730000000    21.4890000000    27.9710000000
   87      S      32.6090000000    19.5050000000    27.0640000000
   88      C      31.5690000000    18.0730000000    26.7000000000
   89      H      31.3270000000    17.6100000000    27.6600000000
   90      H      30.6100000000    18.3090000000    26.2310000000
   91      H      32.0600000000    17.3430000000    26.0510000000
   92      O      33.1690000000    19.3290000000    28.4410000000
   93      C      31.4520000000    20.1600000000    30.7810000000
   94      H      32.4750000000    19.8590000000    31.0190000000
   95      H      30.9640000000    19.4240000000    30.1370000000
   96      H      31.4660000000    21.1140000000    30.2460000000
   97      S      30.4920000000    20.4830000000    32.2770000000
   98      C      28.8220000000    20.5670000000    31.5940000000
   99      H      28.1330000000    20.8320000000    32.4000000000
  100      H      28.7640000000    21.2650000000    30.7550000000
  101      H      28.5010000000    19.6220000000    31.1460000000
  102      O      30.8830000000    21.8920000000    32.5990000000
  103      C      27.6320000000    24.0940000000    18.3970000000
  104      H      26.8890000000    24.5760000000    19.0370000000
  105      H      28.5570000000    24.6740000000    18.4560000000
  106      H      27.2550000000    23.9150000000    17.3860000000
  107      S      28.0750000000    22.6040000000    19.3190000000
  108      C      26.4990000000    21.7580000000    19.0650000000
  109      H      25.6690000000    22.4680000000    19.1020000000
  110      H      26.5290000000    21.2580000000    18.0930000000
  111      H      26.3800000000    20.9360000000    19.7760000000
  112      O      27.9730000000    22.9470000000    20.7730000000
  113      C      25.4880000000    23.7830000000    34.7740000000
  114      H      25.5900000000    24.8350000000    35.0530000000
  115      H      25.1560000000    23.9080000000    33.7400000000
  116      H      24.7850000000    23.1810000000    35.3550000000
  117      S      26.9670000000    22.7510000000    34.8840000000
  118      C      27.9640000000    23.6630000000    33.6850000000
  119      H      28.9270000000    23.1770000000    33.5060000000
  120      H      27.4330000000    23.5300000000    32.7380000000
  121      H      27.8610000000    24.7240000000    33.9270000000
  122      O      26.4840000000    21.6060000000    34.0500000000
  123      C      21.3440000000    19.7650000000    25.3520000000
  124      H      20.9130000000    18.7600000000    25.3650000000
  125      H      20.8770000000    20.3560000000    24.5590000000
  126      H      22.4190000000    19.6630000000    25.1840000000
  127      S      21.0950000000    20.6340000000    26.9160000000
  128      C      19.3500000000    20.1780000000    27.0160000000
  129      H      19.3830000000    19.0930000000    27.1390000000
  130      H      18.8890000000    20.7910000000    27.7950000000
  131      H      19.0370000000    20.4000000000    25.9930000000
  132      O      20.9350000000    22.0740000000    26.5410000000
  133      C      21.6670000000    29.5890000000    30.9800000000
  134      H      21.5230000000    29.3060000000    32.0250000000
  135      H      22.6410000000    30.0700000000    30.8580000000
  136      H      20.8680000000    30.2370000000    30.6120000000
  137      S      21.6930000000    28.1610000000    29.8720000000
  138      C      21.7360000000    29.1190000000    28.3410000000
  139      H      21.3060000000    28.4560000000    27.5870000000
  140      H      21.0920000000    29.9760000000    28.5530000000
  141      H      22.7950000000    29.2220000000    28.0880000000
  142      O      20.2950000000    27.6250000000    29.9010000000
  143      C      29.2160000000    29.7790000000    26.6720000000
  144      H      30.0870000000    30.2200000000    26.1820000000
  145      H      28.3250000000    30.3010000000    26.3120000000
  146      H      29.2890000000    29.8800000000    27.7580000000
  147      S      29.1390000000    28.0080000000    26.3180000000
  148      C      30.8250000000    27.6950000000    26.8880000000
  149      H      31.3730000000    28.5960000000    26.6010000000
  150      H      30.8480000000    27.5210000000    27.9670000000
  151      H      31.2280000000    26.8520000000    26.3210000000
  152      O      29.3260000000    27.8650000000    24.8390000000
  153      C      29.6080000000    27.6850000000    20.6190000000
  154      H      29.8740000000    26.7130000000    20.1950000000
  155      H      29.9090000000    28.4270000000    19.8750000000
  156      H      30.1750000000    27.8630000000    21.5360000000
  157      S      27.8100000000    27.5870000000    20.7750000000
  158      C      27.8470000000    26.0220000000    21.6790000000
  159      H      26.7920000000    25.7660000000    21.8030000000
  160      H      28.4330000000    25.2180000000    21.2270000000
  161      H      28.3200000000    26.3300000000    22.6140000000
  162      O      27.3850000000    27.0940000000    19.4270000000
  163      C      26.0000000000    31.7430000000    28.7230000000
  164      H      25.7520000000    31.5440000000    29.7690000000
  165      H      27.0590000000    31.5460000000    28.5420000000
  166      H      25.6880000000    32.7490000000    28.4320000000
  167      S      25.0380000000    30.6070000000    27.6970000000
  168      C      25.9800000000    29.1450000000    28.1860000000
  169      H      25.8850000000    28.3430000000    27.4490000000
  170      H      27.0240000000    29.4680000000    28.2100000000
  171      H      25.7240000000    28.8040000000    29.1920000000
  172      O      25.7160000000    30.8470000000    26.3850000000
  173      C      20.5110000000    25.2500000000    22.6280000000
  174      H      21.3030000000    24.9760000000    23.3280000000
  175      H      20.7050000000    24.5750000000    21.7900000000
  176      H      20.7400000000    26.2660000000    22.2960000000
  177      S      18.8850000000    24.8620000000    23.3150000000
  178      C      19.3600000000    23.1570000000    23.6770000000
  179      H      20.2180000000    23.0370000000    24.3440000000
  180      H      18.4590000000    22.8300000000    24.2030000000
  181      H      19.5400000000    22.7200000000    22.6920000000
  182      O      18.0570000000    24.7540000000    22.0720000000
  183      C      22.6970000000    25.2580000000    25.7490000000
  184      H      23.3900000000    25.0400000000    24.9320000000
  185      H      21.8500000000    24.5680000000    25.7190000000
  186      H      22.1920000000    26.2270000000    25.7490000000
  187      S      23.5600000000    25.2580000000    27.3360000000
  188      C      22.0760000000    25.1450000000    28.3610000000
  189      H      22.3270000000    25.4840000000    29.3700000000
  190      H      21.4320000000    25.8690000000    27.8560000000
  191      H      21.5950000000    24.1680000000    28.2720000000
  192      O      24.0770000000    26.6580000000    27.4490000000
  193      C      22.5940000000    16.7600000000    22.8960000000
  194      H      22.6520000000    16.9750000000    21.8260000000
  195      H      22.1240000000    15.7900000000    23.0830000000
  196      H      22.1010000000    17.6000000000    23.3920000000
  197      S      24.2740000000    16.7140000000    23.5590000000
  198      C      24.4920000000    14.9310000000    23.3620000000
  199      H      24.5590000000    14.7530000000    22.2850000000
  200      H      25.4170000000    14.6920000000    23.8930000000
  201      H      23.6180000000    14.4210000000    23.7740000000
  202      O      23.8600000000    16.6900000000    24.9970000000
  203      C      30.4430000000    30.8270000000    23.3110000000
  204      H      31.3560000000    31.4130000000    23.1790000000
  205      H      29.9390000000    31.1750000000    24.2160000000
  206      H      30.5860000000    29.7500000000    23.1940000000
  207      S      29.1870000000    31.3250000000    22.1100000000
  208      C      28.0010000000    30.1220000000    22.7520000000
  209      H      27.1250000000    29.9640000000    22.1180000000
  210      H      28.5900000000    29.2010000000    22.7790000000
  211      H      27.7540000000    30.3250000000    23.7980000000
  212      O      29.5230000000    30.7180000000    20.7840000000
  213      C      22.2200000000    21.2940000000    19.6250000000
  214      H      22.7690000000    20.5460000000    19.0460000000
  215      H      21.1680000000    21.0430000000    19.7850000000
  216      H      22.2320000000    22.2300000000    19.0600000000
  217      S      22.9280000000    21.7140000000    21.2330000000
  218      C      22.7290000000    20.0790000000    21.9770000000
  219      H      21.6520000000    19.8930000000    21.9680000000
  220      H      23.1960000000    19.3370000000    21.3240000000
  221      H      23.1900000000    20.0660000000    22.9680000000
  222      O      21.8930000000    22.5540000000    21.9130000000
  223      C      24.6330000000    21.4030000000    31.7760000000
  224      H      25.4160000000    22.1380000000    31.9800000000
  225      H      23.6420000000    21.5150000000    32.2240000000
  226      H      24.9750000000    20.5340000000    32.3450000000
  227      S      24.5000000000    20.9410000000    30.0340000000
  228      C      23.3080000000    22.1770000000    29.4720000000
  229      H      23.6920000000    23.2010000000    29.4730000000
  230      H      23.0000000000    21.8940000000    28.4620000000
  231      H      22.4540000000    22.1190000000    30.1510000000
  232      O      23.6630000000    19.7010000000    30.0950000000
  233      C      23.8030000000    26.8970000000    18.6210000000
  234      H      23.2710000000    27.6430000000    19.2170000000
  235      H      24.8610000000    27.0870000000    18.8190000000
  236      H      23.6280000000    27.0880000000    17.5590000000
  237      S      23.2450000000    25.2330000000    19.0490000000
  238      C      24.2660000000    25.1320000000    20.5360000000
  239      H      25.2500000000    25.4390000000    20.1730000000
  240      H      23.9930000000    25.7670000000    21.3830000000
  241      H      24.3200000000    24.0930000000    20.8700000000
  242      O      23.9070000000    24.2990000000    18.0840000000
  243      C      31.8920000000    23.1320000000    21.8810000000
  244      H      32.6420000000    23.3680000000    21.1220000000
  245      H      32.0700000000    22.2610000000    22.5170000000
  246      H      30.9660000000    23.0550000000    21.3060000000
  247      S      31.8730000000    24.5380000000    23.0160000000
  248      C      30.2720000000    24.2570000000    23.8050000000
  249      H      29.9120000000    25.1800000000    24.2660000000
  250      H      29.5900000000    24.0220000000    22.9830000000
  251      H      30.2120000000    23.4950000000    24.5870000000
  252      O      31.6500000000    25.6460000000    22.0360000000
  253      C      27.0690000000    26.3600000000    37.3350000000
  254      H      27.7360000000    26.4000000000    38.2000000000
  255      H      26.1120000000    26.7880000000    37.6430000000
  256      H      26.9840000000    25.3150000000    37.0280000000
  257      S      27.6970000000    27.2250000000    35.8780000000
  258      C      27.5570000000    28.8290000000    36.6970000000
  259      H      28.2790000000    28.7480000000    37.5130000000
  260      H      27.7890000000    29.6770000000    36.0470000000
  261      H      26.5690000000    28.9650000000    37.1440000000
  262      O      26.5570000000    27.3750000000    34.9200000000
  263      C      25.6740000000    18.5710000000    27.3400000000
  264      H      24.8930000000    17.8820000000    27.6730000000
  265      H      25.6010000000    19.6060000000    27.6810000000
  266      H      25.6710000000    18.6390000000    26.2490000000
  267      S      27.2540000000    17.8390000000    27.8260000000
  268      C      26.6460000000    17.5250000000    29.4980000000
  269      H      25.6000000000    17.2090000000    29.4670000000
  270      H      27.3800000000    16.7760000000    29.8080000000
  271      H      26.7410000000    18.4390000000    30.0900000000
  272      O      28.1620000000    19.0170000000    28.0010000000
  273      C      33.9890000000    24.0940000000    28.1370000000
  274      H      33.7950000000    24.5710000000    27.1740000000
  275      H      34.9020000000    24.5640000000    28.5120000000
  276      H      34.1190000000    23.0490000000    27.8440000000
  277      S      32.7120000000    24.3450000000    29.3910000000
  278      C      33.4260000000    23.0660000000    30.4500000000
  279      H      34.4290000000    23.3030000000    30.8130000000
  280      H      32.7440000000    22.9440000000    31.2950000000
  281      H      33.5510000000    22.1500000000    29.8680000000
  282      O      31.4650000000    23.7770000000    28.7890000000
 ----------------------------------------------------------------
 Nuclear Repulsion Energy =       45393.89773479 hartrees
 There are      581 alpha and      581 beta electrons
 Requested basis set is 6-31+G(d)
 There are 929 shells and 2589 basis functions

 Total QAlloc Memory Limit  12000 MB
 Mega-Array Size      3911 MB
 MEM_STATIC part      4000 MB

 A cutoff of  1.0D-14 yielded 168715 shell pairs
 There are   1460470 function pairs
 Smallest overlap matrix eigenvalue = 5.01E-07
 Linear dependence detected in AO basis
 Tighter screening thresholds may be required for diffuse basis sets
 Use S2THRESH > 14 and THRESH = 14 in case of SCF convergence issues
 Number of orthogonalized atomic orbitals = 2587
 Maximum deviation from orthogonality = 2.421E-10

 Scale SEOQF with 1.000000e-03/1.000000e-03/1.000000e-03

 Standard Electronic Orientation quadrupole field applied
 Nucleus-field energy     =    -0.0000001591 hartrees
 Guess from superposition of atomic densities
 Warning:  Energy on first SCF cycle will be non-variational
 SAD guess density has 1162.000002 electrons

 -----------------------------------------------------------------------
  General SCF calculation program by
  Eric Jon Sundstrom, Paul Horn, Yuezhi Mao, Dmitri Zuev, Alec White,
  David Stuck, Shaama M.S., Shane Yost, Joonho Lee, David Small,
  Daniel Levine, Susi Lehtola, Hugh Burton, Evgeny Epifanovsky,
  Bang C. Huynh
 -----------------------------------------------------------------------
=================================================
        Doing projection-based embedding         
      F. Manby et al. JCTC, 8, 2564 (2012)       
=================================================

****************************************************
   Low-level SCF calculation for the whole system   
****************************************************
----------------------------------------------
 Summary of the low-level theory: 
 Exchange:     0.2000 Hartree-Fock + 0.0800 Slater + 0.7200 B88
 Correlation:  0.1900 VWN1RPA + 0.8100 LYP
 Using Euler-Maclaurin-Lebedev (75,302) quadrature formula
----------------------------------------------
 using 16 threads for integral computing
 -------------------------------------------------------
 OpenMP Integral computing Module                
 Release: version 1.0, May 2013, Q-Chem Inc. Pittsburgh 
 -------------------------------------------------------
 A restricted SCF calculation will be
 performed using DIIS
 SCF converges when DIIS error is below 1.0e-08
 ---------------------------------------
  Cycle       Energy         DIIS error
 ---------------------------------------
    1  -14806.1565888488      1.37e-02  
    2  -14782.8284332436      2.56e-03  
    3  -14768.6429274759      5.01e-03  
    4  -14786.4765191870      1.14e-03  
    5  -14787.5076059096      1.92e-04  
    6  -14787.5228290413      1.46e-04  
    7  -14787.5359227196      5.71e-05  
    8  -14787.5381853682      1.19e-05  
    9  -14787.5382775096      4.93e-06  
   10  -14787.5382927958      1.95e-06  
   11  -14787.5382952416      5.04e-07  
   12  -14787.5382954009      2.04e-07  
   13  -14787.5382954292      6.06e-08  
   14  -14787.5382954312      2.96e-08  
   15  -14787.5382954318      7.97e-09  Convergence criterion met
 ---------------------------------------
 SCF time:   CPU 251048.07s  wall 17919.00s 
 SCF   energy in the final basis set =   -14787.5382954318
 Total energy in the final basis set =   -14787.5382954318

****************************************************
             Start embedding calculation            
****************************************************
----------------------------------------------
 Summary of the high-level theory: 
 Exchange:     0.2000 Hartree-Fock + 0.0800 Slater + 0.7200 B88
 Correlation:  0.1900 VWN1RPA + 0.8100 LYP
 Using Euler-Maclaurin-Lebedev (75,302) quadrature formula
----------------------------------------------
Doing R-in-R Embedding Calculation
Number of fragments: 2
Embedded fragment(s): 1 
NOcc for each fragment
           35
          546
NBasis for each fragment
          197
         2392
Variational space of the embedded problem: 
NOcc (active)  = 35
NOcc (fixed)   = 546
NVir (total)   = 2006
Read converged orbitals from disk
=========================================================
       Doing SPADE partition for the orbital space       
     D. Claudino and N. Mayhall JCTC 15, 1053 (2019)     
=========================================================
SPADE singular values:
 1.0000 1.0000 1.0000 1.0000 1.0000 1.0000 1.0000 1.0000 1.0000 0.9999
 0.9998 0.9998 0.9996 0.9996 0.9994 0.9992 0.9991 0.9990 0.9984 0.9980
 0.9978 0.9971 0.9965 0.9963 0.9960 0.9953 0.9943 0.9939 0.9933 0.9926
 0.9913 0.9903 0.9889 0.9849 0.9797 0.2190 0.2050 0.1768 0.1660 0.1503
 0.1489 0.1338 0.1238 0.1151 0.1072 0.0929 0.0871 0.0815 0.0747 0.0652
 0.0619 0.0554 0.0517 0.0496 0.0468 0.0394 0.0379 0.0362 0.0338 0.0312
 0.0291 0.0276 0.0260 0.0255 0.0228 0.0214 0.0210 0.0205 0.0201 0.0172
 0.0157 0.0149 0.0141 0.0130 0.0125 0.0118 0.0106 0.0101 0.0097 0.0090
 0.0084 0.0084 0.0080 0.0078 0.0074 0.0072 0.0066 0.0064 0.0061 0.0060
 0.0058 0.0058 0.0056 0.0054 0.0052 0.0047 0.0042 0.0041 0.0038 0.0037
 0.0036 0.0036 0.0034 0.0033 0.0030 0.0028 0.0027 0.0025 0.0025 0.0023
 0.0022 0.0022 0.0021 0.0020 0.0019 0.0019 0.0018 0.0018 0.0017 0.0016
 0.0015 0.0015 0.0015 0.0013 0.0013 0.0012 0.0011 0.0011 0.0011 0.0011
 0.0010 0.0010 0.0009 0.0009 0.0009 0.0008 0.0008 0.0008 0.0007 0.0007
 0.0007 0.0006 0.0006 0.0006 0.0006 0.0005 0.0005 0.0005 0.0005 0.0004
 0.0004 0.0004 0.0004 0.0004 0.0004 0.0003 0.0003 0.0003 0.0003 0.0003
 0.0003 0.0003 0.0003 0.0002 0.0002 0.0002 0.0002 0.0002 0.0002 0.0002
 0.0002 0.0002 0.0002 0.0002 0.0002 0.0002 0.0001 0.0001 0.0001 0.0001
 0.0001 0.0001 0.0001 0.0001 0.0001 0.0001 0.0001 0.0001 0.0001 0.0001
 0.0001 0.0001 0.0001 0.0001 0.0001 0.0000 0.0000
Early stop requested; no embedded SCF will be performed

 546 environment occs will be part of frozen-core in future post-HF calculations

 --------------------------------------------------------------

                    Orbital Energies (a.u.)
 --------------------------------------------------------------

 Alpha MOs
 -- Occupied --
-89.0321 -89.0245 -89.0149 -89.0143 -89.0122 -89.0108 -89.0108 -89.0103
-89.0091 -89.0073 -89.0048 -89.0001 -88.9997 -88.9990 -88.9961 -88.9960
-88.9951 -88.9942 -88.9907 -88.9892 -88.9866 -88.9821 -88.9750 -88.9727
-88.9714 -88.9577 -19.1445 -19.1418 -19.1344 -19.1313 -19.1275 -19.1258
-19.1251 -19.1228 -19.1200 -19.1173 -19.1167 -19.1159 -19.1146 -19.1134
-19.1128 -19.1099 -19.1081 -19.1064 -19.1046 -19.1040 -19.1027 -19.0976
-19.0973 -19.0862 -19.0847 -19.0719 -10.2471 -10.2408 -10.2396 -10.2347
-10.2346 -10.2337 -10.2321 -10.2299 -10.2292 -10.2286 -10.2274 -10.2269
-10.2241 -10.2241 -10.2222 -10.2221 -10.2215 -10.2206 -10.2204 -10.2188
-10.2177 -10.2176 -10.2167 -10.2150 -10.2147 -10.2128 -10.2124 -10.2116
-10.2114 -10.2109 -10.2106 -10.2104 -10.2097 -10.2082 -10.2075 -10.2027
-10.2013 -10.2000 -10.1987 -10.1985 -10.1980 -10.1965 -10.1956 -10.1946
-10.1938 -10.1891 -10.1847 -10.1833 -10.1778 -10.1742 -10.1741 -10.1609
 -8.0779  -8.0696  -8.0610  -8.0598  -8.0588  -8.0566  -8.0566  -8.0564
 -8.0554  -8.0529  -8.0510  -8.0461  -8.0457  -8.0444  -8.0424  -8.0418
 -8.0406  -8.0402  -8.0357  -8.0356  -8.0318  -8.0274  -8.0207  -8.0190
 -8.0173  -8.0035  -6.0422  -6.0410  -6.0357  -6.0341  -6.0326  -6.0271
 -6.0252  -6.0241  -6.0241  -6.0230  -6.0229  -6.0218  -6.0208  -6.0207
 -6.0207  -6.0198  -6.0197  -6.0197  -6.0193  -6.0186  -6.0183  -6.0172
 -6.0172  -6.0164  -6.0160  -6.0155  -6.0143  -6.0142  -6.0141  -6.0140
 -6.0128  -6.0105  -6.0103  -6.0103  -6.0089  -6.0089  -6.0089  -6.0081
 -6.0075  -6.0068  -6.0060  -6.0053  -6.0051  -6.0050  -6.0047  -6.0039
 -6.0035  -6.0032  -6.0026  -6.0018  -6.0001  -6.0000  -5.9999  -5.9992
 -5.9990  -5.9986  -5.9980  -5.9977  -5.9962  -5.9950  -5.9933  -5.9931
 -5.9918  -5.9906  -5.9892  -5.9852  -5.9849  -5.9838  -5.9833  -5.9819
 -5.9815  -5.9805  -5.9781  -5.9765  -5.9750  -5.9679  -5.9665  -5.9611
 -1.0532  -1.0499  -1.0411  -1.0399  -1.0389  -1.0378  -1.0354  -1.0346
 -1.0331  -1.0302  -1.0284  -1.0284  -1.0256  -1.0248  -1.0245  -1.0245
 -1.0200  -1.0162  -1.0137  -1.0128  -1.0105  -1.0041  -1.0030  -0.9960
 -0.9931  -0.9841  -0.8318  -0.8244  -0.8190  -0.8172  -0.8157  -0.8118
 -0.8088  -0.8084  -0.8048  -0.8029  -0.8017  -0.8016  -0.7993  -0.7982
 -0.7974  -0.7957  -0.7935  -0.7934  -0.7927  -0.7865  -0.7836  -0.7833
 -0.7817  -0.7728  -0.7702  -0.7569  -0.7519  -0.7471  -0.7462  -0.7412
 -0.7398  -0.7395  -0.7369  -0.7350  -0.7323  -0.7314  -0.7294  -0.7274
 -0.7269  -0.7250  -0.7216  -0.7196  -0.7181  -0.7178  -0.7169  -0.7169
 -0.7109  -0.7087  -0.6988  -0.6938  -0.6925  -0.6794  -0.6436  -0.6368
 -0.6283  -0.6282  -0.6265  -0.6264  -0.6246  -0.6223  -0.6219  -0.6216
 -0.6164  -0.6137  -0.6128  -0.6099  -0.6093  -0.6075  -0.6059  -0.6033
 -0.6027  -0.6019  -0.5993  -0.5928  -0.5857  -0.5848  -0.5833  -0.5685
 -0.5095  -0.5083  -0.5039  -0.5021  -0.5001  -0.4980  -0.4959  -0.4936
 -0.4919  -0.4916  -0.4905  -0.4901  -0.4890  -0.4880  -0.4856  -0.4835
 -0.4824  -0.4820  -0.4810  -0.4807  -0.4802  -0.4792  -0.4790  -0.4780
 -0.4778  -0.4763  -0.4761  -0.4753  -0.4750  -0.4748  -0.4743  -0.4730
 -0.4727  -0.4726  -0.4718  -0.4717  -0.4714  -0.4712  -0.4707  -0.4701
 -0.4692  -0.4686  -0.4675  -0.4662  -0.4659  -0.4649  -0.4637  -0.4628
 -0.4623  -0.4620  -0.4617  -0.4597  -0.4592  -0.4585  -0.4564  -0.4558
 -0.4555  -0.4541  -0.4536  -0.4530  -0.4528  -0.4520  -0.4512  -0.4492
 -0.4481  -0.4480  -0.4476  -0.4462  -0.4454  -0.4450  -0.4445  -0.4438
 -0.4431  -0.4414  -0.4409  -0.4408  -0.4402  -0.4399  -0.4390  -0.4375
 -0.4373  -0.4365  -0.4351  -0.4347  -0.4334  -0.4325  -0.4321  -0.4313
 -0.4311  -0.4307  -0.4293  -0.4271  -0.4269  -0.4255  -0.4247  -0.4244
 -0.4239  -0.4235  -0.4226  -0.4224  -0.4220  -0.4207  -0.4202  -0.4199
 -0.4188  -0.4182  -0.4173  -0.4171  -0.4166  -0.4163  -0.4154  -0.4151
 -0.4145  -0.4139  -0.4128  -0.4116  -0.4107  -0.4095  -0.4079  -0.4068
 -0.4065  -0.4058  -0.4044  -0.4042  -0.4023  -0.4015  -0.4012  -0.4007
 -0.3979  -0.3976  -0.3954  -0.3949  -0.3943  -0.3921  -0.3912  -0.3911
 -0.3895  -0.3888  -0.3882  -0.3882  -0.3871  -0.3870  -0.3865  -0.3861
 -0.3849  -0.3846  -0.3843  -0.3823  -0.3809  -0.3794  -0.3793  -0.3782
 -0.3777  -0.3770  -0.3762  -0.3745  -0.3733  -0.3723  -0.3713  -0.3692
 -0.3682  -0.3678  -0.3668  -0.3662  -0.3654  -0.3639  -0.3618  -0.3614
 -0.3595  -0.3589  -0.3584  -0.3583  -0.3570  -0.3545  -0.3507  -0.3483
 -0.3431  -0.3420  -0.3380  -0.3360  -0.3305  -0.3211  -0.3039  -0.3006
 -0.2931  -0.2925  -0.2891  -0.2865  -0.2847  -0.2844  -0.2802  -0.2786
 -0.2777  -0.2747  -0.2738  -0.2729  -0.2725  -0.2718  -0.2711  -0.2683
 -0.2678  -0.2669  -0.2667  -0.2661  -0.2636  -0.2607  -0.2588  -0.2575
 -0.2563  -0.2553  -0.2536  -0.2509  -0.2496  -0.2476  -0.2475  -0.2472
 -0.2459  -0.2436  -0.2428  -0.2428  -0.2424  -0.2410  -0.2367  -0.2331
 -0.2321  -0.2309  -0.2307  -0.2296  -0.2259  -0.2199  -0.2180  -0.2128
 -0.2127  -0.2000 -14.3751 -10.2882 -10.1758 -10.1487 -12.7157 -15.1654
-10.4708 -10.0988 -10.5547  -0.8763  -0.7447  -0.9089  -0.6264  -0.5916
 -0.7442  -0.7145  -0.9151  -0.4204  -0.5373  -0.4985  -0.4400  -0.4050
 -0.4780  -0.4336  -0.4788  -0.4278  -0.4200  -0.4320  -0.3792  -0.4365
 -0.4452  -0.4602  -0.4907  -0.5698  -0.6133
 -- Virtual --
 -0.0373  -0.0330  -0.0306  -0.0258  -0.0235  -0.0230  -0.0214  -0.0203
 -0.0190  -0.0165  -0.0163  -0.0147  -0.0135  -0.0129  -0.0114  -0.0104
 -0.0097  -0.0079  -0.0070  -0.0060  -0.0042  -0.0036  -0.0031  -0.0025
 -0.0019  -0.0006  -0.0005   0.0001   0.0011   0.0023   0.0033   0.0041
  0.0050   0.0062   0.0065   0.0075   0.0088   0.0097   0.0101   0.0106
  0.0115   0.0128   0.0139   0.0145   0.0149   0.0156   0.0167   0.0177
  0.0182   0.0188   0.0190   0.0194   0.0198   0.0216   0.0221   0.0235
  0.0239   0.0243   0.0254   0.0258   0.0270   0.0278   0.0281   0.0290
  0.0292   0.0301   0.0302   0.0310   0.0316   0.0318   0.0323   0.0332
  0.0339   0.0350   0.0357   0.0364   0.0366   0.0373   0.0375   0.0383
  0.0386   0.0393   0.0403   0.0405   0.0416   0.0425   0.0428   0.0431
  0.0439   0.0443   0.0453   0.0463   0.0464   0.0476   0.0479   0.0481
  0.0492   0.0494   0.0507   0.0510   0.0517   0.0521   0.0532   0.0541
  0.0546   0.0553   0.0558   0.0563   0.0567   0.0572   0.0585   0.0592
  0.0598   0.0605   0.0607   0.0613   0.0618   0.0626   0.0633   0.0636
  0.0643   0.0648   0.0651   0.0661   0.0669   0.0680   0.0685   0.0694
  0.0703   0.0708   0.0711   0.0718   0.0733   0.0740   0.0742   0.0754
  0.0759   0.0765   0.0777   0.0779   0.0791   0.0794   0.0797   0.0810
  0.0813   0.0822   0.0830   0.0836   0.0838   0.0841   0.0855   0.0857
  0.0860   0.0868   0.0877   0.0882   0.0894   0.0898   0.0909   0.0910
  0.0927   0.0927   0.0939   0.0942   0.0959   0.0964   0.0968   0.0976
  0.0977   0.0984   0.0988   0.0997   0.1006   0.1012   0.1016   0.1020
  0.1025   0.1028   0.1035   0.1041   0.1055   0.1056   0.1065   0.1074
  0.1080   0.1081   0.1090   0.1097   0.1103   0.1110   0.1111   0.1120
  0.1124   0.1127   0.1131   0.1143   0.1144   0.1158   0.1166   0.1170
  0.1174   0.1182   0.1188   0.1199   0.1205   0.1209   0.1222   0.1227
  0.1237   0.1242   0.1249   0.1255   0.1259   0.1261   0.1276   0.1279
  0.1288   0.1294   0.1298   0.1305   0.1307   0.1311   0.1312   0.1335
  0.1338   0.1342   0.1351   0.1354   0.1356   0.1368   0.1373   0.1382
  0.1391   0.1397   0.1399   0.1405   0.1408   0.1409   0.1414   0.1422
  0.1437   0.1439   0.1448   0.1456   0.1467   0.1470   0.1477   0.1482
  0.1490   0.1493   0.1503   0.1508   0.1510   0.1513   0.1517   0.1522
  0.1538   0.1542   0.1546   0.1552   0.1558   0.1567   0.1572   0.1573
  0.1578   0.1588   0.1595   0.1600   0.1607   0.1609   0.1614   0.1620
  0.1626   0.1631   0.1643   0.1647   0.1651   0.1659   0.1663   0.1672
  0.1677   0.1684   0.1688   0.1694   0.1696   0.1700   0.1710   0.1716
  0.1723   0.1728   0.1731   0.1736   0.1747   0.1751   0.1757   0.1760
  0.1766   0.1771   0.1778   0.1788   0.1788   0.1797   0.1807   0.1816
  0.1820   0.1822   0.1836   0.1838   0.1841   0.1850   0.1856   0.1862
  0.1876   0.1879   0.1882   0.1888   0.1890   0.1903   0.1909   0.1911
  0.1915   0.1929   0.1934   0.1939   0.1943   0.1950   0.1952   0.1959
  0.1966   0.1979   0.1984   0.1991   0.1996   0.2004   0.2010   0.2015
  0.2020   0.2029   0.2038   0.2039   0.2046   0.2053   0.2060   0.2068
  0.2075   0.2080   0.2086   0.2089   0.2102   0.2104   0.2111   0.2117
  0.2118   0.2124   0.2130   0.2140   0.2151   0.2155   0.2163   0.2169
  0.2180   0.2182   0.2186   0.2193   0.2196   0.2205   0.2210   0.2217
  0.2226   0.2233   0.2239   0.2242   0.2245   0.2249   0.2256   0.2263
  0.2268   0.2280   0.2283   0.2291   0.2298   0.2305   0.2306   0.2311
  0.2327   0.2332   0.2335   0.2340   0.2346   0.2354   0.2361   0.2365
  0.2373   0.2380   0.2385   0.2399   0.2406   0.2408   0.2422   0.2424
  0.2427   0.2436   0.2441   0.2455   0.2457   0.2473   0.2480   0.2484
  0.2487   0.2489   0.2500   0.2503   0.2506   0.2519   0.2529   0.2537
  0.2542   0.2553   0.2561   0.2569   0.2579   0.2589   0.2595   0.2599
  0.2606   0.2608   0.2621   0.2627   0.2631   0.2643   0.2656   0.2661
  0.2678   0.2680   0.2686   0.2693   0.2696   0.2704   0.2716   0.2725
  0.2731   0.2735   0.2749   0.2757   0.2766   0.2770   0.2780   0.2782
  0.2791   0.2801   0.2812   0.2816   0.2818   0.2825   0.2830   0.2838
  0.2848   0.2853   0.2862   0.2881   0.2891   0.2896   0.2899   0.2912
  0.2924   0.2931   0.2940   0.2948   0.2957   0.2965   0.2969   0.2973
  0.2985   0.2990   0.3000   0.3007   0.3013   0.3017   0.3027   0.3036
  0.3047   0.3055   0.3059   0.3065   0.3078   0.3084   0.3093   0.3101
  0.3110   0.3118   0.3129   0.3140   0.3148   0.3155   0.3156   0.3170
  0.3175   0.3180   0.3190   0.3197   0.3212   0.3223   0.3233   0.3244
  0.3254   0.3270   0.3283   0.3289   0.3293   0.3305   0.3308   0.3320
  0.3330   0.3337   0.3348   0.3358   0.3361   0.3365   0.3373   0.3381
  0.3394   0.3401   0.3408   0.3413   0.3422   0.3425   0.3439   0.3450
  0.3460   0.3467   0.3471   0.3480   0.3492   0.3501   0.3513   0.3520
  0.3531   0.3550   0.3558   0.3564   0.3574   0.3583   0.3590   0.3595
  0.3602   0.3610   0.3622   0.3628   0.3636   0.3638   0.3653   0.3655
  0.3676   0.3680   0.3691   0.3701   0.3712   0.3715   0.3721   0.3726
  0.3743   0.3755   0.3767   0.3772   0.3785   0.3790   0.3796   0.3804
  0.3815   0.3824   0.3833   0.3838   0.3845   0.3849   0.3857   0.3878
  0.3887   0.3888   0.3901   0.3909   0.3914   0.3921   0.3931   0.3960
  0.3962   0.3970   0.3977   0.3987   0.3989   0.4001   0.4013   0.4020
  0.4031   0.4036   0.4048   0.4055   0.4059   0.4069   0.4072   0.4090
  0.4092   0.4100   0.4104   0.4128   0.4131   0.4139   0.4154   0.4158
  0.4180   0.4183   0.4195   0.4210   0.4218   0.4227   0.4241   0.4251
  0.4266   0.4273   0.4280   0.4298   0.4314   0.4325   0.4327   0.4343
  0.4346   0.4357   0.4369   0.4375   0.4383   0.4388   0.4407   0.4409
  0.4417   0.4434   0.4446   0.4456   0.4474   0.4480   0.4485   0.4493
  0.4512   0.4528   0.4530   0.4536   0.4556   0.4567   0.4573   0.4593
  0.4618   0.4621   0.4626   0.4639   0.4649   0.4666   0.4671   0.4679
  0.4696   0.4706   0.4719   0.4755   0.4764   0.4769   0.4773   0.4800
  0.4821   0.4831   0.4851   0.4866   0.4879   0.4893   0.4898   0.4927
  0.4941   0.4946   0.4966   0.4978   0.4992   0.5005   0.5026   0.5047
  0.5050   0.5064   0.5083   0.5103   0.5109   0.5121   0.5159   0.5174
  0.5179   0.5195   0.5212   0.5220   0.5242   0.5256   0.5259   0.5296
  0.5302   0.5314   0.5337   0.5360   0.5377   0.5389   0.5416   0.5422
  0.5433   0.5455   0.5460   0.5473   0.5490   0.5520   0.5529   0.5547
  0.5566   0.5582   0.5598   0.5600   0.5618   0.5646   0.5654   0.5676
  0.5687   0.5703   0.5717   0.5726   0.5738   0.5752   0.5766   0.5786
  0.5787   0.5812   0.5813   0.5827   0.5831   0.5843   0.5883   0.5890
  0.5906   0.5912   0.5928   0.5935   0.5945   0.5968   0.5983   0.6001
  0.6009   0.6020   0.6042   0.6046   0.6060   0.6078   0.6102   0.6107
  0.6116   0.6127   0.6137   0.6149   0.6172   0.6181   0.6186   0.6205
  0.6214   0.6229   0.6236   0.6259   0.6269   0.6281   0.6291   0.6300
  0.6311   0.6320   0.6338   0.6347   0.6352   0.6357   0.6380   0.6383
  0.6390   0.6401   0.6423   0.6428   0.6435   0.6441   0.6462   0.6474
  0.6484   0.6496   0.6497   0.6528   0.6543   0.6556   0.6568   0.6572
  0.6592   0.6601   0.6610   0.6618   0.6639   0.6657   0.6666   0.6675
  0.6685   0.6699   0.6713   0.6719   0.6726   0.6750   0.6765   0.6766
  0.6770   0.6790   0.6796   0.6808   0.6819   0.6831   0.6847   0.6854
  0.6862   0.6868   0.6893   0.6900   0.6915   0.6923   0.6926   0.6945
  0.6967   0.6975   0.7000   0.7010   0.7017   0.7024   0.7037   0.7047
  0.7057   0.7062   0.7069   0.7091   0.7098   0.7100   0.7125   0.7141
  0.7143   0.7167   0.7173   0.7191   0.7203   0.7218   0.7227   0.7235
  0.7257   0.7264   0.7279   0.7292   0.7304   0.7309   0.7329   0.7342
  0.7378   0.7384   0.7397   0.7414   0.7419   0.7444   0.7447   0.7453
  0.7491   0.7507   0.7513   0.7529   0.7538   0.7545   0.7556   0.7572
  0.7582   0.7600   0.7621   0.7640   0.7654   0.7665   0.7678   0.7702
  0.7718   0.7743   0.7748   0.7760   0.7770   0.7778   0.7806   0.7845
  0.7853   0.7878   0.7890   0.7899   0.7907   0.7909   0.7926   0.7943
  0.7956   0.7969   0.7979   0.7996   0.8000   0.8018   0.8038   0.8051
  0.8082   0.8102   0.8132   0.8144   0.8152   0.8167   0.8178   0.8187
  0.8211   0.8223   0.8235   0.8245   0.8273   0.8275   0.8290   0.8317
  0.8330   0.8343   0.8350   0.8357   0.8367   0.8391   0.8404   0.8413
  0.8423   0.8438   0.8452   0.8485   0.8491   0.8506   0.8523   0.8536
  0.8558   0.8571   0.8575   0.8582   0.8598   0.8608   0.8626   0.8638
  0.8648   0.8682   0.8689   0.8699   0.8706   0.8716   0.8725   0.8745
  0.8757   0.8784   0.8793   0.8808   0.8823   0.8836   0.8849   0.8860
  0.8878   0.8884   0.8903   0.8916   0.8924   0.8941   0.8955   0.8974
  0.8985   0.8995   0.9007   0.9019   0.9028   0.9037   0.9057   0.9065
  0.9081   0.9097   0.9114   0.9121   0.9128   0.9147   0.9160   0.9168
  0.9181   0.9206   0.9215   0.9217   0.9232   0.9252   0.9265   0.9284
  0.9288   0.9309   0.9310   0.9323   0.9337   0.9359   0.9364   0.9378
  0.9382   0.9404   0.9414   0.9419   0.9427   0.9439   0.9447   0.9469
  0.9483   0.9492   0.9501   0.9513   0.9526   0.9529   0.9548   0.9557
  0.9563   0.9574   0.9584   0.9604   0.9611   0.9615   0.9627   0.9639
  0.9642   0.9658   0.9670   0.9683   0.9688   0.9702   0.9712   0.9717
  0.9725   0.9739   0.9744   0.9755   0.9770   0.9775   0.9790   0.9795
  0.9808   0.9823   0.9844   0.9854   0.9859   0.9881   0.9889   0.9905
  0.9910   0.9920   0.9929   0.9939   0.9947   0.9968   0.9979   0.9988
  0.9993   1.0000   1.0014   1.0022   1.0036   1.0048   1.0059   1.0072
  1.0083   1.0101   1.0119   1.0124   1.0129   1.0139   1.0156   1.0158
  1.0165   1.0191   1.0201   1.0207   1.0219   1.0243   1.0250   1.0267
  1.0274   1.0279   1.0301   1.0307   1.0317   1.0326   1.0327   1.0341
  1.0355   1.0376   1.0379   1.0394   1.0408   1.0424   1.0438   1.0447
  1.0474   1.0476   1.0487   1.0516   1.0521   1.0532   1.0548   1.0562
  1.0577   1.0586   1.0596   1.0608   1.0623   1.0637   1.0647   1.0670
  1.0681   1.0691   1.0703   1.0718   1.0740   1.0756   1.0771   1.0777
  1.0802   1.0836   1.0844   1.0847   1.0867   1.0871   1.0897   1.0910
  1.0913   1.0924   1.0940   1.0945   1.0957   1.0969   1.0983   1.1002
  1.1010   1.1024   1.1035   1.1051   1.1065   1.1079   1.1094   1.1108
  1.1130   1.1137   1.1150   1.1167   1.1191   1.1198   1.1209   1.1217
  1.1241   1.1256   1.1262   1.1289   1.1304   1.1314   1.1324   1.1337
  1.1348   1.1351   1.1364   1.1386   1.1398   1.1408   1.1415   1.1428
  1.1441   1.1453   1.1481   1.1493   1.1499   1.1506   1.1517   1.1537
  1.1551   1.1563   1.1573   1.1580   1.1587   1.1597   1.1602   1.1616
  1.1627   1.1645   1.1662   1.1668   1.1690   1.1697   1.1706   1.1722
  1.1745   1.1764   1.1771   1.1784   1.1800   1.1814   1.1819   1.1837
  1.1859   1.1871   1.1891   1.1899   1.1911   1.1932   1.1957   1.1962
  1.1986   1.1992   1.1999   1.2019   1.2052   1.2063   1.2068   1.2079
  1.2107   1.2110   1.2129   1.2140   1.2165   1.2186   1.2205   1.2213
  1.2262   1.2278   1.2298   1.2330   1.2343   1.2376   1.2383   1.2407
  1.2430   1.2433   1.2471   1.2479   1.2494   1.2505   1.2540   1.2572
  1.2584   1.2604   1.2619   1.2651   1.2662   1.2674   1.2694   1.2732
  1.2751   1.2778   1.2791   1.2837   1.2854   1.2870   1.2878   1.2953
  1.2962   1.2999   1.3005   1.3030   1.3045   1.3072   1.3078   1.3101
  1.3118   1.3139   1.3173   1.3186   1.3204   1.3218   1.3247   1.3251
  1.3285   1.3291   1.3327   1.3344   1.3353   1.3377   1.3386   1.3406
  1.3435   1.3442   1.3468   1.3495   1.3498   1.3516   1.3536   1.3555
  1.3562   1.3576   1.3592   1.3632   1.3656   1.3670   1.3682   1.3711
  1.3719   1.3734   1.3747   1.3756   1.3792   1.3812   1.3819   1.3839
  1.3865   1.3872   1.3883   1.3895   1.3916   1.3929   1.3944   1.3956
  1.3988   1.3996   1.4002   1.4020   1.4038   1.4050   1.4066   1.4092
  1.4113   1.4130   1.4150   1.4161   1.4172   1.4193   1.4212   1.4222
  1.4233   1.4239   1.4241   1.4259   1.4277   1.4288   1.4308   1.4316
  1.4325   1.4333   1.4347   1.4355   1.4360   1.4368   1.4389   1.4420
  1.4428   1.4447   1.4458   1.4470   1.4486   1.4500   1.4513   1.4529
  1.4544   1.4556   1.4579   1.4601   1.4602   1.4628   1.4632   1.4643
  1.4691   1.4698   1.4719   1.4732   1.4745   1.4785   1.4805   1.4818
  1.4829   1.4845   1.4860   1.4886   1.4896   1.4909   1.4932   1.4957
  1.4971   1.4993   1.5017   1.5047   1.5059   1.5080   1.5111   1.5139
  1.5157   1.5171   1.5204   1.5204   1.5265   1.5277   1.5287   1.5309
  1.5329   1.5346   1.5364   1.5407   1.5435   1.5449   1.5464   1.5483
  1.5555   1.5570   1.5598   1.5611   1.5621   1.5631   1.5681   1.5697
  1.5734   1.5806   1.5810   1.5838   1.5902   1.5925   1.5967   1.6008
  1.6041   1.6070   1.6107   1.6153   1.6197   1.6243   1.6283   1.6355
  1.6383   1.6402   1.6466   1.6502   1.6520   1.6588   1.6592   1.6593
  1.6635   1.6642   1.6656   1.6671   1.6711   1.6727   1.6751   1.6764
  1.6782   1.6813   1.6829   1.6839   1.6862   1.6866   1.6890   1.6897
  1.6908   1.6912   1.6939   1.6953   1.6957   1.6974   1.6979   1.6986
  1.6994   1.6999   1.7017   1.7027   1.7041   1.7072   1.7074   1.7092
  1.7108   1.7117   1.7137   1.7152   1.7173   1.7177   1.7189   1.7208
  1.7214   1.7223   1.7249   1.7252   1.7267   1.7272   1.7296   1.7303
  1.7319   1.7357   1.7369   1.7372   1.7387   1.7419   1.7427   1.7438
  1.7445   1.7457   1.7469   1.7476   1.7500   1.7508   1.7520   1.7531
  1.7534   1.7543   1.7570   1.7582   1.7618   1.7626   1.7636   1.7653
  1.7665   1.7681   1.7691   1.7697   1.7707   1.7720   1.7728   1.7751
  1.7769   1.7777   1.7794   1.7814   1.7836   1.7877   1.7902   1.7912
  1.7928   1.7949   1.7959   1.7962   1.7999   1.8031   1.8039   1.8059
  1.8067   1.8093   1.8131   1.8179   1.8204   1.8209   1.8237   1.8256
  1.8265   1.8289   1.8317   1.8331   1.8350   1.8409   1.8453   1.8470
  1.8481   1.8494   1.8528   1.8566   1.8574   1.8597   1.8601   1.8639
  1.8674   1.8685   1.8694   1.8736   1.8753   1.8771   1.8784   1.8802
  1.8828   1.8845   1.8865   1.8873   1.8894   1.8902   1.8910   1.8926
  1.8942   1.8950   1.8969   1.8981   1.8991   1.8994   1.9002   1.9025
  1.9032   1.9053   1.9069   1.9094   1.9098   1.9112   1.9126   1.9137
  1.9143   1.9156   1.9167   1.9182   1.9190   1.9205   1.9226   1.9235
  1.9247   1.9262   1.9266   1.9285   1.9292   1.9298   1.9308   1.9331
  1.9352   1.9367   1.9381   1.9399   1.9434   1.9450   1.9458   1.9469
  1.9503   1.9524   1.9566   1.9573   1.9614   1.9659   1.9676   1.9706
  1.9750   1.9771   1.9854   1.9895   1.9915   1.9943   1.9981   2.0058
  2.0181   2.0292   2.0386   2.0399   2.0438   2.0448   2.0466   2.0480
  2.0536   2.0573   2.0597   2.0604   2.0608   2.0629   2.0639   2.0642
  2.0657   2.0675   2.0694   2.0695   2.0708   2.0737   2.0759   2.0768
  2.0798   2.0801   2.0804   2.0816   2.0831   2.0839   2.0843   2.0868
  2.0873   2.0901   2.0920   2.0927   2.0930   2.0946   2.0948   2.0983
  2.1010   2.1022   2.1029   2.1040   2.1059   2.1087   2.1089   2.1156
  2.1174   2.1181   2.1194   2.1202   2.1231   2.1257   2.1278   2.1293
  2.1327   2.1350   2.1417   2.1455   2.1475   2.1496   2.1569   2.1615
  2.1644   2.1694   2.1771   2.1862   2.1881   2.1933   2.1943   2.1951
  2.1974   2.1994   2.2019   2.2024   2.2031   2.2055   2.2058   2.2075
  2.2078   2.2104   2.2121   2.2131   2.2137   2.2186   2.2197   2.2206
  2.2228   2.2243   2.2268   2.2280   2.2287   2.2322   2.2323   2.2342
  2.2364   2.2366   2.2380   2.2391   2.2404   2.2407   2.2427   2.2432
  2.2438   2.2463   2.2478   2.2484   2.2499   2.2514   2.2529   2.2541
  2.2547   2.2561   2.2571   2.2577   2.2583   2.2590   2.2604   2.2614
  2.2621   2.2625   2.2653   2.2664   2.2674   2.2691   2.2702   2.2712
  2.2714   2.2723   2.2733   2.2738   2.2741   2.2747   2.2757   2.2768
  2.2785   2.2786   2.2799   2.2812   2.2824   2.2835   2.2845   2.2850
  2.2857   2.2871   2.2874   2.2881   2.2906   2.2913   2.2925   2.2937
  2.2950   2.2957   2.2960   2.2968   2.2982   2.2986   2.2993   2.3004
  2.3007   2.3022   2.3036   2.3046   2.3057   2.3062   2.3081   2.3089
  2.3100   2.3110   2.3121   2.3130   2.3164   2.3178   2.3190   2.3204
  2.3225   2.3238   2.3255   2.3270   2.3290   2.3321   2.3331   2.3349
  2.3392   2.3400   2.3405   2.3415   2.3435   2.3451   2.3470   2.3482
  2.3493   2.3503   2.3509   2.3526   2.3547   2.3578   2.3584   2.3611
  2.3635   2.3642   2.3658   2.3667   2.3675   2.3701   2.3723   2.3735
  2.3759   2.3775   2.3797   2.3808   2.3822   2.3859   2.3876   2.3895
  2.3918   2.3934   2.3951   2.3980   2.3997   2.4065   2.4078   2.4136
  2.4262   2.4406   2.4507   2.4666   2.4832   2.5061   2.5347   2.5655
  2.6519   2.7417   2.7595   2.7914   2.8111   2.8217   2.8241   2.8317
  2.8324   2.8371   2.8409   2.8415   2.8426   2.8441   2.8465   2.8482
  2.8490   2.8506   2.8527   2.8540   2.8559   2.8579   2.8602   2.8636
  2.8643   2.8660   2.8688   2.8749   2.8764   2.8834   2.8858   2.8878
  2.8917   2.9082   2.9279   3.0910   3.2286   3.9520   3.9537   3.9565
  3.9582   3.9685   3.9719   3.9775   3.9795   3.9838   3.9847   3.9874
  3.9892   3.9911   3.9938   3.9944   3.9982   4.0034   4.0044   4.0071
  4.0097   4.0119   4.0219   4.0263   4.0280   4.0369   4.0410   4.2156
  4.2203   4.2290   4.2376   4.2446   4.2472   4.2478   4.2489   4.2520
  4.2526   4.2540   4.2561   4.2567   4.2613   4.2661   4.2687   4.2700
  4.2739   4.2749   4.2792   4.2839   4.2878   4.2901   4.2936   4.2960
  4.2994   4.3007   4.3048   4.3057   4.3093   4.3129   4.3170   4.3180
  4.3209   4.3232   4.3254   4.3286   4.3303   4.3321   4.3357   4.3384
  4.3413   4.3434   4.3454   4.3495   4.3505   4.3520   4.3537   4.3629
  4.3634   4.3661   4.3702   4.3730   4.3749   4.3766   4.3792   4.3836
  4.3867   4.3881   4.3934   4.3974   4.4027   4.4131   4.4174   4.4189
  4.4220   4.4248   4.4382   4.4410   4.4508   4.4519   4.4683   4.4753
  4.4777   4.4885   4.4928   4.5048   4.5159   4.5374   4.5659   4.5918
  4.6115   4.6873   4.7083   4.7573   4.7709   4.9294
 --------------------------------------------------------------

          Ground-State Mulliken Net Atomic Charges

     Atom                 Charge (a.u.)
  ----------------------------------------
      1 C                    -0.135314
      2 C                    -0.489713
      3 C                    -0.981360
      4 C                    -0.687604
      5 C                     0.139261
      6 C                    -0.467160
      7 H                     0.238812
      8 H                     0.252385
      9 H                     0.258180
     10 H                     0.208894
     11 H                     0.236942
     12 H                     0.254242
     13 H                     0.198451
     14 H                     0.199910
     15 H                     0.219690
     16 H                     0.190528
     17 H                     0.206218
     18 N                     0.234083
     19 H                     0.465140
     20 C                    -0.069263
     21 H                     0.181585
     22 O                    -0.243004
     23 C                    -0.804345
     24 H                     0.246405
     25 H                     0.270792
     26 H                     0.258969
     27 S                     0.758502
     28 C                    -0.904370
     29 H                     0.283666
     30 H                     0.295547
     31 H                     0.237012
     32 O                    -0.623730
     33 C                    -0.889682
     34 H                     0.243822
     35 H                     0.280582
     36 H                     0.271983
     37 S                     0.937358
     38 C                    -0.864699
     39 H                     0.254189
     40 H                     0.239741
     41 H                     0.301828
     42 O                    -0.682703
     43 C                    -0.862339
     44 H                     0.234239
     45 H                     0.281618
     46 H                     0.295450
     47 S                     0.682678
     48 C                    -0.704989
     49 H                     0.261192
     50 H                     0.234290
     51 H                     0.264314
     52 O                    -0.704083
     53 C                    -0.825119
     54 H                     0.246537
     55 H                     0.262238
     56 H                     0.243829
     57 S                     0.775854
     58 C                    -0.796501
     59 H                     0.243885
     60 H                     0.262538
     61 H                     0.240900
     62 O                    -0.678571
     63 C                    -1.085754
     64 H                     0.271669
     65 H                     0.235318
     66 H                     0.303712
     67 S                     1.049206
     68 C                    -1.178620
     69 H                     0.294629
     70 H                     0.237393
     71 H                     0.250181
     72 O                    -0.626837
     73 C                    -0.982620
     74 H                     0.248014
     75 H                     0.272849
     76 H                     0.244000
     77 S                     1.254576
     78 C                    -0.908817
     79 H                     0.223659
     80 H                     0.260272
     81 H                     0.259001
     82 O                    -0.780829
     83 C                    -1.109547
     84 H                     0.219876
     85 H                     0.330979
     86 H                     0.303610
     87 S                     1.052194
     88 C                    -0.897380
     89 H                     0.271858
     90 H                     0.277750
     91 H                     0.239062
     92 O                    -0.716029
     93 C                    -0.709862
     94 H                     0.280152
     95 H                     0.267915
     96 H                     0.275821
     97 S                     0.644499
     98 C                    -0.841589
     99 H                     0.326427
    100 H                     0.259099
    101 H                     0.265114
    102 O                    -0.716124
    103 C                    -0.804356
    104 H                     0.295640
    105 H                     0.268084
    106 H                     0.255558
    107 S                     0.855584
    108 C                    -0.817306
    109 H                     0.301722
    110 H                     0.231200
    111 H                     0.231699
    112 O                    -0.730684
    113 C                    -0.991868
    114 H                     0.289567
    115 H                     0.287354
    116 H                     0.210502
    117 S                     0.874431
    118 C                    -1.014257
    119 H                     0.327342
    120 H                     0.292307
    121 H                     0.244226
    122 O                    -0.719239
    123 C                    -0.730030
    124 H                     0.248603
    125 H                     0.275590
    126 H                     0.254571
    127 S                     0.693300
    128 C                    -0.734449
    129 H                     0.237361
    130 H                     0.259743
    131 H                     0.251766
    132 O                    -0.712223
    133 C                    -0.932838
    134 H                     0.302043
    135 H                     0.223552
    136 H                     0.241554
    137 S                     1.064728
    138 C                    -0.908426
    139 H                     0.265859
    140 H                     0.230553
    141 H                     0.242945
    142 O                    -0.688528
    143 C                    -1.081652
    144 H                     0.240552
    145 H                     0.300764
    146 H                     0.312226
    147 S                     0.956797
    148 C                    -0.809585
    149 H                     0.236042
    150 H                     0.249732
    151 H                     0.257713
    152 O                    -0.642431
    153 C                    -0.936008
    154 H                     0.249943
    155 H                     0.294216
    156 H                     0.276091
    157 S                     1.034605
    158 C                    -0.862342
    159 H                     0.240060
    160 H                     0.302598
    161 H                     0.258965
    162 O                    -0.701113
    163 C                    -0.809581
    164 H                     0.226711
    165 H                     0.267024
    166 H                     0.249055
    167 S                     0.927218
    168 C                    -0.962162
    169 H                     0.309941
    170 H                     0.266924
    171 H                     0.242061
    172 O                    -0.715187
    173 C                    -0.832329
    174 H                     0.233174
    175 H                     0.309127
    176 H                     0.252724
    177 S                     0.873986
    178 C                    -0.815383
    179 H                     0.278615
    180 H                     0.218606
    181 H                     0.276123
    182 O                    -0.725364
    183 C                    -0.347347
    184 H                     0.260162
    185 H                     0.303108
    186 H                     0.275761
    187 S                    -0.497834
    188 C                    -0.882173
    189 H                     0.254753
    190 H                     0.256910
    191 H                     0.307165
    192 O                    -0.365727
    193 C                    -0.824751
    194 H                     0.219432
    195 H                     0.239426
    196 H                     0.258835
    197 S                     0.944786
    198 C                    -0.840282
    199 H                     0.225266
    200 H                     0.263711
    201 H                     0.250387
    202 O                    -0.714793
    203 C                    -0.743741
    204 H                     0.241558
    205 H                     0.212702
    206 H                     0.276916
    207 S                     0.868084
    208 C                    -0.954212
    209 H                     0.273975
    210 H                     0.270080
    211 H                     0.247396
    212 O                    -0.672450
    213 C                    -0.794446
    214 H                     0.239290
    215 H                     0.257089
    216 H                     0.303686
    217 S                     0.618058
    218 C                    -0.826356
    219 H                     0.264403
    220 H                     0.242036
    221 H                     0.251274
    222 O                    -0.632572
    223 C                    -1.180177
    224 H                     0.296889
    225 H                     0.265850
    226 H                     0.288379
    227 S                     1.118198
    228 C                    -1.082318
    229 H                     0.265701
    230 H                     0.262145
    231 H                     0.273737
    232 O                    -0.649914
    233 C                    -0.964873
    234 H                     0.278280
    235 H                     0.313908
    236 H                     0.244372
    237 S                     0.933461
    238 C                    -0.899733
    239 H                     0.256032
    240 H                     0.265924
    241 H                     0.244329
    242 O                    -0.724565
    243 C                    -0.825783
    244 H                     0.263271
    245 H                     0.213508
    246 H                     0.279940
    247 S                     0.671199
    248 C                    -0.904655
    249 H                     0.314186
    250 H                     0.298839
    251 H                     0.236142
    252 O                    -0.662237
    253 C                    -0.806246
    254 H                     0.249753
    255 H                     0.267083
    256 H                     0.248860
    257 S                     0.889387
    258 C                    -0.891364
    259 H                     0.224532
    260 H                     0.253441
    261 H                     0.262774
    262 O                    -0.660223
    263 C                    -0.734473
    264 H                     0.254359
    265 H                     0.264891
    266 H                     0.273569
    267 S                     1.034876
    268 C                    -0.864902
    269 H                     0.256764
    270 H                     0.230707
    271 H                     0.269088
    272 O                    -0.764629
    273 C                    -0.777031
    274 H                     0.264647
    275 H                     0.240556
    276 H                     0.261457
    277 S                     0.698373
    278 C                    -0.916849
    279 H                     0.252708
    280 H                     0.295876
    281 H                     0.288657
    282 O                    -0.652439
  ----------------------------------------
  Sum of atomic charges =     0.000000

 -----------------------------------------------------------------
                    Cartesian Multipole Moments
 -----------------------------------------------------------------
    Charge (ESU x 10^10)
                 0.0000
    Dipole Moment (Debye)
         X      10.9837      Y     -13.6008      Z      19.8341
       Tot      26.4389
    Quadrupole Moments (Debye-Ang)
        XX    -402.1368     XY     -45.6581     YY   -1530.9418
        XZ     851.2356     YZ     250.3338     ZZ     191.6452
    Octopole Moments (Debye-Ang^2)
       XXX  -53612.5727    XXY  -17052.6073    XYY  -32102.1182
       YYY  -87333.9406    XXZ    4893.3366    XYZ   15969.4242
       YYZ  -23123.4540    XZZ   15178.8074    YZZ    1393.5670
       ZZZ  -25879.9244
    Hexadecapole Moments (Debye-Ang^3)
      XXXX ************   XXXY ************   XXYY ************
      XYYY ************   YYYY ************   XXXZ ************
      XXYZ   24879.8848   XYYZ -360758.1227   YYYZ ************
      XXZZ  -70243.0693   XYZZ  325428.8267   YYZZ -718931.4165
      XZZZ -368098.5939   YZZZ -647774.0453   ZZZZ ************
 -----------------------------------------------------------------
 Total job time:  18217.96s(wall), 253993.58s(cpu) 
 Thu Jul 21 08:17:07 2022

        *************************************************************
        *                                                           *
        *  Thank you very much for using Q-Chem.  Have a nice day.  *
        *                                                           *
        *************************************************************


 
User input: 2 of 2 
 
                  Welcome to Q-Chem
     A Quantum Leap Into The Future Of Chemistry


 Q-Chem 6.0 (devel), Q-Chem, Inc., Pleasanton, CA (2022)

 E. Epifanovsky,  A. T. B. Gilbert,  Xintian Feng,  Joonho Lee,  Yuezhi Mao,  
 N. Mardirossian,  P. Pokhilko,  A. White,  M. Wormit,  M. P. Coons,  
 A. L. Dempwolff,  Zhengting Gan,  D. Hait,  P. R. Horn,  L. D. Jacobson,  
 I. Kaliman,  J. Kussmann,  A. W. Lange,  Ka Un Lao,  D. S. Levine,  Jie Liu,  
 S. C. McKenzie,  A. F. Morrison,  K. Nanda,  F. Plasser,  D. R. Rehn,  
 M. L. Vidal,  Zhi-Qiang You,  Ying Zhu,  B. Alam,  B. Albrecht,  
 A. Aldossary,  E. Alguire,  J. H. Andersen,  V. Athavale,  D. Barton,  
 K. Begam,  A. Behn,  N. Bellonzi,  Y. A. Bernard,  E. J. Berquist,  
 H. Burton,  A. Carreras,  K. Carter-Fenk,  Romit Chakraborty,  
 Chandrima Chakravarty,  Junhan Chen,  A. D. Chien,  K. D. Closser,  
 V. Cofer-Shabica,  L. Cunha,  S. Dasgupta,  Jia Deng,  M. de Wergifosse,  
 M. Diedenhofen,  Hainam Do,  S. Ehlert,  Po-Tung Fang,  S. Fatehi,  
 Qingguo Feng,  T. Friedhoff,  B. Ganoe,  J. Gayvert,  Qinghui Ge,  
 G. Gidofalvi,  M. Goldey,  J. Gomes,  C. Gonzalez-Espinoza,  S. Gulania,  
 A. Gunina,  J. A. Gyamfi,  M. W. D. Hanson-Heine,  P. H. P. Harbach,  
 A. W. Hauser,  M. F. Herbst,  M. Hernandez Vera,  M. Hodecker,  
[...]
    3  -2.3607009  -2.7155636  -1.3963671  -2.0633198  -0.6756420  -0.8965690
          187         188         189         190         191         192
    1  -0.3770412  -2.6732590  -1.5153559  -3.7892882  -3.1490920   0.2586308
    2  -0.6876906  -0.1364406   0.3338634   1.3435723  -1.5084613   2.2770414
    3   0.0452449   0.9630218   2.1145055  -0.4364306   0.5896424   0.2278175
          193         194         195         196         197         198
    1  -2.3600351  -1.4376457  -2.6693484  -2.8282196   0.0371070   0.0150881
    2  -1.9790958  -1.6436053  -3.5805225  -0.6893779  -1.8319437  -3.6807692
    3  -1.5825518  -3.3605197  -0.7788801  -0.3276542  -1.4432076  -0.9588716
          199         200         201         202         203         204
    1   0.0654520   1.6985479  -1.8722414  -1.3066897   2.5900860   3.5503369
    2  -3.0702286  -3.4759559  -3.8845077  -2.2710035   1.9258701   2.8171833
    3  -2.9367087   0.2048915   0.1061657   1.9073134   0.1154559  -0.5089273
          205         206         207         208         209         210
    1   1.0879382   2.7452421   0.6365488  -0.5289560  -1.6866939   1.2525732
    2   3.0158523   0.0371739   3.1906248   1.6790810   1.9896338   0.1418255
    3   1.4141672  -0.6601985  -0.8299891  -0.5569463  -2.0385139  -0.5989082
          211         212         213         214         215         216
    1  -0.4346347   1.5406652  -1.7136669  -0.2877129  -3.5857352  -1.6457341
    2   2.5064703   1.4482332  -1.4549849  -2.5993112  -1.6537583   0.3204977
    3   0.9270068  -3.5461703  -3.2279530  -3.5439705  -2.2738399  -3.6629912
          217         218         219         220         221         222
    1  -0.2080790  -1.2114357  -3.4408850  -0.2330409  -0.3113700  -2.6337157
    2  -0.9526743  -2.3772854  -2.2844033  -3.0928845  -1.4996032   0.4812318
    3  -1.6420959  -0.9149974  -1.1693103  -2.6398501   0.6303413  -0.3516865
          223         224         225         226         227         228
    1  -0.4996558   0.8031266  -2.5572403   0.0380619   0.1186392  -1.7027964
    2  -0.9365471   0.3255668  -1.0272934  -3.1640929  -0.9196105  -0.0207796
    3   1.9649882   1.2242747   2.0583613   2.4490747   0.4083749   0.2714478
          229         230         231         232         233         234
    1  -0.2873548  -1.5826093  -3.4125441  -2.2234435  -0.7256918  -2.0038095
    2   1.1140677  -0.9361105  -0.6351032  -3.6087259   2.2205806   2.9658096
    3   0.5479440  -1.0868899   1.7731237   1.0202774  -2.7475793  -1.5133845
          235         236         237         238         239         240
    1   1.0050241  -1.0285206  -1.9915417  -0.2176160   1.2404807  -1.0998182
    2   1.9804366   1.8267832   0.6250930   0.2377155   0.7099891   1.1981167
    3  -2.4567715  -4.2720778  -2.0423257  -0.6013909  -1.8273795   0.1833659
          241         242         243         244         245         246
    1  -0.1318149  -0.0540512   2.2626186   3.4736997   2.4755550   0.6661248
    2  -1.4402434  -1.2909394  -1.6829310  -0.6041311  -2.7207859  -1.3017431
    3  -0.4784128  -4.0705133  -2.0539067  -3.0683969  -0.4845426  -2.7513580
          247         248         249         250         251         252
    1   2.7795258   0.5139290   0.4184420  -0.2925360   0.9124553   2.1360175
    2  -0.2968063  -0.5439381   1.0851867  -0.9095124  -1.6639919   1.8829388
    3  -0.2578263   0.0812707   0.5072324  -1.5814412   0.9299666  -2.5372904
          253         254         255         256         257         258
    1  -0.2153459   1.2930568  -2.0598496  -0.0948070   1.2848214   0.2962072
    2  -0.1155895   0.1983211   1.0335821  -1.6466040   0.8537882   2.6929926
    3   3.5579275   4.2341044   3.4817343   2.7834123   2.1569372   2.5172177
          259         260         261         262         263         264
    1   1.7521558   0.7330278  -1.7661823  -1.5771463  -1.2863074  -2.3093579
    2   1.7296573   3.5994009   2.2731981   1.5505194  -1.4497883  -3.1807179
    3   3.6186256   0.9223210   2.9916785   0.5893374  -0.1599771   0.7499869
          265         266         267         268         269         270
    1  -0.6804298  -0.6590061   0.4166670  -0.3158916  -2.1116562   1.2878113
    2   0.3748932  -1.3429023  -3.0714206  -2.8700320  -3.3348792  -3.9910820
    3   0.2869676  -1.5667551  -0.0408144   2.0795140   1.4222166   2.0287159
          271         272         273         274         275         276
    1   0.1227653   1.8712968   3.4443171   2.5419042   4.5023217   3.2356918
    2  -1.0776093  -0.1537249   0.1715618   1.0779605   1.1228124  -1.7913136
    3   2.5426968   0.4100143  -1.0987986  -2.2449831   0.1210784  -1.2084244
          277         278         279         280         281         282
    1   2.3848725   3.0235381   4.5254826   1.5823011   3.0582022  -0.2728085
    2   1.0370735  -1.1175813  -0.2472768  -1.0262226  -2.3810515  -0.6208401
    3   0.4113091   1.2354132   1.4075566   2.2332915  -0.0838257  -0.8928698
 EField
            1           2           3           4           5           6
    1   0.0052826   0.0028822   0.0006522   0.0027802   0.0027213   0.0032893
    2  -0.0020958  -0.0004592   0.0014579   0.0029386   0.0027718   0.0019085
    3   0.0015052  -0.0026110  -0.0000537   0.0004544   0.0007509   0.0025138
            7           8           9          10          11          12
    1  -0.0011025   0.0029046   0.0038877   0.0095744   0.0072499   0.0017415
    2   0.0025928   0.0013276  -0.0081103  -0.0005639   0.0037719   0.0045600
    3  -0.0025156  -0.0075061   0.0046773   0.0004500   0.0029478  -0.0010767
           13          14          15          16          17          18
    1   0.0042611  -0.0000880   0.0026412   0.0045847  -0.0002271   0.0067687
    2   0.0017022   0.0051015   0.0023898   0.0040891  -0.0002700  -0.0018032
    3  -0.0013162   0.0007284   0.0012881   0.0057845   0.0030707  -0.0058368
           19          20          21          22          23          24
    1   0.0117383   0.0080483   0.0120852   0.0064714   0.0093233  -0.0133611
    2   0.0018043  -0.0018139  -0.0013964   0.0004047   0.0101557   0.0222936
    3  -0.0032940  -0.0091309  -0.0088180  -0.0104201   0.0024203  -0.0183391
           25          26          27          28          29          30
    1  -0.0031426   0.0326609  -0.0559884   0.0084120   0.0301201  -0.0038095
    2   0.0001805   0.0073824  -0.0135458  -0.0037757   0.0100438   0.0000865
    3   0.0318157  -0.0023797   0.0185026   0.0071471  -0.0049404   0.0334287
           31          32          33          34          35          36
    1   0.0012509   0.0303881   0.0028425  -0.0181091   0.0112549   0.0153594
    2  -0.0269465  -0.0100843   0.0086369   0.0160047   0.0232050  -0.0127709
    3  -0.0148013  -0.1047747  -0.0045414  -0.0215888   0.0255612  -0.0137890
           37          38          39          40          41          42
    1   0.0256088  -0.0121311  -0.0173308   0.0088150  -0.0257722  -0.0560603
    2  -0.0381149   0.0000782   0.0162257  -0.0200290  -0.0143257   0.0848256
    3   0.0340053  -0.0032786  -0.0244803  -0.0185233   0.0190410   0.0469300
           43          44          45          46          47          48
    1  -0.0026967   0.0122397  -0.0239955   0.0253009   0.0620154  -0.0062807
    2  -0.0117352  -0.0310109  -0.0041635  -0.0090465   0.0130261  -0.0025042
    3  -0.0015796   0.0196714  -0.0104033  -0.0226878   0.0157645   0.0066123
           49          50          51          52          53          54
    1  -0.0267838   0.0055869   0.0033030  -0.0440718   0.0028981  -0.0256123
    2  -0.0157683  -0.0198928   0.0364401   0.0532443  -0.0007558   0.0102634
    3   0.0018858   0.0274078  -0.0050246  -0.0840827   0.0066977   0.0054841
           55          56          57          58          59          60
    1   0.0031517   0.0132757  -0.0283494   0.0047718   0.0172152   0.0110983
    2  -0.0334770   0.0236651  -0.0316168  -0.0045321  -0.0348723   0.0134645
    3   0.0079429   0.0218438  -0.0380766   0.0028573  -0.0029877  -0.0205701
           61          62          63          64          65          66
    1   0.0176970   0.0146095  -0.0053102   0.0006496  -0.0321858   0.0044903
    2   0.0195405   0.1084792   0.0024717  -0.0201685  -0.0035359   0.0286563
    3   0.0192452  -0.0140982  -0.0014216  -0.0218691   0.0088557  -0.0130406
           67          68          69          70          71          72
    1  -0.0007318   0.0084316  -0.0028125   0.0346641  -0.0042328  -0.0048626
    2   0.0338577   0.0016373   0.0329526  -0.0070740  -0.0085287  -0.1089083
    3   0.0484181  -0.0044620  -0.0032628   0.0034753  -0.0291721  -0.0035580
           73          74          75          76          77          78
    1   0.0101509  -0.0192839   0.0023992   0.0300013   0.0172756  -0.0073109
    2  -0.0086820  -0.0278491   0.0083522   0.0006199   0.0387076  -0.0080342
    3  -0.0054251   0.0162483  -0.0255609   0.0110290   0.0278297   0.0023811
           79          80          81          82          83          84
    1   0.0062418  -0.0247447   0.0015676  -0.0483497  -0.0122478  -0.0225488
    2  -0.0134405   0.0270338  -0.0278748   0.0053194   0.0106164   0.0144250
    3   0.0308699   0.0034118  -0.0175034  -0.0985942   0.0045087  -0.0270238
           85          86          87          88          89          90
    1  -0.0292915   0.0186915   0.0277981  -0.0080116  -0.0047539  -0.0286484
    2  -0.0217435   0.0288864   0.0207866  -0.0079853  -0.0129302   0.0137743
    3   0.0026846   0.0178811  -0.0432421   0.0008014   0.0286856  -0.0108311
           91          92          93          94          95          96
    1   0.0187565   0.0421981   0.0033986   0.0270239  -0.0075783   0.0008606
    2  -0.0208041  -0.0108084   0.0020055  -0.0100896  -0.0223868   0.0268806
    3  -0.0151442   0.0998019  -0.0124620   0.0016800  -0.0200491  -0.0174670
           97          98          99         100         101         102
    1   0.0045918  -0.0085608  -0.0200056   0.0034271  -0.0049972   0.0291478
    2  -0.0462540   0.0036649   0.0085414   0.0293553  -0.0298649   0.1020108
    3   0.0349952  -0.0064928   0.0213394  -0.0235015  -0.0106960   0.0219819
          103         104         105         106         107         108
    1  -0.0039547  -0.0194827   0.0171765  -0.0105483   0.0417698  -0.0085646
    2   0.0127495   0.0240902   0.0317056  -0.0014765  -0.0275636  -0.0011642
    3   0.0012913   0.0085231  -0.0088191  -0.0284309  -0.0264846  -0.0022295
          109         110         111         112         113         114
    1  -0.0245574  -0.0045359  -0.0012242  -0.0073528  -0.0078125   0.0001139
    2   0.0205854  -0.0103687  -0.0164230   0.0239487   0.0064693   0.0308539
    3   0.0004283  -0.0338354   0.0268429   0.1056498   0.0000502   0.0240522
          115         116         117         118         119         120
    1  -0.0107863  -0.0287104   0.0226561   0.0073774   0.0396319  -0.0065927
    2  -0.0127231  -0.0013117  -0.0010500   0.0005250  -0.0063415  -0.0064415
    3  -0.0233537   0.0171048   0.0491479  -0.0096876  -0.0001074  -0.0208654
          121         122         123         124         125         126
    1   0.0167791  -0.0342396   0.0011051  -0.0097813  -0.0106107   0.0300339
    2   0.0343436  -0.0858869  -0.0018109  -0.0309105   0.0209153  -0.0044948
    3   0.0040975  -0.0584572  -0.0083291   0.0012590  -0.0217816  -0.0055529
          127         128         129         130         131         132
    1   0.0305083  -0.0049380  -0.0172081  -0.0186788  -0.0260348  -0.0132307
    2  -0.0209256  -0.0017473  -0.0331752   0.0118492   0.0116886   0.1050164
    3   0.0429003  -0.0023686   0.0137860   0.0195283  -0.0232040  -0.0265515
          133         134         135         136         137         138
    1  -0.0027630  -0.0057901   0.0275214  -0.0260288   0.0449134   0.0006770
    2   0.0056090  -0.0131734   0.0230792   0.0211276  -0.0307257   0.0015388
    3   0.0050216   0.0289351   0.0023436  -0.0020140   0.0058542  -0.0064689
          139         140         141         142         143         144
    1  -0.0167683  -0.0133866   0.0250582  -0.1034304  -0.0000650   0.0258306
    2  -0.0141289   0.0307960   0.0162138  -0.0400226   0.0093499   0.0102611
    3  -0.0227165  -0.0107129  -0.0133034   0.0020031   0.0031900  -0.0141334
          145         146         147         148         149         150
    1  -0.0299593   0.0029507  -0.0410297   0.0072113   0.0242114   0.0041515
    2   0.0102040   0.0034028  -0.0279037  -0.0013879   0.0196815  -0.0036375
    3  -0.0092156   0.0340745   0.0311351   0.0015946  -0.0047546   0.0300362
          151         152         153         154         155         156
    1   0.0080261   0.0124623   0.0128529   0.0155775   0.0006468   0.0157910
    2  -0.0257839  -0.0129837  -0.0010793  -0.0272893   0.0287413  -0.0012872
    3  -0.0153291  -0.1071986  -0.0043012  -0.0067833  -0.0151455   0.0263889
          157         158         159         160         161         162
    1  -0.0225603   0.0028401  -0.0246936   0.0102305   0.0099135  -0.0308253
    2   0.0389578  -0.0051636  -0.0156214  -0.0202773  -0.0033503  -0.0344515
    3   0.0313768   0.0048285   0.0097415  -0.0174112   0.0399912  -0.0982826
          163         164         165         166         167         168
    1   0.0048872  -0.0019073   0.0293697  -0.0024684  -0.0473209   0.0101826
    2   0.0033649   0.0013122  -0.0008273   0.0311562  -0.0027336  -0.0088424
    3   0.0027935   0.0350156  -0.0078252  -0.0069705   0.0100607   0.0007580
          169         170         171         172         173         174
    1  -0.0108751   0.0293540  -0.0051254   0.0496340   0.0106980   0.0241126
    2  -0.0237864   0.0009523  -0.0164988   0.0177539  -0.0027309  -0.0086159
    3  -0.0185100   0.0026427   0.0259702  -0.0972720  -0.0071381   0.0220275
          175         176         177         178         179         180
    1  -0.0002379  -0.0067727  -0.0114332   0.0037531   0.0245184  -0.0231367
    2  -0.0196343   0.0323875   0.0286343  -0.0071280  -0.0034592  -0.0267942
    3  -0.0252947  -0.0086291   0.0437856  -0.0009470   0.0195012   0.0106077
          181         182         183         184         185         186
    1   0.0043279  -0.0616906  -0.0063376   0.0172348  -0.0171251  -0.0043319
    2  -0.0188350  -0.0054831   0.0001357  -0.0003835  -0.0324957   0.0344064
    3  -0.0250635  -0.0913043  -0.0063918  -0.0237552   0.0013729  -0.0142704
          187         188         189         190         191         192
    1   0.0358306  -0.0105207  -0.0008923  -0.0323295  -0.0137423   0.0422682
    2  -0.0523228   0.0026113   0.0057573   0.0223763  -0.0301024   0.0997814
    3   0.0032834   0.0019242   0.0229908   0.0006993  -0.0014649   0.0061068
          193         194         195         196         197         198
    1  -0.0047335  -0.0075036  -0.0191696  -0.0164149   0.0336350   0.0009202
    2   0.0000826   0.0028887  -0.0208873   0.0170519   0.0290721  -0.0064085
    3  -0.0029752  -0.0357007   0.0082915   0.0166549  -0.0220259  -0.0008702
          199         200         201         202         203         204
    1   0.0087057   0.0253288  -0.0206726  -0.0302912   0.0034455   0.0276699
    2  -0.0182448  -0.0124726  -0.0132838  -0.0030831  -0.0043435   0.0130009
    3  -0.0318120   0.0133300   0.0189991   0.1064672   0.0014581  -0.0070329
          205         206         207         208         209         210
    1  -0.0028481   0.0082370  -0.0156654  -0.0033011  -0.0216117   0.0069961
    2  -0.0010291  -0.0309617   0.0522692  -0.0107771   0.0015636  -0.0300138
    3   0.0377907   0.0080783   0.0068631   0.0041476  -0.0194788   0.0050661
          211         212         213         214         215         216
    1  -0.0147687   0.0235641  -0.0066054   0.0155900  -0.0315256   0.0018423
    2   0.0057059  -0.0427410   0.0026588  -0.0221761  -0.0090844   0.0258287
    3   0.0287946  -0.0989636  -0.0089443  -0.0160501   0.0018154  -0.0218052
          217         218         219         220         221         222
    1   0.0577429  -0.0027675  -0.0312253   0.0163119   0.0069264  -0.0738934
    2   0.0149678  -0.0044981  -0.0056712  -0.0233015   0.0000452   0.0640208
    3  -0.0051027   0.0010130   0.0083523  -0.0160973   0.0266782   0.0503399
          223         224         225         226         227         228
    1   0.0006828   0.0102016  -0.0339682   0.0188364   0.0501620  -0.0089516
    2  -0.0040601   0.0143114   0.0157455  -0.0336339  -0.0005499   0.0024909
    3   0.0118385   0.0118738   0.0072357   0.0080041  -0.0288540  -0.0046119
          229         230         231         232         233         234
    1   0.0107940  -0.0102986  -0.0304753  -0.0608314   0.0076613  -0.0166335
    2   0.0234397  -0.0075212  -0.0070957  -0.0933910   0.0125285   0.0224096
    3  -0.0065146  -0.0292487   0.0154053   0.0033826  -0.0010643   0.0201439
          235         236         237         238         239         240
    1   0.0357362  -0.0068300  -0.0583131   0.0098519   0.0309040  -0.0127632
    2  -0.0004245   0.0033126   0.0019417   0.0005198   0.0082981   0.0247108
    3   0.0046651  -0.0306065   0.0128483   0.0061784  -0.0039011   0.0171691
          241         242         243         244         245         246
    1   0.0018029   0.0453944  -0.0030750   0.0287552   0.0099868  -0.0332906
    2  -0.0283596  -0.0672089  -0.0035999   0.0019999  -0.0355596  -0.0005959
    3   0.0095735  -0.0728324  -0.0046072  -0.0153646   0.0063758  -0.0091628
          247         248         249         250         251         252
    1   0.0432904  -0.0135070  -0.0073685  -0.0261143   0.0030656  -0.0145279
    2  -0.0015965   0.0008452   0.0323062  -0.0066344  -0.0266708   0.0827010
    3   0.0347734   0.0015175   0.0095215  -0.0182889   0.0227442  -0.0722666
          253         254         255         256         257         258
    1  -0.0050975   0.0237635  -0.0320430  -0.0101243   0.0495454   0.0000834
    2  -0.0040660   0.0015327   0.0070961  -0.0318404  -0.0100838   0.0075988
    3   0.0069074   0.0246594   0.0038061   0.0008241  -0.0118662   0.0056443
          259         260         261         262         263         264
    1   0.0242906   0.0077839  -0.0314732  -0.0824788  -0.0069127  -0.0314347
    2   0.0146180   0.0211232   0.0027214   0.0155624   0.0038931  -0.0082439
    3   0.0288198  -0.0200309   0.0053254  -0.0701859  -0.0052793   0.0009451
          265         266         267         268         269         270
    1   0.0003243  -0.0054618   0.0074147  -0.0010553  -0.0259659   0.0100071
    2   0.0245266  -0.0057170  -0.0453649   0.0002362  -0.0141689  -0.0256819
    3   0.0211414  -0.0317373  -0.0269947   0.0054287   0.0088925   0.0280811
          271         272         273         274         275         276
    1   0.0030631   0.0667394   0.0047235  -0.0165140   0.0316789   0.0041988
    2   0.0261128   0.0874916  -0.0022008   0.0217927   0.0071463  -0.0333872
    3   0.0122760   0.0105039  -0.0082439  -0.0240649   0.0083790   0.0011691
          277         278         279         280         281         282
    1   0.0038776  -0.0011457   0.0276117  -0.0220411  -0.0055528  -0.0976842
    2   0.0516019  -0.0109485   0.0114577  -0.0141241  -0.0304029  -0.0403416
    3   0.0237417   0.0055688   0.0105930   0.0218427  -0.0141484  -0.0450823
  --- DONE ESP SUMMARY ---
 Total job time:  33.89s(wall), 86.85s(cpu) 
 Thu Jul 21 08:17:41 2022

        *************************************************************
        *                                                           *
        *  Thank you very much for using Q-Chem.  Have a nice day.  *
        *                                                           *
        *************************************************************


