                  Welcome to Q-Chem
     A Quantum Leap Into The Future Of Chemistry


 Q-Chem 5.2 (devel), Q-Chem, Inc., Pleasanton, CA (2019)

 Yihan Shao,  Zhengting Gan,  E. Epifanovsky,  A. T. B. Gilbert,  M. Wormit,  
 J. Kussmann,  A. W. Lange,  A. Behn,  Jia Deng,  Xintian Feng,  D. Ghosh,  
 M. Goldey,  P. R. Horn,  L. D. Jacobson,  I. Kaliman,  T. Kus,  A. Landau,  
 Jie Liu,  E. I. Proynov,  R. M. Richard,  R. P. Steele,  E. J. Sundstrom,  
 H. L. Woodcock III,  P. M. Zimmerman,  D. Zuev,  B. Alam,  B. Albrecht,  
 E. Alguire,  S. A. Baeppler,  D. Barton,  Z. Benda,  Y. A. Bernard,  
 E. J. Berquist,  K. B. Bravaya,  H. Burton,  K. Carter-Fenk,  D. Casanova,  
 Chun-Min Chang,  Yunqing Chen,  A. Chien,  K. D. Closser,  M. P. Coons,  
 S. Coriani,  S. Dasgupta,  A. L. Dempwolff,  M. Diedenhofen,  Hainam Do,  
 R. G. Edgar,  Po-Tung Fang,  S. Faraji,  S. Fatehi,  Qingguo Feng,  
 J. Fosso-Tande,  J. Gayvert,  Qinghui Ge,  A. Ghysels,  G. Gidofalvi,  
 J. Gomes,  J. Gonthier,  A. Gunina,  D. Hait,  M. W. D. Hanson-Heine,  
 P. H. P. Harbach,  A. W. Hauser,  M. F. Herbst,  J. E. Herr,  
 E. G. Hohenstein,  Z. C. Holden,  Kerwin Hui,  B. C. Huynh,  T.-C. Jagau,  
 Hyunjun Ji,  B. Kaduk,  K. Khistyaev,  Jaehoon Kim,  P. Klunzinger,  K. Koh,  
 D. Kosenkov,  L. Koulias,  T. Kowalczyk,  C. M. Krauter,  A. Kunitsa,  
 Ka Un Lao,  A. Laurent,  K. V. Lawler,  Joonho Lee,  D. Lefrancois,  
 S. Lehtola,  D. S. Levine,  Yi-Pei Li,  You-Sheng Lin,  Fenglai Liu,  
 Kuan-Yu Liu,  E. Livshits,  M. Loipersberger,  A. Luenser,  P. Manohar,  
 E. Mansoor,  S. F. Manzer,  Shan-Ping Mao,  Yuezhi Mao,  N. Mardirossian,  
 A. V. Marenich,  T. Markovich,  L. A. Martinez-Martinez,  S. A. Maurer,  
 N. J. Mayhall,  S. C. McKenzie,  J.-M. Mewes,  P. Morgante,  A. F. Morrison,  
 J. W. Mullinax,  K. Nanda,  T. S. Nguyen-Beck,  R. Olivares-Amaya,  
 J. A. Parkhill,  S. K. Paul,  F. Pavosevic,  Zheng Pei,  T. M. Perrine,  
 F. Plasser,  P. Pokhilko,  S. Prager,  A. Prociuk,  E. Ramos,  B. Rana,  
 D. R. Rehn,  F. Rob,  M. Scheurer,  M. Schneider,  N. Sergueev,  
 S. M. Sharada,  S. Sharma,  D. W. Small,  T. Stauch,  C. J. Stein,  
 T. Stein,  Yu-Chuan Su,  S. P. Veccham,  Zhen Tao,  A. J. W. Thom,  
 A. Tkatchenko,  T. Tsuchimochi,  N. M. Tubman,  L. Vogt,  M. L. Vidal,  
 O. Vydrov,  M. A. Watson,  J. Wenzel,  M. de Wergifosse,  T. A. Wesolowski,  
 A. White,  J. Witte,  A. Yamada,  Jun Yang,  K. Yao,  S. Yeganeh,  
 S. R. Yost,  Zhi-Qiang You,  A. Zech,  Igor Ying Zhang,  Xing Zhang,  
 Yan Zhao,  Ying Zhu,  B. R. Brooks,  G. K. L. Chan,  C. J. Cramer,  
 M. S. Gordon,  W. J. Hehre,  A. Klamt,  M. W. Schmidt,  C. D. Sherrill,  
 D. G. Truhlar,  A. Aspuru-Guzik,  R. Baer,  A. T. Bell,  N. A. Besley,  
 Jeng-Da Chai,  A. E. DePrince, III,  R. A. DiStasio Jr.,  A. Dreuw,  
 B. D. Dunietz,  T. R. Furlani,  Chao-Ping Hsu,  Yousung Jung,  Jing Kong,  
 D. S. Lambrecht,  WanZhen Liang,  C. Ochsenfeld,  V. A. Rassolov,  
 L. V. Slipchenko,  J. E. Subotnik,  T. Van Voorhis,  J. M. Herbert,  
 A. I. Krylov,  P. M. W. Gill,  M. Head-Gordon

 Contributors to earlier versions of Q-Chem not listed above: 
 R. D. Adamson,  B. Austin,  J. Baker,  G. J. O. Beran,  K. Brandhorst,  
 S. T. Brown,  E. F. C. Byrd,  A. K. Chakraborty,  C.-L. Cheng,  
 Siu Hung Chien,  D. M. Chipman,  D. L. Crittenden,  H. Dachsel,  
 R. J. Doerksen,  A. D. Dutoi,  L. Fusti-Molnar,  W. A. Goddard III,  
 A. Golubeva-Zadorozhnaya,  S. R. Gwaltney,  G. Hawkins,  A. Heyden,  
 S. Hirata,  G. Kedziora,  F. J. Keil,  C. Kelley,  Jihan Kim,  R. A. King,  
 R. Z. Khaliullin,  P. P. Korambath,  W. Kurlancheek,  A. M. Lee,  M. S. Lee,  
 S. V. Levchenko,  Ching Yeh Lin,  D. Liotard,  R. C. Lochan,  I. Lotan,  
 P. E. Maslen,  N. Nair,  D. P. O'Neill,  D. Neuhauser,  E. Neuscamman,  
 C. M. Oana,  R. Olson,  B. Peters,  R. Peverati,  P. A. Pieniazek,  
 Y. M. Rhee,  J. Ritchie,  M. A. Rohrdanz,  E. Rosta,  N. J. Russ,  
 H. F. Schaefer III,  N. E. Schultz,  N. Shenvi,  A. C. Simmonett,  A. Sodt,  
 D. Stuck,  K. S. Thanthiriwatte,  V. Vanovschi,  Tao Wang,  A. Warshel,  
 C. F. Williams,  Q. Wu,  X. Xu,  W. Zhang

 Please cite Q-Chem as follows:
 Y. Shao et al., Mol. Phys. 113, 184-215 (2015)
 DOI: 10.1080/00268976.2014.952696

 Q-Chem 5.2.2 for Intel X86 EM64T Linux

 Parts of Q-Chem use Armadillo 9.800.1 (Horizon Scraper).
 http://arma.sourceforge.net/

 Q-Chem begins on Sat Dec  4 00:13:55 2021  

Host: node027
0

     Scratch files written to /home/ymao90/scratch/r7.00_frame_0083_spade_B3LYP_dp20211203120854//

Checking the input file for inconsistencies... 	...done.

--------------------------------------------------------------
User input:
--------------------------------------------------------------
$molecule
0 1
--
0 1
C    29.91400   28.41100   25.90300  
C    28.47800   28.66700   26.39000  
C    27.55300   27.46200   26.62400  
C    28.26400   26.29600   27.32900  
C    29.66700   26.04000   26.75300  
C    30.54900   27.29900   26.75500  
H    26.70200   27.77400   27.24200  
H    28.61400   29.11400   27.38300  
H    29.88900   28.10300   24.85100  
H    30.56100   29.29100   25.80900  
H    28.26100   26.51700   28.40400  
H    27.61600   25.42000   27.19900  
H    30.07900   25.22300   27.35700  
H    29.56500   25.62300   25.74400  
H    30.79900   27.67900   27.75300  
H    31.58400   27.09800   26.45000  
H    27.30100   26.94600   25.68900  
N    27.82100   29.66500   25.54800  
H    27.29200   29.28800   24.77100  
C    27.73300   31.00500   25.86200  
H    26.95600   31.52400   25.27200  
O    28.31500   31.50000   26.81100  
--
0 1
C    22.82700   34.04700   24.52000  
H    21.91000   33.51300   24.25900  
H    23.07500   33.80800   25.55700  
H    22.75400   35.13000   24.38700  
S    24.19700   33.35900   23.56400  
C    23.79600   31.63900   23.94300  
H    24.75900   31.12300   23.98200  
H    23.24600   31.49100   24.87600  
H    23.15200   31.27100   23.14100  
O    25.30000   33.53600   24.56100  
C    30.99400   30.92200   28.72700  
H    30.62400   31.53700   29.55100  
H    30.57800   31.41400   27.84400  
H    30.68300   29.88300   28.86300  
S    32.77700   31.13000   28.52200  
C    33.24600   30.30800   30.06100  
H    33.87600   29.42900   29.90600  
H    33.91200   31.00100   30.58200  
H    32.43600   30.04600   30.74700  
O    32.97900   32.61300   28.56000  
C    29.77100   35.59600   26.12100  
H    29.63900   35.52000   27.20300  
H    30.68400   36.16200   25.92000  
H    28.88700   36.13800   25.77400  
S    29.74900   34.07200   25.14900  
C    31.18100   33.47100   26.07300  
H    32.10100   33.90600   25.67600  
H    31.09900   33.61500   27.15400  
H    31.29900   32.39800   25.90200  
O    30.43900   34.34300   23.84900  
C    31.32500   30.42600   22.05400  
H    31.24500   31.51400   22.12700  
H    30.92100   29.86300   22.90000  
H    32.40700   30.34000   21.93300  
S    30.54800   29.76600   20.56200  
C    28.83600   29.99100   21.09300  
H    28.74700   31.04200   21.38300  
H    28.24900   29.75400   20.20200  
H    28.51800   29.28900   21.86800  
O    30.74700   28.28300   20.61500  
C    34.11900   22.79300   31.28600  
H    34.46400   23.76400   31.64900  
H    34.66200   21.95900   31.74000  
H    34.30200   22.80800   30.20900  
S    32.39500   22.48600   31.73100  
C    32.29000   21.04600   30.64400  
H    31.56700   20.36900   31.10600  
H    31.94800   21.42400   29.67700  
H    33.28200   20.58800   30.62600  
O    31.66200   23.60300   31.05700  
C    30.86900   33.59400   32.25400  
H    31.79500   33.20500   32.68500  
H    30.40600   34.42300   32.79700  
H    30.06000   32.92300   31.95300  
S    31.49400   34.34000   30.73100  
C    32.52500   35.52700   31.62200  
H    32.83700   36.27200   30.88600  
H    31.87200   35.92400   32.40400  
H    33.41700   34.98400   31.94300  
O    30.28500   35.09800   30.28100  
C    27.29800   22.28700   31.85500  
H    26.77200   23.21800   32.08200  
H    26.57800   21.54200   31.50700  
H    27.76400   21.92400   32.77400  
S    28.69300   22.36500   30.70900  
C    27.74800   22.84900   29.24700  
H    27.06800   22.03700   28.97900  
H    27.18000   23.76100   29.45000  
H    28.46900   22.99600   28.43900  
O    28.97900   20.90700   30.52600  
C    23.46400   23.28800   29.92100  
H    24.33800   22.64700   29.77500  
H    22.99700   22.99100   30.86400  
H    22.74900   23.12500   29.11000  
S    23.94800   24.98400   30.31000  
C    24.43500   25.67300   28.71100  
H    23.62500   26.16000   28.16200  
H    25.24400   26.40000   28.82100  
H    24.74300   24.86300   28.04500  
O    25.26900   24.93400   31.01200  
C    30.27800   24.98900   21.01700  
H    30.12200   25.99300   21.42100  
H    31.31200   25.02200   20.66300  
H    29.59800   24.60700   20.25200  
S    29.85900   23.94000   22.42800  
C    30.62200   22.47500   21.69600  
H    30.22300   21.74500   22.40500  
H    30.25300   22.35900   20.67300  
H    31.71300   22.53700   21.70900  
O    28.38800   23.66500   22.46000  
C    28.89000   20.05500   25.58200  
H    29.49400   19.92400   24.68100  
H    28.41400   21.03800   25.53500  
H    29.39500   19.80800   26.51900  
S    27.55000   18.84600   25.66800  
C    26.77200   19.35500   24.11800  
H    25.99800   18.62400   23.87000  
H    26.25000   20.30400   24.25900  
H    27.57600   19.45200   23.38400  
O    26.68100   19.27900   26.80800  
C    27.72600   38.66900   29.67300  
H    28.43400   38.28000   30.41000  
H    27.98600   39.70900   29.46100  
H    26.71400   38.40400   29.99000  
S    28.30000   37.80700   28.19300  
C    30.01200   38.30100   28.49400  
H    30.16600   39.37900   28.58700  
H    30.39000   37.76500   29.36800  
H    30.40900   37.91100   27.55300  
O    27.76600   38.67600   27.09800  
C    22.22300   25.21400   26.08700  
H    22.24500   25.00500   27.16000  
H    23.21500   25.40600   25.67000  
H    21.71300   26.17100   25.94800  
S    21.43800   23.75300   25.36900  
C    21.21300   24.65500   23.82000  
H    20.49900   24.08900   23.21600  
H    20.91100   25.69300   23.98000  
H    22.18700   24.66500   23.32300  
O    20.03000   23.72400   25.87700  
C    36.42200   31.98700   26.04800  
H    37.40500   31.72300   25.65000  
H    36.18100   33.05300   26.03600  
H    36.20600   31.49800   27.00100  
S    35.51400   31.24800   24.67200  
C    33.82500   31.80200   24.99800  
H    33.62900   31.45700   26.01600  
H    33.89200   32.89100   24.93400  
H    33.12700   31.32900   24.30200  
O    35.48800   29.77300   24.92700  
C    24.56500   27.21900   23.59000  
H    24.10300   27.94800   24.26100  
H    23.91000   26.55100   23.02400  
H    25.08000   26.62200   24.34700  
S    25.74100   27.83100   22.36300  
C    27.10700   26.65000   22.43300  
H    26.71000   25.68300   22.11500  
H    27.98700   27.00600   21.89000  
H    27.49100   26.75700   23.45100  
O    26.45200   28.97800   23.01000  
C    26.03800   37.17900   24.45100  
H    27.09200   37.46600   24.44800  
H    25.38400   38.02400   24.68100  
H    25.69300   36.35900   25.08700  
S    25.62300   36.55800   22.80500  
C    27.04900   35.45000   22.75300  
H    27.03900   34.69600   23.54400  
H    27.10300   34.90300   21.80900  
H    27.95200   36.03500   22.95100  
O    26.07800   37.69800   21.94800  
C    34.47900   26.46800   22.91200  
H    33.47100   26.07200   23.06300  
H    34.99400   25.65900   22.38700  
H    35.07400   26.76100   23.78100  
S    34.66600   27.88600   21.80900  
C    33.76700   26.92900   20.56800  
H    33.61300   27.55600   19.68700  
H    34.46400   26.12900   20.30500  
H    32.83100   26.53100   20.96800  
O    36.09500   27.82200   21.36700  
C    27.61200   32.56300   30.94500  
H    27.86100   33.08400   31.87400  
H    28.43400   31.90500   30.65200  
H    27.30100   33.25700   30.16000  
S    26.20800   31.48800   31.31600  
C    25.22700   32.77900   32.11300  
H    25.63600   33.21900   33.02600  
H    24.86600   33.50500   31.38000  
H    24.35900   32.24000   32.50200  
O    26.78300   30.63900   32.40700  
C    32.89600   19.20300   26.68100  
H    31.94600   19.12100   27.21600  
H    33.54100   18.38300   27.00900  
H    33.37300   20.05300   27.17500  
S    32.67400   19.15600   24.88800  
C    34.45800   19.22500   24.60800  
H    35.11000   18.60400   25.22600  
H    34.60400   18.99000   23.55100  
H    34.63300   20.26900   24.88200  
O    32.24100   20.56600   24.62900  
C    33.50500   23.16300   27.10500  
H    32.61400   22.63400   26.75800  
H    34.37800   22.51000   27.18600  
H    33.36700   23.76400   28.00700  
S    33.94100   24.30000   25.77000  
C    33.15900   23.34600   24.44900  
H    33.75400   22.43000   24.48400  
H    32.08700   23.18300   24.58500  
H    33.37400   23.76400   23.46100  
O    35.40700   24.06400   25.58300  
C    24.09400   29.14400   29.38100  
H    23.48800   29.98200   29.73500  
H    23.61200   28.23100   29.73800  
H    25.11400   29.08800   29.76900  
S    24.11900   29.04400   27.57700  
C    24.56100   30.79400   27.49500  
H    23.88000   31.45900   28.03200  
H    25.49700   30.84700   28.05600  
H    24.55600   31.13800   26.45700  
O    22.67000   28.86800   27.24500  
C    25.02800   36.24000   27.88200  
H    25.89200   36.70400   27.40100  
H    24.32900   35.82500   27.15100  
H    24.42500   36.95600   28.44600  
S    25.57400   34.86000   28.91400  
C    26.33900   33.91600   27.57700  
H    27.21800   34.46600   27.23300  
H    26.51600   32.90700   27.96000  
H    25.59000   33.76300   26.79500  
O    24.33600   34.06400   29.18600  
C    26.19300   32.30800   20.63200  
H    27.10900   32.59000   20.10700  
H    25.57700   33.15100   20.95600  
H    26.47000   31.59300   21.41100  
S    25.29600   31.39900   19.35400  
C    23.80900   31.25200   20.37100  
H    24.00900   30.52800   21.16500  
H    23.54200   32.24400   20.74300  
H    22.95000   30.82900   19.84400  
O    25.94000   30.06700   19.57700  
C    34.70800   28.29700   32.78700  
H    35.49600   28.69700   33.43000  
H    35.21600   28.26700   31.81900  
H    33.75900   28.83300   32.86900  
S    34.75300   26.53700   33.19300  
C    33.10900   26.13400   32.56000  
H    32.37800   26.91000   32.79700  
H    33.21800   26.07300   31.47400  
H    32.72200   25.17600   32.91700  
O    34.53300   26.62900   34.67000  
C    25.07500   23.11400   23.83900  
H    25.13700   22.16900   23.29300  
H    24.08600   23.35300   24.23700  
H    25.38400   23.96000   23.22000  
S    26.02700   23.23800   25.36900  
C    24.90600   22.14900   26.27700  
H    25.17500   22.08500   27.33500  
H    23.89600   22.54600   26.14800  
H    24.99300   21.16500   25.80800  
O    25.49800   24.54000   25.88300  
C    28.75200   28.37400   33.59400  
H    28.93300   29.40800   33.89700  
H    27.79200   27.97200   33.92700  
H    29.60800   27.87600   34.05700  
S    28.66100   28.18700   31.79800  
C    28.35800   26.40700   31.72400  
H    28.14900   26.18600   30.67500  
H    29.22000   25.79800   32.00600  
H    27.55400   26.11200   32.40400  
O    30.09200   28.31500   31.38000  
C    34.40100   27.87000   27.43100  
H    33.52500   28.26600   27.95100  
H    34.28700   28.12400   26.37400  
H    34.43200   26.77700   27.44300  
S    35.96700   28.63100   27.91500  
C    36.94600   27.74600   26.68100  
H    37.98300   27.76600   27.02500  
H    36.56000   26.72600   26.61300  
H    36.80200   28.11700   25.66300  
O    36.30400   27.84300   29.14300  
$end

$rem
JOBTYPE  SP
METHOD  B3LYP
BASIS  6-31+G(D)
SYMMETRY  FALSE
SYM_IGNORE  TRUE
MEM_TOTAL  16000
MEM_STATIC  8000
MAX_SUB_FILE_NUM  16000
BASIS_LIN_DEP_THRESH  6
THRESH  14
SCF_CONVERGENCE  8
GEN_SCFMAN  TRUE
SCF_GUESS  SAD
FD_MAT_VEC_PROD  FALSE
XC_GRID  000075000302
NL_GRID  1
MAX_SCF_CYCLES  200
ENV_METHOD  B3LYP
GEN_SCFMAN_EMBED  TRUE
SPADE_PARTITION  TRUE
$end

$development
embedding_early_stop  1
$end

--------------------------------------------------------------
 ----------------------------------------------------------------
             Standard Nuclear Orientation (Angstroms)
    I     Atom           X                Y                Z
 ----------------------------------------------------------------
    1      C      29.9140000000    28.4110000000    25.9030000000
    2      C      28.4780000000    28.6670000000    26.3900000000
    3      C      27.5530000000    27.4620000000    26.6240000000
    4      C      28.2640000000    26.2960000000    27.3290000000
    5      C      29.6670000000    26.0400000000    26.7530000000
    6      C      30.5490000000    27.2990000000    26.7550000000
    7      H      26.7020000000    27.7740000000    27.2420000000
    8      H      28.6140000000    29.1140000000    27.3830000000
    9      H      29.8890000000    28.1030000000    24.8510000000
   10      H      30.5610000000    29.2910000000    25.8090000000
   11      H      28.2610000000    26.5170000000    28.4040000000
   12      H      27.6160000000    25.4200000000    27.1990000000
   13      H      30.0790000000    25.2230000000    27.3570000000
   14      H      29.5650000000    25.6230000000    25.7440000000
   15      H      30.7990000000    27.6790000000    27.7530000000
   16      H      31.5840000000    27.0980000000    26.4500000000
   17      H      27.3010000000    26.9460000000    25.6890000000
   18      N      27.8210000000    29.6650000000    25.5480000000
   19      H      27.2920000000    29.2880000000    24.7710000000
   20      C      27.7330000000    31.0050000000    25.8620000000
   21      H      26.9560000000    31.5240000000    25.2720000000
   22      O      28.3150000000    31.5000000000    26.8110000000
   23      C      22.8270000000    34.0470000000    24.5200000000
   24      H      21.9100000000    33.5130000000    24.2590000000
   25      H      23.0750000000    33.8080000000    25.5570000000
   26      H      22.7540000000    35.1300000000    24.3870000000
   27      S      24.1970000000    33.3590000000    23.5640000000
   28      C      23.7960000000    31.6390000000    23.9430000000
   29      H      24.7590000000    31.1230000000    23.9820000000
   30      H      23.2460000000    31.4910000000    24.8760000000
   31      H      23.1520000000    31.2710000000    23.1410000000
   32      O      25.3000000000    33.5360000000    24.5610000000
   33      C      30.9940000000    30.9220000000    28.7270000000
   34      H      30.6240000000    31.5370000000    29.5510000000
   35      H      30.5780000000    31.4140000000    27.8440000000
   36      H      30.6830000000    29.8830000000    28.8630000000
   37      S      32.7770000000    31.1300000000    28.5220000000
   38      C      33.2460000000    30.3080000000    30.0610000000
   39      H      33.8760000000    29.4290000000    29.9060000000
   40      H      33.9120000000    31.0010000000    30.5820000000
   41      H      32.4360000000    30.0460000000    30.7470000000
   42      O      32.9790000000    32.6130000000    28.5600000000
   43      C      29.7710000000    35.5960000000    26.1210000000
   44      H      29.6390000000    35.5200000000    27.2030000000
   45      H      30.6840000000    36.1620000000    25.9200000000
   46      H      28.8870000000    36.1380000000    25.7740000000
   47      S      29.7490000000    34.0720000000    25.1490000000
   48      C      31.1810000000    33.4710000000    26.0730000000
   49      H      32.1010000000    33.9060000000    25.6760000000
   50      H      31.0990000000    33.6150000000    27.1540000000
   51      H      31.2990000000    32.3980000000    25.9020000000
   52      O      30.4390000000    34.3430000000    23.8490000000
   53      C      31.3250000000    30.4260000000    22.0540000000
   54      H      31.2450000000    31.5140000000    22.1270000000
   55      H      30.9210000000    29.8630000000    22.9000000000
   56      H      32.4070000000    30.3400000000    21.9330000000
   57      S      30.5480000000    29.7660000000    20.5620000000
   58      C      28.8360000000    29.9910000000    21.0930000000
   59      H      28.7470000000    31.0420000000    21.3830000000
   60      H      28.2490000000    29.7540000000    20.2020000000
   61      H      28.5180000000    29.2890000000    21.8680000000
   62      O      30.7470000000    28.2830000000    20.6150000000
   63      C      34.1190000000    22.7930000000    31.2860000000
   64      H      34.4640000000    23.7640000000    31.6490000000
   65      H      34.6620000000    21.9590000000    31.7400000000
   66      H      34.3020000000    22.8080000000    30.2090000000
   67      S      32.3950000000    22.4860000000    31.7310000000
   68      C      32.2900000000    21.0460000000    30.6440000000
   69      H      31.5670000000    20.3690000000    31.1060000000
   70      H      31.9480000000    21.4240000000    29.6770000000
   71      H      33.2820000000    20.5880000000    30.6260000000
   72      O      31.6620000000    23.6030000000    31.0570000000
   73      C      30.8690000000    33.5940000000    32.2540000000
   74      H      31.7950000000    33.2050000000    32.6850000000
   75      H      30.4060000000    34.4230000000    32.7970000000
   76      H      30.0600000000    32.9230000000    31.9530000000
   77      S      31.4940000000    34.3400000000    30.7310000000
   78      C      32.5250000000    35.5270000000    31.6220000000
   79      H      32.8370000000    36.2720000000    30.8860000000
   80      H      31.8720000000    35.9240000000    32.4040000000
   81      H      33.4170000000    34.9840000000    31.9430000000
   82      O      30.2850000000    35.0980000000    30.2810000000
   83      C      27.2980000000    22.2870000000    31.8550000000
   84      H      26.7720000000    23.2180000000    32.0820000000
   85      H      26.5780000000    21.5420000000    31.5070000000
   86      H      27.7640000000    21.9240000000    32.7740000000
   87      S      28.6930000000    22.3650000000    30.7090000000
   88      C      27.7480000000    22.8490000000    29.2470000000
   89      H      27.0680000000    22.0370000000    28.9790000000
   90      H      27.1800000000    23.7610000000    29.4500000000
   91      H      28.4690000000    22.9960000000    28.4390000000
   92      O      28.9790000000    20.9070000000    30.5260000000
   93      C      23.4640000000    23.2880000000    29.9210000000
   94      H      24.3380000000    22.6470000000    29.7750000000
   95      H      22.9970000000    22.9910000000    30.8640000000
   96      H      22.7490000000    23.1250000000    29.1100000000
   97      S      23.9480000000    24.9840000000    30.3100000000
   98      C      24.4350000000    25.6730000000    28.7110000000
   99      H      23.6250000000    26.1600000000    28.1620000000
  100      H      25.2440000000    26.4000000000    28.8210000000
  101      H      24.7430000000    24.8630000000    28.0450000000
  102      O      25.2690000000    24.9340000000    31.0120000000
  103      C      30.2780000000    24.9890000000    21.0170000000
  104      H      30.1220000000    25.9930000000    21.4210000000
  105      H      31.3120000000    25.0220000000    20.6630000000
  106      H      29.5980000000    24.6070000000    20.2520000000
  107      S      29.8590000000    23.9400000000    22.4280000000
  108      C      30.6220000000    22.4750000000    21.6960000000
  109      H      30.2230000000    21.7450000000    22.4050000000
  110      H      30.2530000000    22.3590000000    20.6730000000
  111      H      31.7130000000    22.5370000000    21.7090000000
  112      O      28.3880000000    23.6650000000    22.4600000000
  113      C      28.8900000000    20.0550000000    25.5820000000
  114      H      29.4940000000    19.9240000000    24.6810000000
  115      H      28.4140000000    21.0380000000    25.5350000000
  116      H      29.3950000000    19.8080000000    26.5190000000
  117      S      27.5500000000    18.8460000000    25.6680000000
  118      C      26.7720000000    19.3550000000    24.1180000000
  119      H      25.9980000000    18.6240000000    23.8700000000
  120      H      26.2500000000    20.3040000000    24.2590000000
  121      H      27.5760000000    19.4520000000    23.3840000000
  122      O      26.6810000000    19.2790000000    26.8080000000
  123      C      27.7260000000    38.6690000000    29.6730000000
  124      H      28.4340000000    38.2800000000    30.4100000000
  125      H      27.9860000000    39.7090000000    29.4610000000
  126      H      26.7140000000    38.4040000000    29.9900000000
  127      S      28.3000000000    37.8070000000    28.1930000000
  128      C      30.0120000000    38.3010000000    28.4940000000
  129      H      30.1660000000    39.3790000000    28.5870000000
  130      H      30.3900000000    37.7650000000    29.3680000000
  131      H      30.4090000000    37.9110000000    27.5530000000
  132      O      27.7660000000    38.6760000000    27.0980000000
  133      C      22.2230000000    25.2140000000    26.0870000000
  134      H      22.2450000000    25.0050000000    27.1600000000
  135      H      23.2150000000    25.4060000000    25.6700000000
  136      H      21.7130000000    26.1710000000    25.9480000000
  137      S      21.4380000000    23.7530000000    25.3690000000
  138      C      21.2130000000    24.6550000000    23.8200000000
  139      H      20.4990000000    24.0890000000    23.2160000000
  140      H      20.9110000000    25.6930000000    23.9800000000
  141      H      22.1870000000    24.6650000000    23.3230000000
  142      O      20.0300000000    23.7240000000    25.8770000000
  143      C      36.4220000000    31.9870000000    26.0480000000
  144      H      37.4050000000    31.7230000000    25.6500000000
  145      H      36.1810000000    33.0530000000    26.0360000000
  146      H      36.2060000000    31.4980000000    27.0010000000
  147      S      35.5140000000    31.2480000000    24.6720000000
  148      C      33.8250000000    31.8020000000    24.9980000000
  149      H      33.6290000000    31.4570000000    26.0160000000
  150      H      33.8920000000    32.8910000000    24.9340000000
  151      H      33.1270000000    31.3290000000    24.3020000000
  152      O      35.4880000000    29.7730000000    24.9270000000
  153      C      24.5650000000    27.2190000000    23.5900000000
  154      H      24.1030000000    27.9480000000    24.2610000000
  155      H      23.9100000000    26.5510000000    23.0240000000
  156      H      25.0800000000    26.6220000000    24.3470000000
  157      S      25.7410000000    27.8310000000    22.3630000000
  158      C      27.1070000000    26.6500000000    22.4330000000
  159      H      26.7100000000    25.6830000000    22.1150000000
  160      H      27.9870000000    27.0060000000    21.8900000000
  161      H      27.4910000000    26.7570000000    23.4510000000
  162      O      26.4520000000    28.9780000000    23.0100000000
  163      C      26.0380000000    37.1790000000    24.4510000000
  164      H      27.0920000000    37.4660000000    24.4480000000
  165      H      25.3840000000    38.0240000000    24.6810000000
  166      H      25.6930000000    36.3590000000    25.0870000000
  167      S      25.6230000000    36.5580000000    22.8050000000
  168      C      27.0490000000    35.4500000000    22.7530000000
  169      H      27.0390000000    34.6960000000    23.5440000000
  170      H      27.1030000000    34.9030000000    21.8090000000
  171      H      27.9520000000    36.0350000000    22.9510000000
  172      O      26.0780000000    37.6980000000    21.9480000000
  173      C      34.4790000000    26.4680000000    22.9120000000
  174      H      33.4710000000    26.0720000000    23.0630000000
  175      H      34.9940000000    25.6590000000    22.3870000000
  176      H      35.0740000000    26.7610000000    23.7810000000
  177      S      34.6660000000    27.8860000000    21.8090000000
  178      C      33.7670000000    26.9290000000    20.5680000000
  179      H      33.6130000000    27.5560000000    19.6870000000
  180      H      34.4640000000    26.1290000000    20.3050000000
  181      H      32.8310000000    26.5310000000    20.9680000000
  182      O      36.0950000000    27.8220000000    21.3670000000
  183      C      27.6120000000    32.5630000000    30.9450000000
  184      H      27.8610000000    33.0840000000    31.8740000000
  185      H      28.4340000000    31.9050000000    30.6520000000
  186      H      27.3010000000    33.2570000000    30.1600000000
  187      S      26.2080000000    31.4880000000    31.3160000000
  188      C      25.2270000000    32.7790000000    32.1130000000
  189      H      25.6360000000    33.2190000000    33.0260000000
  190      H      24.8660000000    33.5050000000    31.3800000000
  191      H      24.3590000000    32.2400000000    32.5020000000
  192      O      26.7830000000    30.6390000000    32.4070000000
  193      C      32.8960000000    19.2030000000    26.6810000000
  194      H      31.9460000000    19.1210000000    27.2160000000
  195      H      33.5410000000    18.3830000000    27.0090000000
  196      H      33.3730000000    20.0530000000    27.1750000000
  197      S      32.6740000000    19.1560000000    24.8880000000
  198      C      34.4580000000    19.2250000000    24.6080000000
  199      H      35.1100000000    18.6040000000    25.2260000000
  200      H      34.6040000000    18.9900000000    23.5510000000
  201      H      34.6330000000    20.2690000000    24.8820000000
  202      O      32.2410000000    20.5660000000    24.6290000000
  203      C      33.5050000000    23.1630000000    27.1050000000
  204      H      32.6140000000    22.6340000000    26.7580000000
  205      H      34.3780000000    22.5100000000    27.1860000000
  206      H      33.3670000000    23.7640000000    28.0070000000
  207      S      33.9410000000    24.3000000000    25.7700000000
  208      C      33.1590000000    23.3460000000    24.4490000000
  209      H      33.7540000000    22.4300000000    24.4840000000
  210      H      32.0870000000    23.1830000000    24.5850000000
  211      H      33.3740000000    23.7640000000    23.4610000000
  212      O      35.4070000000    24.0640000000    25.5830000000
  213      C      24.0940000000    29.1440000000    29.3810000000
  214      H      23.4880000000    29.9820000000    29.7350000000
  215      H      23.6120000000    28.2310000000    29.7380000000
  216      H      25.1140000000    29.0880000000    29.7690000000
  217      S      24.1190000000    29.0440000000    27.5770000000
  218      C      24.5610000000    30.7940000000    27.4950000000
  219      H      23.8800000000    31.4590000000    28.0320000000
  220      H      25.4970000000    30.8470000000    28.0560000000
  221      H      24.5560000000    31.1380000000    26.4570000000
  222      O      22.6700000000    28.8680000000    27.2450000000
  223      C      25.0280000000    36.2400000000    27.8820000000
  224      H      25.8920000000    36.7040000000    27.4010000000
  225      H      24.3290000000    35.8250000000    27.1510000000
  226      H      24.4250000000    36.9560000000    28.4460000000
  227      S      25.5740000000    34.8600000000    28.9140000000
  228      C      26.3390000000    33.9160000000    27.5770000000
  229      H      27.2180000000    34.4660000000    27.2330000000
  230      H      26.5160000000    32.9070000000    27.9600000000
  231      H      25.5900000000    33.7630000000    26.7950000000
  232      O      24.3360000000    34.0640000000    29.1860000000
  233      C      26.1930000000    32.3080000000    20.6320000000
  234      H      27.1090000000    32.5900000000    20.1070000000
  235      H      25.5770000000    33.1510000000    20.9560000000
  236      H      26.4700000000    31.5930000000    21.4110000000
  237      S      25.2960000000    31.3990000000    19.3540000000
  238      C      23.8090000000    31.2520000000    20.3710000000
  239      H      24.0090000000    30.5280000000    21.1650000000
  240      H      23.5420000000    32.2440000000    20.7430000000
  241      H      22.9500000000    30.8290000000    19.8440000000
  242      O      25.9400000000    30.0670000000    19.5770000000
  243      C      34.7080000000    28.2970000000    32.7870000000
  244      H      35.4960000000    28.6970000000    33.4300000000
  245      H      35.2160000000    28.2670000000    31.8190000000
  246      H      33.7590000000    28.8330000000    32.8690000000
  247      S      34.7530000000    26.5370000000    33.1930000000
  248      C      33.1090000000    26.1340000000    32.5600000000
  249      H      32.3780000000    26.9100000000    32.7970000000
  250      H      33.2180000000    26.0730000000    31.4740000000
  251      H      32.7220000000    25.1760000000    32.9170000000
  252      O      34.5330000000    26.6290000000    34.6700000000
  253      C      25.0750000000    23.1140000000    23.8390000000
  254      H      25.1370000000    22.1690000000    23.2930000000
  255      H      24.0860000000    23.3530000000    24.2370000000
  256      H      25.3840000000    23.9600000000    23.2200000000
  257      S      26.0270000000    23.2380000000    25.3690000000
  258      C      24.9060000000    22.1490000000    26.2770000000
  259      H      25.1750000000    22.0850000000    27.3350000000
  260      H      23.8960000000    22.5460000000    26.1480000000
  261      H      24.9930000000    21.1650000000    25.8080000000
  262      O      25.4980000000    24.5400000000    25.8830000000
  263      C      28.7520000000    28.3740000000    33.5940000000
  264      H      28.9330000000    29.4080000000    33.8970000000
  265      H      27.7920000000    27.9720000000    33.9270000000
  266      H      29.6080000000    27.8760000000    34.0570000000
  267      S      28.6610000000    28.1870000000    31.7980000000
  268      C      28.3580000000    26.4070000000    31.7240000000
  269      H      28.1490000000    26.1860000000    30.6750000000
  270      H      29.2200000000    25.7980000000    32.0060000000
  271      H      27.5540000000    26.1120000000    32.4040000000
  272      O      30.0920000000    28.3150000000    31.3800000000
  273      C      34.4010000000    27.8700000000    27.4310000000
  274      H      33.5250000000    28.2660000000    27.9510000000
  275      H      34.2870000000    28.1240000000    26.3740000000
  276      H      34.4320000000    26.7770000000    27.4430000000
  277      S      35.9670000000    28.6310000000    27.9150000000
  278      C      36.9460000000    27.7460000000    26.6810000000
  279      H      37.9830000000    27.7660000000    27.0250000000
  280      H      36.5600000000    26.7260000000    26.6130000000
  281      H      36.8020000000    28.1170000000    25.6630000000
  282      O      36.3040000000    27.8430000000    29.1430000000
 ----------------------------------------------------------------
 Nuclear Repulsion Energy =       44609.39477657 hartrees
 There are      581 alpha and      581 beta electrons
 Requested basis set is 6-31+G(d)
 There are 929 shells and 2589 basis functions

 Total QAlloc Memory Limit  16000 MB
 Mega-Array Size      7821 MB
 MEM_STATIC part      8000 MB
 A cutoff of  1.0D-14 yielded 164449 shell pairs
 There are   1423136 function pairs
 Smallest overlap matrix eigenvalue = 8.77E-07
 Linear dependence detected in AO basis
 Tighter screening thresholds may be required for diffuse basis sets
 Use S2THRESH > 14 and THRESH = 14 in case of SCF convergence issues
 Number of orthogonalized atomic orbitals = 2588
 Maximum deviation from orthogonality = 3.151E-10

 Scale SEOQF with 1.000000e-03/1.000000e-03/1.000000e-03

 Standard Electronic Orientation quadrupole field applied
 Nucleus-field energy     =     0.0000001446 hartrees
 Guess from superposition of atomic densities
 Warning:  Energy on first SCF cycle will be non-variational
 SAD guess density has 1162.000002 electrons

 -----------------------------------------------------------------------
  General SCF calculation program by
  Eric Jon Sundstrom, Paul Horn, Yuezhi Mao, Dmitri Zuev, Alec White,
  David Stuck, Shaama M.S., Shane Yost, Joonho Lee, David Small,
  Daniel Levine, Susi Lehtola, Hugh Burton, Evgeny Epifanovsky,
  Bang C. Huynh
 -----------------------------------------------------------------------
=================================================
        Doing projection-based embedding         
      F. Manby et al. JCTC, 8, 2564 (2012)       
=================================================

****************************************************
   Low-level SCF calculation for the whole system   
****************************************************
----------------------------------------------
 Summary of the low-level theory: 
 Exchange:     0.2000 Hartree-Fock + 0.0800 Slater + 0.7200 B88
 Correlation:  0.1900 VWN1RPA + 0.8100 LYP
 Using Euler-Maclaurin-Lebedev (75,302) quadrature formula
----------------------------------------------
 using 16 threads for integral computing
 -------------------------------------------------------
 OpenMP Integral computing Module                
 Release: version 2.0, May 2017, Q-Chem Inc. Pleasanton 
 -------------------------------------------------------
 A restricted SCF calculation will be
 performed using DIIS
 SCF converges when DIIS error is below 1.0e-08
 ---------------------------------------
  Cycle       Energy         DIIS error
 ---------------------------------------
    1  -14806.1329542397      1.37e-02  
    2  -14782.8176623336      2.55e-03  
    3  -14771.4307269525      4.80e-03  
    4  -14786.7527127152      9.79e-04  
    5  -14787.4808581305      1.94e-04  
    6  -14787.5022652312      1.04e-04  
    7  -14787.5087186225      4.07e-05  
    8  -14787.5098443496      6.66e-06  
    9  -14787.5098724342      3.24e-06  
   10  -14787.5098793519      1.16e-06  
   11  -14787.5098801846      3.80e-07  
   12  -14787.5098802753      1.18e-07  
   13  -14787.5098802844      4.48e-08  
   14  -14787.5098802857      2.02e-08  
   15  -14787.5098802861      4.85e-09  Convergence criterion met
 ---------------------------------------
 SCF time:   CPU 162167.91s  wall 10248.00s 
 SCF   energy in the final basis set =   -14787.5098802861
 Total energy in the final basis set =   -14787.5098802861

****************************************************
             Start embedding calculation            
****************************************************
----------------------------------------------
 Summary of the high-level theory: 
 Exchange:     0.2000 Hartree-Fock + 0.0800 Slater + 0.7200 B88
 Correlation:  0.1900 VWN1RPA + 0.8100 LYP
 Using Euler-Maclaurin-Lebedev (75,302) quadrature formula
----------------------------------------------
Doing R-in-R Embedding Calculation
Number of fragments: 2
Embedded fragment(s): 1 
NOcc for each fragment
           35
          546
NBasis for each fragment
          197
         2392
Variational space of the embedded problem: 
NOcc (active)  = 35
NOcc (fixed)   = 546
NVir (total)   = 2007
Read converged orbitals from disk
=========================================================
       Doing SPADE partition for the orbital space       
     D. CLaudino and N. Mayhall JCTC 15, 1053 (2019)     
=========================================================
SPADE singular values:
 1.0000 1.0000 1.0000 1.0000 1.0000 1.0000 1.0000 1.0000 1.0000 0.9999
 0.9999 0.9998 0.9998 0.9997 0.9997 0.9996 0.9995 0.9993 0.9991 0.9984
 0.9983 0.9980 0.9975 0.9971 0.9968 0.9958 0.9951 0.9946 0.9940 0.9934
 0.9927 0.9917 0.9904 0.9874 0.9823 0.2000 0.1697 0.1619 0.1514 0.1460
 0.1264 0.1181 0.1073 0.0966 0.0922 0.0885 0.0742 0.0702 0.0590 0.0578
 0.0494 0.0445 0.0431 0.0390 0.0378 0.0340 0.0327 0.0301 0.0283 0.0273
 0.0251 0.0235 0.0220 0.0201 0.0190 0.0175 0.0167 0.0146 0.0145 0.0133
 0.0123 0.0117 0.0113 0.0101 0.0099 0.0094 0.0088 0.0086 0.0083 0.0080
 0.0075 0.0072 0.0066 0.0065 0.0062 0.0061 0.0056 0.0056 0.0052 0.0051
 0.0048 0.0047 0.0045 0.0045 0.0042 0.0040 0.0038 0.0036 0.0034 0.0033
 0.0029 0.0028 0.0027 0.0027 0.0025 0.0024 0.0022 0.0021 0.0021 0.0020
 0.0020 0.0019 0.0018 0.0017 0.0016 0.0016 0.0015 0.0014 0.0014 0.0013
 0.0013 0.0012 0.0012 0.0011 0.0011 0.0010 0.0010 0.0010 0.0009 0.0009
 0.0008 0.0008 0.0008 0.0008 0.0007 0.0007 0.0007 0.0007 0.0006 0.0006
 0.0006 0.0005 0.0005 0.0005 0.0005 0.0004 0.0004 0.0004 0.0004 0.0004
 0.0004 0.0003 0.0003 0.0003 0.0003 0.0003 0.0003 0.0003 0.0003 0.0002
 0.0002 0.0002 0.0002 0.0002 0.0002 0.0002 0.0002 0.0002 0.0002 0.0002
 0.0002 0.0002 0.0002 0.0001 0.0001 0.0001 0.0001 0.0001 0.0001 0.0001
 0.0001 0.0001 0.0001 0.0001 0.0001 0.0001 0.0001 0.0001 0.0001 0.0001
 0.0001 0.0001 0.0001 0.0000 0.0000 0.0000 0.0000
Early stop requested!
546 environment occs will be part of frozen-core in future post-HF calculations
 
 --------------------------------------------------------------
 
                    Orbital Energies (a.u.)
 --------------------------------------------------------------
 
 Alpha MOs
 -- Occupied --
 -0.4752  -0.5037  -0.4443  -0.5098  -0.4770  -0.4752  -0.4647  -0.4576
 -0.4248  -0.4662  -0.4061  -0.4533  -0.4603  -0.4381  -0.4914  -0.5251
 -0.4634  -0.4854  -0.4986  -0.5032  -0.5811  -0.4569  -0.5444  -0.5605
 -0.5159  -0.5107  -0.5697  -0.5215  -0.5167  -0.5490  -0.5051  -0.5203
 -0.5358  -0.6518  -0.5394  -0.6536  -0.5364  -0.5326  -0.6085  -0.5797
 -0.5619  -0.5445  -0.5713  -0.5860  -0.5527  -0.5895  -0.5965  -0.5841
 -0.5605  -0.5684  -0.5526  -0.6056  -0.5619  -0.6799  -0.5385  -0.6783
 -0.6354  -0.6025  -0.7446  -0.5865  -0.7258  -0.7567  -0.7537  -0.7784
 -0.7695  -0.8899  -0.7500  -1.1219  -0.8205  -0.6527  -0.7439  -0.8382
 -0.7114  -0.8382  -0.9196  -1.2799  -0.6350  -0.8926  -0.7747  -0.9091
 -0.7603  -0.8813  -0.8001  -0.8141  -0.8281  -0.9655  -1.0623  -0.8808
 -1.2835  -0.7850  -1.0617  -1.3483  -0.8557  -1.1123  -1.1793  -1.0590
 -1.1138  -1.2816  -0.9631  -1.1494  -2.0797  -3.5833  -1.1952  -1.5647
 -1.0338  -2.1950  -1.6348  -1.7259  -1.8233  -1.5197  -2.3922  -0.9867
 -1.5166  -1.0369  -0.8729  -1.0705  -2.0681  -0.9894  -1.4074  -1.0451
 -1.1180  -1.7559  -1.2232  -1.0746  -1.2250  -1.2079  -1.0113  -1.2661
 -1.3132  -1.6686  -1.5342  -1.0778  -1.2347  -1.1757  -1.2737  -1.4003
 -1.3747  -1.6840  -1.1041  -1.3218  -1.5249  -1.6152  -1.0672  -1.6735
 -1.3458  -1.3416  -1.4579  -2.1301  -1.4514  -1.6204  -1.8271  -1.6768
 -1.7698  -1.9240  -1.6722  -1.9986  -1.6085  -1.5498  -1.4619  -1.5328
 -2.1085  -2.1335  -5.9877  -5.9717  -5.7467  -5.9895  -5.9050  -5.8781
 -5.9527  -6.0711  -5.9870  -5.8717  -6.0236  -5.9991  -5.9849  -5.9912
 -5.9994  -6.0057  -5.8786  -5.9735  -5.9838  -5.9764  -2.0841  -4.5106
-11.2578 -43.6546  -6.8209 -14.1404  -1.6819  -2.4769  -8.5271  -5.9804
 -2.9609  -2.4913  -1.6698  -1.1484  -9.7676  -7.8953  -3.0567  -5.8930
 -2.9191  -2.1645  -6.0023  -4.1042  -3.6531  -7.5322  -1.5709  -4.3706
 -1.2777 -70.3467 -75.6961  -1.4463  -4.1012  -7.4296  -3.7700  -5.2274
 -1.5361 -11.2920 -14.1338  -1.0443  -3.7002  -2.6566  -4.3473  -4.0812
 -4.3838  -7.4938  -3.1434 -17.1311  -4.4233 -11.2529  -3.8771  -6.5842
 -1.6469  -7.4157  -8.5861  -8.5584  -1.3861 -74.5932  -4.4665  -0.9376
-10.2452  -4.8424 -74.6284  -3.7067  -9.1776  -4.2903  -2.0833  -2.0614
 -4.5614  -3.7607  -6.4852  -2.9883  -4.0230  -7.9113  -8.0084  -4.8896
-16.1720  -9.1535  -8.1968  -6.3280  -7.4135  -1.7998  -2.5373  -1.3665
-10.7080  -1.6859 -51.8543 -14.1197 -10.0725 -14.5155  -2.6287  -5.4915
-67.9574  -1.9205 -10.6659  -7.6506  -7.3444  -3.3865  -3.0632  -5.5897
 -7.8105  -8.4922  -4.8184  -5.0650  -3.8378 -11.6933  -3.3466  -2.6402
 -6.1551  -1.7173  -7.9288 -11.8616 -58.5663  -1.5401 -72.5181 -55.5649
 -8.3043  -1.2096  -3.4890  -3.1219  -3.6113 -10.1436  -3.8628  -3.2834
 -5.7700  -1.7263  -9.0733 -22.3437 -26.5192  -7.7513  -8.0972  -3.6990
 -4.8075 -11.0079 -14.7293  -4.7537  -5.4655  -4.3116  -5.0166  -4.1655
 -6.2731  -4.7729 -14.1474 -11.1884  -8.9889 -13.5665 -12.4722 -11.3816
 -8.7438  -7.0940 -13.5318  -2.7965  -3.9576 -11.9300 -17.6056 -10.3376
 -7.4952  -3.7611  -5.2486 -13.2960  -7.2571  -8.1229  -5.9256  -7.7354
 -7.5351  -5.7733  -4.2812  -4.1545  -2.9911  -6.2344  -6.3948  -3.9370
 -4.5650  -5.8052  -6.5744 -12.3373 -12.3663  -3.5319  -5.3806  -6.2557
 -5.8481  -5.2894  -6.4655  -8.2451 -25.4851  -5.8306 -28.9810  -3.3694
 -4.4634  -8.1836  -8.1490  -3.0386  -5.4647  -4.6176  -3.9738 -10.8422
-11.4524  -4.3875  -2.3858  -2.1265  -3.6681 -51.5582  -6.7048  -6.5320
 -5.6652  -6.0046  -7.6161  -7.5419  -6.1611  -3.1790  -8.5538  -3.9758
 -2.7074  -2.0988 -10.3851 -10.1634  -6.4078  -2.5681  -2.3515  -8.5803
-10.5227 -19.4391 -10.4433 -13.9450  -8.1170 -35.5661  -9.8463  -8.3034
 -9.4830  -8.3126  -9.0341  -3.7625  -8.3190  -4.7622 -22.7909  -2.9943
 -4.0529  -8.6959 -10.8545  -5.1624  -6.2714  -6.2082  -6.3785  -6.9425
 -8.0500 -10.9226  -7.8338  -4.1231  -6.1117  -3.1205  -8.6790  -2.5901
 -2.2278  -9.4540 -61.6203  -2.3407  -8.9008  -7.0418 -47.6972  -8.1949
 -9.5636  -5.6997  -4.1481 -16.6130  -4.2863  -2.8424  -3.5247  -2.3303
-11.1260 -19.4022 -11.5512  -5.4584  -5.0712 -10.7754 -16.2189 -20.9089
-24.1418 -15.3401 -14.2049  -7.5490  -5.9278  -8.0132 -10.9047  -3.0406
 -8.9097 -13.7809 -10.3976  -7.9467  -2.1146  -4.1644  -3.0601  -5.2776
 -4.4797  -9.0098 -12.1411  -4.6593  -3.6412 -16.2285  -7.1456 -47.9515
-37.7405 -12.8106 -70.3378  -2.5230  -7.3967  -4.2619  -9.8009  -5.0062
 -1.6602 -79.7869 -69.0806 -71.7315  -3.2569  -7.1446 -10.9836 -13.7856
-13.5993  -2.4482 -11.9879 -18.5920 -11.7598  -8.9226  -4.6286  -4.8358
 -8.0701  -5.4155  -2.3723  -5.5608  -9.4349  -8.0568  -4.9970  -4.8901
 -5.6686 -22.1464 -46.0206 -15.6179 -11.1193 -12.6244 -66.1591 -13.9053
 -6.2072 -30.1039 -16.8278 -18.5631  -9.9214  -9.7838  -5.8933  -3.9310
-16.1711  -5.9657  -5.8028 -13.7480  -8.2537  -7.9605 -30.7597 -13.7560
-11.7805  -9.5896  -6.8989 -13.4069  -8.1931  -9.9938  -4.3006 -12.8822
-13.7433  -5.8545 -10.4856 -10.2243 -10.2120 -13.7284 -10.1419 -10.4283
-15.3576 -11.3487 -12.2456  -0.7685  -0.6704  -0.6958  -0.6678  -0.6885
 -0.8181  -0.8002  -0.9031  -0.4951  -0.4361  -0.4447  -0.4900  -0.4227
 -0.4500  -0.4352  -0.4088  -0.4820  -0.4200  -0.4184  -0.4318  -0.4687
 -0.4006  -0.4264  -0.4570  -0.5268  -0.5877
 -- Virtual --
 -0.0399  -0.0354  -0.0333  -0.0288  -0.0269  -0.0262  -0.0250  -0.0210
 -0.0203  -0.0182  -0.0179  -0.0154  -0.0138  -0.0132  -0.0123  -0.0116
 -0.0107  -0.0099  -0.0091  -0.0087  -0.0084  -0.0072  -0.0063  -0.0056
 -0.0050  -0.0048  -0.0032  -0.0028  -0.0018  -0.0014  -0.0003   0.0004
  0.0012   0.0019   0.0022   0.0031   0.0033   0.0042   0.0046   0.0063
  0.0065   0.0076   0.0089   0.0096   0.0099   0.0105   0.0111   0.0121
  0.0123   0.0132   0.0137   0.0146   0.0159   0.0161   0.0169   0.0176
  0.0182   0.0187   0.0196   0.0207   0.0216   0.0221   0.0229   0.0232
  0.0244   0.0246   0.0250   0.0254   0.0261   0.0268   0.0273   0.0284
  0.0286   0.0293   0.0300   0.0307   0.0312   0.0314   0.0324   0.0329
  0.0338   0.0344   0.0349   0.0356   0.0365   0.0372   0.0375   0.0380
  0.0384   0.0393   0.0395   0.0404   0.0413   0.0416   0.0426   0.0434
  0.0445   0.0449   0.0455   0.0460   0.0466   0.0475   0.0478   0.0486
  0.0501   0.0506   0.0511   0.0515   0.0521   0.0532   0.0534   0.0542
  0.0546   0.0550   0.0562   0.0566   0.0567   0.0572   0.0578   0.0588
  0.0592   0.0601   0.0602   0.0611   0.0619   0.0628   0.0637   0.0645
  0.0647   0.0655   0.0659   0.0666   0.0671   0.0672   0.0682   0.0693
  0.0696   0.0703   0.0711   0.0714   0.0729   0.0732   0.0739   0.0748
  0.0762   0.0762   0.0768   0.0769   0.0773   0.0788   0.0792   0.0796
  0.0804   0.0809   0.0824   0.0826   0.0831   0.0835   0.0836   0.0847
  0.0857   0.0869   0.0871   0.0878   0.0883   0.0888   0.0901   0.0904
  0.0911   0.0916   0.0922   0.0932   0.0940   0.0945   0.0952   0.0956
  0.0958   0.0966   0.0977   0.0988   0.0993   0.0999   0.1003   0.1009
  0.1014   0.1020   0.1022   0.1037   0.1042   0.1048   0.1053   0.1062
  0.1070   0.1073   0.1078   0.1083   0.1095   0.1102   0.1104   0.1115
  0.1126   0.1126   0.1131   0.1134   0.1139   0.1150   0.1165   0.1167
  0.1171   0.1178   0.1181   0.1188   0.1194   0.1198   0.1206   0.1215
  0.1218   0.1224   0.1228   0.1243   0.1250   0.1253   0.1262   0.1264
  0.1272   0.1276   0.1281   0.1286   0.1290   0.1297   0.1300   0.1309
  0.1313   0.1314   0.1320   0.1327   0.1341   0.1346   0.1353   0.1364
  0.1368   0.1374   0.1384   0.1390   0.1398   0.1404   0.1408   0.1414
  0.1419   0.1427   0.1433   0.1437   0.1446   0.1449   0.1455   0.1459
  0.1463   0.1471   0.1479   0.1486   0.1492   0.1499   0.1502   0.1512
  0.1516   0.1523   0.1532   0.1536   0.1539   0.1544   0.1554   0.1557
  0.1563   0.1565   0.1576   0.1579   0.1591   0.1594   0.1599   0.1601
  0.1607   0.1612   0.1624   0.1626   0.1637   0.1644   0.1650   0.1654
  0.1655   0.1666   0.1674   0.1684   0.1689   0.1692   0.1696   0.1701
  0.1703   0.1722   0.1728   0.1735   0.1739   0.1748   0.1753   0.1757
  0.1759   0.1763   0.1772   0.1776   0.1788   0.1795   0.1801   0.1805
  0.1810   0.1812   0.1817   0.1827   0.1837   0.1842   0.1848   0.1860
  0.1864   0.1871   0.1874   0.1874   0.1885   0.1889   0.1896   0.1903
  0.1913   0.1914   0.1922   0.1928   0.1933   0.1934   0.1951   0.1957
  0.1961   0.1970   0.1974   0.1979   0.1983   0.1993   0.1996   0.2001
  0.2002   0.2006   0.2017   0.2020   0.2031   0.2034   0.2044   0.2047
  0.2051   0.2058   0.2069   0.2075   0.2080   0.2085   0.2095   0.2099
  0.2106   0.2117   0.2127   0.2130   0.2139   0.2148   0.2150   0.2157
  0.2166   0.2174   0.2177   0.2178   0.2184   0.2189   0.2194   0.2202
  0.2210   0.2223   0.2229   0.2233   0.2240   0.2243   0.2250   0.2260
  0.2271   0.2271   0.2275   0.2283   0.2289   0.2296   0.2300   0.2306
  0.2309   0.2314   0.2321   0.2328   0.2338   0.2351   0.2361   0.2367
  0.2372   0.2378   0.2385   0.2389   0.2394   0.2404   0.2410   0.2421
  0.2428   0.2437   0.2445   0.2454   0.2457   0.2466   0.2471   0.2477
  0.2488   0.2492   0.2500   0.2513   0.2520   0.2529   0.2539   0.2540
  0.2550   0.2561   0.2569   0.2575   0.2582   0.2585   0.2595   0.2604
  0.2615   0.2623   0.2624   0.2632   0.2648   0.2654   0.2659   0.2671
  0.2674   0.2685   0.2688   0.2700   0.2703   0.2716   0.2720   0.2724
  0.2739   0.2740   0.2746   0.2753   0.2761   0.2772   0.2777   0.2783
  0.2792   0.2801   0.2811   0.2812   0.2820   0.2825   0.2831   0.2847
  0.2853   0.2859   0.2871   0.2877   0.2880   0.2892   0.2894   0.2902
  0.2904   0.2919   0.2922   0.2932   0.2940   0.2948   0.2952   0.2962
  0.2973   0.2980   0.2988   0.3010   0.3013   0.3015   0.3026   0.3032
  0.3039   0.3040   0.3052   0.3060   0.3062   0.3077   0.3081   0.3084
  0.3094   0.3101   0.3111   0.3115   0.3120   0.3130   0.3146   0.3149
  0.3153   0.3168   0.3175   0.3186   0.3196   0.3206   0.3211   0.3214
  0.3234   0.3236   0.3248   0.3250   0.3262   0.3266   0.3274   0.3282
  0.3293   0.3298   0.3307   0.3321   0.3328   0.3339   0.3349   0.3358
  0.3360   0.3366   0.3378   0.3381   0.3389   0.3395   0.3404   0.3411
  0.3425   0.3428   0.3439   0.3456   0.3463   0.3470   0.3476   0.3488
  0.3503   0.3509   0.3513   0.3521   0.3532   0.3544   0.3555   0.3558
  0.3570   0.3574   0.3586   0.3592   0.3605   0.3610   0.3613   0.3621
  0.3623   0.3627   0.3640   0.3659   0.3663   0.3666   0.3691   0.3691
  0.3701   0.3708   0.3714   0.3725   0.3728   0.3740   0.3751   0.3766
  0.3771   0.3776   0.3791   0.3799   0.3806   0.3814   0.3816   0.3829
  0.3837   0.3840   0.3851   0.3853   0.3868   0.3870   0.3887   0.3891
  0.3896   0.3908   0.3925   0.3929   0.3948   0.3950   0.3955   0.3968
  0.3974   0.3976   0.3978   0.3990   0.4009   0.4015   0.4020   0.4026
  0.4035   0.4037   0.4061   0.4066   0.4077   0.4089   0.4092   0.4103
  0.4116   0.4129   0.4142   0.4151   0.4164   0.4167   0.4178   0.4184
  0.4193   0.4202   0.4205   0.4216   0.4226   0.4233   0.4246   0.4256
  0.4257   0.4269   0.4292   0.4298   0.4313   0.4314   0.4318   0.4343
  0.4349   0.4364   0.4371   0.4377   0.4396   0.4404   0.4422   0.4425
  0.4430   0.4435   0.4463   0.4470   0.4492   0.4498   0.4502   0.4521
  0.4535   0.4539   0.4550   0.4566   0.4581   0.4591   0.4605   0.4633
  0.4637   0.4648   0.4659   0.4661   0.4689   0.4702   0.4721   0.4730
  0.4740   0.4761   0.4778   0.4793   0.4803   0.4811   0.4837   0.4839
  0.4865   0.4888   0.4897   0.4923   0.4943   0.4966   0.4980   0.5001
  0.5020   0.5031   0.5045   0.5063   0.5090   0.5109   0.5128   0.5138
  0.5158   0.5178   0.5189   0.5215   0.5222   0.5246   0.5263   0.5271
  0.5296   0.5309   0.5320   0.5336   0.5344   0.5351   0.5361   0.5388
  0.5404   0.5419   0.5454   0.5467   0.5482   0.5499   0.5521   0.5530
  0.5541   0.5557   0.5587   0.5601   0.5608   0.5621   0.5633   0.5650
  0.5663   0.5675   0.5687   0.5710   0.5719   0.5727   0.5752   0.5766
  0.5785   0.5805   0.5830   0.5838   0.5845   0.5850   0.5871   0.5887
  0.5906   0.5928   0.5945   0.5949   0.5957   0.5970   0.5988   0.6009
  0.6023   0.6029   0.6042   0.6061   0.6082   0.6098   0.6115   0.6129
  0.6135   0.6149   0.6156   0.6166   0.6176   0.6180   0.6193   0.6213
  0.6217   0.6224   0.6242   0.6253   0.6262   0.6277   0.6289   0.6305
  0.6311   0.6332   0.6337   0.6346   0.6353   0.6360   0.6378   0.6387
  0.6397   0.6402   0.6430   0.6437   0.6445   0.6449   0.6467   0.6480
  0.6500   0.6502   0.6509   0.6520   0.6534   0.6538   0.6546   0.6558
  0.6570   0.6582   0.6594   0.6605   0.6616   0.6620   0.6635   0.6660
  0.6666   0.6677   0.6682   0.6694   0.6710   0.6726   0.6733   0.6748
  0.6760   0.6766   0.6781   0.6798   0.6814   0.6819   0.6830   0.6835
  0.6846   0.6857   0.6869   0.6883   0.6891   0.6897   0.6907   0.6914
  0.6932   0.6937   0.6970   0.6989   0.6997   0.6999   0.7020   0.7024
  0.7035   0.7041   0.7061   0.7078   0.7101   0.7110   0.7123   0.7132
  0.7150   0.7155   0.7169   0.7181   0.7200   0.7210   0.7220   0.7237
  0.7244   0.7255   0.7268   0.7290   0.7300   0.7317   0.7332   0.7337
  0.7363   0.7367   0.7384   0.7402   0.7414   0.7428   0.7459   0.7470
  0.7484   0.7493   0.7503   0.7505   0.7510   0.7538   0.7553   0.7564
  0.7592   0.7615   0.7621   0.7638   0.7658   0.7667   0.7674   0.7687
  0.7707   0.7723   0.7727   0.7756   0.7796   0.7801   0.7808   0.7827
  0.7835   0.7850   0.7860   0.7878   0.7903   0.7936   0.7943   0.7961
  0.7984   0.7991   0.7997   0.8024   0.8035   0.8042   0.8046   0.8065
  0.8079   0.8104   0.8134   0.8144   0.8166   0.8177   0.8198   0.8202
  0.8210   0.8223   0.8244   0.8255   0.8272   0.8274   0.8300   0.8318
  0.8320   0.8326   0.8340   0.8357   0.8370   0.8384   0.8392   0.8402
  0.8436   0.8445   0.8452   0.8480   0.8487   0.8499   0.8507   0.8520
  0.8529   0.8532   0.8542   0.8554   0.8586   0.8587   0.8607   0.8621
  0.8622   0.8630   0.8647   0.8677   0.8686   0.8699   0.8709   0.8724
  0.8730   0.8739   0.8756   0.8760   0.8770   0.8780   0.8796   0.8823
  0.8834   0.8847   0.8851   0.8880   0.8886   0.8905   0.8908   0.8920
  0.8922   0.8938   0.8941   0.8966   0.8974   0.8986   0.9004   0.9013
  0.9022   0.9032   0.9041   0.9062   0.9071   0.9087   0.9098   0.9110
  0.9116   0.9137   0.9139   0.9162   0.9168   0.9185   0.9193   0.9197
  0.9215   0.9228   0.9243   0.9248   0.9267   0.9275   0.9279   0.9292
  0.9304   0.9314   0.9321   0.9330   0.9351   0.9362   0.9378   0.9383
  0.9388   0.9405   0.9415   0.9430   0.9438   0.9447   0.9461   0.9480
  0.9482   0.9494   0.9514   0.9527   0.9532   0.9537   0.9563   0.9576
  0.9583   0.9592   0.9613   0.9625   0.9639   0.9644   0.9655   0.9668
  0.9674   0.9685   0.9701   0.9708   0.9726   0.9733   0.9747   0.9762
  0.9775   0.9783   0.9794   0.9804   0.9815   0.9824   0.9841   0.9844
  0.9854   0.9878   0.9884   0.9894   0.9896   0.9910   0.9919   0.9938
  0.9952   0.9959   0.9972   0.9985   0.9988   1.0006   1.0020   1.0028
  1.0045   1.0060   1.0066   1.0083   1.0098   1.0100   1.0116   1.0131
  1.0142   1.0147   1.0174   1.0185   1.0197   1.0208   1.0214   1.0226
  1.0241   1.0255   1.0268   1.0271   1.0296   1.0313   1.0328   1.0329
  1.0331   1.0345   1.0354   1.0362   1.0376   1.0380   1.0402   1.0409
  1.0422   1.0436   1.0446   1.0454   1.0467   1.0482   1.0485   1.0516
  1.0528   1.0537   1.0547   1.0567   1.0591   1.0609   1.0614   1.0622
  1.0642   1.0660   1.0670   1.0672   1.0694   1.0698   1.0715   1.0738
  1.0744   1.0760   1.0767   1.0781   1.0785   1.0804   1.0814   1.0841
  1.0849   1.0868   1.0876   1.0891   1.0903   1.0909   1.0938   1.0946
  1.0958   1.0963   1.0974   1.1004   1.1011   1.1030   1.1048   1.1054
  1.1064   1.1079   1.1085   1.1099   1.1107   1.1108   1.1138   1.1141
  1.1171   1.1180   1.1194   1.1226   1.1232   1.1239   1.1242   1.1267
  1.1291   1.1303   1.1308   1.1321   1.1346   1.1364   1.1366   1.1373
  1.1397   1.1401   1.1412   1.1428   1.1437   1.1449   1.1468   1.1475
  1.1490   1.1500   1.1510   1.1520   1.1530   1.1542   1.1563   1.1575
  1.1577   1.1585   1.1597   1.1604   1.1631   1.1653   1.1659   1.1664
  1.1670   1.1696   1.1709   1.1725   1.1730   1.1739   1.1776   1.1799
  1.1810   1.1816   1.1830   1.1849   1.1869   1.1888   1.1906   1.1915
  1.1937   1.1944   1.1970   1.1981   1.2002   1.2016   1.2028   1.2045
  1.2056   1.2078   1.2088   1.2112   1.2144   1.2166   1.2169   1.2194
  1.2224   1.2240   1.2253   1.2281   1.2291   1.2304   1.2304   1.2352
  1.2367   1.2381   1.2389   1.2414   1.2442   1.2457   1.2473   1.2515
  1.2519   1.2556   1.2590   1.2607   1.2628   1.2647   1.2673   1.2685
  1.2709   1.2730   1.2737   1.2775   1.2779   1.2814   1.2821   1.2864
  1.2883   1.2894   1.2944   1.2954   1.2965   1.2989   1.3003   1.3037
  1.3082   1.3095   1.3103   1.3142   1.3151   1.3185   1.3214   1.3224
  1.3239   1.3251   1.3257   1.3295   1.3323   1.3337   1.3353   1.3373
  1.3393   1.3402   1.3427   1.3450   1.3459   1.3496   1.3522   1.3527
  1.3541   1.3558   1.3585   1.3600   1.3616   1.3637   1.3652   1.3665
  1.3696   1.3720   1.3735   1.3750   1.3778   1.3790   1.3803   1.3808
  1.3825   1.3839   1.3852   1.3868   1.3870   1.3886   1.3909   1.3918
  1.3935   1.3958   1.3960   1.3969   1.3989   1.4012   1.4015   1.4039
  1.4050   1.4066   1.4077   1.4083   1.4093   1.4111   1.4122   1.4139
  1.4148   1.4152   1.4174   1.4181   1.4207   1.4228   1.4249   1.4266
  1.4274   1.4284   1.4302   1.4312   1.4324   1.4330   1.4346   1.4352
  1.4392   1.4398   1.4412   1.4428   1.4442   1.4461   1.4463   1.4477
  1.4490   1.4516   1.4528   1.4552   1.4570   1.4582   1.4603   1.4621
  1.4634   1.4657   1.4691   1.4705   1.4729   1.4736   1.4750   1.4771
  1.4787   1.4808   1.4827   1.4845   1.4865   1.4883   1.4893   1.4926
  1.4939   1.4948   1.4967   1.4974   1.5011   1.5023   1.5051   1.5066
  1.5115   1.5131   1.5180   1.5183   1.5198   1.5210   1.5232   1.5257
  1.5305   1.5316   1.5332   1.5339   1.5366   1.5411   1.5436   1.5480
  1.5513   1.5520   1.5583   1.5620   1.5666   1.5688   1.5722   1.5770
  1.5781   1.5850   1.5879   1.5966   1.5988   1.6008   1.6065   1.6092
  1.6148   1.6239   1.6295   1.6346   1.6411   1.6417   1.6494   1.6524
  1.6550   1.6566   1.6571   1.6584   1.6589   1.6612   1.6619   1.6657
  1.6686   1.6691   1.6702   1.6716   1.6720   1.6723   1.6746   1.6767
  1.6780   1.6786   1.6808   1.6834   1.6843   1.6874   1.6877   1.6892
  1.6910   1.6917   1.6927   1.6932   1.6949   1.6969   1.6971   1.6984
  1.6987   1.6999   1.7033   1.7046   1.7059   1.7062   1.7070   1.7082
  1.7098   1.7104   1.7117   1.7118   1.7134   1.7142   1.7144   1.7157
  1.7178   1.7196   1.7201   1.7218   1.7219   1.7232   1.7253   1.7277
  1.7279   1.7308   1.7318   1.7327   1.7347   1.7361   1.7378   1.7380
  1.7395   1.7406   1.7417   1.7433   1.7454   1.7462   1.7477   1.7502
  1.7506   1.7515   1.7538   1.7548   1.7551   1.7577   1.7581   1.7596
  1.7610   1.7629   1.7643   1.7665   1.7689   1.7697   1.7725   1.7731
  1.7748   1.7754   1.7762   1.7795   1.7796   1.7820   1.7833   1.7858
  1.7869   1.7875   1.7881   1.7910   1.7937   1.7950   1.7983   1.8006
  1.8085   1.8109   1.8120   1.8156   1.8226   1.8253   1.8301   1.8314
  1.8356   1.8400   1.8446   1.8472   1.8492   1.8501   1.8513   1.8524
  1.8542   1.8584   1.8607   1.8623   1.8633   1.8651   1.8671   1.8674
  1.8698   1.8710   1.8730   1.8740   1.8744   1.8754   1.8771   1.8781
  1.8797   1.8809   1.8827   1.8841   1.8844   1.8853   1.8872   1.8879
  1.8886   1.8891   1.8904   1.8923   1.8932   1.8941   1.8958   1.8963
  1.8970   1.8985   1.9000   1.9009   1.9018   1.9021   1.9048   1.9055
  1.9073   1.9078   1.9096   1.9104   1.9109   1.9136   1.9146   1.9157
  1.9173   1.9197   1.9221   1.9228   1.9248   1.9263   1.9283   1.9293
  1.9315   1.9330   1.9347   1.9361   1.9362   1.9398   1.9434   1.9471
  1.9483   1.9535   1.9558   1.9604   1.9639   1.9697   1.9738   1.9906
  1.9941   1.9988   2.0043   2.0188   2.0243   2.0262   2.0376   2.0400
  2.0425   2.0441   2.0474   2.0510   2.0536   2.0543   2.0564   2.0576
  2.0591   2.0610   2.0623   2.0623   2.0649   2.0657   2.0660   2.0671
  2.0677   2.0700   2.0703   2.0716   2.0737   2.0752   2.0760   2.0783
  2.0797   2.0812   2.0859   2.0866   2.0870   2.0880   2.0891   2.0940
  2.0953   2.0959   2.0971   2.0990   2.0994   2.1027   2.1030   2.1036
  2.1063   2.1070   2.1078   2.1113   2.1119   2.1140   2.1158   2.1167
  2.1183   2.1233   2.1241   2.1286   2.1309   2.1333   2.1395   2.1536
  2.1555   2.1633   2.1648   2.1706   2.1713   2.1729   2.1800   2.1831
  2.1842   2.1846   2.1938   2.1962   2.1980   2.1984   2.1997   2.2021
  2.2048   2.2058   2.2110   2.2119   2.2134   2.2149   2.2161   2.2183
  2.2189   2.2190   2.2207   2.2218   2.2220   2.2229   2.2247   2.2260
  2.2268   2.2283   2.2292   2.2319   2.2326   2.2339   2.2349   2.2356
  2.2373   2.2384   2.2396   2.2399   2.2416   2.2421   2.2432   2.2434
  2.2455   2.2463   2.2471   2.2483   2.2489   2.2501   2.2517   2.2519
  2.2520   2.2532   2.2548   2.2563   2.2572   2.2578   2.2588   2.2594
  2.2602   2.2624   2.2633   2.2643   2.2649   2.2652   2.2664   2.2678
  2.2682   2.2695   2.2703   2.2705   2.2720   2.2724   2.2736   2.2741
  2.2743   2.2748   2.2758   2.2765   2.2776   2.2781   2.2792   2.2818
  2.2826   2.2828   2.2837   2.2847   2.2849   2.2876   2.2893   2.2909
  2.2918   2.2924   2.2945   2.2951   2.2962   2.2967   2.2978   2.2994
  2.3017   2.3025   2.3046   2.3047   2.3059   2.3071   2.3083   2.3095
  2.3105   2.3127   2.3141   2.3148   2.3156   2.3168   2.3178   2.3195
  2.3202   2.3205   2.3217   2.3226   2.3234   2.3254   2.3260   2.3277
  2.3285   2.3298   2.3321   2.3334   2.3341   2.3355   2.3379   2.3390
  2.3410   2.3426   2.3458   2.3472   2.3493   2.3514   2.3525   2.3531
  2.3563   2.3568   2.3571   2.3592   2.3625   2.3642   2.3655   2.3656
  2.3714   2.3730   2.3772   2.3783   2.3827   2.3839   2.3881   2.3899
  2.3942   2.4084   2.4172   2.4272   2.4560   2.4651   2.5096   2.5267
  2.5752   2.6626   2.7087   2.7400   2.7581   2.8004   2.8117   2.8140
  2.8214   2.8260   2.8302   2.8355   2.8381   2.8402   2.8408   2.8438
  2.8449   2.8453   2.8467   2.8488   2.8524   2.8535   2.8540   2.8577
  2.8594   2.8600   2.8619   2.8631   2.8685   2.8727   2.8750   2.8762
  2.8762   2.8800   2.8829   2.9363   3.1023   3.2501   3.9439   3.9490
  3.9521   3.9616   3.9646   3.9675   3.9693   3.9703   3.9729   3.9739
  3.9763   3.9766   3.9786   3.9803   3.9811   3.9870   3.9888   3.9894
  3.9935   3.9981   3.9992   4.0027   4.0062   4.0074   4.0117   4.0150
  4.2005   4.2095   4.2171   4.2196   4.2232   4.2264   4.2361   4.2386
  4.2434   4.2470   4.2498   4.2527   4.2563   4.2564   4.2581   4.2620
  4.2628   4.2643   4.2656   4.2686   4.2706   4.2716   4.2765   4.2803
  4.2818   4.2863   4.2887   4.2900   4.2914   4.2931   4.2948   4.2967
  4.2998   4.3034   4.3048   4.3067   4.3079   4.3109   4.3139   4.3157
  4.3182   4.3205   4.3244   4.3268   4.3297   4.3328   4.3339   4.3356
  4.3373   4.3405   4.3413   4.3462   4.3483   4.3504   4.3561   4.3576
  4.3605   4.3661   4.3683   4.3700   4.3733   4.3789   4.3850   4.3861
  4.3908   4.3984   4.4068   4.4102   4.4162   4.4203   4.4302   4.4349
  4.4364   4.4499   4.4655   4.4777   4.4829   4.4944   4.5084   4.5238
  4.5478   4.5873   4.6395   4.6715   4.7054   4.7555   4.9061
 --------------------------------------------------------------
 
          Ground-State Mulliken Net Atomic Charges

     Atom                 Charge (a.u.)
  ----------------------------------------
      1 C                     0.624025
      2 C                    -1.107778
      3 C                    -0.171973
      4 C                    -0.880199
      5 C                    -0.735108
      6 C                    -0.799674
      7 H                     0.198885
      8 H                     0.235238
      9 H                     0.218317
     10 H                     0.221930
     11 H                     0.200058
     12 H                     0.251179
     13 H                     0.205027
     14 H                     0.215075
     15 H                     0.221373
     16 H                     0.216558
     17 H                     0.203144
     18 N                     0.380232
     19 H                     0.497473
     20 C                    -0.132388
     21 H                     0.193606
     22 O                    -0.230193
     23 C                    -0.868037
     24 H                     0.243758
     25 H                     0.286932
     26 H                     0.262124
     27 S                     0.982143
     28 C                    -1.022495
     29 H                     0.304517
     30 H                     0.272595
     31 H                     0.237058
     32 O                    -0.728695
     33 C                    -0.707741
     34 H                     0.253814
     35 H                     0.291737
     36 H                     0.277432
     37 S                     0.391516
     38 C                    -1.030735
     39 H                     0.275880
     40 H                     0.269707
     41 H                     0.299989
     42 O                    -0.476896
     43 C                    -1.102221
     44 H                     0.301900
     45 H                     0.265091
     46 H                     0.263331
     47 S                     1.159873
     48 C                    -1.104517
     49 H                     0.257299
     50 H                     0.281589
     51 H                     0.246573
     52 O                    -0.619017
     53 C                    -0.631056
     54 H                     0.271312
     55 H                     0.250881
     56 H                     0.256530
     57 S                     0.526757
     58 C                    -0.826453
     59 H                     0.218998
     60 H                     0.300610
     61 H                     0.280510
     62 O                    -0.675309
     63 C                    -0.891666
     64 H                     0.261513
     65 H                     0.225619
     66 H                     0.253956
     67 S                     1.068368
     68 C                    -0.883931
     69 H                     0.289664
     70 H                     0.270822
     71 H                     0.223041
     72 O                    -0.700455
     73 C                    -0.723136
     74 H                     0.227122
     75 H                     0.248994
     76 H                     0.254002
     77 S                     0.888920
     78 C                    -0.869068
     79 H                     0.250299
     80 H                     0.233066
     81 H                     0.242010
     82 O                    -0.655305
     83 C                    -0.951695
     84 H                     0.288976
     85 H                     0.248097
     86 H                     0.242811
     87 S                     0.893560
     88 C                    -0.950658
     89 H                     0.261714
     90 H                     0.282861
     91 H                     0.244216
     92 O                    -0.697471
     93 C                    -0.891214
     94 H                     0.268651
     95 H                     0.257199
     96 H                     0.253163
     97 S                     0.981562
     98 C                    -1.123441
     99 H                     0.264144
    100 H                     0.277935
    101 H                     0.314099
    102 O                    -0.682945
    103 C                    -0.745552
    104 H                     0.275965
    105 H                     0.248406
    106 H                     0.249697
    107 S                     0.779048
    108 C                    -0.828296
    109 H                     0.243512
    110 H                     0.242782
    111 H                     0.252599
    112 O                    -0.662846
    113 C                    -0.878850
    114 H                     0.251982
    115 H                     0.265817
    116 H                     0.246069
    117 S                     0.816734
    118 C                    -0.803028
    119 H                     0.254421
    120 H                     0.216652
    121 H                     0.233635
    122 O                    -0.637400
    123 C                    -0.909877
    124 H                     0.233773
    125 H                     0.262925
    126 H                     0.242093
    127 S                     1.010841
    128 C                    -0.902486
    129 H                     0.253179
    130 H                     0.267818
    131 H                     0.234478
    132 O                    -0.670880
    133 C                    -0.977005
    134 H                     0.231766
    135 H                     0.296712
    136 H                     0.283867
    137 S                     0.977347
    138 C                    -0.847561
    139 H                     0.253924
    140 H                     0.256769
    141 H                     0.213219
    142 O                    -0.704701
    143 C                    -0.774296
    144 H                     0.249140
    145 H                     0.237193
    146 H                     0.274664
    147 S                     0.726985
    148 C                    -0.659970
    149 H                     0.268722
    150 H                     0.238171
    151 H                     0.262420
    152 O                    -0.742535
    153 C                    -0.796612
    154 H                     0.301900
    155 H                     0.237696
    156 H                     0.325329
    157 S                     0.731013
    158 C                    -0.845078
    159 H                     0.252507
    160 H                     0.291306
    161 H                     0.271372
    162 O                    -0.783794
    163 C                    -0.770231
    164 H                     0.262460
    165 H                     0.259038
    166 H                     0.228763
    167 S                     0.879574
    168 C                    -0.889310
    169 H                     0.301559
    170 H                     0.239429
    171 H                     0.269634
    172 O                    -0.732609
    173 C                    -1.100329
    174 H                     0.218440
    175 H                     0.261966
    176 H                     0.270284
    177 S                     1.227765
    178 C                    -1.011898
    179 H                     0.254887
    180 H                     0.253531
    181 H                     0.223280
    182 O                    -0.708692
    183 C                    -0.869637
    184 H                     0.250940
    185 H                     0.247345
    186 H                     0.235850
    187 S                     1.024663
    188 C                    -0.994145
    189 H                     0.252506
    190 H                     0.295587
    191 H                     0.246757
    192 O                    -0.692785
    193 C                    -0.875750
    194 H                     0.258115
    195 H                     0.231367
    196 H                     0.266628
    197 S                     0.931822
    198 C                    -0.795209
    199 H                     0.244892
    200 H                     0.243746
    201 H                     0.266543
    202 O                    -0.705896
    203 C                    -1.261946
    204 H                     0.264287
    205 H                     0.272416
    206 H                     0.267359
    207 S                     1.645394
    208 C                    -1.154937
    209 H                     0.266987
    210 H                     0.263507
    211 H                     0.225095
    212 O                    -0.735500
    213 C                    -1.026775
    214 H                     0.270143
    215 H                     0.265680
    216 H                     0.267236
    217 S                     1.389756
    218 C                    -1.139462
    219 H                     0.308412
    220 H                     0.258273
    221 H                     0.241518
    222 O                    -0.666189
    223 C                    -1.110319
    224 H                     0.259384
    225 H                     0.257898
    226 H                     0.260297
    227 S                     1.296132
    228 C                    -1.245975
    229 H                     0.247934
    230 H                     0.282453
    231 H                     0.324435
    232 O                    -0.649704
    233 C                    -0.997186
    234 H                     0.260181
    235 H                     0.217788
    236 H                     0.311840
    237 S                     1.108133
    238 C                    -0.907906
    239 H                     0.268577
    240 H                     0.221157
    241 H                     0.251827
    242 O                    -0.760234
    243 C                    -0.877723
    244 H                     0.254298
    245 H                     0.270907
    246 H                     0.239479
    247 S                     1.049732
    248 C                    -0.961069
    249 H                     0.269881
    250 H                     0.248080
    251 H                     0.258068
    252 O                    -0.757805
    253 C                    -0.834420
    254 H                     0.243073
    255 H                     0.226966
    256 H                     0.270197
    257 S                     0.956703
    258 C                    -0.811285
    259 H                     0.263451
    260 H                     0.234551
    261 H                     0.250755
    262 O                    -0.730943
    263 C                    -0.864033
    264 H                     0.268605
    265 H                     0.234050
    266 H                     0.257241
    267 S                     0.616005
    268 C                    -0.667473
    269 H                     0.239483
    270 H                     0.284461
    271 H                     0.248904
    272 O                    -0.643316
    273 C                    -1.087859
    274 H                     0.231258
    275 H                     0.296188
    276 H                     0.260970
    277 S                     1.123047
    278 C                    -0.917630
    279 H                     0.242283
    280 H                     0.277193
    281 H                     0.303549
    282 O                    -0.735854
  ----------------------------------------
  Sum of atomic charges =     0.000000

 -----------------------------------------------------------------
                    Cartesian Multipole Moments
 -----------------------------------------------------------------
    Charge (ESU x 10^10)
                -0.0000
    Dipole Moment (Debye)
         X      -5.6101      Y      -7.2064      Z      -3.3195
       Tot       9.7172
    Quadrupole Moments (Debye-Ang)
        XX   -1333.6744     XY    -398.7350     YY   -1259.9692
        XZ    -218.4905     YZ    -138.3262     ZZ   -1175.6019
    Octopole Moments (Debye-Ang^2)
       XXX -102128.1684    XXY  -45278.4562    XYY  -41817.8275
       YYY  -91313.6091    XXZ  -36932.9671    XYZ   -8183.3953
       YYZ  -27349.0840    XZZ  -37298.9799    YZZ  -30643.1116
       ZZZ  -87202.4238
    Hexadecapole Moments (Debye-Ang^3)
      XXXX ************   XXXY ************   XXYY ************
      XYYY ************   YYYY ************   XXXZ ************
      XXYZ ************   XYYZ -907246.1374   YYYZ ************
      XXZZ ************   XYZZ -991954.5651   YYZZ ************
      XZZZ ************   YZZZ ************   ZZZZ ************
 -----------------------------------------------------------------
Archival summary:
[...]
    3   0.0086041   0.0254080  -0.0058669  -0.0033554  -0.0138173   0.0033644
          121         122         123         124         125         126
    1   0.0146384  -0.0630529   0.0010503   0.0127957  -0.0077794  -0.0305839
    2   0.0018502   0.0272995   0.0035022  -0.0040643   0.0341674   0.0020876
    3  -0.0302620   0.0864945   0.0052877   0.0361942  -0.0018462   0.0047272
          127         128         129         130         131         132
    1  -0.0064776   0.0076177   0.0012295   0.0162098   0.0356265  -0.0409468
    2  -0.0522911   0.0018821   0.0327179  -0.0205365  -0.0011790   0.0647510
    3   0.0051255  -0.0003209  -0.0026989   0.0209782  -0.0213041  -0.0807226
          133         134         135         136         137         138
    1   0.0049558   0.0063829   0.0376155  -0.0269751   0.0318987  -0.0014199
    2   0.0094640   0.0011894  -0.0043248   0.0225387  -0.0370099   0.0027314
    3   0.0047911   0.0285287  -0.0022998  -0.0002429  -0.0046357  -0.0064554
          139         140         141         142         143         144
    1  -0.0224517  -0.0169315   0.0269959  -0.1045468   0.0029366   0.0409153
    2  -0.0111501   0.0247703   0.0022844  -0.0042040  -0.0002508   0.0050251
    3  -0.0179076   0.0073642  -0.0236659   0.0365384   0.0059040   0.0075001
          145         146         147         148         149         150
    1   0.0047273  -0.0053016   0.0190062  -0.0042617  -0.0116559  -0.0120705
    2   0.0337575  -0.0144229   0.0248206  -0.0001638  -0.0060304   0.0316833
    3   0.0066944   0.0265041  -0.0517121   0.0049761   0.0277807  -0.0033624
          151         152         153         154         155         156
    1  -0.0169514  -0.0002811   0.0018502  -0.0164438  -0.0287511   0.0229366
    2  -0.0097947  -0.1082423  -0.0050291   0.0326245  -0.0137032  -0.0245340
    3  -0.0224507   0.0148355   0.0099760   0.0021933  -0.0075611   0.0199038
          157         158         159         160         161         162
    1  -0.0220083   0.0058080   0.0093968   0.0126603   0.0025604   0.0594456
    2   0.0048526  -0.0041332  -0.0357473   0.0121880  -0.0074242   0.0869064
    3  -0.0520336   0.0065432  -0.0030751  -0.0301268   0.0391279   0.0583195
          163         164         165         166         167         168
    1   0.0001513   0.0265310  -0.0122369   0.0046314  -0.0431391   0.0090353
    2   0.0022575   0.0121634   0.0300436  -0.0229035  -0.0218079  -0.0070542
    3   0.0048294   0.0078213   0.0033534   0.0291520  -0.0014627   0.0026734
          169         170         171         172         173         174
    1  -0.0119548   0.0053142   0.0260880   0.0326325   0.0059123  -0.0319506
    2  -0.0258311  -0.0088756   0.0189830   0.0848342  -0.0054631   0.0025145
    3   0.0224660  -0.0300348  -0.0099328  -0.0638046   0.0042793   0.0148101
          175         176         177         178         179         180
    1   0.0261880   0.0097026  -0.0293880  -0.0018280  -0.0123483   0.0198460
    2  -0.0218785  -0.0043971   0.0448520  -0.0025039   0.0140968  -0.0226755
    3  -0.0083450   0.0325813   0.0165153  -0.0070260  -0.0262380  -0.0121308
          181         182         183         184         185         186
    1  -0.0308206   0.1053800   0.0034469   0.0067360   0.0219507   0.0037981
    2  -0.0013214  -0.0012534   0.0048398   0.0164183  -0.0164097   0.0254186
    3   0.0040494  -0.0318218   0.0026665   0.0258418  -0.0078522  -0.0164048
          187         188         189         190         191         192
    1  -0.0253709  -0.0085674   0.0242866  -0.0146254  -0.0323254   0.0411906
    2  -0.0180961   0.0070610   0.0127717   0.0213484  -0.0132212  -0.0651366
    3  -0.0437652   0.0040190   0.0227403  -0.0217864   0.0091444   0.0798295
          193         194         195         196         197         198
    1   0.0003803  -0.0298607   0.0122755   0.0138140  -0.0239653   0.0084755
    2  -0.0011559  -0.0066804  -0.0319600   0.0375333  -0.0451578   0.0049611
    3   0.0121889   0.0116033   0.0108875  -0.0052328  -0.0152678  -0.0017755
          199         200         201         202         203         204
    1   0.0154511   0.0145158   0.0163733  -0.0325112  -0.0005334  -0.0269742
    2  -0.0229940   0.0016727   0.0310813   0.1030062  -0.0039214  -0.0209910
    3   0.0179850  -0.0310556  -0.0040015  -0.0185411   0.0035779   0.0021839
          205         206         207         208         209         210
    1   0.0248273  -0.0092135  -0.0241902  -0.0004960   0.0028422  -0.0290972
    2  -0.0180228   0.0110196   0.0533538  -0.0091909  -0.0333597  -0.0102985
    3   0.0029524   0.0289239   0.0079272  -0.0043617  -0.0033838   0.0033261
          211         212         213         214         215         216
    1   0.0061006   0.1082476  -0.0017719  -0.0139226  -0.0175276   0.0277710
    2   0.0178342  -0.0149809  -0.0034309   0.0243104  -0.0259034   0.0052798
    3  -0.0242000  -0.0131180   0.0083896   0.0081888   0.0100523   0.0170292
          217         218         219         220         221         222
    1   0.0428407  -0.0028763  -0.0268603   0.0290008   0.0154846  -0.1059347
    2  -0.0319872   0.0078519   0.0144405   0.0070356   0.0090539  -0.0152241
    3  -0.0190085  -0.0026553   0.0161430   0.0023140  -0.0293832  -0.0246673
          223         224         225         226         227         228
    1  -0.0048436   0.0181519  -0.0181880  -0.0126323   0.0365798  -0.0062817
    2   0.0057823   0.0216889  -0.0133701   0.0228801   0.0161981  -0.0021168
    3  -0.0073298  -0.0177920  -0.0242998   0.0203884   0.0371417  -0.0108394
          229         230         231         232         233         234
    1   0.0245442   0.0073266  -0.0205585  -0.0927908   0.0039053   0.0288679
    2   0.0100153  -0.0194234   0.0013955  -0.0573536   0.0001315   0.0176256
    3  -0.0164967   0.0090452  -0.0330395   0.0213101   0.0065718  -0.0052778
          235         236         237         238         239         240
    1  -0.0059580   0.0011229  -0.0043641  -0.0045940   0.0168327  -0.0129408
    2   0.0284605  -0.0244017   0.0246756  -0.0034339  -0.0182226   0.0260946
    3   0.0150487   0.0244829  -0.0415231   0.0056702   0.0236126   0.0142411
          241         242         243         244         245         246
    1  -0.0222828   0.0477065   0.0055139   0.0151579   0.0061072  -0.0269403
    2  -0.0102937  -0.0989193   0.0042194   0.0165098   0.0165804   0.0086813
    3  -0.0223957   0.0173401  -0.0038192   0.0260518  -0.0404931   0.0035393
          247         248         249         250         251         252
    1   0.0360227  -0.0093986  -0.0211332  -0.0096885  -0.0085691  -0.0146356
    2  -0.0237720  -0.0008378   0.0218721  -0.0049178  -0.0249954   0.0072600
    3  -0.0216180  -0.0043709   0.0074398  -0.0352526   0.0110133   0.1096245
          253         254         255         256         257         258
    1  -0.0053883   0.0007445  -0.0316749   0.0136492   0.0519404  -0.0054801
    2   0.0035333  -0.0248871   0.0027230   0.0196352  -0.0173071  -0.0063624
    3  -0.0050217  -0.0169155  -0.0013492  -0.0201185  -0.0004113   0.0025886
          259         260         261         262         263         264
    1   0.0102330  -0.0268973  -0.0038037  -0.0347453   0.0004663  -0.0107919
    2  -0.0042932   0.0104629  -0.0356579   0.0957652  -0.0000295   0.0340197
    3   0.0257564  -0.0001349   0.0020081   0.0393459   0.0087240   0.0007093
          265         266         267         268         269         270
    1  -0.0271192   0.0241397  -0.0442553   0.0006467  -0.0134925   0.0341695
    2  -0.0033937  -0.0284024   0.0284703  -0.0103139  -0.0121396  -0.0102343
    3   0.0258911   0.0043991  -0.0223848   0.0006018  -0.0283484   0.0062340
          271         272         273         274         275         276
    1  -0.0325617   0.1047033  -0.0064108  -0.0213642  -0.0085604   0.0061673
    2  -0.0115824   0.0073021  -0.0047929   0.0069939   0.0108614  -0.0296153
    3   0.0087183  -0.0301063  -0.0077433   0.0174394  -0.0335469   0.0118097
          277         278         279         280         281         282
    1   0.0008075   0.0033888   0.0296189  -0.0029864   0.0005359   0.0259895
    2   0.0501674  -0.0065882  -0.0029425  -0.0352858   0.0236237  -0.0585671
    3  -0.0050879  -0.0114203   0.0069999   0.0071626  -0.0268743   0.0892267
  --- DONE ESP SUMMARY ---
Archival summary:
1\1\node027\SP\ProcedureUnspecified\6-31+G*\262652h22\ymao90\SatDec403:14:332021SatDec403:14:332021\0\\#,ProcedureUnspecified,6-31+G*,\\0,1\S\O,1,1.49718\C,1,1.8067,2,113.205\H,3,1.0925,1,113.26,2,-132.196,0\H,3,1.09327,1,106.003,2,-19.8899,0\H,3,1.09332,1,116.82,2,100.085,0\C,1,1.80676,2,104.14,3,103.193,0\H,7,1.09275,1,110.788,2,-47.0561,0\H,7,1.09304,1,113.849,2,-171.882,0\H,7,1.09307,1,103.421,2,62.8306,0\H,10,2.29335,7,139.247,1,5.95197,0\C,11,1.09293,10,104.762,7,-105.018,0\H,12,1.09235,11,104.074,10,136.595,0\H,12,1.09363,11,106.979,10,18.2139,0\S,12,1.8071,11,109.394,10,-105.381,0\O,15,1.49651,12,97.9919,11,-86.6811,0\C,15,1.80772,12,89.7596,11,165.184,0\H,17,1.09267,15,118.186,12,-60.6703,0\H,17,1.09285,15,110.359,12,65.131,0\H,17,1.09345,15,103.734,12,-175.769,0\H,13,2.18826,12,128.891,11,-6.92265,0\C,21,1.09293,13,113.088,12,-0.921642,0\H,22,1.0926,21,112.345,13,-56.8408,0\H,22,1.09332,21,115.654,13,70.5761,0\S,22,1.80718,21,103.745,13,-168.34,0\O,25,1.49711,22,104.778,21,172.945,0\C,25,1.80664,22,101.943,21,62.2188,0\H,27,1.0927,25,112.449,22,71.7005,0\H,27,1.09288,25,94.3518,22,-171.445,0\H,27,1.09297,25,106.246,22,-53.3272,0\H,26,2.23844,25,140.777,22,-147.997,0\C,31,1.09302,26,129.396,25,89.8933,0\H,32,1.09271,31,102.26,26,115.742,0\H,32,1.09275,31,114.331,26,-123.198,0\S,32,1.80677,31,113.482,26,-0.260492,0\O,35,1.4975,32,100.392,31,176.176,0\C,35,1.80713,32,94.6091,31,73.9543,0\H,37,1.09297,35,114.49,32,-174.821,0\H,37,1.09305,35,104.567,32,-58.0623,0\H,37,1.09351,35,113.167,32,54.7357,0\H,19,2.40859,17,98.9747,15,-174.054,0\C,41,1.09325,19,152.138,17,26.0168,0\H,42,1.09273,41,112.82,19,62.8913,0\H,42,1.09291,41,111.959,19,-170.311,0\S,42,1.80709,41,95.92,19,-50.6959,0\O,45,1.49644,42,107.53,41,-70.0156,0\C,45,1.80636,42,91.9554,41,-173.319,0\H,47,1.09277,45,102.686,42,61.7996,0\H,47,1.0931,45,114.589,42,-165.761,0\H,47,1.09351,45,100.178,42,-49.8378,0\Gh,9,2.47046,7,141.148,1,-57.3553,0\Gh,51,1.09677,9,135.011,7,-52.5289,0\Gh,52,1.09757,51,95.8177,9,111.768,0\Gh,52,1.53721,51,114.566,9,-129.652,0\Gh,54,1.09638,52,113.203,51,-53.8969,0\Gh,54,1.09653,52,111.471,51,-171.985,0\Gh,52,1.53807,51,110.345,9,-3.83111,0\Gh,57,1.09629,52,112.593,51,57.2588,0\Gh,57,1.09645,52,109.743,51,166.506,0\Gh,57,1.53779,52,109.296,51,-73.7332,0\Gh,60,1.09743,57,103.806,52,68.4429,0\Gh,60,1.46172,57,110.546,52,-176.677,0\Gh,62,1.01277,60,114.996,57,92.3314,0\Gh,62,1.37911,60,124.12,57,-97.157,0\Gh,64,1.10507,62,112.311,60,-162.712,0\Gh,64,1.21834,62,122.795,60,7.58822,0\Gh,60,1.53701,57,118.665,52,-47.3397,0\Gh,67,1.09703,60,109.247,57,162.955,0\Gh,67,1.09726,60,112.158,57,-67.2237,0\Gh,67,1.53691,60,112.719,57,42.3368,0\Gh,70,1.09735,67,106.147,60,-164.988,0\Gh,70,1.09749,67,107.174,60,82.0991,0\O,63,1.97556,62,164.663,60,-142.407,0\S,73,1.49658,63,135.043,62,167.837,0\C,74,1.80639,73,105.98,63,46.1811,0\H,75,1.09302,74,110.41,73,-77.1321,0\H,75,1.09322,74,117.783,73,34.1387,0\H,75,1.09344,74,104.203,73,167.264,0\C,74,1.8071,73,97.1815,63,-60.8146,0\H,79,1.09262,74,107.006,73,172.283,0\H,79,1.09327,74,103.746,73,45.6126,0\H,79,1.09361,74,112.104,73,-59.6725,0\H,72,2.29773,70,159.925,67,143.253,0\C,83,1.09221,72,155.615,70,152.345,0\H,84,1.09245,83,106.625,72,-95.2774,0\H,84,1.09355,83,113.701,72,148.751,0\S,84,1.80712,83,105.707,72,26.3481,0\O,87,1.49629,84,103.484,83,-81.9485,0\C,87,1.808,84,98.6845,83,172.623,0\H,89,1.09258,87,112.439,84,-179.798,0\H,89,1.09275,87,102.735,84,-56.6223,0\H,89,1.09321,87,114.394,84,66.2608,0\H,82,2.34404,79,120.265,74,35.028,0\C,93,1.09296,82,134.277,79,-135.813,0\H,94,1.09299,93,106.41,82,40.4763,0\H,94,1.0939,93,113.919,82,164.867,0\S,94,1.80652,93,113.838,82,-73.4976,0\O,97,1.49723,94,103.823,93,35.9328,0\C,97,1.80704,94,96.8521,93,-72.4406,0\H,99,1.09214,97,107.804,94,178.074,0\H,99,1.09338,97,112.775,94,-73.5599,0\H,99,1.09357,97,106.969,94,54.7414,0\H,96,2.34289,94,107.951,93,-72.2477,0\C,103,1.09307,96,113.055,94,-112.818,0\H,104,1.0928,103,107.383,96,-3.24969,0\H,104,1.0932,103,115.848,96,-132.722,0\S,104,1.8067,103,107.508,96,105.733,0\O,107,1.49622,104,97.3992,103,-27.8285,0\C,107,1.8075,104,92.9442,103,74.0853,0\H,109,1.09258,107,108.589,104,51.2337,0\H,109,1.09295,107,114.001,104,172.792,0\H,109,1.09298,107,108.184,104,-72.3631,0\H,112,2.27839,109,110.194,107,138.052,0\C,113,1.09241,112,121.657,109,-107.249,0\H,114,1.09311,113,106.523,112,-154.423,0\H,114,1.09323,113,112.736,112,-33.1678,0\S,114,1.80633,113,107.314,112,82.1393,0\O,117,1.49731,114,97.8389,113,-167.223,0\C,117,1.8067,114,94.775,113,92.7082,0\H,119,1.0927,117,104.287,114,66.986,0\H,119,1.09278,117,108.896,114,-48.1987,0\H,119,1.09358,117,111.308,114,-174.075,0\H,115,2.08333,114,110.75,113,149.189,0\C,123,1.09353,115,140.943,114,-167.551,0\H,124,1.09253,123,118.429,115,-173.448,0\H,124,1.09287,123,105.792,115,-56.6442,0\S,124,1.80682,123,110.282,115,67.6809,0\O,127,1.49693,124,109.914,123,-70.3864,0\C,127,1.80694,124,89.7188,123,-173.472,0\H,129,1.0924,127,106.626,124,167.011,0\H,129,1.09274,127,109.8,124,-80.1513,0\H,129,1.09307,127,111.927,124,50.4734,0\H,118,2.26415,117,139.747,114,-72.9946,0\C,133,1.09359,118,143.834,117,-177.955,0\H,134,1.09246,133,113.35,118,28.281,0\H,134,1.09366,133,103.426,118,-98.6491,0\S,134,1.80663,133,108.197,118,148.156,0\O,137,1.49674,134,101.937,133,51.7393,0\C,137,1.80763,134,95.987,133,-55.0765,0\H,139,1.09232,137,109.681,134,-59.5925,0\H,139,1.09287,137,111.851,134,174.647,0\H,139,1.09325,137,106.563,134,61.6836,0\H,118,2.32465,117,108.587,114,137.252,0\C,143,1.09284,118,131.896,117,30.7233,0\H,144,1.09236,143,106.288,118,-88.2265,0\H,144,1.094,143,104.211,118,152.695,0\S,144,1.80661,143,113.272,118,34.8946,0\O,147,1.49702,144,102.161,143,163.114,0\C,147,1.80753,144,93.1927,143,61.1921,0\H,149,1.09238,147,108.016,144,49.4113,0\H,149,1.093,147,108.654,144,171.131,0\H,149,1.09358,147,101.511,144,-77.891,0\H,138,2.3253,137,96.3609,134,117.782,0\C,153,1.09302,138,150.194,137,-102.366,0\H,154,1.09291,153,114.609,138,156.807,0\H,154,1.09328,153,107.689,138,-91.1635,0\S,154,1.80672,153,110.985,138,21.6276,0\O,157,1.49723,154,106.994,153,173.68,0\C,157,1.80679,154,95.0119,153,70.6921,0\H,159,1.09293,157,106.337,154,167.215,0\H,159,1.09297,157,107.708,154,-70.4242,0\H,159,1.09384,157,106.612,154,49.7828,0\H,162,2.2063,159,102.858,157,134.957,0\C,163,1.09331,162,134.634,159,140.88,0\H,164,1.09296,163,121.135,162,148.847,0\H,164,1.09383,163,106.774,162,13.6156,0\S,164,1.80739,163,106.093,162,-97.5308,0\O,167,1.49624,164,100.551,163,63.5623,0\C,167,1.80716,164,93.0341,163,170.512,0\H,169,1.0925,167,106.512,164,78.8319,0\H,169,1.09273,167,106.178,164,-166.601,0\H,169,1.09341,167,104.501,164,-45.9192,0\H,82,2.40922,79,132.289,74,-176.252,0\C,173,1.09342,82,125.763,79,48.9894,0\H,174,1.0925,173,119.405,82,38.2421,0\H,174,1.09342,173,103.11,82,163.009,0\S,174,1.80745,173,102.204,82,-72.6186,0\O,177,1.49683,174,110.557,173,86.6398,0\C,177,1.80671,174,93.2342,173,-164.996,0\H,179,1.09284,177,111.764,174,72.6839,0\H,179,1.09306,177,97.1565,174,-168.739,0\H,179,1.09368,177,108.813,174,-49.9089,0\H,176,2.16275,174,129.761,173,9.8539,0\C,183,1.09293,176,143.511,174,-158.439,0\H,184,1.09225,183,112.551,176,77.3182,0\H,184,1.09315,183,111.568,176,-44.8223,0\S,184,1.80669,183,111.571,176,-160.209,0\O,187,1.49716,184,104.448,183,155.302,0\C,187,1.80618,184,87.2543,183,51.3266,0\H,189,1.09318,187,102.631,184,173.986,0\H,189,1.09331,187,103.822,184,60.6124,0\H,189,1.09347,187,117.651,184,-52.9209,0\H,192,2.34407,189,114.719,187,148.616,0\C,193,1.09412,192,122.522,189,106.644,0\H,194,1.09282,193,111.231,192,91.0132,0\H,194,1.09284,193,104.014,192,-145.972,0\S,194,1.8074,193,111.921,192,-38.2591,0\O,197,1.4966,194,104.434,193,-67.8917,0\C,197,1.80696,194,95.9384,193,-173.257,0\H,199,1.09263,197,107.114,194,-148.281,0\H,199,1.09276,197,105.471,194,-25.1125,0\H,199,1.09321,197,103.763,194,93.5469,0\H,196,2.36664,194,166.644,193,-149.003,0\C,203,1.09345,196,140.375,194,72.5055,0\H,204,1.09209,203,107.792,196,-171.618,0\H,204,1.09261,203,115.238,196,64.8596,0\S,204,1.80716,203,98.9529,196,-47.5024,0\O,207,1.49755,204,102.867,203,28.7874,0\C,207,1.8073,204,91.8028,203,-72.4337,0\H,209,1.09273,207,121.49,204,61.4749,0\H,209,1.09337,207,112.133,204,-176.983,0\H,209,1.09362,207,110.518,204,-56.3909,0\H,80,2.43886,79,133.704,74,-78.84,0\C,213,1.09287,80,163.185,79,-79.4196,0\H,214,1.09254,213,107.034,80,143.473,0\H,214,1.09315,213,111.732,80,-89.8217,0\S,214,1.80626,213,106.117,80,38.66,0\O,217,1.49641,214,99.4603,213,63.376,0\C,217,1.80749,214,93.2838,213,161.657,0\H,219,1.09286,217,107.158,214,-52.6267,0\H,219,1.09352,217,106.102,214,65.4178,0\H,219,1.09354,217,111.637,214,-174.697,0\H,221,2.17273,219,135.103,217,5.80092,0\C,223,1.09223,221,135.466,219,138.417,0\H,224,1.09297,223,111.171,221,-159.292,0\H,224,1.09313,223,105.779,221,74.8196,0\S,224,1.80745,223,109.858,221,-41.6472,0\O,227,1.49741,224,108.762,223,34.2484,0\C,227,1.80684,224,95.1622,223,-74.4346,0\H,229,1.0926,227,111.654,224,-59.5822,0\H,229,1.0927,227,98.6664,224,178.913,0\H,229,1.09319,227,106.308,224,58.2648,0\H,218,2.3127,217,123.92,214,131.061,0\C,233,1.09294,218,139.921,217,170.398,0\H,234,1.09301,233,103.473,218,56.7101,0\H,234,1.09321,233,110.22,218,-58.1176,0\S,234,1.80795,233,109.415,218,179.14,0\O,237,1.49678,234,100.941,233,86.8573,0\C,237,1.8061,234,103.861,233,-24.789,0\H,239,1.0934,237,118.358,234,-51.0727,0\H,239,1.09341,237,100.59,234,-169.155,0\H,239,1.09365,237,111.406,234,77.3855,0\H,235,2.05972,234,119.407,233,41.1811,0\C,243,1.09339,235,112.563,234,-120.194,0\H,244,1.09308,243,112.935,235,37.9661,0\H,244,1.09328,243,107.546,235,-74.7135,0\S,244,1.80728,243,104.128,235,160.458,0\O,247,1.49712,244,106.819,243,65.2657,0\C,247,1.80655,244,89.4908,243,166.16,0\H,249,1.09282,247,112.528,244,-40.4791,0\H,249,1.09315,247,107.253,244,-165.468,0\H,249,1.09352,247,106.459,244,77.2778,0\H,222,2.50769,219,145.194,217,-35.8486,0\C,253,1.09251,222,128.057,219,69.2526,0\H,254,1.09285,253,109.223,222,-75.0169,0\H,254,1.09342,253,110.007,222,47.7678,0\S,254,1.80686,253,108.961,222,168.645,0\O,257,1.49701,254,105.183,253,37.9175,0\C,257,1.80705,254,96.9473,253,-65.0298,0\H,259,1.09247,257,102.623,254,176.019,0\H,259,1.09295,257,109.636,254,60.5104,0\H,259,1.09315,257,117.8,254,-65.2092,0\H,200,2.57623,199,117.107,197,-139.13,0\C,263,1.09254,200,141.895,199,-148.594,0\H,264,1.09254,263,105.215,200,-76.6284,0\H,264,1.09386,263,109.661,200,162.132,0\S,264,1.80678,263,113.888,200,46.0805,0\O,267,1.49641,264,103.275,263,-58.4836,0\C,267,1.80726,264,92.4465,263,49.8088,0\H,269,1.09277,267,106.925,264,31.9001,0\H,269,1.09293,267,106.126,264,149.706,0\H,269,1.09313,267,105.945,264,-90.6066,0\H,265,2.57607,264,115.922,263,123.281,0\C,273,1.09315,265,94.6005,264,-146.446,0\H,274,1.09211,273,108.353,265,167.502,0\H,274,1.09316,273,108.11,265,49.7655,0\S,274,1.80716,273,113.772,265,-67.2434,0\O,277,1.49613,274,103.046,273,-62.5072,0\C,277,1.80678,274,96.6533,273,-163.495,0\H,279,1.09288,277,101.909,274,161.143,0\H,279,1.09299,277,118.847,274,35.291,0\H,279,1.09361,277,99.2422,274,-95.1388,0\\\@

 Total job time:  53.81s(wall), 179.26s(cpu) 
 Sat Dec  4 03:14:33 2021

        *************************************************************
        *                                                           *
        *  Thank you very much for using Q-Chem.  Have a nice day.  *
        *                                                           *
        *************************************************************


