                  Welcome to Q-Chem
     A Quantum Leap Into The Future Of Chemistry


 Q-Chem 6.0 (devel), Q-Chem, Inc., Pleasanton, CA (2022)

 E. Epifanovsky,  A. T. B. Gilbert,  Xintian Feng,  Joonho Lee,  Yuezhi Mao,  
 N. Mardirossian,  P. Pokhilko,  A. White,  M. Wormit,  M. P. Coons,  
 A. L. Dempwolff,  Zhengting Gan,  D. Hait,  P. R. Horn,  L. D. Jacobson,  
 I. Kaliman,  J. Kussmann,  A. W. Lange,  Ka Un Lao,  D. S. Levine,  Jie Liu,  
 S. C. McKenzie,  A. F. Morrison,  K. Nanda,  F. Plasser,  D. R. Rehn,  
 M. L. Vidal,  Zhi-Qiang You,  Ying Zhu,  B. Alam,  B. Albrecht,  
 A. Aldossary,  E. Alguire,  J. H. Andersen,  V. Athavale,  D. Barton,  
 K. Begam,  A. Behn,  N. Bellonzi,  Y. A. Bernard,  E. J. Berquist,  
 H. Burton,  A. Carreras,  K. Carter-Fenk,  Romit Chakraborty,  
 Chandrima Chakravarty,  Junhan Chen,  A. D. Chien,  K. D. Closser,  
 V. Cofer-Shabica,  L. Cunha,  S. Dasgupta,  Jia Deng,  M. de Wergifosse,  
 M. Diedenhofen,  Hainam Do,  S. Ehlert,  Po-Tung Fang,  S. Fatehi,  
 Qingguo Feng,  T. Friedhoff,  B. Ganoe,  J. Gayvert,  Qinghui Ge,  
 G. Gidofalvi,  M. Goldey,  J. Gomes,  C. Gonzalez-Espinoza,  S. Gulania,  
 A. Gunina,  J. A. Gyamfi,  M. W. D. Hanson-Heine,  P. H. P. Harbach,  
 A. W. Hauser,  M. F. Herbst,  M. Hernandez Vera,  M. Hodecker,  
 Z. C. Holden,  S. Houck,  Xunkun Huang,  Kerwin Hui,  B. C. Huynh,  
 K. Ikeda,  M. Ivanov,  Hyunjun Ji,  Zuxin Jin,  Hanjie Jiang,  B. Kaduk,  
 S. Kaehler,  R. Kang,  K. Khistyaev,  Jaehoon Kim,  Yongbin Kim,  
 P. Klunzinger,  Z. Koczor-Benda,  Joong Hoon Koh,  D. Kosenkov,  
 Saikiran Kotaru,  L. Koulias,  T. Kowalczyk,  C. M. Krauter,  K. Kue,  
 A. Kunitsa,  T. Kus,  A. Landau,  K. V. Lawler,  D. Lefrancois,  S. Lehtola,  
 Rain Li,  Shaozhi Li,  Yi-Pei Li,  Jiashu Liang,  M. Liebenthal,  
 Hung-Hsuan Lin,  You-Sheng Lin,  Fenglai Liu,  Kuan-Yu Liu,  
 M. Loipersberger,  A. Luenser,  C. Malbon,  A. Manjanath,  P. Manohar,  
 E. Mansoor,  S. F. Manzer,  Shan-Ping Mao,  A. V. Marenich,  T. Markovich,  
 S. Mason,  F. Matz,  S. A. Maurer,  P. F. McLaughlin,  M. F. S. J. Menger,  
 J.-M. Mewes,  S. A. Mewes,  P. Morgante,  Mohammad Mostafanejad,  
 J. W. Mullinax,  K. J. Oosterbaan,  G. Paran,  V. Parravicini,  
 Alexander C. Paul,  Suranjan K. Paul,  F. Pavosevic,  Zheng Pei,  S. Prager,  
 E. I. Proynov,  E. Ramos,  B. Rana,  A. E. Rask,  A. Rettig,  R. M. Richard,  
 F. Rob,  E. Rossomme,  T. Scheele,  M. Scheurer,  M. Schneider,  
 P. E. Schneider,  N. Sergueev,  S. M. Sharada,  Hengyuan Shen,  
 W. Skomorowski,  D. W. Small,  C. J. Stein,  Yingli Su,  Yu-Chuan Su,  
 E. J. Sundstrom,  Zhen Tao,  J. Thirman,  Hung-Yi Tsai,  T. Tsuchimochi,  
 N. M. Tubman,  C. Utku,  S. P. Veccham,  O. Vydrov,  J. Wenzel,  
 Jonathan Wong,  J. Witte,  A. Yamada,  Chou-Hsun Yang,  Kun Yao,  
 S. Yeganeh,  S. R. Yost,  A. Zech,  F. Zeller,  Igor Ying Zhang,  
 Xing Zhang,  Yu Zhang,  D. Zuev,  A. Aspuru-Guzik,  A. T. Bell,  
 N. A. Besley,  K. B. Bravaya,  B. R. Brooks,  D. Casanova,  Jeng-Da Chai,  
 Hsing-Ta Chen,  S. Coriani,  C. J. Cramer,  A. E. DePrince, III,  
 R. A. DiStasio Jr.,  A. Dreuw,  B. D. Dunietz,  T. R. Furlani,  
 W. A. Goddard III,  S. Grimme,  S. Hammes-Schiffer,  T. Head-Gordon,  
 W. J. Hehre,  Chao-Ping Hsu,  T.-C. Jagau,  Yousung Jung,  A. Klamt,  
 Jing Kong,  D. S. Lambrecht,  Xiangyuan Li,  WanZhen Liang,  N. J. Mayhall,  
 C. W. McCurdy,  J. B. Neaton,  T. Neudecker,  C. Ochsenfeld,  
 J. A. Parkhill,  R. Peverati,  V. A. Rassolov,  Haisheng Ren,  Yihan Shao,  
 L. V. Slipchenko,  R. P. Steele,  J. E. Subotnik,  A. J. W. Thom,  
 A. Tkatchenko,  D. G. Truhlar,  T. Van Voorhis,  Fan Wang,  
 T. A. Wesolowski,  K. B. Whaley,  H. L. Woodcock III,  P. M. Zimmerman,  
 S. Faraji,  P. M. W. Gill,  M. Head-Gordon,  J. M. Herbert,  A. I. Krylov

 Contributors to earlier versions of Q-Chem not listed above: 
 R. D. Adamson,  B. Austin,  R. Baer,  J. Baker,  G. J. O. Beran,  
 K. Brandhorst,  S. T. Brown,  E. F. C. Byrd,  Arup K. Chakraborty,  
 G. K. L. Chan,  Chun-Min Chang,  Yunqing Chen,  C.-L. Cheng,  
 Siu Hung Chien,  D. M. Chipman,  D. L. Crittenden,  H. Dachsel,  
 R. J. Doerksen,  A. D. Dutoi,  R. G. Edgar,  J. Fosso-Tande,  
 L. Fusti-Molnar,  D. Ghosh,  A. Ghysels,  A. Golubeva-Zadorozhnaya,  
 J. Gonthier,  M. S. Gordon,  S. R. Gwaltney,  G. Hawkins,  J. E. Herr,  
 A. Heyden,  S. Hirata,  E. G. Hohenstein,  G. Kedziora,  F. J. Keil,  
 C. Kelley,  Jihan Kim,  R. A. King,  R. Z. Khaliullin,  P. P. Korambath,  
 W. Kurlancheek,  A. Laurent,  A. M. Lee,  M. S. Lee,  S. V. Levchenko,  
 Ching Yeh Lin,  D. Liotard,  E. Livshits,  R. C. Lochan,  I. Lotan,  
 L. A. Martinez-Martinez,  P. E. Maslen,  N. Nair,  D. P. O'Neill,  
 D. Neuhauser,  E. Neuscamman,  C. M. Oana,  R. Olivares-Amaya,  R. Olson,  
 T. M. Perrine,  B. Peters,  P. A. Pieniazek,  A. Prociuk,  Y. M. Rhee,  
 J. Ritchie,  M. A. Rohrdanz,  E. Rosta,  N. J. Russ,  H. F. Schaefer III,  
 M. W. Schmidt,  N. E. Schultz,  S. Sharma,  N. Shenvi,  C. D. Sherrill,  
 A. C. Simmonett,  A. Sodt,  T. Stein,  D. Stuck,  K. S. Thanthiriwatte,  
 V. Vanovschi,  L. Vogt,  Tao Wang,  A. Warshel,  M. A. Watson,  
 C. F. Williams,  Q. Wu,  X. Xu,  Jun Yang,  W. Zhang,  Yan Zhao

   Please cite Q-Chem as follows:
  "Software for the frontiers of quantum chemistry:
   An overview of developments in the Q-Chem 5 package"
   J. Chem. Phys. 155, 084801 (2021)
   https://doi.org/10.1063/5.0055522 (open access)

 Q-Chem 6.0.0 for Intel X86 EM64T Linux

 Parts of Q-Chem use Armadillo 9.900.5 (Nocturnal Misbehaviour).
 http://arma.sourceforge.net/

 Q-Chem begins on Thu Jul 21 08:47:28 2022  

 Host: nid00532
0

     Scratch files written to /global/cscratch1/sd/ymao90/r7.00_frame_0085_almo_B3LYP_dp20220721031500//
 Processing $rem in /global/homes/y/ymao90/my_qchem/qchem_embedding_5p4/config/preferences:
 Processing $rem in /global/homes/y/ymao90/.qchemrc:

 Checking the input file for inconsistencies... 	...done.

--------------------------------------------------------------
User input:
--------------------------------------------------------------
$molecule
0 1
--
0 1
C    28.10600   28.24500   23.21800  
C    27.10800   28.47000   24.36600  
C    25.86500   27.59200   24.14900  
C    26.26500   26.10700   24.15600  
C    27.36800   25.82500   23.12300  
C    28.56900   26.78400   23.09500  
H    25.27200   27.76900   25.05400  
H    27.58600   28.16700   25.30500  
H    27.50700   28.69300   22.41500  
H    28.96500   28.91800   23.33200  
H    26.56200   25.88300   25.18800  
H    25.44200   25.43000   23.89600  
H    27.60700   24.75500   23.12500  
H    26.82400   26.05800   22.19900  
H    29.17400   26.52100   23.97200  
H    29.12000   26.62400   22.16000  
H    25.33500   27.99400   23.27600  
N    26.65100   29.85800   24.35600  
H    25.75600   30.01500   23.90700  
C    27.33500   30.96100   24.82100  
H    26.90300   31.95500   24.60300  
O    28.48500   30.85700   25.21100  
--
0 1
C    23.12300   33.09000   24.77700  
H    23.31300   33.89700   24.06500  
H    22.17000   33.10200   25.31200  
H    23.97800   33.05400   25.45600  
S    23.09200   31.61100   23.73900  
C    22.89000   30.48500   25.13800  
H    22.58000   29.51400   24.74500  
H    23.85500   30.50800   25.65000  
H    22.07800   30.81300   25.79200  
O    24.53500   31.42400   23.38500  
C    34.84400   31.74200   25.63400  
H    34.21700   32.53100   25.21100  
H    34.80800   31.61500   26.71900  
H    35.89300   31.76700   25.33000  
S    34.24500   30.12500   25.09400  
C    35.02700   30.15400   23.46500  
H    34.72000   29.25900   22.91900  
H    34.66300   31.00400   22.88200  
H    36.10200   30.17900   23.66000  
O    32.79700   30.40800   24.83700  
C    31.12300   33.41800   24.57500  
H    30.48700   33.76700   25.39300  
H    30.96200   32.34400   24.45300  
H    32.16900   33.55500   24.85900  
S    30.57400   34.29300   23.09200  
C    30.76500   35.94300   23.80400  
H    30.47800   36.67300   23.04300  
H    30.01000   36.04200   24.58800  
H    31.74500   36.04600   24.27600  
O    29.09900   34.09200   22.93700  
C    32.25600   29.78100   21.46500  
H    31.78700   28.87700   21.86100  
H    33.30200   29.58900   21.21300  
H    32.32600   30.48200   22.30000  
S    31.47300   30.59000   20.05200  
C    29.87900   30.94100   20.82700  
H    29.88600   31.67400   21.63800  
H    29.25400   31.36600   20.03700  
H    29.52400   30.02900   21.31300  
O    31.01600   29.40000   19.26600  
C    26.99100   18.86000   25.15900  
H    25.95100   18.61400   24.92800  
H    27.33200   18.18800   25.95100  
H    26.94400   19.90200   25.48600  
S    28.16300   18.71400   23.79200  
C    28.01800   16.93000   23.54200  
H    28.58200   16.75100   22.62300  
H    28.39600   16.25800   24.31600  
H    26.96300   16.67400   23.41500  
O    29.47000   18.77400   24.51800  
C    32.15600   33.52000   28.52100  
H    31.66900   33.46500   29.49800  
H    33.20600   33.82100   28.55800  
H    31.59300   34.27100   27.96000  
S    32.07200   31.85600   27.82100  
C    30.26500   31.86600   27.83600  
H    29.86400   31.74300   28.84600  
H    29.79200   32.69100   27.29600  
H    30.00200   31.00500   27.21700  
O    32.36300   31.00400   29.01600  
C    29.26200   24.96600   30.83500  
H    28.89800   25.39600   29.89800  
H    28.37000   24.66800   31.39200  
H    29.84600   25.73500   31.34700  
S    30.37300   23.56500   30.57400  
C    31.19200   24.32200   29.15300  
H    30.46200   24.56600   28.37700  
H    31.62900   25.21600   29.60700  
H    31.96500   23.63800   28.79300  
O    29.52100   22.43200   30.09200  
C    24.30600   23.66100   28.04600  
H    23.36300   23.10800   28.08300  
H    24.76400   23.57800   27.05700  
H    24.95700   23.17700   28.77800  
S    24.35100   25.35700   28.66600  
C    26.13500   25.32800   28.95200  
H    26.54200   25.99300   28.18600  
H    26.26500   25.78000   29.93900  
H    26.59500   24.34300   28.83400  
O    23.77000   25.35300   30.04600  
C    29.46500   21.51900   22.66700  
H    29.01800   21.59100   23.66200  
H    28.66600   21.36700   21.93700  
H    30.25700   20.77000   22.59100  
S    30.15600   23.15600   22.34000  
C    30.74700   22.65100   20.70900  
H    31.11300   23.62200   20.36500  
H    31.57000   21.93700   20.79900  
H    29.91500   22.24800   20.12600  
O    31.44700   23.19800   23.09800  
C    28.87200   23.63100   25.83500  
H    29.77200   23.03000   25.68600  
H    28.27900   23.65800   24.91700  
H    29.09700   24.65100   26.15700  
S    27.98500   22.81900   27.18400  
C    29.05200   21.36100   27.12600  
H    29.06600   20.98700   26.09900  
H    30.09000   21.62700   27.34200  
H    28.59300   20.59200   27.75300  
O    26.80100   22.20200   26.50800  
C    25.58100   34.63700   22.05200  
H    24.93200   35.51600   22.07100  
H    25.50700   34.07000   22.98400  
H    26.58500   34.95000   21.75300  
S    25.02000   33.52900   20.73900  
C    26.54300   32.59400   20.47100  
H    26.55900   32.21200   19.44600  
H    27.42000   33.21900   20.65700  
H    26.53700   31.75400   21.17100  
O    25.06800   34.40400   19.52500  
C    22.48700   26.09400   25.15500  
H    22.69200   26.31200   26.20600  
H    23.31700   26.16800   24.44800  
H    21.62600   26.65100   24.77500  
S    21.84800   24.41000   25.30300  
C    21.33800   24.35400   23.57000  
H    20.59700   25.13100   23.37000  
H    22.17000   24.41000   22.86300  
H    20.78200   23.41300   23.55200  
O    20.56200   24.38600   26.06900  
C    23.04200   25.27500   19.19400  
H    22.15800   25.76700   19.60800  
H    23.36700   25.62200   18.21000  
H    22.97400   24.19000   19.31100  
S    24.43500   25.85000   20.19200  
C    25.58700   24.46600   20.04600  
H    25.82400   24.35500   18.98500  
H    26.50300   24.72300   20.58500  
H    25.02200   23.58800   20.36800  
O    23.85200   25.65100   21.55700  
C    33.81300   27.19200   19.12800  
H    33.51400   26.50000   18.33700  
H    32.97500   27.87600   19.28300  
H    34.68900   27.80900   18.91400  
S    34.25800   26.28200   20.62500  
C    32.60600   25.95100   21.27600  
H    32.59200   25.47400   22.25900  
H    32.02700   26.87700   21.32500  
H    32.01600   25.32900   20.59800  
O    34.85700   27.30900   21.53500  
C    27.42800   30.50500   33.05200  
H    27.22900   29.97900   33.98900  
H    28.42000   30.94900   32.94400  
H    26.76300   31.29300   32.68900  
S    27.06400   29.32900   31.72800  
C    25.38900   28.80400   32.16000  
H    25.50000   28.40900   33.17300  
H    24.64200   29.60100   32.20000  
H    25.02100   28.05400   31.45600  
O    27.87200   28.08700   31.94000  
C    29.31800   27.31800   16.72000  
H    28.25300   27.55600   16.66700  
H    29.90300   28.07200   17.25200  
H    29.71800   27.22200   15.70700  
S    29.47400   25.80700   17.69800  
C    29.05500   26.41100   19.34900  
H    28.06200   26.86800   19.37500  
H    29.20400   25.56600   20.02500  
H    29.81500   27.16000   19.58700  
O    30.90500   25.38900   17.82900  
C    34.49200   26.68800   26.04600  
H    34.76400   26.58100   24.99200  
H    33.60300   27.32100   26.10500  
H    35.34800   27.12500   26.56700  
S    34.02500   25.05300   26.65500  
C    32.55500   24.71600   25.66000  
H    31.83600   25.50500   25.89900  
H    32.93400   24.75000   24.63500  
H    32.02000   23.79300   25.89700  
O    33.41700   25.52400   27.93900  
C    26.61100   30.77500   15.28100  
H    26.25200   31.72300   15.68900  
H    26.61400   31.02200   14.21600  
H    25.89100   29.96200   15.40100  
S    28.27700   30.35600   15.84200  
C    27.68200   30.09900   17.52900  
H    28.52800   30.18900   18.21500  
H    26.93400   30.84300   17.81500  
H    27.20100   29.12600   17.66100  
O    28.89800   31.70800   16.01500  
C    24.20100   30.80600   28.73600  
H    23.11500   30.92300   28.69800  
H    24.58200   31.18500   29.68700  
H    24.61300   31.35900   27.88800  
S    24.47300   29.02000   28.68500  
C    26.02900   29.02700   27.76700  
H    25.73900   29.57400   26.86600  
H    26.76600   29.62900   28.30400  
H    26.29400   27.97300   27.64900  
O    23.39300   28.66500   27.71100  
C    23.44600   29.46100   19.87200  
H    24.19300   30.09600   20.35500  
H    22.47500   29.93700   20.03000  
H    23.50100   28.38400   20.04900  
S    23.83900   29.43900   18.10800  
C    22.25800   28.77100   17.54500  
H    21.44600   29.49100   17.67800  
H    22.25600   28.66700   16.45600  
H    22.02300   27.87100   18.11800  
O    24.85000   28.36400   17.85700  
C    25.39700   35.44200   26.59400  
H    24.54400   35.31700   27.26600  
H    25.73600   36.47900   26.66300  
H    24.96800   35.39400   25.58900  
S    26.72900   34.28900   26.99500  
C    27.72800   34.69100   25.54300  
H    28.31200   35.60600   25.66900  
H    28.41200   33.84100   25.47900  
H    27.03300   34.69200   24.69900  
O    26.07900   32.96100   26.76300  
C    23.99600   19.85800   27.17500  
H    24.47800   20.83800   27.13900  
H    24.40300   19.26100   27.99500  
H    24.20400   19.34100   26.23400  
S    22.20900   20.02100   27.38600  
C    21.93200   20.94800   25.86000  
H    20.89900   21.30400   25.84400  
H    22.68600   21.71700   25.67400  
H    21.81900   20.29100   24.99300  
O    22.20200   21.03900   28.48300  
C    21.60600   27.94700   22.02900  
H    21.55300   27.43300   21.06500  
H    22.04600   28.94700   22.06900  
H    22.06000   27.33200   22.81100  
S    19.85200   28.19000   22.38900  
C    19.70900   29.66600   21.35600  
H    18.71100   30.10600   21.29300  
H    20.50800   30.35100   21.65300  
H    20.01000   29.41000   20.33700  
O    19.90200   28.66900   23.80600  
C    23.33100   21.27600   22.05300  
H    23.49700   22.09800   21.35300  
H    23.29300   20.34200   21.48700  
H    22.36300   21.41000   22.54200  
S    24.70800   21.16300   23.21800  
C    25.01800   22.88200   23.68200  
H    26.01500   22.97000   24.12000  
H    25.01300   23.53900   22.80800  
H    24.21900   23.17100   24.36900  
O    25.86000   20.99000   22.27800  
C    30.79200   28.46800   26.47700  
H    31.40100   27.56700   26.58400  
H    30.38000   28.47500   25.46500  
H    31.30500   29.42000   26.63600  
S    29.37900   28.41300   27.60200  
C    30.39000   27.97900   29.03600  
H    31.09300   27.22200   28.67900  
H    30.97800   28.85100   29.33500  
H    29.77700   27.60500   29.85900  
O    28.74100   27.11200   27.22500  
C    23.89800   21.02200   18.08600  
H    23.96800   21.55800   19.03600  
H    23.31000   21.65000   17.41200  
H    23.36500   20.11100   18.37000  
S    25.56200   20.69200   17.46300  
C    26.18000   19.98600   19.00800  
H    26.25600   20.62800   19.88900  
H    25.63200   19.08400   19.29200  
H    27.16400   19.62500   18.69800  
O    26.21700   22.03300   17.58100  
$end

$rem
JOBTYPE  SP
METHOD  B3LYP
BASIS  6-31+G(D)
SYMMETRY  FALSE
SYM_IGNORE  TRUE
MEM_TOTAL  12000
MEM_STATIC  4000
BASIS_LIN_DEP_THRESH  6
THRESH  14
SCF_CONVERGENCE  8
FD_MAT_VEC_PROD  FALSE
XC_GRID  000075000302
NL_GRID  1
MAX_SCF_CYCLES  200
FRGM_METHOD  STOLL
SCFMI_MODE  1
ALMO_EFIELD  TRUE
$end

$rem_frgm
SCF_CONVERGENCE  4
$end


--------------------------------------------------------------
 ----------------------------------------------------------------
             Standard Nuclear Orientation (Angstroms)
    I     Atom           X                Y                Z
 ----------------------------------------------------------------
    1      C      28.1060000000    28.2450000000    23.2180000000
    2      C      27.1080000000    28.4700000000    24.3660000000
    3      C      25.8650000000    27.5920000000    24.1490000000
    4      C      26.2650000000    26.1070000000    24.1560000000
    5      C      27.3680000000    25.8250000000    23.1230000000
    6      C      28.5690000000    26.7840000000    23.0950000000
    7      H      25.2720000000    27.7690000000    25.0540000000
    8      H      27.5860000000    28.1670000000    25.3050000000
    9      H      27.5070000000    28.6930000000    22.4150000000
   10      H      28.9650000000    28.9180000000    23.3320000000
   11      H      26.5620000000    25.8830000000    25.1880000000
   12      H      25.4420000000    25.4300000000    23.8960000000
   13      H      27.6070000000    24.7550000000    23.1250000000
   14      H      26.8240000000    26.0580000000    22.1990000000
   15      H      29.1740000000    26.5210000000    23.9720000000
   16      H      29.1200000000    26.6240000000    22.1600000000
   17      H      25.3350000000    27.9940000000    23.2760000000
   18      N      26.6510000000    29.8580000000    24.3560000000
   19      H      25.7560000000    30.0150000000    23.9070000000
   20      C      27.3350000000    30.9610000000    24.8210000000
   21      H      26.9030000000    31.9550000000    24.6030000000
   22      O      28.4850000000    30.8570000000    25.2110000000
   23      C      23.1230000000    33.0900000000    24.7770000000
   24      H      23.3130000000    33.8970000000    24.0650000000
   25      H      22.1700000000    33.1020000000    25.3120000000
   26      H      23.9780000000    33.0540000000    25.4560000000
   27      S      23.0920000000    31.6110000000    23.7390000000
   28      C      22.8900000000    30.4850000000    25.1380000000
   29      H      22.5800000000    29.5140000000    24.7450000000
   30      H      23.8550000000    30.5080000000    25.6500000000
   31      H      22.0780000000    30.8130000000    25.7920000000
   32      O      24.5350000000    31.4240000000    23.3850000000
   33      C      34.8440000000    31.7420000000    25.6340000000
   34      H      34.2170000000    32.5310000000    25.2110000000
   35      H      34.8080000000    31.6150000000    26.7190000000
   36      H      35.8930000000    31.7670000000    25.3300000000
   37      S      34.2450000000    30.1250000000    25.0940000000
   38      C      35.0270000000    30.1540000000    23.4650000000
   39      H      34.7200000000    29.2590000000    22.9190000000
   40      H      34.6630000000    31.0040000000    22.8820000000
   41      H      36.1020000000    30.1790000000    23.6600000000
   42      O      32.7970000000    30.4080000000    24.8370000000
   43      C      31.1230000000    33.4180000000    24.5750000000
   44      H      30.4870000000    33.7670000000    25.3930000000
   45      H      30.9620000000    32.3440000000    24.4530000000
   46      H      32.1690000000    33.5550000000    24.8590000000
   47      S      30.5740000000    34.2930000000    23.0920000000
   48      C      30.7650000000    35.9430000000    23.8040000000
   49      H      30.4780000000    36.6730000000    23.0430000000
   50      H      30.0100000000    36.0420000000    24.5880000000
   51      H      31.7450000000    36.0460000000    24.2760000000
   52      O      29.0990000000    34.0920000000    22.9370000000
   53      C      32.2560000000    29.7810000000    21.4650000000
   54      H      31.7870000000    28.8770000000    21.8610000000
   55      H      33.3020000000    29.5890000000    21.2130000000
   56      H      32.3260000000    30.4820000000    22.3000000000
   57      S      31.4730000000    30.5900000000    20.0520000000
   58      C      29.8790000000    30.9410000000    20.8270000000
   59      H      29.8860000000    31.6740000000    21.6380000000
   60      H      29.2540000000    31.3660000000    20.0370000000
   61      H      29.5240000000    30.0290000000    21.3130000000
   62      O      31.0160000000    29.4000000000    19.2660000000
   63      C      26.9910000000    18.8600000000    25.1590000000
   64      H      25.9510000000    18.6140000000    24.9280000000
   65      H      27.3320000000    18.1880000000    25.9510000000
   66      H      26.9440000000    19.9020000000    25.4860000000
   67      S      28.1630000000    18.7140000000    23.7920000000
   68      C      28.0180000000    16.9300000000    23.5420000000
   69      H      28.5820000000    16.7510000000    22.6230000000
   70      H      28.3960000000    16.2580000000    24.3160000000
   71      H      26.9630000000    16.6740000000    23.4150000000
   72      O      29.4700000000    18.7740000000    24.5180000000
   73      C      32.1560000000    33.5200000000    28.5210000000
   74      H      31.6690000000    33.4650000000    29.4980000000
   75      H      33.2060000000    33.8210000000    28.5580000000
   76      H      31.5930000000    34.2710000000    27.9600000000
   77      S      32.0720000000    31.8560000000    27.8210000000
   78      C      30.2650000000    31.8660000000    27.8360000000
   79      H      29.8640000000    31.7430000000    28.8460000000
   80      H      29.7920000000    32.6910000000    27.2960000000
   81      H      30.0020000000    31.0050000000    27.2170000000
   82      O      32.3630000000    31.0040000000    29.0160000000
   83      C      29.2620000000    24.9660000000    30.8350000000
   84      H      28.8980000000    25.3960000000    29.8980000000
   85      H      28.3700000000    24.6680000000    31.3920000000
   86      H      29.8460000000    25.7350000000    31.3470000000
   87      S      30.3730000000    23.5650000000    30.5740000000
   88      C      31.1920000000    24.3220000000    29.1530000000
   89      H      30.4620000000    24.5660000000    28.3770000000
   90      H      31.6290000000    25.2160000000    29.6070000000
   91      H      31.9650000000    23.6380000000    28.7930000000
   92      O      29.5210000000    22.4320000000    30.0920000000
   93      C      24.3060000000    23.6610000000    28.0460000000
   94      H      23.3630000000    23.1080000000    28.0830000000
   95      H      24.7640000000    23.5780000000    27.0570000000
   96      H      24.9570000000    23.1770000000    28.7780000000
   97      S      24.3510000000    25.3570000000    28.6660000000
   98      C      26.1350000000    25.3280000000    28.9520000000
   99      H      26.5420000000    25.9930000000    28.1860000000
  100      H      26.2650000000    25.7800000000    29.9390000000
  101      H      26.5950000000    24.3430000000    28.8340000000
  102      O      23.7700000000    25.3530000000    30.0460000000
  103      C      29.4650000000    21.5190000000    22.6670000000
  104      H      29.0180000000    21.5910000000    23.6620000000
  105      H      28.6660000000    21.3670000000    21.9370000000
  106      H      30.2570000000    20.7700000000    22.5910000000
  107      S      30.1560000000    23.1560000000    22.3400000000
  108      C      30.7470000000    22.6510000000    20.7090000000
  109      H      31.1130000000    23.6220000000    20.3650000000
  110      H      31.5700000000    21.9370000000    20.7990000000
  111      H      29.9150000000    22.2480000000    20.1260000000
  112      O      31.4470000000    23.1980000000    23.0980000000
  113      C      28.8720000000    23.6310000000    25.8350000000
  114      H      29.7720000000    23.0300000000    25.6860000000
  115      H      28.2790000000    23.6580000000    24.9170000000
  116      H      29.0970000000    24.6510000000    26.1570000000
  117      S      27.9850000000    22.8190000000    27.1840000000
  118      C      29.0520000000    21.3610000000    27.1260000000
  119      H      29.0660000000    20.9870000000    26.0990000000
  120      H      30.0900000000    21.6270000000    27.3420000000
  121      H      28.5930000000    20.5920000000    27.7530000000
  122      O      26.8010000000    22.2020000000    26.5080000000
  123      C      25.5810000000    34.6370000000    22.0520000000
  124      H      24.9320000000    35.5160000000    22.0710000000
  125      H      25.5070000000    34.0700000000    22.9840000000
  126      H      26.5850000000    34.9500000000    21.7530000000
  127      S      25.0200000000    33.5290000000    20.7390000000
  128      C      26.5430000000    32.5940000000    20.4710000000
  129      H      26.5590000000    32.2120000000    19.4460000000
  130      H      27.4200000000    33.2190000000    20.6570000000
  131      H      26.5370000000    31.7540000000    21.1710000000
  132      O      25.0680000000    34.4040000000    19.5250000000
  133      C      22.4870000000    26.0940000000    25.1550000000
  134      H      22.6920000000    26.3120000000    26.2060000000
  135      H      23.3170000000    26.1680000000    24.4480000000
  136      H      21.6260000000    26.6510000000    24.7750000000
  137      S      21.8480000000    24.4100000000    25.3030000000
  138      C      21.3380000000    24.3540000000    23.5700000000
  139      H      20.5970000000    25.1310000000    23.3700000000
  140      H      22.1700000000    24.4100000000    22.8630000000
  141      H      20.7820000000    23.4130000000    23.5520000000
  142      O      20.5620000000    24.3860000000    26.0690000000
  143      C      23.0420000000    25.2750000000    19.1940000000
  144      H      22.1580000000    25.7670000000    19.6080000000
  145      H      23.3670000000    25.6220000000    18.2100000000
  146      H      22.9740000000    24.1900000000    19.3110000000
  147      S      24.4350000000    25.8500000000    20.1920000000
  148      C      25.5870000000    24.4660000000    20.0460000000
  149      H      25.8240000000    24.3550000000    18.9850000000
  150      H      26.5030000000    24.7230000000    20.5850000000
  151      H      25.0220000000    23.5880000000    20.3680000000
  152      O      23.8520000000    25.6510000000    21.5570000000
  153      C      33.8130000000    27.1920000000    19.1280000000
  154      H      33.5140000000    26.5000000000    18.3370000000
  155      H      32.9750000000    27.8760000000    19.2830000000
  156      H      34.6890000000    27.8090000000    18.9140000000
  157      S      34.2580000000    26.2820000000    20.6250000000
  158      C      32.6060000000    25.9510000000    21.2760000000
  159      H      32.5920000000    25.4740000000    22.2590000000
  160      H      32.0270000000    26.8770000000    21.3250000000
  161      H      32.0160000000    25.3290000000    20.5980000000
  162      O      34.8570000000    27.3090000000    21.5350000000
  163      C      27.4280000000    30.5050000000    33.0520000000
  164      H      27.2290000000    29.9790000000    33.9890000000
  165      H      28.4200000000    30.9490000000    32.9440000000
  166      H      26.7630000000    31.2930000000    32.6890000000
  167      S      27.0640000000    29.3290000000    31.7280000000
  168      C      25.3890000000    28.8040000000    32.1600000000
  169      H      25.5000000000    28.4090000000    33.1730000000
  170      H      24.6420000000    29.6010000000    32.2000000000
  171      H      25.0210000000    28.0540000000    31.4560000000
  172      O      27.8720000000    28.0870000000    31.9400000000
  173      C      29.3180000000    27.3180000000    16.7200000000
  174      H      28.2530000000    27.5560000000    16.6670000000
  175      H      29.9030000000    28.0720000000    17.2520000000
  176      H      29.7180000000    27.2220000000    15.7070000000
  177      S      29.4740000000    25.8070000000    17.6980000000
  178      C      29.0550000000    26.4110000000    19.3490000000
  179      H      28.0620000000    26.8680000000    19.3750000000
  180      H      29.2040000000    25.5660000000    20.0250000000
  181      H      29.8150000000    27.1600000000    19.5870000000
  182      O      30.9050000000    25.3890000000    17.8290000000
  183      C      34.4920000000    26.6880000000    26.0460000000
  184      H      34.7640000000    26.5810000000    24.9920000000
  185      H      33.6030000000    27.3210000000    26.1050000000
  186      H      35.3480000000    27.1250000000    26.5670000000
  187      S      34.0250000000    25.0530000000    26.6550000000
  188      C      32.5550000000    24.7160000000    25.6600000000
  189      H      31.8360000000    25.5050000000    25.8990000000
  190      H      32.9340000000    24.7500000000    24.6350000000
  191      H      32.0200000000    23.7930000000    25.8970000000
  192      O      33.4170000000    25.5240000000    27.9390000000
  193      C      26.6110000000    30.7750000000    15.2810000000
  194      H      26.2520000000    31.7230000000    15.6890000000
  195      H      26.6140000000    31.0220000000    14.2160000000
  196      H      25.8910000000    29.9620000000    15.4010000000
  197      S      28.2770000000    30.3560000000    15.8420000000
  198      C      27.6820000000    30.0990000000    17.5290000000
  199      H      28.5280000000    30.1890000000    18.2150000000
  200      H      26.9340000000    30.8430000000    17.8150000000
  201      H      27.2010000000    29.1260000000    17.6610000000
  202      O      28.8980000000    31.7080000000    16.0150000000
  203      C      24.2010000000    30.8060000000    28.7360000000
  204      H      23.1150000000    30.9230000000    28.6980000000
  205      H      24.5820000000    31.1850000000    29.6870000000
  206      H      24.6130000000    31.3590000000    27.8880000000
  207      S      24.4730000000    29.0200000000    28.6850000000
  208      C      26.0290000000    29.0270000000    27.7670000000
  209      H      25.7390000000    29.5740000000    26.8660000000
  210      H      26.7660000000    29.6290000000    28.3040000000
  211      H      26.2940000000    27.9730000000    27.6490000000
  212      O      23.3930000000    28.6650000000    27.7110000000
  213      C      23.4460000000    29.4610000000    19.8720000000
  214      H      24.1930000000    30.0960000000    20.3550000000
  215      H      22.4750000000    29.9370000000    20.0300000000
  216      H      23.5010000000    28.3840000000    20.0490000000
  217      S      23.8390000000    29.4390000000    18.1080000000
  218      C      22.2580000000    28.7710000000    17.5450000000
  219      H      21.4460000000    29.4910000000    17.6780000000
  220      H      22.2560000000    28.6670000000    16.4560000000
  221      H      22.0230000000    27.8710000000    18.1180000000
  222      O      24.8500000000    28.3640000000    17.8570000000
  223      C      25.3970000000    35.4420000000    26.5940000000
  224      H      24.5440000000    35.3170000000    27.2660000000
  225      H      25.7360000000    36.4790000000    26.6630000000
  226      H      24.9680000000    35.3940000000    25.5890000000
  227      S      26.7290000000    34.2890000000    26.9950000000
  228      C      27.7280000000    34.6910000000    25.5430000000
  229      H      28.3120000000    35.6060000000    25.6690000000
  230      H      28.4120000000    33.8410000000    25.4790000000
  231      H      27.0330000000    34.6920000000    24.6990000000
  232      O      26.0790000000    32.9610000000    26.7630000000
  233      C      23.9960000000    19.8580000000    27.1750000000
  234      H      24.4780000000    20.8380000000    27.1390000000
  235      H      24.4030000000    19.2610000000    27.9950000000
  236      H      24.2040000000    19.3410000000    26.2340000000
  237      S      22.2090000000    20.0210000000    27.3860000000
  238      C      21.9320000000    20.9480000000    25.8600000000
  239      H      20.8990000000    21.3040000000    25.8440000000
  240      H      22.6860000000    21.7170000000    25.6740000000
  241      H      21.8190000000    20.2910000000    24.9930000000
  242      O      22.2020000000    21.0390000000    28.4830000000
  243      C      21.6060000000    27.9470000000    22.0290000000
  244      H      21.5530000000    27.4330000000    21.0650000000
  245      H      22.0460000000    28.9470000000    22.0690000000
  246      H      22.0600000000    27.3320000000    22.8110000000
  247      S      19.8520000000    28.1900000000    22.3890000000
  248      C      19.7090000000    29.6660000000    21.3560000000
  249      H      18.7110000000    30.1060000000    21.2930000000
  250      H      20.5080000000    30.3510000000    21.6530000000
  251      H      20.0100000000    29.4100000000    20.3370000000
  252      O      19.9020000000    28.6690000000    23.8060000000
  253      C      23.3310000000    21.2760000000    22.0530000000
  254      H      23.4970000000    22.0980000000    21.3530000000
  255      H      23.2930000000    20.3420000000    21.4870000000
  256      H      22.3630000000    21.4100000000    22.5420000000
  257      S      24.7080000000    21.1630000000    23.2180000000
  258      C      25.0180000000    22.8820000000    23.6820000000
  259      H      26.0150000000    22.9700000000    24.1200000000
  260      H      25.0130000000    23.5390000000    22.8080000000
  261      H      24.2190000000    23.1710000000    24.3690000000
  262      O      25.8600000000    20.9900000000    22.2780000000
  263      C      30.7920000000    28.4680000000    26.4770000000
  264      H      31.4010000000    27.5670000000    26.5840000000
  265      H      30.3800000000    28.4750000000    25.4650000000
  266      H      31.3050000000    29.4200000000    26.6360000000
  267      S      29.3790000000    28.4130000000    27.6020000000
  268      C      30.3900000000    27.9790000000    29.0360000000
  269      H      31.0930000000    27.2220000000    28.6790000000
  270      H      30.9780000000    28.8510000000    29.3350000000
  271      H      29.7770000000    27.6050000000    29.8590000000
  272      O      28.7410000000    27.1120000000    27.2250000000
  273      C      23.8980000000    21.0220000000    18.0860000000
  274      H      23.9680000000    21.5580000000    19.0360000000
  275      H      23.3100000000    21.6500000000    17.4120000000
  276      H      23.3650000000    20.1110000000    18.3700000000
  277      S      25.5620000000    20.6920000000    17.4630000000
  278      C      26.1800000000    19.9860000000    19.0080000000
  279      H      26.2560000000    20.6280000000    19.8890000000
  280      H      25.6320000000    19.0840000000    19.2920000000
  281      H      27.1640000000    19.6250000000    18.6980000000
  282      O      26.2170000000    22.0330000000    17.5810000000
 ----------------------------------------------------------------
 Nuclear Repulsion Energy =       46027.42725677 hartrees
 There are      581 alpha and      581 beta electrons
 Requested basis set is 6-31+G(d)
 There are 929 shells and 2589 basis functions

 Total QAlloc Memory Limit  12000 MB
 Mega-Array Size      3911 MB
 MEM_STATIC part      4000 MB

 A cutoff of  1.0D-14 yielded 174759 shell pairs
 There are   1502504 function pairs
 Smallest overlap matrix eigenvalue = 3.54E-07
 Linear dependence detected in AO basis
 Tighter screening thresholds may be required for diffuse basis sets
 Use S2THRESH > 14 and THRESH = 14 in case of SCF convergence issues
 Number of orthogonalized atomic orbitals = 2586
 Maximum deviation from orthogonality = 9.596E-11

 Scale SEOQF with 1.000000e-03/1.000000e-03/1.000000e-03

 Standard Electronic Orientation quadrupole field applied
 Nucleus-field energy     =     0.0000002113 hartrees
 Attempting to make child job directory: /global/cscratch1/sd/ymao90/r7.00_frame_0085_almo_B3LYP_dp20220721031500//Frg1/
 Attempting to make child job directory: /global/cscratch1/sd/ymao90/r7.00_frame_0085_almo_B3LYP_dp20220721031500//Frg2/
 Creating input file /global/cscratch1/sd/ymao90/r7.00_frame_0085_almo_B3LYP_dp20220721031500/Frg1.input
 using default PutDataFrgm: nothing
 calling putenv with: QCSCRATCH=/global/cscratch1/sd/ymao90/r7.00_frame_0085_almo_B3LYP_dp20220721031500/ 
 Spawning Job For Fragment 0
 Done Job For Fragment 0
 calling putenv with: QCSCRATCH=/global/cscratch1/sd/ymao90 
 calling putenv with: QCTHREADS=16 
 Creating input file /global/cscratch1/sd/ymao90/r7.00_frame_0085_almo_B3LYP_dp20220721031500/Frg2.input
 using default PutDataFrgm: nothing
 calling putenv with: QCSCRATCH=/global/cscratch1/sd/ymao90/r7.00_frame_0085_almo_B3LYP_dp20220721031500/ 
 Spawning Job For Fragment 1
 Done Job For Fragment 1
 calling putenv with: QCSCRATCH=/global/cscratch1/sd/ymao90 
 calling putenv with: QCTHREADS=16 
 Time for running child jobs:  CPU 0.45 s  wall 12016.01 s

 -----------------------------------------------------------------------
  General SCF calculation program by
  Eric Jon Sundstrom, Paul Horn, Yuezhi Mao, Dmitri Zuev, Alec White,
  David Stuck, Shaama M.S., Shane Yost, Joonho Lee, David Small,
  Daniel Levine, Susi Lehtola, Hugh Burton, Evgeny Epifanovsky,
  Bang C. Huynh
 -----------------------------------------------------------------------
Performing Restricted Closed Shell SCFMI
Doing General SCFMI
 Exchange:     0.2000 Hartree-Fock + 0.0800 Slater + 0.7200 B88
 Correlation:  0.1900 VWN1RPA + 0.8100 LYP
 Using Euler-Maclaurin-Lebedev (75,302) quadrature formula
performing fock build before subrot guess so that all methods have access
 using 16 threads for integral computing
 -------------------------------------------------------
 OpenMP Integral computing Module                
 Release: version 1.0, May 2013, Q-Chem Inc. Pittsburgh 
 -------------------------------------------------------
Printing subrot_rss_gen Method Specification:
Occupied Subspace Method is 0
Virtual Subspace Method is 0
Energy prior to optimization (guess energy) = -14787.488195154343
Begin Timing: Total SCF Calculation
begin iterations for algorithm: DIIS         
the SCF tolerance is set to 1.00e-08
    1  -14787.4881951543      3.54e-05     00000 
    2  -14787.4951952128      2.74e-05     00000 
    3  -14787.4965386775      2.07e-05     00000 
    4  -14787.4974646176      6.77e-06     00000 
    5  -14787.4975819713      2.83e-06     00000 
    6  -14787.4976053532      1.62e-06     00000 
    7  -14787.4976116911      1.24e-06     00000 
    8  -14787.4976150780      6.94e-07     00000 
    9  -14787.4976161569      3.69e-07     00000 
   10  -14787.4976164367      2.42e-07     00000 
   11  -14787.4976165319      1.87e-07     00000 
   12  -14787.4976166091      9.44e-08     00000 
   13  -14787.4976166319      5.26e-08     00000 
   14  -14787.4976166379      3.65e-08     00000 
   15  -14787.4976166404      2.28e-08     00000 
   16  -14787.4976166414      1.31e-08     00000 
   17  -14787.4976166419      6.42e-09     00000 Convergence criterion met
write pseudocanon occs and virts to disk
write pseudocanon orbital energies to disk
Timing for Total SCF: 18275.00s (wall), 251373.50s (cpu)
SCFMI Energy  -14787.4976166419
<S^2>            0.00000
 Total energy in the final basis set =   -14787.4976166419
    ==================================================
        The end of Object-Oriented SCFman: SCFMI      
    ==================================================

 --------------------------------------------------------------

                    Orbital Energies (a.u.)
 --------------------------------------------------------------

 Alpha MOs
 -- Occupied --
-89.0279 -89.0259 -89.0226 -89.0163 -89.0159 -89.0150 -89.0131 -89.0128
-89.0126 -89.0121 -89.0076 -88.9976 -88.9958 -88.9953 -88.9943 -88.9936
-88.9897 -88.9893 -88.9874 -88.9873 -88.9852 -88.9833 -88.9825 -88.9809
-88.9655 -88.9567 -19.1469 -19.1466 -19.1439 -19.1333 -19.1284 -19.1275
-19.1262 -19.1230 -19.1219 -19.1208 -19.1204 -19.1135 -19.1125 -19.1113
-19.1098 -19.1097 -19.1040 -19.1035 -19.1017 -19.1010 -19.0997 -19.0982
-19.0944 -19.0925 -19.0916 -19.0857 -19.0731 -14.3496 -10.2804 -10.2490
-10.2480 -10.2459 -10.2457 -10.2427 -10.2412 -10.2400 -10.2385 -10.2376
-10.2374 -10.2340 -10.2325 -10.2315 -10.2311 -10.2309 -10.2298 -10.2224
-10.2192 -10.2191 -10.2179 -10.2178 -10.2177 -10.2157 -10.2144 -10.2144
-10.2123 -10.2116 -10.2115 -10.2103 -10.2100 -10.2093 -10.2092 -10.2075
-10.2061 -10.2050 -10.2047 -10.2044 -10.2041 -10.2031 -10.2029 -10.2004
-10.2003 -10.2002 -10.1990 -10.1982 -10.1976 -10.1931 -10.1907 -10.1890
-10.1883 -10.1873 -10.1863 -10.1850 -10.1848 -10.1832 -10.1827 -10.1760
-10.1651  -8.0736  -8.0715  -8.0688  -8.0624  -8.0619  -8.0615  -8.0595
 -8.0594  -8.0589  -8.0581  -8.0532  -8.0436  -8.0415  -8.0413  -8.0406
 -8.0394  -8.0357  -8.0357  -8.0335  -8.0332  -8.0313  -8.0292  -8.0285
 -8.0267  -8.0119  -8.0024  -6.0380  -6.0367  -6.0358  -6.0347  -6.0332
 -6.0320  -6.0311  -6.0288  -6.0264  -6.0264  -6.0260  -6.0259  -6.0255
 -6.0249  -6.0247  -6.0239  -6.0238  -6.0232  -6.0225  -6.0222  -6.0222
 -6.0220  -6.0212  -6.0199  -6.0191  -6.0188  -6.0174  -6.0170  -6.0168
 -6.0164  -6.0163  -6.0157  -6.0108  -6.0081  -6.0068  -6.0056  -6.0055
 -6.0049  -6.0046  -6.0045  -6.0036  -6.0036  -6.0027  -6.0008  -6.0002
 -6.0001  -5.9993  -5.9988  -5.9988  -5.9987  -5.9984  -5.9980  -5.9973
 -5.9968  -5.9968  -5.9964  -5.9958  -5.9941  -5.9937  -5.9931  -5.9928
 -5.9927  -5.9920  -5.9917  -5.9909  -5.9908  -5.9904  -5.9898  -5.9888
 -5.9867  -5.9859  -5.9843  -5.9764  -5.9748  -5.9692  -5.9667  -5.9656
 -5.9598  -1.0526  -1.0523  -1.0520  -1.0458  -1.0436  -1.0397  -1.0376
 -1.0370  -1.0365  -1.0343  -1.0332  -1.0289  -1.0214  -1.0198  -1.0164
 -1.0149  -1.0148  -1.0146  -1.0140  -1.0132  -1.0125  -1.0106  -1.0068
 -1.0067  -1.0042  -0.9917  -0.9797  -0.9162  -0.8343  -0.8310  -0.8284
 -0.8270  -0.8218  -0.8195  -0.8179  -0.8143  -0.8108  -0.8082  -0.8071
 -0.8055  -0.7975  -0.7961  -0.7948  -0.7930  -0.7905  -0.7877  -0.7876
 -0.7868  -0.7856  -0.7851  -0.7849  -0.7844  -0.7838  -0.7749  -0.7637
 -0.7599  -0.7545  -0.7542  -0.7536  -0.7488  -0.7464  -0.7448  -0.7435
 -0.7425  -0.7394  -0.7357  -0.7336  -0.7331  -0.7300  -0.7276  -0.7275
 -0.7221  -0.7208  -0.7187  -0.7171  -0.7160  -0.7148  -0.7140  -0.7116
 -0.7054  -0.7031  -0.6936  -0.6836  -0.6458  -0.6395  -0.6371  -0.6338
 -0.6307  -0.6284  -0.6276  -0.6275  -0.6254  -0.6244  -0.6242  -0.6207
 -0.6182  -0.6117  -0.6091  -0.6074  -0.6070  -0.6053  -0.6032  -0.6029
 -0.6018  -0.6006  -0.5986  -0.5970  -0.5944  -0.5925  -0.5783  -0.5752
 -0.5704  -0.5671  -0.5257  -0.5232  -0.5126  -0.5083  -0.5044  -0.5041
 -0.5011  -0.4986  -0.4975  -0.4961  -0.4952  -0.4942  -0.4937  -0.4913
 -0.4903  -0.4892  -0.4892  -0.4886  -0.4881  -0.4876  -0.4869  -0.4862
 -0.4852  -0.4847  -0.4838  -0.4833  -0.4815  -0.4813  -0.4788  -0.4783
 -0.4778  -0.4765  -0.4751  -0.4749  -0.4740  -0.4739  -0.4735  -0.4725
 -0.4717  -0.4712  -0.4706  -0.4701  -0.4700  -0.4695  -0.4687  -0.4680
 -0.4664  -0.4661  -0.4659  -0.4628  -0.4618  -0.4613  -0.4609  -0.4602
 -0.4602  -0.4596  -0.4594  -0.4585  -0.4584  -0.4583  -0.4575  -0.4571
 -0.4568  -0.4551  -0.4541  -0.4538  -0.4532  -0.4529  -0.4519  -0.4513
 -0.4502  -0.4499  -0.4493  -0.4486  -0.4482  -0.4476  -0.4467  -0.4460
 -0.4459  -0.4453  -0.4447  -0.4442  -0.4416  -0.4411  -0.4406  -0.4404
 -0.4402  -0.4401  -0.4395  -0.4369  -0.4364  -0.4357  -0.4348  -0.4316
 -0.4309  -0.4302  -0.4295  -0.4291  -0.4283  -0.4275  -0.4269  -0.4266
 -0.4261  -0.4255  -0.4232  -0.4224  -0.4222  -0.4216  -0.4214  -0.4205
 -0.4203  -0.4186  -0.4184  -0.4180  -0.4178  -0.4171  -0.4154  -0.4151
 -0.4148  -0.4143  -0.4135  -0.4117  -0.4116  -0.4112  -0.4101  -0.4084
 -0.4077  -0.4073  -0.4069  -0.4051  -0.4048  -0.4043  -0.4030  -0.4021
 -0.4015  -0.4007  -0.3995  -0.3992  -0.3986  -0.3985  -0.3979  -0.3971
 -0.3969  -0.3960  -0.3945  -0.3935  -0.3931  -0.3924  -0.3911  -0.3900
 -0.3886  -0.3872  -0.3866  -0.3859  -0.3847  -0.3844  -0.3834  -0.3812
 -0.3807  -0.3802  -0.3796  -0.3787  -0.3786  -0.3774  -0.3774  -0.3761
 -0.3754  -0.3753  -0.3751  -0.3739  -0.3735  -0.3726  -0.3712  -0.3672
 -0.3670  -0.3638  -0.3627  -0.3597  -0.3584  -0.3581  -0.3562  -0.3531
 -0.3525  -0.3515  -0.3512  -0.3502  -0.3472  -0.3467  -0.3452  -0.3420
 -0.3416  -0.3389  -0.3339  -0.3296  -0.3190  -0.3113  -0.3092  -0.3090
 -0.3086  -0.3052  -0.2937  -0.2903  -0.2894  -0.2846  -0.2844  -0.2820
 -0.2805  -0.2754  -0.2746  -0.2743  -0.2737  -0.2718  -0.2685  -0.2670
 -0.2662  -0.2648  -0.2628  -0.2622  -0.2614  -0.2606  -0.2587  -0.2580
 -0.2576  -0.2562  -0.2558  -0.2553  -0.2551  -0.2543  -0.2530  -0.2523
 -0.2513  -0.2481  -0.2470  -0.2449  -0.2428  -0.2406  -0.2370  -0.2348
 -0.2336  -0.2326  -0.2317  -0.2298  -0.2294  -0.2271  -0.2249  -0.2238
 -0.2222  -0.2214  -0.2209  -0.2072  -0.1954
 -- Virtual --
 -0.0412  -0.0408  -0.0331  -0.0326  -0.0289  -0.0240  -0.0220  -0.0212
 -0.0187  -0.0179  -0.0167  -0.0161  -0.0137  -0.0133  -0.0126  -0.0101
 -0.0089  -0.0077  -0.0068  -0.0057  -0.0050  -0.0038  -0.0036  -0.0029
 -0.0021  -0.0005   0.0001   0.0006   0.0015   0.0021   0.0038   0.0045
  0.0049   0.0052   0.0062   0.0071   0.0080   0.0085   0.0093   0.0097
  0.0106   0.0111   0.0120   0.0127   0.0132   0.0142   0.0148   0.0155
  0.0158   0.0169   0.0175   0.0183   0.0194   0.0199   0.0206   0.0215
  0.0221   0.0230   0.0239   0.0246   0.0248   0.0253   0.0259   0.0263
  0.0267   0.0271   0.0291   0.0294   0.0298   0.0306   0.0309   0.0315
  0.0322   0.0330   0.0335   0.0343   0.0352   0.0353   0.0363   0.0369
  0.0372   0.0382   0.0385   0.0398   0.0401   0.0415   0.0422   0.0430
  0.0437   0.0452   0.0454   0.0460   0.0474   0.0477   0.0484   0.0485
  0.0492   0.0498   0.0512   0.0519   0.0521   0.0524   0.0528   0.0541
  0.0547   0.0551   0.0558   0.0568   0.0570   0.0577   0.0584   0.0587
  0.0595   0.0604   0.0608   0.0617   0.0626   0.0630   0.0632   0.0641
  0.0642   0.0652   0.0659   0.0667   0.0675   0.0681   0.0691   0.0699
  0.0703   0.0713   0.0722   0.0726   0.0728   0.0732   0.0736   0.0747
  0.0749   0.0766   0.0767   0.0775   0.0784   0.0785   0.0791   0.0805
  0.0805   0.0813   0.0823   0.0831   0.0837   0.0839   0.0848   0.0862
  0.0869   0.0874   0.0876   0.0886   0.0892   0.0902   0.0909   0.0922
  0.0927   0.0930   0.0935   0.0947   0.0959   0.0963   0.0973   0.0979
  0.0982   0.0991   0.0997   0.1001   0.1009   0.1015   0.1022   0.1031
  0.1037   0.1039   0.1043   0.1048   0.1059   0.1063   0.1065   0.1077
  0.1082   0.1084   0.1089   0.1096   0.1105   0.1111   0.1115   0.1122
  0.1131   0.1133   0.1142   0.1147   0.1155   0.1158   0.1165   0.1179
  0.1183   0.1190   0.1196   0.1203   0.1209   0.1214   0.1216   0.1219
  0.1225   0.1235   0.1240   0.1251   0.1255   0.1267   0.1269   0.1276
  0.1284   0.1287   0.1294   0.1300   0.1304   0.1313   0.1318   0.1326
  0.1330   0.1338   0.1342   0.1353   0.1360   0.1362   0.1367   0.1385
  0.1387   0.1390   0.1393   0.1407   0.1410   0.1418   0.1426   0.1433
  0.1436   0.1444   0.1448   0.1454   0.1461   0.1466   0.1474   0.1482
  0.1486   0.1496   0.1498   0.1503   0.1512   0.1526   0.1530   0.1538
  0.1545   0.1551   0.1553   0.1554   0.1571   0.1578   0.1583   0.1586
  0.1597   0.1605   0.1606   0.1618   0.1624   0.1627   0.1632   0.1637
  0.1651   0.1653   0.1655   0.1666   0.1673   0.1683   0.1686   0.1695
  0.1702   0.1706   0.1711   0.1713   0.1718   0.1726   0.1733   0.1737
  0.1745   0.1755   0.1764   0.1769   0.1771   0.1772   0.1781   0.1785
  0.1794   0.1797   0.1803   0.1813   0.1818   0.1827   0.1830   0.1831
  0.1846   0.1853   0.1855   0.1860   0.1866   0.1873   0.1878   0.1883
  0.1899   0.1904   0.1908   0.1915   0.1921   0.1927   0.1931   0.1947
  0.1948   0.1953   0.1962   0.1966   0.1970   0.1973   0.1980   0.1984
  0.1989   0.1997   0.2003   0.2005   0.2016   0.2021   0.2027   0.2037
  0.2042   0.2045   0.2046   0.2056   0.2066   0.2074   0.2078   0.2084
  0.2091   0.2098   0.2099   0.2110   0.2115   0.2123   0.2126   0.2132
  0.2134   0.2146   0.2152   0.2154   0.2161   0.2167   0.2174   0.2182
  0.2187   0.2196   0.2205   0.2212   0.2213   0.2216   0.2234   0.2238
  0.2240   0.2251   0.2254   0.2256   0.2264   0.2273   0.2286   0.2290
  0.2296   0.2305   0.2313   0.2317   0.2319   0.2329   0.2335   0.2347
  0.2350   0.2363   0.2367   0.2370   0.2383   0.2386   0.2393   0.2398
  0.2412   0.2415   0.2420   0.2423   0.2434   0.2444   0.2449   0.2452
  0.2458   0.2467   0.2479   0.2487   0.2492   0.2500   0.2506   0.2521
  0.2527   0.2537   0.2546   0.2549   0.2553   0.2563   0.2577   0.2579
  0.2589   0.2594   0.2600   0.2603   0.2607   0.2617   0.2626   0.2628
  0.2632   0.2642   0.2653   0.2661   0.2665   0.2670   0.2676   0.2683
  0.2686   0.2696   0.2699   0.2711   0.2719   0.2723   0.2734   0.2736
  0.2745   0.2754   0.2756   0.2767   0.2771   0.2777   0.2787   0.2792
  0.2802   0.2814   0.2824   0.2832   0.2838   0.2852   0.2856   0.2866
  0.2870   0.2884   0.2904   0.2905   0.2915   0.2922   0.2927   0.2934
  0.2937   0.2948   0.2958   0.2964   0.2971   0.2976   0.2986   0.2995
  0.3006   0.3016   0.3024   0.3030   0.3038   0.3047   0.3055   0.3062
  0.3081   0.3088   0.3091   0.3097   0.3106   0.3110   0.3129   0.3134
  0.3138   0.3154   0.3166   0.3184   0.3187   0.3200   0.3214   0.3223
  0.3230   0.3243   0.3247   0.3256   0.3262   0.3266   0.3278   0.3290
  0.3297   0.3303   0.3313   0.3322   0.3330   0.3333   0.3350   0.3357
  0.3361   0.3381   0.3390   0.3403   0.3410   0.3413   0.3424   0.3430
  0.3446   0.3448   0.3456   0.3472   0.3480   0.3494   0.3500   0.3506
  0.3517   0.3532   0.3535   0.3541   0.3544   0.3552   0.3554   0.3571
  0.3575   0.3594   0.3601   0.3611   0.3617   0.3624   0.3646   0.3654
  0.3659   0.3664   0.3670   0.3678   0.3693   0.3704   0.3718   0.3728
  0.3729   0.3742   0.3744   0.3750   0.3756   0.3762   0.3776   0.3782
  0.3801   0.3808   0.3814   0.3821   0.3824   0.3826   0.3839   0.3859
  0.3873   0.3876   0.3881   0.3888   0.3894   0.3902   0.3925   0.3935
  0.3944   0.3948   0.3960   0.3965   0.3970   0.3982   0.3983   0.3992
  0.3999   0.4017   0.4018   0.4033   0.4036   0.4041   0.4052   0.4062
  0.4073   0.4077   0.4092   0.4098   0.4108   0.4121   0.4122   0.4130
  0.4142   0.4149   0.4155   0.4158   0.4174   0.4184   0.4209   0.4219
  0.4225   0.4238   0.4252   0.4262   0.4270   0.4282   0.4286   0.4295
  0.4318   0.4328   0.4339   0.4345   0.4348   0.4360   0.4368   0.4373
  0.4394   0.4403   0.4413   0.4423   0.4448   0.4454   0.4461   0.4480
  0.4491   0.4508   0.4509   0.4531   0.4539   0.4540   0.4554   0.4575
  0.4584   0.4590   0.4599   0.4614   0.4620   0.4632   0.4653   0.4657
  0.4672   0.4682   0.4711   0.4734   0.4737   0.4743   0.4766   0.4768
  0.4774   0.4795   0.4800   0.4816   0.4840   0.4844   0.4854   0.4867
  0.4883   0.4892   0.4906   0.4923   0.4933   0.4965   0.4967   0.4972
  0.4980   0.5003   0.5008   0.5037   0.5045   0.5050   0.5061   0.5084
  0.5094   0.5100   0.5117   0.5128   0.5140   0.5144   0.5146   0.5184
  0.5198   0.5214   0.5239   0.5248   0.5259   0.5294   0.5301   0.5308
  0.5321   0.5356   0.5364   0.5379   0.5406   0.5420   0.5450   0.5459
  0.5469   0.5479   0.5499   0.5512   0.5530   0.5543   0.5553   0.5572
  0.5599   0.5606   0.5614   0.5630   0.5635   0.5642   0.5670   0.5680
  0.5699   0.5717   0.5729   0.5743   0.5757   0.5772   0.5803   0.5817
  0.5821   0.5836   0.5853   0.5876   0.5888   0.5894   0.5914   0.5925
  0.5934   0.5952   0.5953   0.5970   0.5982   0.5994   0.6009   0.6016
  0.6039   0.6043   0.6061   0.6092   0.6103   0.6115   0.6124   0.6133
  0.6137   0.6140   0.6169   0.6177   0.6205   0.6210   0.6239   0.6245
  0.6250   0.6259   0.6275   0.6279   0.6297   0.6311   0.6320   0.6351
  0.6356   0.6357   0.6380   0.6392   0.6406   0.6410   0.6418   0.6436
  0.6444   0.6448   0.6468   0.6478   0.6490   0.6508   0.6518   0.6528
  0.6542   0.6562   0.6563   0.6579   0.6585   0.6591   0.6614   0.6633
  0.6647   0.6648   0.6664   0.6672   0.6688   0.6700   0.6705   0.6721
  0.6729   0.6741   0.6747   0.6762   0.6771   0.6780   0.6795   0.6818
  0.6822   0.6826   0.6835   0.6857   0.6864   0.6873   0.6875   0.6903
  0.6905   0.6924   0.6927   0.6930   0.6935   0.6946   0.6972   0.6982
  0.7004   0.7010   0.7017   0.7037   0.7040   0.7045   0.7061   0.7075
  0.7093   0.7108   0.7116   0.7123   0.7135   0.7154   0.7175   0.7185
  0.7208   0.7220   0.7227   0.7236   0.7248   0.7263   0.7279   0.7284
  0.7308   0.7310   0.7316   0.7328   0.7331   0.7348   0.7364   0.7384
  0.7390   0.7403   0.7404   0.7424   0.7428   0.7435   0.7457   0.7471
  0.7504   0.7504   0.7535   0.7541   0.7577   0.7590   0.7593   0.7625
  0.7631   0.7645   0.7662   0.7692   0.7712   0.7720   0.7745   0.7754
  0.7761   0.7784   0.7790   0.7812   0.7837   0.7843   0.7858   0.7870
  0.7880   0.7912   0.7917   0.7929   0.7954   0.7970   0.8017   0.8022
  0.8037   0.8052   0.8082   0.8092   0.8110   0.8119   0.8143   0.8152
  0.8173   0.8198   0.8205   0.8220   0.8227   0.8243   0.8260   0.8264
  0.8286   0.8309   0.8319   0.8331   0.8351   0.8364   0.8374   0.8384
  0.8413   0.8415   0.8426   0.8442   0.8453   0.8480   0.8483   0.8492
  0.8502   0.8512   0.8535   0.8548   0.8550   0.8575   0.8597   0.8601
  0.8617   0.8629   0.8647   0.8649   0.8655   0.8674   0.8685   0.8687
  0.8708   0.8738   0.8743   0.8743   0.8760   0.8761   0.8787   0.8805
  0.8814   0.8820   0.8836   0.8869   0.8881   0.8885   0.8897   0.8910
  0.8926   0.8935   0.8943   0.8955   0.8970   0.8983   0.9001   0.9004
  0.9017   0.9028   0.9046   0.9053   0.9080   0.9087   0.9106   0.9111
  0.9124   0.9139   0.9148   0.9152   0.9172   0.9182   0.9196   0.9205
  0.9221   0.9225   0.9238   0.9255   0.9271   0.9282   0.9289   0.9297
  0.9300   0.9309   0.9320   0.9344   0.9350   0.9378   0.9381   0.9404
  0.9406   0.9421   0.9433   0.9439   0.9453   0.9476   0.9484   0.9487
  0.9489   0.9505   0.9518   0.9540   0.9547   0.9551   0.9578   0.9584
  0.9596   0.9606   0.9619   0.9639   0.9641   0.9652   0.9657   0.9679
  0.9682   0.9701   0.9707   0.9716   0.9736   0.9740   0.9757   0.9770
  0.9777   0.9786   0.9802   0.9819   0.9826   0.9830   0.9840   0.9857
  0.9868   0.9879   0.9890   0.9892   0.9911   0.9914   0.9935   0.9939
  0.9946   0.9951   0.9963   0.9971   0.9983   1.0008   1.0012   1.0034
  1.0042   1.0051   1.0063   1.0070   1.0090   1.0094   1.0101   1.0110
  1.0123   1.0142   1.0148   1.0166   1.0176   1.0187   1.0190   1.0216
  1.0225   1.0231   1.0245   1.0258   1.0272   1.0275   1.0296   1.0307
  1.0316   1.0326   1.0336   1.0356   1.0370   1.0375   1.0383   1.0408
  1.0413   1.0424   1.0435   1.0455   1.0465   1.0470   1.0477   1.0492
  1.0511   1.0529   1.0535   1.0551   1.0569   1.0586   1.0589   1.0602
  1.0632   1.0644   1.0657   1.0667   1.0689   1.0698   1.0705   1.0718
  1.0728   1.0743   1.0763   1.0787   1.0795   1.0801   1.0818   1.0827
  1.0854   1.0858   1.0867   1.0886   1.0900   1.0919   1.0928   1.0930
  1.0946   1.0966   1.0968   1.0999   1.1008   1.1031   1.1036   1.1062
  1.1068   1.1097   1.1108   1.1120   1.1140   1.1143   1.1164   1.1165
  1.1172   1.1187   1.1203   1.1228   1.1231   1.1255   1.1260   1.1265
  1.1275   1.1294   1.1310   1.1323   1.1326   1.1350   1.1364   1.1380
  1.1387   1.1397   1.1408   1.1429   1.1442   1.1458   1.1481   1.1494
  1.1501   1.1510   1.1531   1.1535   1.1561   1.1564   1.1585   1.1591
  1.1595   1.1612   1.1633   1.1648   1.1654   1.1664   1.1687   1.1697
  1.1705   1.1716   1.1725   1.1744   1.1769   1.1779   1.1783   1.1806
  1.1817   1.1828   1.1833   1.1866   1.1877   1.1893   1.1910   1.1930
  1.1953   1.1963   1.1983   1.1997   1.2003   1.2019   1.2042   1.2060
  1.2081   1.2091   1.2114   1.2154   1.2166   1.2179   1.2191   1.2222
  1.2255   1.2269   1.2270   1.2300   1.2316   1.2331   1.2350   1.2358
  1.2400   1.2422   1.2448   1.2464   1.2469   1.2493   1.2511   1.2539
  1.2565   1.2580   1.2622   1.2642   1.2657   1.2682   1.2705   1.2710
  1.2724   1.2736   1.2756   1.2797   1.2827   1.2852   1.2867   1.2873
  1.2901   1.2910   1.2924   1.2958   1.2982   1.2990   1.3012   1.3020
  1.3056   1.3102   1.3114   1.3120   1.3137   1.3158   1.3172   1.3192
  1.3204   1.3241   1.3259   1.3267   1.3290   1.3299   1.3324   1.3370
  1.3383   1.3404   1.3410   1.3449   1.3470   1.3488   1.3511   1.3534
  1.3548   1.3559   1.3582   1.3599   1.3619   1.3639   1.3657   1.3678
  1.3697   1.3698   1.3729   1.3736   1.3741   1.3758   1.3776   1.3792
  1.3794   1.3823   1.3830   1.3850   1.3866   1.3886   1.3905   1.3912
  1.3926   1.3937   1.3959   1.3977   1.3999   1.4008   1.4023   1.4032
  1.4047   1.4055   1.4081   1.4097   1.4117   1.4130   1.4141   1.4153
  1.4165   1.4177   1.4197   1.4212   1.4239   1.4252   1.4284   1.4294
  1.4309   1.4323   1.4326   1.4336   1.4348   1.4352   1.4385   1.4400
  1.4415   1.4426   1.4448   1.4464   1.4480   1.4488   1.4509   1.4522
  1.4538   1.4549   1.4569   1.4585   1.4615   1.4623   1.4632   1.4648
  1.4665   1.4678   1.4684   1.4704   1.4731   1.4739   1.4757   1.4766
  1.4793   1.4808   1.4822   1.4830   1.4848   1.4869   1.4888   1.4904
  1.4928   1.4956   1.4966   1.5001   1.5013   1.5028   1.5045   1.5084
  1.5111   1.5124   1.5147   1.5178   1.5211   1.5226   1.5237   1.5286
  1.5300   1.5321   1.5360   1.5372   1.5391   1.5407   1.5442   1.5476
  1.5519   1.5522   1.5540   1.5577   1.5580   1.5609   1.5631   1.5665
  1.5668   1.5721   1.5738   1.5787   1.5839   1.5862   1.5907   1.5920
  1.5964   1.5979   1.5997   1.6017   1.6069   1.6102   1.6128   1.6172
  1.6208   1.6245   1.6274   1.6387   1.6446   1.6456   1.6466   1.6502
  1.6563   1.6571   1.6605   1.6628   1.6637   1.6657   1.6673   1.6682
  1.6695   1.6702   1.6707   1.6718   1.6732   1.6749   1.6770   1.6784
  1.6792   1.6797   1.6818   1.6827   1.6837   1.6854   1.6856   1.6888
  1.6891   1.6903   1.6912   1.6918   1.6932   1.6945   1.6950   1.6969
  1.6986   1.6994   1.7006   1.7033   1.7044   1.7055   1.7064   1.7090
  1.7094   1.7109   1.7135   1.7141   1.7151   1.7170   1.7180   1.7186
  1.7195   1.7201   1.7229   1.7246   1.7269   1.7278   1.7292   1.7310
  1.7331   1.7337   1.7371   1.7376   1.7390   1.7415   1.7424   1.7439
  1.7454   1.7459   1.7499   1.7503   1.7515   1.7529   1.7545   1.7555
  1.7570   1.7577   1.7581   1.7613   1.7630   1.7634   1.7643   1.7659
  1.7697   1.7715   1.7730   1.7752   1.7758   1.7762   1.7779   1.7795
  1.7803   1.7842   1.7851   1.7865   1.7893   1.7896   1.7920   1.7947
  1.7957   1.7972   1.7994   1.8005   1.8035   1.8049   1.8061   1.8074
  1.8100   1.8117   1.8157   1.8187   1.8209   1.8253   1.8296   1.8332
  1.8371   1.8378   1.8430   1.8444   1.8488   1.8510   1.8523   1.8537
  1.8540   1.8572   1.8608   1.8621   1.8626   1.8666   1.8696   1.8706
  1.8727   1.8754   1.8759   1.8786   1.8813   1.8829   1.8837   1.8853
  1.8866   1.8880   1.8896   1.8907   1.8927   1.8946   1.8960   1.8981
  1.8997   1.9009   1.9015   1.9017   1.9043   1.9053   1.9058   1.9090
  1.9097   1.9110   1.9119   1.9129   1.9144   1.9150   1.9157   1.9186
  1.9204   1.9210   1.9230   1.9252   1.9261   1.9274   1.9278   1.9297
  1.9307   1.9322   1.9337   1.9362   1.9372   1.9385   1.9407   1.9439
  1.9466   1.9475   1.9489   1.9504   1.9534   1.9548   1.9571   1.9607
  1.9656   1.9689   1.9730   1.9768   1.9791   1.9817   1.9883   1.9909
  1.9932   1.9972   2.0018   2.0086   2.0120   2.0195   2.0291   2.0350
  2.0373   2.0409   2.0441   2.0466   2.0496   2.0510   2.0538   2.0590
  2.0615   2.0649   2.0677   2.0683   2.0686   2.0694   2.0709   2.0730
  2.0738   2.0746   2.0754   2.0769   2.0788   2.0799   2.0813   2.0835
  2.0847   2.0865   2.0874   2.0881   2.0889   2.0904   2.0914   2.0921
  2.0939   2.0947   2.0965   2.0979   2.0995   2.1015   2.1024   2.1035
  2.1066   2.1069   2.1086   2.1099   2.1110   2.1134   2.1154   2.1167
  2.1246   2.1257   2.1314   2.1339   2.1362   2.1387   2.1415   2.1428
  2.1482   2.1515   2.1527   2.1565   2.1581   2.1600   2.1627   2.1658
  2.1708   2.1731   2.1797   2.1810   2.1837   2.1868   2.1886   2.1924
  2.1966   2.1981   2.2004   2.2025   2.2037   2.2056   2.2080   2.2107
  2.2113   2.2134   2.2148   2.2172   2.2215   2.2246   2.2254   2.2267
  2.2275   2.2303   2.2318   2.2333   2.2354   2.2359   2.2365   2.2379
  2.2389   2.2407   2.2418   2.2425   2.2440   2.2464   2.2469   2.2494
  2.2498   2.2517   2.2520   2.2533   2.2542   2.2553   2.2560   2.2564
  2.2565   2.2593   2.2600   2.2614   2.2619   2.2622   2.2634   2.2644
  2.2654   2.2672   2.2680   2.2689   2.2700   2.2701   2.2728   2.2730
  2.2739   2.2753   2.2764   2.2776   2.2783   2.2794   2.2803   2.2804
  2.2813   2.2826   2.2830   2.2837   2.2848   2.2858   2.2870   2.2876
  2.2893   2.2906   2.2911   2.2920   2.2932   2.2939   2.2946   2.2961
  2.2967   2.2980   2.2988   2.3005   2.3018   2.3030   2.3047   2.3061
  2.3066   2.3073   2.3097   2.3105   2.3108   2.3121   2.3126   2.3137
  2.3148   2.3172   2.3189   2.3201   2.3204   2.3225   2.3240   2.3245
  2.3280   2.3289   2.3298   2.3308   2.3329   2.3343   2.3345   2.3375
  2.3393   2.3397   2.3417   2.3431   2.3434   2.3452   2.3465   2.3478
  2.3506   2.3511   2.3531   2.3547   2.3577   2.3586   2.3613   2.3621
  2.3629   2.3655   2.3665   2.3676   2.3681   2.3700   2.3718   2.3734
  2.3755   2.3805   2.3815   2.3864   2.3869   2.3898   2.3907   2.3982
  2.4011   2.4035   2.4072   2.4126   2.4144   2.4201   2.4260   2.4396
  2.4460   2.4749   2.4916   2.5035   2.5422   2.5735   2.5891   2.6748
  2.7488   2.7548   2.7964   2.8108   2.8154   2.8219   2.8268   2.8320
  2.8364   2.8426   2.8427   2.8443   2.8457   2.8488   2.8501   2.8518
  2.8550   2.8552   2.8554   2.8601   2.8608   2.8645   2.8664   2.8691
  2.8748   2.8759   2.8789   2.8843   2.8948   2.9034   2.9122   2.9147
  2.9260   2.9606   3.1134   3.2709   3.9489   3.9558   3.9629   3.9664
  3.9695   3.9707   3.9715   3.9724   3.9745   3.9757   3.9781   3.9785
  3.9848   3.9859   3.9903   3.9919   3.9981   4.0009   4.0043   4.0050
  4.0085   4.0168   4.0237   4.0370   4.0391   4.0667   4.2210   4.2288
  4.2305   4.2366   4.2423   4.2475   4.2490   4.2499   4.2521   4.2560
  4.2622   4.2647   4.2673   4.2700   4.2704   4.2726   4.2773   4.2796
  4.2834   4.2869   4.2903   4.2914   4.2953   4.2963   4.2996   4.3006
  4.3017   4.3048   4.3084   4.3098   4.3144   4.3177   4.3185   4.3219
  4.3227   4.3285   4.3302   4.3307   4.3324   4.3368   4.3393   4.3417
  4.3438   4.3468   4.3486   4.3495   4.3533   4.3567   4.3573   4.3586
  4.3654   4.3691   4.3737   4.3762   4.3790   4.3824   4.3861   4.3920
  4.3989   4.4033   4.4078   4.4106   4.4166   4.4198   4.4303   4.4355
  4.4407   4.4461   4.4515   4.4612   4.4843   4.4922   4.5041   4.5079
  4.5224   4.5293   4.5442   4.5548   4.5993   4.6025   4.6372   4.6838
  4.7267   4.7453   4.7701   4.8068   4.9331
 --------------------------------------------------------------

          Ground-State Mulliken Net Atomic Charges

     Atom                 Charge (a.u.)
  ----------------------------------------
      1 C                    -0.053631
      2 C                    -0.492306
      3 C                    -0.506375
      4 C                    -0.304733
      5 C                    -0.478168
      6 C                    -0.488141
      7 H                     0.246264
      8 H                     0.270845
      9 H                     0.196460
     10 H                     0.216819
     11 H                     0.221955
     12 H                     0.192194
     13 H                     0.184035
     14 H                     0.174279
     15 H                     0.221791
     16 H                     0.189823
     17 H                     0.203688
     18 N                    -0.453573
     19 H                     0.479382
     20 C                     0.334938
     21 H                     0.173353
     22 O                    -0.528902
     23 C                    -0.925294
     24 H                     0.237196
     25 H                     0.236203
     26 H                     0.313776
     27 S                     1.067487
     28 C                    -0.839596
     29 H                     0.289015
     30 H                     0.268507
     31 H                     0.257388
     32 O                    -0.831207
     33 C                    -0.754889
     34 H                     0.247760
     35 H                     0.259148
     36 H                     0.230426
     37 S                     0.891987
     38 C                    -0.855522
     39 H                     0.325920
     40 H                     0.250995
     41 H                     0.227589
     42 O                    -0.667163
     43 C                    -0.773676
     44 H                     0.207803
     45 H                     0.336919
     46 H                     0.233621
     47 S                     0.662792
     48 C                    -0.792188
     49 H                     0.262246
     50 H                     0.232710
     51 H                     0.237620
     52 O                    -0.608961
     53 C                    -0.984845
     54 H                     0.260759
     55 H                     0.270833
     56 H                     0.260350
     57 S                     0.934542
     58 C                    -0.745263
     59 H                     0.250810
     60 H                     0.246678
     61 H                     0.264828
     62 O                    -0.766608
     63 C                    -0.924078
     64 H                     0.228787
     65 H                     0.257323
     66 H                     0.316474
     67 S                     0.980413
     68 C                    -0.976791
     69 H                     0.241360
     70 H                     0.267097
     71 H                     0.220862
     72 O                    -0.682465
     73 C                    -0.945809
     74 H                     0.263925
     75 H                     0.242371
     76 H                     0.223180
     77 S                     0.870576
     78 C                    -0.895753
     79 H                     0.267249
     80 H                     0.214760
     81 H                     0.294483
     82 O                    -0.667380
     83 C                    -0.861591
     84 H                     0.281171
     85 H                     0.271242
     86 H                     0.255319
     87 S                     0.667417
     88 C                    -0.744185
     89 H                     0.256154
     90 H                     0.265358
     91 H                     0.259473
     92 O                    -0.663924
     93 C                    -1.207542
     94 H                     0.321459
     95 H                     0.276774
     96 H                     0.247914
     97 S                     1.153263
     98 C                    -1.032542
     99 H                     0.263169
    100 H                     0.284321
    101 H                     0.243437
    102 O                    -0.692077
    103 C                    -1.056173
    104 H                     0.260325
    105 H                     0.264790
    106 H                     0.283217
    107 S                     1.321570
    108 C                    -0.864791
    109 H                     0.234832
    110 H                     0.274067
    111 H                     0.235324
    112 O                    -0.723258
    113 C                    -1.076957
    114 H                     0.279787
    115 H                     0.259763
    116 H                     0.297001
    117 S                     0.750269
    118 C                    -0.797197
    119 H                     0.284161
    120 H                     0.257712
    121 H                     0.267485
    122 O                    -0.687855
    123 C                    -0.879394
    124 H                     0.252528
    125 H                     0.234929
    126 H                     0.262531
    127 S                     0.959560
    128 C                    -0.877949
    129 H                     0.255960
    130 H                     0.266160
    131 H                     0.258709
    132 O                    -0.741489
    133 C                    -0.838838
    134 H                     0.295744
    135 H                     0.268314
    136 H                     0.261252
    137 S                     0.891127
    138 C                    -0.931445
    139 H                     0.255549
    140 H                     0.282515
    141 H                     0.236070
    142 O                    -0.638916
    143 C                    -0.766212
    144 H                     0.251838
    145 H                     0.263736
    146 H                     0.246599
    147 S                     0.611660
    148 C                    -0.887400
    149 H                     0.299442
    150 H                     0.279430
    151 H                     0.238169
    152 O                    -0.618521
    153 C                    -0.832966
    154 H                     0.277642
    155 H                     0.294542
    156 H                     0.246862
    157 S                     0.758530
    158 C                    -0.775341
    159 H                     0.281059
    160 H                     0.237499
    161 H                     0.244871
    162 O                    -0.720406
    163 C                    -0.798414
    164 H                     0.245481
    165 H                     0.260311
    166 H                     0.223775
    167 S                     0.616637
    168 C                    -0.683359
    169 H                     0.243837
    170 H                     0.236362
    171 H                     0.311826
    172 O                    -0.640747
    173 C                    -0.768746
    174 H                     0.227092
    175 H                     0.299687
    176 H                     0.260534
    177 S                     0.778758
    178 C                    -0.976638
    179 H                     0.243016
    180 H                     0.261443
    181 H                     0.318189
    182 O                    -0.660628
    183 C                    -0.789818
    184 H                     0.250026
    185 H                     0.250928
    186 H                     0.254518
    187 S                     0.833001
    188 C                    -0.765424
    189 H                     0.248302
    190 H                     0.247128
    191 H                     0.272796
    192 O                    -0.740712
    193 C                    -0.939750
    194 H                     0.278098
    195 H                     0.240938
    196 H                     0.238170
    197 S                     1.125922
    198 C                    -1.042785
    199 H                     0.278272
    200 H                     0.228195
    201 H                     0.264207
    202 O                    -0.705907
    203 C                    -0.945841
    204 H                     0.267803
    205 H                     0.215984
    206 H                     0.290691
    207 S                     0.503250
    208 C                    -0.416602
    209 H                     0.270805
    210 H                     0.254679
    211 H                     0.274407
    212 O                    -0.601630
    213 C                    -0.593267
    214 H                     0.282793
    215 H                     0.240012
    216 H                     0.255443
    217 S                     0.613645
    218 C                    -0.894822
    219 H                     0.248180
    220 H                     0.262244
    221 H                     0.240387
    222 O                    -0.646881
    223 C                    -0.889289
    224 H                     0.261984
    225 H                     0.240375
    226 H                     0.256804
    227 S                     0.750629
    228 C                    -0.673114
    229 H                     0.220002
    230 H                     0.277111
    231 H                     0.259490
    232 O                    -0.713723
    233 C                    -0.776511
    234 H                     0.310480
    235 H                     0.249369
    236 H                     0.208091
    237 S                     0.773363
    238 C                    -0.790940
    239 H                     0.278935
    240 H                     0.241547
    241 H                     0.224150
    242 O                    -0.660114
    243 C                    -1.132005
    244 H                     0.206225
    245 H                     0.243417
    246 H                     0.309885
    247 S                     1.093809
    248 C                    -0.846000
    249 H                     0.255872
    250 H                     0.257995
    251 H                     0.231193
    252 O                    -0.647585
    253 C                    -0.965131
    254 H                     0.242878
    255 H                     0.259094
    256 H                     0.245929
    257 S                     0.842208
    258 C                    -0.842737
    259 H                     0.313490
    260 H                     0.289176
    261 H                     0.248211
    262 O                    -0.672654
    263 C                    -0.517428
    264 H                     0.229769
    265 H                     0.274731
    266 H                     0.247007
    267 S                     0.259623
    268 C                    -0.742628
    269 H                     0.275259
    270 H                     0.296594
    271 H                     0.286981
    272 O                    -0.692848
    273 C                    -0.878416
    274 H                     0.243037
    275 H                     0.251827
    276 H                     0.239313
    277 S                     0.950444
    278 C                    -0.848334
    279 H                     0.323536
    280 H                     0.226168
    281 H                     0.238441
    282 O                    -0.720695
  ----------------------------------------
  Sum of atomic charges =     0.000000

 -----------------------------------------------------------------
                    Cartesian Multipole Moments
 -----------------------------------------------------------------
    Charge (ESU x 10^10)
                 0.0000
    Dipole Moment (Debye)
         X      -2.7040      Y      14.7997      Z     -10.1910
       Tot      18.1714
    Quadrupole Moments (Debye-Ang)
        XX   -1082.4824     XY     392.9486     YY      26.3342
        XZ    -219.0057     YZ     267.6811     ZZ   -1505.2110
    Octopole Moments (Debye-Ang^2)
       XXX  -82530.9449    XXY  -14346.3267    XYY    1899.6103
       YYY  -30524.6743    XXZ  -27523.0826    XYZ   10202.9114
       YYZ    3770.2005    XZZ  -37243.8484    YZZ  -23042.9494
       ZZZ  -90751.3160
    Hexadecapole Moments (Debye-Ang^3)
      XXXX ************   XXXY ************   XXYY -600633.8297
      XYYY -767180.2501   YYYY ************   XXXZ ************
      XXYZ -254286.5460   XYYZ  211696.0597   YYYZ -477510.7758
      XXZZ ************   XYZZ -501944.2782   YYZZ -606978.5855
      XZZZ ************   YZZZ ************   ZZZZ ************
 -----------------------------------------------------------------
 Total job time:  32199.68s(wall), 278276.79s(cpu) 
 Thu Jul 21 17:44:08 2022

        *************************************************************
        *                                                           *
        *  Thank you very much for using Q-Chem.  Have a nice day.  *
        *                                                           *
        *************************************************************


 
User input: 2 of 2 
 
                  Welcome to Q-Chem
     A Quantum Leap Into The Future Of Chemistry


 Q-Chem 6.0 (devel), Q-Chem, Inc., Pleasanton, CA (2022)

 E. Epifanovsky,  A. T. B. Gilbert,  Xintian Feng,  Joonho Lee,  Yuezhi Mao,  
 N. Mardirossian,  P. Pokhilko,  A. White,  M. Wormit,  M. P. Coons,  
 A. L. Dempwolff,  Zhengting Gan,  D. Hait,  P. R. Horn,  L. D. Jacobson,  
 I. Kaliman,  J. Kussmann,  A. W. Lange,  Ka Un Lao,  D. S. Levine,  Jie Liu,  
 S. C. McKenzie,  A. F. Morrison,  K. Nanda,  F. Plasser,  D. R. Rehn,  
 M. L. Vidal,  Zhi-Qiang You,  Ying Zhu,  B. Alam,  B. Albrecht,  
 A. Aldossary,  E. Alguire,  J. H. Andersen,  V. Athavale,  D. Barton,  
 K. Begam,  A. Behn,  N. Bellonzi,  Y. A. Bernard,  E. J. Berquist,  
 H. Burton,  A. Carreras,  K. Carter-Fenk,  Romit Chakraborty,  
 Chandrima Chakravarty,  Junhan Chen,  A. D. Chien,  K. D. Closser,  
 V. Cofer-Shabica,  L. Cunha,  S. Dasgupta,  Jia Deng,  M. de Wergifosse,  
 M. Diedenhofen,  Hainam Do,  S. Ehlert,  Po-Tung Fang,  S. Fatehi,  
 Qingguo Feng,  T. Friedhoff,  B. Ganoe,  J. Gayvert,  Qinghui Ge,  
 G. Gidofalvi,  M. Goldey,  J. Gomes,  C. Gonzalez-Espinoza,  S. Gulania,  
 A. Gunina,  J. A. Gyamfi,  M. W. D. Hanson-Heine,  P. H. P. Harbach,  
 A. W. Hauser,  M. F. Herbst,  M. Hernandez Vera,  M. Hodecker,  
 Z. C. Holden,  S. Houck,  Xunkun Huang,  Kerwin Hui,  B. C. Huynh,  
 K. Ikeda,  M. Ivanov,  Hyunjun Ji,  Zuxin Jin,  Hanjie Jiang,  B. Kaduk,  
 S. Kaehler,  R. Kang,  K. Khistyaev,  Jaehoon Kim,  Yongbin Kim,  
 P. Klunzinger,  Z. Koczor-Benda,  Joong Hoon Koh,  D. Kosenkov,  
 Saikiran Kotaru,  L. Koulias,  T. Kowalczyk,  C. M. Krauter,  K. Kue,  
 A. Kunitsa,  T. Kus,  A. Landau,  K. V. Lawler,  D. Lefrancois,  S. Lehtola,  
 Rain Li,  Shaozhi Li,  Yi-Pei Li,  Jiashu Liang,  M. Liebenthal,  
 Hung-Hsuan Lin,  You-Sheng Lin,  Fenglai Liu,  Kuan-Yu Liu,  
 M. Loipersberger,  A. Luenser,  C. Malbon,  A. Manjanath,  P. Manohar,  
 E. Mansoor,  S. F. Manzer,  Shan-Ping Mao,  A. V. Marenich,  T. Markovich,  
 S. Mason,  F. Matz,  S. A. Maurer,  P. F. McLaughlin,  M. F. S. J. Menger,  
 J.-M. Mewes,  S. A. Mewes,  P. Morgante,  Mohammad Mostafanejad,  
 J. W. Mullinax,  K. J. Oosterbaan,  G. Paran,  V. Parravicini,  
 Alexander C. Paul,  Suranjan K. Paul,  F. Pavosevic,  Zheng Pei,  S. Prager,  
 E. I. Proynov,  E. Ramos,  B. Rana,  A. E. Rask,  A. Rettig,  R. M. Richard,  
 F. Rob,  E. Rossomme,  T. Scheele,  M. Scheurer,  M. Schneider,  
 P. E. Schneider,  N. Sergueev,  S. M. Sharada,  Hengyuan Shen,  
 W. Skomorowski,  D. W. Small,  C. J. Stein,  Yingli Su,  Yu-Chuan Su,  
 E. J. Sundstrom,  Zhen Tao,  J. Thirman,  Hung-Yi Tsai,  T. Tsuchimochi,  
 N. M. Tubman,  C. Utku,  S. P. Veccham,  O. Vydrov,  J. Wenzel,  
 Jonathan Wong,  J. Witte,  A. Yamada,  Chou-Hsun Yang,  Kun Yao,  
 S. Yeganeh,  S. R. Yost,  A. Zech,  F. Zeller,  Igor Ying Zhang,  
[...]
    3  -0.2841368  -2.1163267   0.2004225  -1.5600006   0.5667643   1.5411345
          187         188         189         190         191         192
    1   3.0768505   1.1213539   0.0711759   2.3777532   0.9662912   1.6772219
    2  -1.5994620  -1.3785257   0.3903145  -1.1023683  -2.9061197  -0.0966340
    3   0.4178896  -0.3563062   0.2624864  -1.7571396   0.6093174   3.1620308
          193         194         195         196         197         198
    1  -1.4363277  -1.5603447  -0.7353443  -2.0565909   0.5812787  -0.2153805
    2   1.1395121   3.0236072   1.3049391  -0.5408250   0.0864464   0.6817810
    3  -2.9575908  -1.8367015  -4.3242431  -2.7387011  -2.8363077  -0.7972492
          199         200         201         202         203         204
    1   1.3393286  -1.3310478  -0.7659725   1.6160389  -1.6474665  -3.7425515
    2   1.0570843   2.3284315  -1.0011322   3.2603773   2.6172563   2.1843164
    3  -0.2574143  -0.8666753  -1.2979745  -2.0025701   1.8690899   1.7588301
          205         206         207         208         209         210
    1  -0.8139058  -0.7902987  -1.1389462   0.4101859  -0.4040183   1.0545832
    2   2.6830123   2.7102992   0.6562113   0.7890186   1.6361206   2.0786176
    3   3.4346259   0.3818019   2.2935960   0.3731049  -1.1945627   1.8414961
          211         212         213         214         215         216
    1   0.1631772  -3.3557666  -1.4779309   0.1083577  -3.1985234  -1.2387298
    2  -1.0380422   0.1324893   1.0532343   1.8692989   1.9895083  -0.8213744
    3   0.3099043   0.0441932  -0.1834602   0.0433951  -0.7655163  -0.3358772
          217         218         219         220         221         222
    1  -1.3458629  -2.8379437  -3.6209505  -2.0290064  -2.8909497   0.5729617
    2   1.5863404   0.0660529   1.7129030  -0.0152108  -1.4446945  -1.1091982
    3  -2.1307225  -2.5802858  -1.9098990  -4.1560576  -1.4610220  -2.5402418
          223         224         225         226         227         228
    1  -1.6820122  -2.7931133  -0.4326160  -2.0036714   0.1285359   0.5771112
    2   3.2782465   2.4293195   4.4922370   2.8756550   2.5604434   2.6875325
    3   0.7874426   2.1750381   0.8921197  -1.0376559   1.8491764  -0.1752700
          229         230         231         232         233         234
    1   1.1591882   1.2874807  -1.0629496  -1.2665919   0.2220291   0.3470717
    2   4.2371597   0.7348227   2.5587852  -0.0018851  -2.5921978  -0.8014214
    3   0.6931047   0.2951936  -1.4352928   0.8911398   1.1209883   1.2774273
          235         236         237         238         239         240
    1   0.4587930  -0.2639766  -1.9997520  -2.2984700  -4.1756467  -0.7959290
    2  -3.4076114  -3.5242400  -2.8145737  -1.4497084  -1.0401339  -0.5328303
    3   2.7535310  -0.6150434   0.9171361  -0.4969554   0.0144917  -0.0796697
          241         242         243         244         245         246
    1  -2.3878164  -1.7931537  -0.9898494  -2.0193672  -0.6104028  -0.7387424
    2  -3.0171700  -0.3099809   0.0450362  -0.8711912   1.9977845  -0.6722357
    3  -1.6178747   3.2839114  -0.8542123  -2.5761164  -0.5428361   0.6797113
          247         248         249         250         251         252
    1  -3.1519124  -2.7943144  -4.1002130  -1.3273841  -2.1904462  -2.7777774
    2  -0.2920899   1.8357232   1.9244955   2.8476717   0.7411057   1.1613299
    3  -0.8984998  -1.5072761  -1.0505119  -0.6173860  -3.0935451   2.2301550
          253         254         255         256         257         258
    1  -2.6557646  -1.8831350  -2.1573118  -3.8546509  -1.3990798  -0.4744427
    2  -1.8849383  -0.3684821  -3.6237472  -1.6774428  -2.2661604   0.0354757
    3  -1.5606816  -2.4418221  -2.0595044  -0.3864375   0.1825066   0.0899952
          259         260         261         262         263         264
    1   1.1759420  -0.4222792  -1.8620300   1.0844328   1.7281914   2.4354246
    2  -0.2406274   0.5494977  -0.2215211  -2.2125518   0.3424320  -1.1960318
    3   0.4784085  -1.5129420   1.0446082  -2.0511877  -0.3051543   0.3826544
          265         266         267         268         269         270
    1   0.2581653   1.9774619   0.2771975   1.7530801   2.8154947   2.3985516
    2   0.3199666   1.6212068   1.2587013   0.1345532  -1.0797647   1.5539266
    3  -1.9886523   0.5729756   1.0681412   2.9217980   1.7656152   3.0994537
          271         272         273         274         275         276
    1   0.4208334  -0.5831961  -2.3948542  -1.8024751  -2.7557339  -2.6550712
    2  -0.2730892  -1.5490712  -1.3840525  -0.6297807  -0.1887636  -3.1265695
    3   3.7366193   0.0629768  -1.5423579  -0.1494387  -2.9037280  -1.0071805
          277         278         279         280         281         282
    1  -0.4448038   0.3896659   0.3320888  -1.0195596   2.2147806   0.8934919
    2  -2.2803382  -2.6603950  -1.2757064  -3.9968307  -2.9565665   0.5599782
    3  -2.6367213  -0.6241232  -0.0069927  -0.5834397  -1.6539854  -2.2187399
 EField
            1           2           3           4           5           6
    1  -0.0063949  -0.0056158  -0.0019208  -0.0018607  -0.0017797  -0.0027518
    2  -0.0016218  -0.0009130   0.0021420   0.0038665   0.0031267  -0.0010373
    3   0.0034854   0.0024816   0.0014782   0.0018279   0.0047570   0.0043342
            7           8           9          10          11          12
    1  -0.0019577  -0.0029319  -0.0070621  -0.0070353   0.0023278  -0.0027619
    2   0.0021710  -0.0120481   0.0003270  -0.0028316   0.0058398   0.0059272
    3   0.0026143   0.0077636   0.0039245   0.0025615   0.0038066  -0.0043630
           13          14          15          16          17          18
    1   0.0011202  -0.0036891  -0.0039400  -0.0018231  -0.0021131  -0.0132074
    2   0.0041263   0.0049872  -0.0018665  -0.0007727   0.0023119   0.0068605
    3   0.0004720   0.0101061   0.0058729   0.0031062   0.0013206  -0.0044864
           19          20          21          22          23          24
    1  -0.0217938  -0.0163678  -0.0197861  -0.0146921   0.0061431  -0.0034485
    2   0.0245426   0.0030605  -0.0040555  -0.0017430   0.0020202   0.0295865
    3  -0.0087453  -0.0029137   0.0009235  -0.0049880   0.0046398  -0.0139429
           25          26          27          28          29          30
    1  -0.0259339   0.0286180  -0.0405982   0.0040456   0.0001464   0.0269243
    2   0.0138318  -0.0115448  -0.0044658  -0.0092007  -0.0319663  -0.0104820
    3   0.0154286   0.0191211  -0.0296199   0.0054986  -0.0024346   0.0105663
           31          32          33          34          35          36
    1  -0.0204815   0.1159541   0.0043062  -0.0148424   0.0006736   0.0333555
    2   0.0022856  -0.0247060   0.0028647   0.0200829   0.0138265   0.0150040
    3   0.0223784  -0.0214325   0.0023551  -0.0102886   0.0334332  -0.0059188
           37          38          39          40          41          42
    1   0.0229865   0.0020661   0.0023410  -0.0054311   0.0353432  -0.1023737
    2  -0.0407329  -0.0042748  -0.0328413   0.0282647  -0.0029002   0.0182732
    3   0.0297706  -0.0098946  -0.0173722  -0.0146519  -0.0086776  -0.0177076
           43          44          45          46          47          48
    1   0.0019702  -0.0142919   0.0026232   0.0336685   0.0406248  -0.0032160
    2  -0.0043998   0.0112084  -0.0268522   0.0084419  -0.0060408   0.0075472
    3   0.0061038   0.0248313  -0.0059430   0.0015463  -0.0479845   0.0028741
           49          50          51          52          53          54
    1   0.0015608  -0.0221188   0.0312744  -0.1106391   0.0067225  -0.0182898
    2   0.0250690   0.0047009   0.0133645  -0.0139165  -0.0025116  -0.0250908
    3  -0.0227981   0.0214434   0.0061442  -0.0171104   0.0080013   0.0006479
           55          56          57          58          59          60
    1   0.0282286  -0.0003574   0.0256950  -0.0087992   0.0011727  -0.0245354
    2  -0.0166912   0.0180625   0.0408630   0.0033321   0.0278635   0.0049083
    3  -0.0109916   0.0297935  -0.0167049   0.0042091   0.0191884  -0.0213520
           61          62          63          64          65          66
    1  -0.0170065  -0.0336151  -0.0048295  -0.0296331   0.0141319   0.0045913
    2  -0.0309573  -0.0867211   0.0029134  -0.0109688  -0.0133482   0.0308491
    3  -0.0005598  -0.0591756   0.0090117  -0.0133290   0.0258655   0.0157817
           67          68          69          70          71          72
    1  -0.0132608  -0.0007650   0.0140562   0.0194783  -0.0318736   0.0971600
    2   0.0287428  -0.0071564  -0.0130784  -0.0060083  -0.0115348   0.0038560
    3  -0.0448093  -0.0006133  -0.0265985   0.0303449  -0.0116346   0.0529991
           73          74          75          76          77          78
    1   0.0009711  -0.0030199   0.0299416  -0.0135918   0.0230932  -0.0069051
    2   0.0059337  -0.0034865   0.0118383   0.0236509  -0.0030432  -0.0020116
    3   0.0062375   0.0346192   0.0118440  -0.0194149  -0.0480384   0.0046675
           79          80          81          82          83          84
    1  -0.0053499  -0.0117302  -0.0150656   0.0242407  -0.0069986  -0.0107787
    2  -0.0031945   0.0311212  -0.0217385  -0.0636742   0.0066264   0.0086608
    3   0.0346768  -0.0057573  -0.0020770   0.0895502  -0.0003574  -0.0287403
           85          86          87          88          89          90
    1  -0.0209210   0.0068444   0.0371724   0.0042159  -0.0192649   0.0249367
    2  -0.0093755   0.0254039  -0.0033665   0.0026256   0.0097542   0.0258219
    3   0.0216044   0.0220164   0.0415584  -0.0043753  -0.0218787  -0.0050310
           91          92          93          94          95          96
    1   0.0252937  -0.0615194  -0.0000567  -0.0337779   0.0186978   0.0131925
    2  -0.0104064  -0.0854007  -0.0119024  -0.0062276  -0.0045848  -0.0285115
    3  -0.0096422  -0.0315269   0.0003287   0.0057368  -0.0270886   0.0150044
           97          98          99         100         101         102
    1  -0.0141508   0.0061057   0.0259778   0.0061143   0.0122109  -0.0448476
    2   0.0397977   0.0001647   0.0173351   0.0077507  -0.0244988   0.0015003
    3  -0.0417180  -0.0004400  -0.0206707   0.0278669   0.0047963   0.0997406
          103         104         105         106         107         108
    1  -0.0039560  -0.0112868  -0.0291923   0.0205858  -0.0378193   0.0034886
    2  -0.0072214  -0.0111115  -0.0131791  -0.0230005   0.0328388   0.0001956
    3   0.0030789   0.0273532  -0.0151723   0.0068971  -0.0039516  -0.0066169
          109         110         111         112         113         114
    1   0.0146919   0.0237192  -0.0196068   0.0943564   0.0039633   0.0275684
    2   0.0146148  -0.0180853  -0.0076029   0.0026025   0.0058944  -0.0061670
    3  -0.0345150   0.0072898  -0.0273537   0.0556925  -0.0039368  -0.0141960
          115         116         117         118         119         120
    1  -0.0229943   0.0074062   0.0022708   0.0056876  -0.0042387   0.0282995
    2   0.0003280   0.0349355   0.0276464  -0.0084377  -0.0142608  -0.0023172
    3  -0.0224944   0.0029080   0.0479587  -0.0016720  -0.0287822   0.0225310
          121         122         123         124         125         126
    1  -0.0027052  -0.0862302   0.0047603  -0.0207085   0.0071593   0.0296417
    2  -0.0194111  -0.0441464   0.0010016   0.0228293  -0.0188336   0.0086866
    3   0.0244618  -0.0467797   0.0039872  -0.0029443   0.0308276   0.0017549
          127         128         129         130         131         132
    1  -0.0432248   0.0061459  -0.0043331   0.0231498   0.0021836   0.0025057
    2  -0.0321211  -0.0051156  -0.0035166   0.0177879  -0.0276473   0.0630251
    3   0.0129796   0.0029155  -0.0275912   0.0045065   0.0254542  -0.0903184
          133         134         135         136         137         138
    1  -0.0011573   0.0152332   0.0319299  -0.0221836   0.0460311  -0.0019782
    2   0.0098945   0.0310295   0.0020649   0.0294561  -0.0357527   0.0004339
    3   0.0047224   0.0250005  -0.0163380   0.0024088   0.0076817  -0.0045867
          139         140         141         142         143         144
    1  -0.0215599   0.0254766  -0.0166477  -0.0931448  -0.0011229  -0.0246368
    2   0.0240489   0.0033490  -0.0271105  -0.0041976  -0.0018067   0.0115039
    3  -0.0017273  -0.0216279  -0.0126558   0.0591729  -0.0037584   0.0084256
          145         146         147         148         149         150
    1  -0.0079091  -0.0072458   0.0217209   0.0024294   0.0137837   0.0227615
    2   0.0030819  -0.0293714   0.0507286  -0.0075188  -0.0143030   0.0002898
    3  -0.0393344  -0.0020462  -0.0175564  -0.0045265  -0.0327036   0.0208047
          151         152         153         154         155         156
    1  -0.0031195  -0.0420852  -0.0066893  -0.0074913  -0.0279776   0.0265351
    2  -0.0286449  -0.0110724   0.0063638  -0.0185686   0.0187022   0.0139571
    3   0.0163194   0.1006561  -0.0081669  -0.0274283   0.0035561  -0.0139295
          157         158         159         160         161         162
    1   0.0274326  -0.0112693   0.0058881  -0.0121812  -0.0098156   0.0482990
    2  -0.0519586  -0.0009684  -0.0176025   0.0280386  -0.0189836   0.0717174
    3  -0.0161484   0.0031284   0.0261192   0.0029874  -0.0255772   0.0655474
          163         164         165         166         167         168
    1  -0.0000854  -0.0044101   0.0335719  -0.0271629   0.0017560  -0.0098892
    2   0.0015021  -0.0030736   0.0012415   0.0341176   0.0272976  -0.0066355
    3   0.0042457   0.0343629   0.0008074   0.0139751  -0.0531198   0.0045921
          169         170         171         172         173         174
    1  -0.0046985  -0.0221684  -0.0068849   0.0595555   0.0028619  -0.0296680
    2  -0.0236262   0.0258415  -0.0260023  -0.0922664   0.0106177   0.0082298
    3   0.0275199  -0.0001491  -0.0176246   0.0144625  -0.0010878  -0.0027047
          175         176         177         178         179         180
    1   0.0155141   0.0125624  -0.0453813   0.0031137  -0.0308557  -0.0024953
    2   0.0302281  -0.0093645  -0.0431287   0.0075565   0.0113759  -0.0235327
    3   0.0120850  -0.0270542  -0.0200924   0.0069302   0.0060797   0.0211345
          181         182         183         184         185         186
    1   0.0204418   0.1039536  -0.0008840   0.0113877  -0.0206643   0.0201867
    2   0.0264394  -0.0350472   0.0063136   0.0041049   0.0182585   0.0066573
    3   0.0092641   0.0072814  -0.0069280  -0.0355694   0.0084253   0.0225773
          187         188         189         190         191         192
    1   0.0375280  -0.0073645  -0.0199575  -0.0100216  -0.0028688  -0.0434477
    2  -0.0378656   0.0010781   0.0242182  -0.0088662  -0.0320982   0.0336446
    3  -0.0024489  -0.0070981   0.0006993  -0.0377224   0.0020144   0.0954823
          193         194         195         196         197         198
    1  -0.0084780  -0.0040153   0.0065424  -0.0223555   0.0201083  -0.0031180
    2   0.0042512   0.0247240   0.0020485  -0.0240736  -0.0401758  -0.0032113
    3  -0.0034050   0.0261855  -0.0349766   0.0099133  -0.0205383   0.0106932
          199         200         201         202         203         204
    1   0.0266079  -0.0181147  -0.0191153   0.0470384  -0.0024096  -0.0316024
    2  -0.0013779   0.0256156  -0.0267524   0.0994819   0.0071788  -0.0007078
    3   0.0147681   0.0005104   0.0065330   0.0125148  -0.0028480   0.0007102
          205         206         207         208         209         210
    1   0.0102683   0.0182453   0.0046986   0.0014585   0.0003603   0.0232596
    2   0.0193603   0.0154325  -0.0228657  -0.0021041   0.0050859   0.0113999
    3   0.0255838  -0.0244922   0.0501162  -0.0072111  -0.0386289   0.0141553
          211         212         213         214         215         216
    1   0.0175553  -0.0814785   0.0015204   0.0242253  -0.0275186   0.0041976
    2  -0.0258330  -0.0278509  -0.0026234   0.0084010   0.0091306  -0.0231275
    3  -0.0167619  -0.0698228   0.0090242   0.0257581   0.0074714   0.0308313
          217         218         219         220         221         222
    1   0.0072635  -0.0063575  -0.0231313   0.0081395  -0.0074022   0.0756842
    2   0.0604713  -0.0023528   0.0247268  -0.0156139  -0.0312349  -0.0757795
    3  -0.0203639  -0.0017224   0.0117036  -0.0290208   0.0067807  -0.0199696
          223         224         225         226         227         228
    1  -0.0087981  -0.0210016   0.0098667  -0.0064679   0.0239819  -0.0018837
    2   0.0058654  -0.0062994   0.0324436  -0.0154385   0.0163802  -0.0037833
    3  -0.0030624   0.0234567   0.0081615  -0.0326359   0.0466359  -0.0113496
          229         230         231         232         233         234
    1   0.0083275   0.0085996  -0.0085289  -0.0497712   0.0092013   0.0134565
    2   0.0307192  -0.0192416  -0.0024510  -0.1002081   0.0024414   0.0292571
    3   0.0013940  -0.0193313  -0.0345303  -0.0182395  -0.0017899   0.0048013
          235         236         237         238         239         240
    1   0.0116538   0.0103161  -0.0243342  -0.0023965  -0.0262246   0.0157970
    2  -0.0127799  -0.0159199  -0.0458429   0.0055277   0.0294283   0.0253308
    3   0.0257315  -0.0278276   0.0030904  -0.0051990   0.0167449   0.0018586
          241         242         243         244         245         246
    1   0.0122869  -0.0016436   0.0077014   0.0201274   0.0235802   0.0143730
    2  -0.0283463   0.0739530  -0.0010618  -0.0131117   0.0223224  -0.0186610
    3  -0.0263297   0.0835301   0.0030474  -0.0261181  -0.0017902   0.0132363
          247         248         249         250         251         252
    1  -0.0281144   0.0028262  -0.0270120   0.0123867   0.0031139   0.0024303
    2  -0.0431304   0.0069529   0.0133899   0.0296530  -0.0110530   0.0324777
    3  -0.0148651  -0.0023192   0.0076132   0.0202794  -0.0345333   0.1063486
          253         254         255         256         257         258
    1  -0.0062575   0.0060221   0.0026262  -0.0293428  -0.0086070   0.0008307
    2   0.0035680   0.0247942  -0.0276509   0.0064222  -0.0308084   0.0148173
    3  -0.0048622  -0.0173582  -0.0141153   0.0150144   0.0452907   0.0028957
          259         260         261         262         263         264
    1   0.0235533  -0.0051233  -0.0153614   0.0860990   0.0080430   0.0190115
    2  -0.0050943   0.0212481   0.0212141  -0.0121387  -0.0047297  -0.0249945
    3   0.0233091  -0.0255469   0.0264291  -0.0666523  -0.0046038   0.0090131
          265         266         267         268         269         270
    1  -0.0090004   0.0325808  -0.0243953   0.0079512   0.0202803   0.0201699
    2  -0.0048466   0.0141197   0.0437616  -0.0052209  -0.0261279   0.0243711
    3  -0.0307048  -0.0028909   0.0079484   0.0092466  -0.0022692   0.0156130
          271         272         273         274         275         276
    1  -0.0203783  -0.0511007  -0.0060496   0.0112436  -0.0151970  -0.0192752
    2  -0.0073282  -0.0963829   0.0024245   0.0201905   0.0141303  -0.0300553
    3   0.0246754  -0.0298456   0.0051641   0.0242686  -0.0239385  -0.0009630
          277         278         279         280         281         282
    1   0.0036409   0.0040902  -0.0015054  -0.0170103   0.0345657   0.0508434
    2  -0.0317110  -0.0032966   0.0273228  -0.0288109  -0.0084039   0.0983243
    3  -0.0380115   0.0099571   0.0208343   0.0117312   0.0021675   0.0075802
  --- DONE ESP SUMMARY ---
 Total job time:  29.63s(wall), 75.19s(cpu) 
 Thu Jul 21 17:44:38 2022

        *************************************************************
        *                                                           *
        *  Thank you very much for using Q-Chem.  Have a nice day.  *
        *                                                           *
        *************************************************************


