                  Welcome to Q-Chem
     A Quantum Leap Into The Future Of Chemistry


 Q-Chem 5.2 (devel), Q-Chem, Inc., Pleasanton, CA (2019)

 Yihan Shao,  Zhengting Gan,  E. Epifanovsky,  A. T. B. Gilbert,  M. Wormit,  
 J. Kussmann,  A. W. Lange,  A. Behn,  Jia Deng,  Xintian Feng,  D. Ghosh,  
 M. Goldey,  P. R. Horn,  L. D. Jacobson,  I. Kaliman,  T. Kus,  A. Landau,  
 Jie Liu,  E. I. Proynov,  R. M. Richard,  R. P. Steele,  E. J. Sundstrom,  
 H. L. Woodcock III,  P. M. Zimmerman,  D. Zuev,  B. Alam,  B. Albrecht,  
 E. Alguire,  S. A. Baeppler,  D. Barton,  Z. Benda,  Y. A. Bernard,  
 E. J. Berquist,  K. B. Bravaya,  H. Burton,  K. Carter-Fenk,  D. Casanova,  
 Chun-Min Chang,  Yunqing Chen,  A. Chien,  K. D. Closser,  M. P. Coons,  
 S. Coriani,  S. Dasgupta,  A. L. Dempwolff,  M. Diedenhofen,  Hainam Do,  
 R. G. Edgar,  Po-Tung Fang,  S. Faraji,  S. Fatehi,  Qingguo Feng,  
 J. Fosso-Tande,  J. Gayvert,  Qinghui Ge,  A. Ghysels,  G. Gidofalvi,  
 J. Gomes,  J. Gonthier,  A. Gunina,  D. Hait,  M. W. D. Hanson-Heine,  
 P. H. P. Harbach,  A. W. Hauser,  M. F. Herbst,  J. E. Herr,  
 E. G. Hohenstein,  Z. C. Holden,  Kerwin Hui,  B. C. Huynh,  T.-C. Jagau,  
 Hyunjun Ji,  B. Kaduk,  K. Khistyaev,  Jaehoon Kim,  P. Klunzinger,  K. Koh,  
 D. Kosenkov,  L. Koulias,  T. Kowalczyk,  C. M. Krauter,  A. Kunitsa,  
 Ka Un Lao,  A. Laurent,  K. V. Lawler,  Joonho Lee,  D. Lefrancois,  
 S. Lehtola,  D. S. Levine,  Yi-Pei Li,  You-Sheng Lin,  Fenglai Liu,  
 Kuan-Yu Liu,  E. Livshits,  M. Loipersberger,  A. Luenser,  P. Manohar,  
 E. Mansoor,  S. F. Manzer,  Shan-Ping Mao,  Yuezhi Mao,  N. Mardirossian,  
 A. V. Marenich,  T. Markovich,  L. A. Martinez-Martinez,  S. A. Maurer,  
 N. J. Mayhall,  S. C. McKenzie,  J.-M. Mewes,  P. Morgante,  A. F. Morrison,  
 J. W. Mullinax,  K. Nanda,  T. S. Nguyen-Beck,  R. Olivares-Amaya,  
 J. A. Parkhill,  S. K. Paul,  F. Pavosevic,  Zheng Pei,  T. M. Perrine,  
 F. Plasser,  P. Pokhilko,  S. Prager,  A. Prociuk,  E. Ramos,  B. Rana,  
 D. R. Rehn,  F. Rob,  M. Scheurer,  M. Schneider,  N. Sergueev,  
 S. M. Sharada,  S. Sharma,  D. W. Small,  T. Stauch,  C. J. Stein,  
 T. Stein,  Yu-Chuan Su,  S. P. Veccham,  Zhen Tao,  A. J. W. Thom,  
 A. Tkatchenko,  T. Tsuchimochi,  N. M. Tubman,  L. Vogt,  M. L. Vidal,  
 O. Vydrov,  M. A. Watson,  J. Wenzel,  M. de Wergifosse,  T. A. Wesolowski,  
 A. White,  J. Witte,  A. Yamada,  Jun Yang,  K. Yao,  S. Yeganeh,  
 S. R. Yost,  Zhi-Qiang You,  A. Zech,  Igor Ying Zhang,  Xing Zhang,  
 Yan Zhao,  Ying Zhu,  B. R. Brooks,  G. K. L. Chan,  C. J. Cramer,  
 M. S. Gordon,  W. J. Hehre,  A. Klamt,  M. W. Schmidt,  C. D. Sherrill,  
 D. G. Truhlar,  A. Aspuru-Guzik,  R. Baer,  A. T. Bell,  N. A. Besley,  
 Jeng-Da Chai,  A. E. DePrince, III,  R. A. DiStasio Jr.,  A. Dreuw,  
 B. D. Dunietz,  T. R. Furlani,  Chao-Ping Hsu,  Yousung Jung,  Jing Kong,  
 D. S. Lambrecht,  WanZhen Liang,  C. Ochsenfeld,  V. A. Rassolov,  
 L. V. Slipchenko,  J. E. Subotnik,  T. Van Voorhis,  J. M. Herbert,  
 A. I. Krylov,  P. M. W. Gill,  M. Head-Gordon

 Contributors to earlier versions of Q-Chem not listed above: 
 R. D. Adamson,  B. Austin,  J. Baker,  G. J. O. Beran,  K. Brandhorst,  
 S. T. Brown,  E. F. C. Byrd,  A. K. Chakraborty,  C.-L. Cheng,  
 Siu Hung Chien,  D. M. Chipman,  D. L. Crittenden,  H. Dachsel,  
 R. J. Doerksen,  A. D. Dutoi,  L. Fusti-Molnar,  W. A. Goddard III,  
 A. Golubeva-Zadorozhnaya,  S. R. Gwaltney,  G. Hawkins,  A. Heyden,  
 S. Hirata,  G. Kedziora,  F. J. Keil,  C. Kelley,  Jihan Kim,  R. A. King,  
 R. Z. Khaliullin,  P. P. Korambath,  W. Kurlancheek,  A. M. Lee,  M. S. Lee,  
 S. V. Levchenko,  Ching Yeh Lin,  D. Liotard,  R. C. Lochan,  I. Lotan,  
 P. E. Maslen,  N. Nair,  D. P. O'Neill,  D. Neuhauser,  E. Neuscamman,  
 C. M. Oana,  R. Olson,  B. Peters,  R. Peverati,  P. A. Pieniazek,  
 Y. M. Rhee,  J. Ritchie,  M. A. Rohrdanz,  E. Rosta,  N. J. Russ,  
 H. F. Schaefer III,  N. E. Schultz,  N. Shenvi,  A. C. Simmonett,  A. Sodt,  
 D. Stuck,  K. S. Thanthiriwatte,  V. Vanovschi,  Tao Wang,  A. Warshel,  
 C. F. Williams,  Q. Wu,  X. Xu,  W. Zhang

 Please cite Q-Chem as follows:
 Y. Shao et al., Mol. Phys. 113, 184-215 (2015)
 DOI: 10.1080/00268976.2014.952696

 Q-Chem 5.2.2 for Intel X86 EM64T Linux

 Parts of Q-Chem use Armadillo 9.800.1 (Horizon Scraper).
 http://arma.sourceforge.net/

 Q-Chem begins on Thu Mar 11 13:37:32 2021  

Host: n0071.mhg0
0

     Scratch files written to /local/scratch/users/ymao/r7.00_frame_0064_almo_B3LYP_dp.in20210311133730//

Checking the input file for inconsistencies... 	...done.

--------------------------------------------------------------
User input:
--------------------------------------------------------------
$molecule
0 1
--
0 1
C    26.70300   22.57900   26.03900  
C    27.58200   23.78400   26.41300  
C    28.91700   23.71900   25.65400  
C    28.85800   23.49600   24.13400  
C    27.88100   22.37500   23.74300  
C    26.55500   22.49600   24.51100  
H    29.53300   24.60400   25.85400  
H    27.05100   24.70500   26.14400  
H    27.15600   21.69200   26.50000  
H    25.70500   22.69100   26.48000  
H    28.45200   24.42200   23.70900  
H    29.86100   23.36200   23.71100  
H    27.79600   22.27700   22.65300  
H    28.32000   21.41200   24.03200  
H    25.96100   23.33400   24.12500  
H    25.94400   21.60300   24.33200  
H    29.52300   22.87600   26.01000  
N    27.81700   23.73600   27.85500  
H    28.77800   23.68900   28.17100  
C    26.87700   23.80800   28.86100  
H    27.38400   23.72100   29.83900  
O    25.69500   24.04400   28.67900  
--
0 1
C    25.97500   31.40300   23.37900  
H    26.11800   32.48600   23.34300  
H    24.91800   31.13400   23.45100  
H    26.53700   30.91000   24.17700  
S    26.56600   30.87100   21.75700  
C    26.11900   29.14100   22.02900  
H    25.08000   28.87200   21.81800  
H    26.75000   28.52900   21.38000  
H    26.41700   28.80000   23.02400  
O    28.05600   30.75400   21.83100  
C    24.41600   26.60200   30.61600  
H    24.07700   26.49700   29.58200  
H    23.84200   27.27500   31.25800  
H    25.45300   26.94600   30.63200  
S    24.39100   24.99400   31.44100  
C    22.85900   24.39500   30.69300  
H    22.98800   24.14500   29.63700  
H    22.56300   23.54900   31.31800  
H    22.07600   25.15600   30.73300  
O    23.88000   25.31300   32.81200  
C    29.57300   26.36200   29.68100  
H    29.28700   25.81000   30.58000  
H    29.00300   25.97800   28.83100  
H    30.62700   26.14700   29.48700  
S    29.31200   28.13900   29.87900  
C    29.78000   28.38700   31.60700  
H    29.33400   27.61800   32.24400  
H    30.84400   28.45400   31.84500  
H    29.37400   29.36400   31.88200  
O    27.81900   28.22000   29.82200  
C    31.12900   25.20800   34.45200  
H    30.38500   26.00300   34.54500  
H    30.62200   24.26100   34.65100  
H    32.04100   25.42700   35.01500  
S    31.77300   25.14300   32.76500  
C    33.29500   24.19000   32.97100  
H    33.90000   24.20200   32.06000  
H    33.87200   24.74300   33.71600  
H    33.05500   23.17200   33.28600  
O    32.26800   26.54700   32.61000  
C    31.17400   20.57500   23.84500  
H    30.38800   20.37800   24.57900  
H    32.15700   20.36600   24.27300  
H    31.13800   21.60700   23.48700  
S    30.82700   19.42300   22.49600  
C    31.58800   17.95700   23.22900  
H    31.61000   17.25600   22.39100  
H    32.58500   18.24100   23.57400  
H    30.93100   17.56300   24.00900  
O    31.82200   19.77400   21.43400  
C    32.84600   19.69700   26.83100  
H    32.26700   20.59600   27.05500  
H    32.37500   19.12400   26.02800  
H    32.85300   19.19500   27.80200  
S    34.56000   20.03200   26.36700  
C    35.12500   18.45300   25.69300  
H    36.14000   18.71500   25.38300  
H    35.08500   17.69300   26.47700  
H    34.41300   18.22500   24.89600  
O    35.25600   20.30100   27.66600  
C    30.15200   21.25100   28.43600  
H    30.41900   20.20000   28.30000  
H    29.08100   21.38000   28.61400  
H    30.45500   21.69400   27.48400  
S    30.91200   21.99800   29.89500  
C    30.04700   21.19400   31.26200  
H    30.19000   20.11300   31.19100  
H    30.42200   21.40400   32.26700  
H    29.00400   21.51100   31.17900  
O    30.39400   23.40200   29.93500  
C    27.36000   21.76600   19.87900  
H    27.77700   21.09800   20.63600  
H    26.85100   22.59500   20.37900  
H    26.58900   21.33200   19.23700  
S    28.66800   22.29800   18.75200  
C    29.07900   20.71400   17.98400  
H    29.30500   19.98600   18.76800  
H    28.19600   20.45100   17.39700  
H    29.96200   20.90600   17.36900  
O    29.85300   22.63500   19.60200  
C    25.96500   22.76300   34.76500  
H    25.42900   23.36900   34.02900  
H    25.37000   21.86000   34.92400  
H    26.10300   23.17400   35.76800  
S    27.53500   22.27800   34.01400  
C    27.97000   23.75200   33.06200  
H    28.22500   24.55000   33.76400  
H    28.83200   23.48600   32.44600  
H    27.18400   24.13500   32.40600  
O    27.05400   21.34400   32.94800  
C    23.08500   20.14800   25.74800  
H    23.82000   19.34400   25.83500  
H    22.80700   20.22500   24.69400  
H    23.50000   21.04800   26.21000  
S    21.56600   19.74900   26.64200  
C    21.29300   18.12200   25.90300  
H    21.92200   17.35400   26.36100  
H    20.27600   17.92400   26.24900  
H    21.34900   18.23000   24.81700  
O    20.53900   20.67500   26.06800  
C    20.78900   27.96900   25.41200  
H    21.22500   27.32100   26.17600  
H    21.55200   28.69500   25.12000  
H    19.95800   28.43800   25.94500  
S    20.26700   27.10600   23.91200  
C    19.31000   25.84800   24.78800  
H    18.87500   25.17000   24.04800  
H    20.00200   25.36100   25.48000  
H    18.51400   26.31200   25.37600  
O    21.56100   26.46200   23.52500  
C    27.16000   28.93300   25.95200  
H    27.01600   29.26500   26.98300  
H    27.69000   29.70200   25.38400  
H    26.18100   28.71000   25.52000  
S    27.98400   27.33300   25.78500  
C    29.66300   27.82400   26.23900  
H    30.01800   28.66400   25.63600  
H    29.45300   28.33400   27.18300  
H    30.40700   27.03000   26.34300  
O    28.00200   27.13600   24.30100  
C    29.90400   25.90900   18.43100  
H    30.95900   26.09500   18.64600  
H    29.77800   24.84400   18.64400  
H    29.61000   26.12900   17.40100  
S    28.62500   26.62700   19.48600  
C    29.00500   25.85500   21.07500  
H    28.29100   26.12100   21.85900  
H    28.98900   24.76800   20.95800  
H    30.03900   26.14700   21.27700  
O    27.39100   25.88800   19.07000  
C    25.14100   28.78700   33.64800  
H    24.79200   29.58400   34.31000  
H    24.29300   28.20200   33.28400  
H    25.74900   28.12300   34.26700  
S    26.06500   29.42100   32.23100  
C    27.22400   30.43400   33.17800  
H    27.82800   29.72500   33.75000  
H    27.79200   30.91400   32.37600  
H    26.64900   31.15000   33.77000  
O    25.12500   30.44800   31.68200  
C    24.29000   29.16000   28.48900  
H    24.27100   29.42400   29.54900  
H    23.60200   28.32800   28.32000  
H    25.27600   28.78800   28.20000  
S    23.90000   30.68500   27.60100  
C    22.12400   30.58600   27.91700  
H    21.68800   31.58800   27.87900  
H    21.73400   29.81300   27.25000  
H    22.09600   30.17500   28.93000  
O    23.96800   30.24100   26.17300  
C    37.59500   21.05100   21.97800  
H    38.45600   21.09200   22.65000  
H    37.68600   20.09300   21.45800  
H    37.61600   21.95900   21.37100  
S    36.20900   20.94400   23.13200  
C    34.88900   21.06800   21.90400  
H    33.99500   21.41900   22.42500  
H    35.13300   21.74900   21.08400  
H    34.76000   20.17600   21.28600  
O    36.08800   22.27400   23.80900  
C    20.48400   20.39300   22.82900  
H    21.42100   20.85900   23.14500  
H    20.00500   19.93800   23.70000  
H    20.75500   19.68400   22.04400  
S    19.44000   21.74300   22.23400  
C    18.99600   22.32700   23.88500  
H    18.74800   21.48800   24.53900  
H    19.86000   22.86900   24.27900  
H    18.09300   22.92800   23.74900  
O    18.23100   21.08000   21.65100  
C    24.36800   26.37600   25.66100  
H    24.88500   27.05700   26.34200  
H    25.08000   25.90000   24.98200  
H    23.56100   26.88800   25.13000  
S    23.59500   24.98300   26.51300  
C    22.95500   23.98300   25.15000  
H    22.24600   24.63900   24.63800  
H    23.73000   23.59200   24.48700  
H    22.33200   23.20300   25.59500  
O    22.42400   25.60600   27.20700  
C    23.53000   14.38000   24.10500  
H    22.66900   14.39400   23.43300  
H    24.44800   14.24200   23.52800  
H    23.29500   13.52500   24.74500  
S    23.66500   15.90600   25.06400  
C    23.73000   16.90100   23.55700  
H    22.92600   16.73300   22.83700  
H    23.75700   17.96900   23.78800  
H    24.70800   16.74800   23.09300  
O    25.05100   15.82700   25.62300  
C    27.47000   16.11400   23.09100  
H    27.64600   16.60700   22.13200  
H    26.46700   15.68200   23.13800  
H    27.65400   16.73400   23.97300  
S    28.68300   14.77800   22.99600  
C    28.38000   14.14900   24.66200  
H    28.73900   14.88100   25.39100  
H    27.33100   13.96400   24.90600  
H    28.99100   13.25900   24.83600  
O    29.94900   15.57200   23.08700  
C    30.75200   29.03800   22.83600  
H    31.02700   27.99400   23.00700  
H    29.81600   29.18300   23.38200  
H    30.55600   29.16500   21.76800  
S    32.06300   30.14300   23.40500  
C    31.08500   31.59000   22.93900  
H    30.90800   31.53400   21.86200  
H    30.14300   31.52400   23.49000  
H    31.64200   32.49000   23.21000  
O    32.94800   30.05600   22.20100  
C    24.25500   21.85700   21.09300  
H    25.03100   22.05100   21.83800  
H    24.42100   22.39100   20.15400  
H    23.25100   22.05900   21.47500  
S    24.36800   20.10500   20.66600  
C    22.96800   20.04300   19.52400  
H    22.24200   20.60600   20.11700  
H    23.27300   20.59600   18.63200  
H    22.61900   19.04000   19.26700  
O    23.75600   19.42100   21.84800  
C    24.79300   20.08700   30.95600  
H    25.80000   19.74700   31.20900  
H    24.34200   20.57300   31.82500  
H    24.14000   19.21400   30.87800  
S    24.62400   21.18200   29.52800  
C    22.82000   21.10500   29.46300  
H    22.30500   21.44500   30.36600  
H    22.43500   21.78700   28.70100  
H    22.52000   20.06200   29.33100  
O    25.02000   20.24300   28.43100  
C    23.00800   25.27900   21.11600  
H    24.04500   24.95000   21.01200  
H    23.13700   26.36000   21.20900  
H    22.45400   24.90500   21.98100  
S    22.06000   24.88000   19.63000  
C    20.38000   25.17100   20.22600  
H    19.66200   25.18700   19.40200  
H    20.05200   24.45600   20.98500  
H    20.26500   26.18600   20.61700  
O    22.27500   23.42200   19.36900  
C    34.12700   25.44500   19.35200  
H    34.48100   24.65900   18.68000  
H    33.08200   25.65700   19.11100  
H    34.76100   26.33200   19.26800  
S    34.11500   24.67700   20.98800  
C    32.59100   23.76900   20.64300  
H    31.70600   24.36000   20.39700  
H    32.60000   22.91900   19.95600  
H    32.29700   23.24700   21.55700  
O    33.62200   25.83000   21.80500  
C    26.97300   18.52500   26.17300  
H    26.84800   18.65600   25.09600  
H    26.19300   17.86000   26.55300  
H    26.80200   19.40300   26.80100  
S    28.59400   17.81100   26.53000  
C    28.60000   17.78400   28.33700  
H    29.58600   18.02900   28.73800  
H    27.96100   18.45100   28.92200  
H    28.33300   16.75400   28.58500  
O    29.49400   18.97100   26.23700  
C    33.55600   24.68500   24.79400  
H    34.31800   23.93300   24.57100  
H    32.52300   24.46900   24.51100  
H    33.89300   25.63100   24.36200  
S    33.50400   24.88800   26.58800  
C    32.67400   23.32400   26.95000  
H    31.96300   23.56300   27.74500  
H    32.21900   22.91300   26.04500  
H    33.54300   22.70900   27.19900  
O    32.44800   25.93700   26.75100  
$end

$rem
JOBTYPE  SP
METHOD  B3LYP
BASIS  6-31+G(D)
SYMMETRY  FALSE
SYM_IGNORE  TRUE
MEM_TOTAL  16000
MEM_STATIC  8000
MAX_SUB_FILE_NUM  16000
BASIS_LIN_DEP_THRESH  6
THRESH  14
SCF_CONVERGENCE  8
GEN_SCFMAN  TRUE
SCF_GUESS  FRAGMO
FD_MAT_VEC_PROD  FALSE
XC_GRID  000075000302
NL_GRID  1
MAX_SCF_CYCLES  200
FRGM_METHOD  STOLL
SCFMI_MODE  1
$end

$development
almo_efield  1
$end

$rem_frgm
SCF_CONVERGENCE  4
$end

--------------------------------------------------------------
 ----------------------------------------------------------------
             Standard Nuclear Orientation (Angstroms)
    I     Atom           X                Y                Z
 ----------------------------------------------------------------
    1      C      26.7030000000    22.5790000000    26.0390000000
    2      C      27.5820000000    23.7840000000    26.4130000000
    3      C      28.9170000000    23.7190000000    25.6540000000
    4      C      28.8580000000    23.4960000000    24.1340000000
    5      C      27.8810000000    22.3750000000    23.7430000000
    6      C      26.5550000000    22.4960000000    24.5110000000
    7      H      29.5330000000    24.6040000000    25.8540000000
    8      H      27.0510000000    24.7050000000    26.1440000000
    9      H      27.1560000000    21.6920000000    26.5000000000
   10      H      25.7050000000    22.6910000000    26.4800000000
   11      H      28.4520000000    24.4220000000    23.7090000000
   12      H      29.8610000000    23.3620000000    23.7110000000
   13      H      27.7960000000    22.2770000000    22.6530000000
   14      H      28.3200000000    21.4120000000    24.0320000000
   15      H      25.9610000000    23.3340000000    24.1250000000
   16      H      25.9440000000    21.6030000000    24.3320000000
   17      H      29.5230000000    22.8760000000    26.0100000000
   18      N      27.8170000000    23.7360000000    27.8550000000
   19      H      28.7780000000    23.6890000000    28.1710000000
   20      C      26.8770000000    23.8080000000    28.8610000000
   21      H      27.3840000000    23.7210000000    29.8390000000
   22      O      25.6950000000    24.0440000000    28.6790000000
   23      C      25.9750000000    31.4030000000    23.3790000000
   24      H      26.1180000000    32.4860000000    23.3430000000
   25      H      24.9180000000    31.1340000000    23.4510000000
   26      H      26.5370000000    30.9100000000    24.1770000000
   27      S      26.5660000000    30.8710000000    21.7570000000
   28      C      26.1190000000    29.1410000000    22.0290000000
   29      H      25.0800000000    28.8720000000    21.8180000000
   30      H      26.7500000000    28.5290000000    21.3800000000
   31      H      26.4170000000    28.8000000000    23.0240000000
   32      O      28.0560000000    30.7540000000    21.8310000000
   33      C      24.4160000000    26.6020000000    30.6160000000
   34      H      24.0770000000    26.4970000000    29.5820000000
   35      H      23.8420000000    27.2750000000    31.2580000000
   36      H      25.4530000000    26.9460000000    30.6320000000
   37      S      24.3910000000    24.9940000000    31.4410000000
   38      C      22.8590000000    24.3950000000    30.6930000000
   39      H      22.9880000000    24.1450000000    29.6370000000
   40      H      22.5630000000    23.5490000000    31.3180000000
   41      H      22.0760000000    25.1560000000    30.7330000000
   42      O      23.8800000000    25.3130000000    32.8120000000
   43      C      29.5730000000    26.3620000000    29.6810000000
   44      H      29.2870000000    25.8100000000    30.5800000000
   45      H      29.0030000000    25.9780000000    28.8310000000
   46      H      30.6270000000    26.1470000000    29.4870000000
   47      S      29.3120000000    28.1390000000    29.8790000000
   48      C      29.7800000000    28.3870000000    31.6070000000
   49      H      29.3340000000    27.6180000000    32.2440000000
   50      H      30.8440000000    28.4540000000    31.8450000000
   51      H      29.3740000000    29.3640000000    31.8820000000
   52      O      27.8190000000    28.2200000000    29.8220000000
   53      C      31.1290000000    25.2080000000    34.4520000000
   54      H      30.3850000000    26.0030000000    34.5450000000
   55      H      30.6220000000    24.2610000000    34.6510000000
   56      H      32.0410000000    25.4270000000    35.0150000000
   57      S      31.7730000000    25.1430000000    32.7650000000
   58      C      33.2950000000    24.1900000000    32.9710000000
   59      H      33.9000000000    24.2020000000    32.0600000000
   60      H      33.8720000000    24.7430000000    33.7160000000
   61      H      33.0550000000    23.1720000000    33.2860000000
   62      O      32.2680000000    26.5470000000    32.6100000000
   63      C      31.1740000000    20.5750000000    23.8450000000
   64      H      30.3880000000    20.3780000000    24.5790000000
   65      H      32.1570000000    20.3660000000    24.2730000000
   66      H      31.1380000000    21.6070000000    23.4870000000
   67      S      30.8270000000    19.4230000000    22.4960000000
   68      C      31.5880000000    17.9570000000    23.2290000000
   69      H      31.6100000000    17.2560000000    22.3910000000
   70      H      32.5850000000    18.2410000000    23.5740000000
   71      H      30.9310000000    17.5630000000    24.0090000000
   72      O      31.8220000000    19.7740000000    21.4340000000
   73      C      32.8460000000    19.6970000000    26.8310000000
   74      H      32.2670000000    20.5960000000    27.0550000000
   75      H      32.3750000000    19.1240000000    26.0280000000
   76      H      32.8530000000    19.1950000000    27.8020000000
   77      S      34.5600000000    20.0320000000    26.3670000000
   78      C      35.1250000000    18.4530000000    25.6930000000
   79      H      36.1400000000    18.7150000000    25.3830000000
   80      H      35.0850000000    17.6930000000    26.4770000000
   81      H      34.4130000000    18.2250000000    24.8960000000
   82      O      35.2560000000    20.3010000000    27.6660000000
   83      C      30.1520000000    21.2510000000    28.4360000000
   84      H      30.4190000000    20.2000000000    28.3000000000
   85      H      29.0810000000    21.3800000000    28.6140000000
   86      H      30.4550000000    21.6940000000    27.4840000000
   87      S      30.9120000000    21.9980000000    29.8950000000
   88      C      30.0470000000    21.1940000000    31.2620000000
   89      H      30.1900000000    20.1130000000    31.1910000000
   90      H      30.4220000000    21.4040000000    32.2670000000
   91      H      29.0040000000    21.5110000000    31.1790000000
   92      O      30.3940000000    23.4020000000    29.9350000000
   93      C      27.3600000000    21.7660000000    19.8790000000
   94      H      27.7770000000    21.0980000000    20.6360000000
   95      H      26.8510000000    22.5950000000    20.3790000000
   96      H      26.5890000000    21.3320000000    19.2370000000
   97      S      28.6680000000    22.2980000000    18.7520000000
   98      C      29.0790000000    20.7140000000    17.9840000000
   99      H      29.3050000000    19.9860000000    18.7680000000
  100      H      28.1960000000    20.4510000000    17.3970000000
  101      H      29.9620000000    20.9060000000    17.3690000000
  102      O      29.8530000000    22.6350000000    19.6020000000
  103      C      25.9650000000    22.7630000000    34.7650000000
  104      H      25.4290000000    23.3690000000    34.0290000000
  105      H      25.3700000000    21.8600000000    34.9240000000
  106      H      26.1030000000    23.1740000000    35.7680000000
  107      S      27.5350000000    22.2780000000    34.0140000000
  108      C      27.9700000000    23.7520000000    33.0620000000
  109      H      28.2250000000    24.5500000000    33.7640000000
  110      H      28.8320000000    23.4860000000    32.4460000000
  111      H      27.1840000000    24.1350000000    32.4060000000
  112      O      27.0540000000    21.3440000000    32.9480000000
  113      C      23.0850000000    20.1480000000    25.7480000000
  114      H      23.8200000000    19.3440000000    25.8350000000
  115      H      22.8070000000    20.2250000000    24.6940000000
  116      H      23.5000000000    21.0480000000    26.2100000000
  117      S      21.5660000000    19.7490000000    26.6420000000
  118      C      21.2930000000    18.1220000000    25.9030000000
  119      H      21.9220000000    17.3540000000    26.3610000000
  120      H      20.2760000000    17.9240000000    26.2490000000
  121      H      21.3490000000    18.2300000000    24.8170000000
  122      O      20.5390000000    20.6750000000    26.0680000000
  123      C      20.7890000000    27.9690000000    25.4120000000
  124      H      21.2250000000    27.3210000000    26.1760000000
  125      H      21.5520000000    28.6950000000    25.1200000000
  126      H      19.9580000000    28.4380000000    25.9450000000
  127      S      20.2670000000    27.1060000000    23.9120000000
  128      C      19.3100000000    25.8480000000    24.7880000000
  129      H      18.8750000000    25.1700000000    24.0480000000
  130      H      20.0020000000    25.3610000000    25.4800000000
  131      H      18.5140000000    26.3120000000    25.3760000000
  132      O      21.5610000000    26.4620000000    23.5250000000
  133      C      27.1600000000    28.9330000000    25.9520000000
  134      H      27.0160000000    29.2650000000    26.9830000000
  135      H      27.6900000000    29.7020000000    25.3840000000
  136      H      26.1810000000    28.7100000000    25.5200000000
  137      S      27.9840000000    27.3330000000    25.7850000000
  138      C      29.6630000000    27.8240000000    26.2390000000
  139      H      30.0180000000    28.6640000000    25.6360000000
  140      H      29.4530000000    28.3340000000    27.1830000000
  141      H      30.4070000000    27.0300000000    26.3430000000
  142      O      28.0020000000    27.1360000000    24.3010000000
  143      C      29.9040000000    25.9090000000    18.4310000000
  144      H      30.9590000000    26.0950000000    18.6460000000
  145      H      29.7780000000    24.8440000000    18.6440000000
  146      H      29.6100000000    26.1290000000    17.4010000000
  147      S      28.6250000000    26.6270000000    19.4860000000
  148      C      29.0050000000    25.8550000000    21.0750000000
  149      H      28.2910000000    26.1210000000    21.8590000000
  150      H      28.9890000000    24.7680000000    20.9580000000
  151      H      30.0390000000    26.1470000000    21.2770000000
  152      O      27.3910000000    25.8880000000    19.0700000000
  153      C      25.1410000000    28.7870000000    33.6480000000
  154      H      24.7920000000    29.5840000000    34.3100000000
  155      H      24.2930000000    28.2020000000    33.2840000000
  156      H      25.7490000000    28.1230000000    34.2670000000
  157      S      26.0650000000    29.4210000000    32.2310000000
  158      C      27.2240000000    30.4340000000    33.1780000000
  159      H      27.8280000000    29.7250000000    33.7500000000
  160      H      27.7920000000    30.9140000000    32.3760000000
  161      H      26.6490000000    31.1500000000    33.7700000000
  162      O      25.1250000000    30.4480000000    31.6820000000
  163      C      24.2900000000    29.1600000000    28.4890000000
  164      H      24.2710000000    29.4240000000    29.5490000000
  165      H      23.6020000000    28.3280000000    28.3200000000
  166      H      25.2760000000    28.7880000000    28.2000000000
  167      S      23.9000000000    30.6850000000    27.6010000000
  168      C      22.1240000000    30.5860000000    27.9170000000
  169      H      21.6880000000    31.5880000000    27.8790000000
  170      H      21.7340000000    29.8130000000    27.2500000000
  171      H      22.0960000000    30.1750000000    28.9300000000
  172      O      23.9680000000    30.2410000000    26.1730000000
  173      C      37.5950000000    21.0510000000    21.9780000000
  174      H      38.4560000000    21.0920000000    22.6500000000
  175      H      37.6860000000    20.0930000000    21.4580000000
  176      H      37.6160000000    21.9590000000    21.3710000000
  177      S      36.2090000000    20.9440000000    23.1320000000
  178      C      34.8890000000    21.0680000000    21.9040000000
  179      H      33.9950000000    21.4190000000    22.4250000000
  180      H      35.1330000000    21.7490000000    21.0840000000
  181      H      34.7600000000    20.1760000000    21.2860000000
  182      O      36.0880000000    22.2740000000    23.8090000000
  183      C      20.4840000000    20.3930000000    22.8290000000
  184      H      21.4210000000    20.8590000000    23.1450000000
  185      H      20.0050000000    19.9380000000    23.7000000000
  186      H      20.7550000000    19.6840000000    22.0440000000
  187      S      19.4400000000    21.7430000000    22.2340000000
  188      C      18.9960000000    22.3270000000    23.8850000000
  189      H      18.7480000000    21.4880000000    24.5390000000
  190      H      19.8600000000    22.8690000000    24.2790000000
  191      H      18.0930000000    22.9280000000    23.7490000000
  192      O      18.2310000000    21.0800000000    21.6510000000
  193      C      24.3680000000    26.3760000000    25.6610000000
  194      H      24.8850000000    27.0570000000    26.3420000000
  195      H      25.0800000000    25.9000000000    24.9820000000
  196      H      23.5610000000    26.8880000000    25.1300000000
  197      S      23.5950000000    24.9830000000    26.5130000000
  198      C      22.9550000000    23.9830000000    25.1500000000
  199      H      22.2460000000    24.6390000000    24.6380000000
  200      H      23.7300000000    23.5920000000    24.4870000000
  201      H      22.3320000000    23.2030000000    25.5950000000
  202      O      22.4240000000    25.6060000000    27.2070000000
  203      C      23.5300000000    14.3800000000    24.1050000000
  204      H      22.6690000000    14.3940000000    23.4330000000
  205      H      24.4480000000    14.2420000000    23.5280000000
  206      H      23.2950000000    13.5250000000    24.7450000000
  207      S      23.6650000000    15.9060000000    25.0640000000
  208      C      23.7300000000    16.9010000000    23.5570000000
  209      H      22.9260000000    16.7330000000    22.8370000000
  210      H      23.7570000000    17.9690000000    23.7880000000
  211      H      24.7080000000    16.7480000000    23.0930000000
  212      O      25.0510000000    15.8270000000    25.6230000000
  213      C      27.4700000000    16.1140000000    23.0910000000
  214      H      27.6460000000    16.6070000000    22.1320000000
  215      H      26.4670000000    15.6820000000    23.1380000000
  216      H      27.6540000000    16.7340000000    23.9730000000
  217      S      28.6830000000    14.7780000000    22.9960000000
  218      C      28.3800000000    14.1490000000    24.6620000000
  219      H      28.7390000000    14.8810000000    25.3910000000
  220      H      27.3310000000    13.9640000000    24.9060000000
  221      H      28.9910000000    13.2590000000    24.8360000000
  222      O      29.9490000000    15.5720000000    23.0870000000
  223      C      30.7520000000    29.0380000000    22.8360000000
  224      H      31.0270000000    27.9940000000    23.0070000000
  225      H      29.8160000000    29.1830000000    23.3820000000
  226      H      30.5560000000    29.1650000000    21.7680000000
  227      S      32.0630000000    30.1430000000    23.4050000000
  228      C      31.0850000000    31.5900000000    22.9390000000
  229      H      30.9080000000    31.5340000000    21.8620000000
  230      H      30.1430000000    31.5240000000    23.4900000000
  231      H      31.6420000000    32.4900000000    23.2100000000
  232      O      32.9480000000    30.0560000000    22.2010000000
  233      C      24.2550000000    21.8570000000    21.0930000000
  234      H      25.0310000000    22.0510000000    21.8380000000
  235      H      24.4210000000    22.3910000000    20.1540000000
  236      H      23.2510000000    22.0590000000    21.4750000000
  237      S      24.3680000000    20.1050000000    20.6660000000
  238      C      22.9680000000    20.0430000000    19.5240000000
  239      H      22.2420000000    20.6060000000    20.1170000000
  240      H      23.2730000000    20.5960000000    18.6320000000
  241      H      22.6190000000    19.0400000000    19.2670000000
  242      O      23.7560000000    19.4210000000    21.8480000000
  243      C      24.7930000000    20.0870000000    30.9560000000
  244      H      25.8000000000    19.7470000000    31.2090000000
  245      H      24.3420000000    20.5730000000    31.8250000000
  246      H      24.1400000000    19.2140000000    30.8780000000
  247      S      24.6240000000    21.1820000000    29.5280000000
  248      C      22.8200000000    21.1050000000    29.4630000000
  249      H      22.3050000000    21.4450000000    30.3660000000
  250      H      22.4350000000    21.7870000000    28.7010000000
  251      H      22.5200000000    20.0620000000    29.3310000000
  252      O      25.0200000000    20.2430000000    28.4310000000
  253      C      23.0080000000    25.2790000000    21.1160000000
  254      H      24.0450000000    24.9500000000    21.0120000000
  255      H      23.1370000000    26.3600000000    21.2090000000
  256      H      22.4540000000    24.9050000000    21.9810000000
  257      S      22.0600000000    24.8800000000    19.6300000000
  258      C      20.3800000000    25.1710000000    20.2260000000
  259      H      19.6620000000    25.1870000000    19.4020000000
  260      H      20.0520000000    24.4560000000    20.9850000000
  261      H      20.2650000000    26.1860000000    20.6170000000
  262      O      22.2750000000    23.4220000000    19.3690000000
  263      C      34.1270000000    25.4450000000    19.3520000000
  264      H      34.4810000000    24.6590000000    18.6800000000
  265      H      33.0820000000    25.6570000000    19.1110000000
  266      H      34.7610000000    26.3320000000    19.2680000000
  267      S      34.1150000000    24.6770000000    20.9880000000
  268      C      32.5910000000    23.7690000000    20.6430000000
  269      H      31.7060000000    24.3600000000    20.3970000000
  270      H      32.6000000000    22.9190000000    19.9560000000
  271      H      32.2970000000    23.2470000000    21.5570000000
  272      O      33.6220000000    25.8300000000    21.8050000000
  273      C      26.9730000000    18.5250000000    26.1730000000
  274      H      26.8480000000    18.6560000000    25.0960000000
  275      H      26.1930000000    17.8600000000    26.5530000000
  276      H      26.8020000000    19.4030000000    26.8010000000
  277      S      28.5940000000    17.8110000000    26.5300000000
  278      C      28.6000000000    17.7840000000    28.3370000000
  279      H      29.5860000000    18.0290000000    28.7380000000
  280      H      27.9610000000    18.4510000000    28.9220000000
  281      H      28.3330000000    16.7540000000    28.5850000000
  282      O      29.4940000000    18.9710000000    26.2370000000
  283      C      33.5560000000    24.6850000000    24.7940000000
  284      H      34.3180000000    23.9330000000    24.5710000000
  285      H      32.5230000000    24.4690000000    24.5110000000
  286      H      33.8930000000    25.6310000000    24.3620000000
  287      S      33.5040000000    24.8880000000    26.5880000000
  288      C      32.6740000000    23.3240000000    26.9500000000
  289      H      31.9630000000    23.5630000000    27.7450000000
  290      H      32.2190000000    22.9130000000    26.0450000000
  291      H      33.5430000000    22.7090000000    27.1990000000
  292      O      32.4480000000    25.9370000000    26.7510000000
 ----------------------------------------------------------------
 Nuclear Repulsion Energy =       47788.55372563 hartrees
 There are      602 alpha and      602 beta electrons
 Requested basis set is 6-31+G(d)
 There are 962 shells and 2681 basis functions

 Total QAlloc Memory Limit  16000 MB
 Mega-Array Size      7821 MB
 MEM_STATIC part      8000 MB
 A cutoff of  1.0D-14 yielded 175550 shell pairs
 There are   1520915 function pairs
 Smallest overlap matrix eigenvalue = 4.89E-07
 Linear dependence detected in AO basis
 Tighter screening thresholds may be required for diffuse basis sets
 Use S2THRESH > 14 and THRESH = 14 in case of SCF convergence issues
 Number of orthogonalized atomic orbitals = 2679
 Maximum deviation from orthogonality = 1.071E-10

 Scale SEOQF with 1.000000e-03/1.000000e-03/1.000000e-03

 Standard Electronic Orientation quadrupole field applied
 Nucleus-field energy     =    -0.0000000457 hartrees
Attempting to make child job directory: /local/scratch/users/ymao/r7.00_frame_0064_almo_B3LYP_dp.in20210311133730//Frg1/
Attempting to make child job directory: /local/scratch/users/ymao/r7.00_frame_0064_almo_B3LYP_dp.in20210311133730//Frg2/
Creating input file /local/scratch/users/ymao/r7.00_frame_0064_almo_B3LYP_dp.in20210311133730/Frg1.input
using default PutDataFrgm: nothing
calling putenv with: QCSCRATCH=/local/scratch/users/ymao/r7.00_frame_0064_almo_B3LYP_dp.in20210311133730/ 
Spawning Job For Fragment 0
Done Job For Fragment 0
calling putenv with: QCSCRATCH=/local/scratch/users/ymao 
calling putenv with: QCTHREADS=8 
Creating input file /local/scratch/users/ymao/r7.00_frame_0064_almo_B3LYP_dp.in20210311133730/Frg2.input
using default PutDataFrgm: nothing
calling putenv with: QCSCRATCH=/local/scratch/users/ymao/r7.00_frame_0064_almo_B3LYP_dp.in20210311133730/ 
Spawning Job For Fragment 1
Done Job For Fragment 1
calling putenv with: QCSCRATCH=/local/scratch/users/ymao 
calling putenv with: QCTHREADS=8 
 Time for running child jobs:  CPU 0.39 s  wall 7415.71 s

 -----------------------------------------------------------------------
  General SCF calculation program by
  Eric Jon Sundstrom, Paul Horn, Yuezhi Mao, Dmitri Zuev, Alec White,
  David Stuck, Shaama M.S., Shane Yost, Joonho Lee, David Small,
  Daniel Levine, Susi Lehtola, Hugh Burton, Evgeny Epifanovsky,
  Bang C. Huynh
 -----------------------------------------------------------------------
Performing Restricted Closed Shell SCFMI
Doing General SCFMI
 Exchange:     0.2000 Hartree-Fock + 0.0800 Slater + 0.7200 B88
 Correlation:  0.1900 VWN1RPA + 0.8100 LYP
 Using Euler-Maclaurin-Lebedev (75,302) quadrature formula
performing fock build before subrot guess so that all methods have access
Printing subrot_rss_gen Method Specification:
Occupied Subspace Method is 0
Virtual Subspace Method is 0
Energy prior to optimization (guess energy) = -15340.749646223834
Begin Timing: Total SCF Calculation
begin iterations for algorithm: DIIS         
the SCF tolerance is set to 1.00e-08
    1  -15340.7496462238      3.25e-05     00000 
    2  -15340.7535697495      3.35e-05     00000 
    3  -15340.7563593424      1.63e-05     00000 
    4  -15340.7569495157      6.94e-06     00000 
    5  -15340.7570835491      2.67e-06     00000 
    6  -15340.7571048108      1.60e-06     00000 
    7  -15340.7571114521      1.18e-06     00000 
    8  -15340.7571146705      7.19e-07     00000 
    9  -15340.7571157325      3.96e-07     00000 
   10  -15340.7571160601      2.41e-07     00000 
   11  -15340.7571161814      1.71e-07     00000 
   12  -15340.7571162379      1.18e-07     00000 
   13  -15340.7571162691      6.41e-08     00000 
   14  -15340.7571162786      3.62e-08     00000 
   15  -15340.7571162819      2.37e-08     00000 
   16  -15340.7571162827      1.65e-08     00000 
   17  -15340.7571162835      7.77e-09     00000 Convergence criterion met
write pseudocanon occs and virts to disk
write pseudocanon orbital energies to disk
Timing for Total SCF: 16660.00s (wall), 131997.66s (cpu)
SCFMI Energy  -15340.7571162835
<S^2>            0.00000
 Total energy in the final basis set =   -15340.7571162835
    ==================================================
        The end of Object-Oriented SCFman: SCFMI      
    ==================================================
 
 --------------------------------------------------------------
 
                    Orbital Energies (a.u.)
 --------------------------------------------------------------
 
 Alpha MOs
 -- Occupied --
-89.0249 -89.0196 -89.0185 -89.0164 -89.0120 -89.0097 -89.0075 -89.0066
-89.0063 -89.0049 -88.9969 -88.9957 -88.9931 -88.9925 -88.9923 -88.9919
-88.9914 -88.9886 -88.9880 -88.9875 -88.9865 -88.9865 -88.9820 -88.9765
-88.9722 -88.9713 -88.9547 -19.1451 -19.1343 -19.1324 -19.1300 -19.1277
-19.1269 -19.1263 -19.1260 -19.1202 -19.1200 -19.1177 -19.1142 -19.1133
-19.1118 -19.1108 -19.1093 -19.1083 -19.1077 -19.1063 -19.1035 -19.1020
-19.1010 -19.0986 -19.0912 -19.0887 -19.0870 -19.0869 -19.0581 -14.3664
-10.2949 -10.2406 -10.2394 -10.2373 -10.2350 -10.2346 -10.2330 -10.2314
-10.2309 -10.2305 -10.2295 -10.2287 -10.2280 -10.2254 -10.2252 -10.2244
-10.2230 -10.2222 -10.2214 -10.2202 -10.2198 -10.2197 -10.2190 -10.2183
-10.2177 -10.2177 -10.2144 -10.2132 -10.2115 -10.2110 -10.2110 -10.2101
-10.2079 -10.2074 -10.2064 -10.2060 -10.2053 -10.2045 -10.2039 -10.2029
-10.2028 -10.2026 -10.2025 -10.2005 -10.1999 -10.1976 -10.1970 -10.1951
-10.1934 -10.1926 -10.1919 -10.1915 -10.1875 -10.1854 -10.1844 -10.1840
-10.1839 -10.1836 -10.1800 -10.1678 -10.1590  -8.0709  -8.0649  -8.0648
 -8.0625  -8.0583  -8.0558  -8.0530  -8.0529  -8.0528  -8.0516  -8.0427
 -8.0417  -8.0389  -8.0387  -8.0385  -8.0382  -8.0376  -8.0345  -8.0337
 -8.0335  -8.0330  -8.0323  -8.0273  -8.0228  -8.0186  -8.0175  -8.0011
 -6.0352  -6.0339  -6.0294  -6.0291  -6.0285  -6.0281  -6.0280  -6.0271
 -6.0258  -6.0225  -6.0222  -6.0221  -6.0215  -6.0201  -6.0195  -6.0188
 -6.0174  -6.0172  -6.0170  -6.0163  -6.0160  -6.0160  -6.0159  -6.0158
 -6.0144  -6.0132  -6.0102  -6.0101  -6.0100  -6.0090  -6.0069  -6.0062
 -6.0059  -6.0049  -6.0033  -6.0031  -6.0029  -6.0024  -6.0024  -6.0019
 -6.0019  -6.0015  -6.0014  -6.0006  -6.0003  -5.9991  -5.9988  -5.9980
 -5.9978  -5.9978  -5.9976  -5.9968  -5.9968  -5.9966  -5.9962  -5.9960
 -5.9959  -5.9958  -5.9955  -5.9955  -5.9951  -5.9915  -5.9915  -5.9912
 -5.9909  -5.9905  -5.9897  -5.9896  -5.9870  -5.9858  -5.9850  -5.9831
 -5.9818  -5.9815  -5.9807  -5.9803  -5.9759  -5.9746  -5.9652  -5.9640
 -5.9590  -1.0519  -1.0463  -1.0445  -1.0407  -1.0405  -1.0373  -1.0368
 -1.0363  -1.0330  -1.0319  -1.0304  -1.0216  -1.0207  -1.0191  -1.0182
 -1.0179  -1.0171  -1.0165  -1.0153  -1.0153  -1.0113  -1.0097  -1.0094
 -1.0005  -0.9994  -0.9987  -0.9963  -0.9735  -0.9308  -0.8300  -0.8256
 -0.8179  -0.8133  -0.8121  -0.8112  -0.8101  -0.8087  -0.8071  -0.8067
 -0.8028  -0.8027  -0.8020  -0.7963  -0.7945  -0.7938  -0.7933  -0.7932
 -0.7910  -0.7877  -0.7873  -0.7869  -0.7857  -0.7807  -0.7764  -0.7761
 -0.7699  -0.7539  -0.7514  -0.7496  -0.7491  -0.7481  -0.7466  -0.7444
 -0.7435  -0.7404  -0.7390  -0.7370  -0.7358  -0.7303  -0.7303  -0.7294
 -0.7271  -0.7260  -0.7231  -0.7208  -0.7207  -0.7193  -0.7171  -0.7166
 -0.7152  -0.7124  -0.7039  -0.7031  -0.7017  -0.7000  -0.6719  -0.6459
 -0.6398  -0.6350  -0.6299  -0.6293  -0.6251  -0.6244  -0.6243  -0.6232
 -0.6214  -0.6199  -0.6147  -0.6100  -0.6092  -0.6079  -0.6075  -0.6065
 -0.6056  -0.6029  -0.6010  -0.6004  -0.5983  -0.5982  -0.5979  -0.5957
 -0.5877  -0.5845  -0.5839  -0.5832  -0.5674  -0.5661  -0.5354  -0.5066
 -0.5060  -0.5029  -0.4989  -0.4973  -0.4960  -0.4929  -0.4905  -0.4896
 -0.4883  -0.4875  -0.4870  -0.4862  -0.4860  -0.4858  -0.4845  -0.4833
 -0.4827  -0.4811  -0.4807  -0.4803  -0.4795  -0.4794  -0.4786  -0.4778
 -0.4771  -0.4763  -0.4752  -0.4749  -0.4742  -0.4736  -0.4734  -0.4727
 -0.4726  -0.4722  -0.4712  -0.4710  -0.4707  -0.4698  -0.4696  -0.4687
 -0.4684  -0.4673  -0.4666  -0.4660  -0.4654  -0.4651  -0.4649  -0.4629
 -0.4629  -0.4619  -0.4610  -0.4606  -0.4602  -0.4594  -0.4587  -0.4585
 -0.4582  -0.4569  -0.4566  -0.4560  -0.4551  -0.4547  -0.4545  -0.4543
 -0.4532  -0.4522  -0.4521  -0.4518  -0.4514  -0.4502  -0.4488  -0.4477
 -0.4475  -0.4466  -0.4461  -0.4457  -0.4447  -0.4437  -0.4433  -0.4430
 -0.4417  -0.4411  -0.4405  -0.4396  -0.4380  -0.4354  -0.4349  -0.4333
 -0.4329  -0.4320  -0.4316  -0.4313  -0.4306  -0.4302  -0.4292  -0.4286
 -0.4282  -0.4264  -0.4262  -0.4259  -0.4256  -0.4245  -0.4242  -0.4215
 -0.4204  -0.4194  -0.4192  -0.4186  -0.4185  -0.4180  -0.4166  -0.4165
 -0.4159  -0.4155  -0.4147  -0.4146  -0.4144  -0.4135  -0.4128  -0.4120
 -0.4110  -0.4105  -0.4095  -0.4090  -0.4083  -0.4077  -0.4071  -0.4063
 -0.4062  -0.4061  -0.4053  -0.4051  -0.4048  -0.4042  -0.4040  -0.4035
 -0.4023  -0.4018  -0.4011  -0.4009  -0.3994  -0.3987  -0.3982  -0.3958
 -0.3955  -0.3944  -0.3938  -0.3935  -0.3924  -0.3923  -0.3911  -0.3892
 -0.3886  -0.3884  -0.3873  -0.3871  -0.3861  -0.3857  -0.3848  -0.3838
 -0.3828  -0.3825  -0.3821  -0.3801  -0.3791  -0.3780  -0.3773  -0.3762
 -0.3729  -0.3719  -0.3695  -0.3694  -0.3681  -0.3679  -0.3652  -0.3651
 -0.3628  -0.3617  -0.3612  -0.3601  -0.3592  -0.3586  -0.3574  -0.3561
 -0.3548  -0.3547  -0.3533  -0.3527  -0.3524  -0.3517  -0.3516  -0.3499
 -0.3472  -0.3422  -0.3410  -0.3403  -0.3394  -0.3286  -0.3277  -0.3172
 -0.3157  -0.3127  -0.3048  -0.3009  -0.2933  -0.2901  -0.2887  -0.2877
 -0.2868  -0.2824  -0.2820  -0.2810  -0.2784  -0.2765  -0.2738  -0.2738
 -0.2731  -0.2718  -0.2696  -0.2693  -0.2688  -0.2659  -0.2644  -0.2639
 -0.2629  -0.2599  -0.2598  -0.2583  -0.2557  -0.2556  -0.2530  -0.2515
 -0.2508  -0.2504  -0.2497  -0.2491  -0.2475  -0.2449  -0.2439  -0.2412
 -0.2372  -0.2365  -0.2349  -0.2336  -0.2320  -0.2287  -0.2286  -0.2283
 -0.2272  -0.2255  -0.2230  -0.2220  -0.2194  -0.2186  -0.2152  -0.2141
 -0.2091  -0.1941
 -- Virtual --
 -0.0335  -0.0297  -0.0280  -0.0241  -0.0221  -0.0187  -0.0167  -0.0154
 -0.0138  -0.0130  -0.0124  -0.0110  -0.0107  -0.0072  -0.0071  -0.0067
 -0.0058  -0.0042  -0.0033  -0.0030  -0.0023  -0.0014   0.0000   0.0003
  0.0006   0.0017   0.0020   0.0035   0.0038   0.0049   0.0056   0.0068
  0.0076   0.0094   0.0102   0.0109   0.0112   0.0118   0.0124   0.0126
  0.0133   0.0139   0.0149   0.0160   0.0165   0.0177   0.0185   0.0195
  0.0203   0.0208   0.0214   0.0216   0.0225   0.0227   0.0232   0.0238
  0.0244   0.0254   0.0257   0.0271   0.0273   0.0283   0.0286   0.0294
  0.0300   0.0305   0.0310   0.0314   0.0320   0.0326   0.0332   0.0337
  0.0342   0.0349   0.0351   0.0359   0.0365   0.0371   0.0381   0.0383
  0.0387   0.0392   0.0398   0.0402   0.0403   0.0418   0.0421   0.0422
  0.0428   0.0432   0.0435   0.0442   0.0446   0.0454   0.0460   0.0469
  0.0473   0.0477   0.0480   0.0489   0.0491   0.0497   0.0505   0.0515
  0.0521   0.0531   0.0537   0.0547   0.0555   0.0565   0.0570   0.0577
  0.0578   0.0587   0.0591   0.0603   0.0610   0.0614   0.0623   0.0626
  0.0629   0.0640   0.0641   0.0652   0.0659   0.0661   0.0666   0.0670
  0.0682   0.0687   0.0693   0.0696   0.0705   0.0712   0.0714   0.0722
  0.0725   0.0733   0.0736   0.0745   0.0749   0.0755   0.0766   0.0771
  0.0774   0.0786   0.0786   0.0796   0.0798   0.0801   0.0810   0.0818
  0.0821   0.0824   0.0832   0.0846   0.0851   0.0858   0.0860   0.0867
  0.0869   0.0878   0.0889   0.0894   0.0904   0.0908   0.0914   0.0918
  0.0930   0.0933   0.0936   0.0951   0.0952   0.0961   0.0966   0.0972
  0.0981   0.0990   0.0995   0.0997   0.1003   0.1015   0.1022   0.1027
  0.1030   0.1035   0.1041   0.1042   0.1056   0.1060   0.1066   0.1071
  0.1083   0.1084   0.1085   0.1095   0.1100   0.1100   0.1113   0.1118
  0.1124   0.1127   0.1132   0.1139   0.1149   0.1153   0.1163   0.1169
  0.1177   0.1179   0.1184   0.1192   0.1203   0.1210   0.1219   0.1221
  0.1226   0.1242   0.1244   0.1253   0.1258   0.1268   0.1269   0.1275
  0.1281   0.1286   0.1296   0.1303   0.1306   0.1311   0.1321   0.1336
  0.1339   0.1343   0.1348   0.1349   0.1359   0.1366   0.1367   0.1373
  0.1378   0.1384   0.1391   0.1397   0.1404   0.1412   0.1414   0.1420
  0.1421   0.1430   0.1436   0.1450   0.1452   0.1453   0.1458   0.1463
  0.1473   0.1477   0.1485   0.1495   0.1502   0.1505   0.1508   0.1516
  0.1523   0.1525   0.1529   0.1535   0.1541   0.1545   0.1552   0.1556
  0.1563   0.1571   0.1577   0.1583   0.1588   0.1599   0.1605   0.1608
  0.1608   0.1615   0.1624   0.1625   0.1637   0.1642   0.1651   0.1656
  0.1657   0.1666   0.1669   0.1673   0.1681   0.1684   0.1694   0.1694
  0.1698   0.1705   0.1719   0.1726   0.1737   0.1742   0.1749   0.1754
  0.1758   0.1761   0.1764   0.1772   0.1778   0.1785   0.1788   0.1794
  0.1797   0.1810   0.1815   0.1820   0.1825   0.1832   0.1839   0.1841
  0.1849   0.1853   0.1863   0.1876   0.1880   0.1886   0.1890   0.1892
  0.1898   0.1901   0.1910   0.1917   0.1926   0.1931   0.1937   0.1943
  0.1953   0.1959   0.1965   0.1973   0.1975   0.1977   0.1984   0.1987
  0.1994   0.1997   0.2004   0.2009   0.2015   0.2022   0.2026   0.2037
  0.2042   0.2047   0.2052   0.2057   0.2066   0.2077   0.2079   0.2090
  0.2096   0.2099   0.2111   0.2112   0.2121   0.2122   0.2127   0.2135
  0.2138   0.2142   0.2150   0.2154   0.2162   0.2173   0.2176   0.2182
  0.2184   0.2190   0.2195   0.2209   0.2210   0.2217   0.2219   0.2226
  0.2241   0.2250   0.2254   0.2255   0.2265   0.2273   0.2285   0.2288
  0.2297   0.2304   0.2310   0.2315   0.2317   0.2324   0.2333   0.2344
  0.2346   0.2353   0.2358   0.2370   0.2371   0.2382   0.2393   0.2396
  0.2399   0.2405   0.2411   0.2420   0.2430   0.2436   0.2445   0.2446
  0.2449   0.2457   0.2470   0.2471   0.2478   0.2486   0.2491   0.2495
  0.2503   0.2509   0.2510   0.2519   0.2527   0.2534   0.2539   0.2546
  0.2562   0.2573   0.2574   0.2580   0.2587   0.2591   0.2597   0.2607
  0.2611   0.2620   0.2623   0.2627   0.2640   0.2646   0.2651   0.2659
  0.2665   0.2676   0.2681   0.2686   0.2700   0.2707   0.2712   0.2719
  0.2722   0.2727   0.2732   0.2739   0.2753   0.2766   0.2768   0.2773
  0.2776   0.2786   0.2796   0.2798   0.2804   0.2808   0.2817   0.2824
  0.2838   0.2843   0.2847   0.2859   0.2864   0.2872   0.2881   0.2887
  0.2890   0.2902   0.2913   0.2922   0.2924   0.2939   0.2944   0.2949
  0.2963   0.2966   0.2972   0.2982   0.3000   0.3006   0.3015   0.3021
  0.3025   0.3042   0.3055   0.3058   0.3061   0.3067   0.3077   0.3082
  0.3097   0.3106   0.3121   0.3123   0.3128   0.3136   0.3147   0.3150
  0.3156   0.3167   0.3175   0.3188   0.3191   0.3196   0.3204   0.3207
  0.3215   0.3224   0.3237   0.3239   0.3250   0.3260   0.3275   0.3282
  0.3286   0.3295   0.3302   0.3310   0.3317   0.3326   0.3341   0.3347
  0.3351   0.3358   0.3371   0.3387   0.3390   0.3398   0.3399   0.3411
  0.3412   0.3428   0.3432   0.3446   0.3460   0.3469   0.3483   0.3494
  0.3499   0.3509   0.3519   0.3523   0.3529   0.3544   0.3556   0.3565
  0.3573   0.3578   0.3589   0.3595   0.3608   0.3622   0.3623   0.3634
  0.3643   0.3650   0.3660   0.3669   0.3680   0.3682   0.3693   0.3697
  0.3708   0.3711   0.3723   0.3735   0.3737   0.3741   0.3754   0.3763
  0.3777   0.3779   0.3797   0.3799   0.3812   0.3820   0.3829   0.3833
  0.3844   0.3855   0.3860   0.3863   0.3878   0.3884   0.3889   0.3901
  0.3915   0.3917   0.3927   0.3939   0.3947   0.3949   0.3958   0.3964
  0.3971   0.3980   0.3988   0.4005   0.4009   0.4016   0.4023   0.4031
  0.4044   0.4058   0.4069   0.4075   0.4078   0.4085   0.4088   0.4095
  0.4105   0.4110   0.4127   0.4132   0.4140   0.4147   0.4156   0.4173
  0.4177   0.4185   0.4197   0.4201   0.4215   0.4226   0.4244   0.4250
  0.4250   0.4261   0.4282   0.4288   0.4299   0.4311   0.4315   0.4332
  0.4334   0.4345   0.4349   0.4355   0.4372   0.4376   0.4391   0.4403
  0.4425   0.4441   0.4447   0.4456   0.4468   0.4472   0.4482   0.4500
  0.4503   0.4517   0.4526   0.4544   0.4554   0.4566   0.4580   0.4598
  0.4601   0.4621   0.4624   0.4646   0.4649   0.4660   0.4672   0.4684
  0.4691   0.4712   0.4721   0.4734   0.4741   0.4748   0.4773   0.4784
  0.4798   0.4817   0.4823   0.4834   0.4856   0.4858   0.4870   0.4881
  0.4899   0.4918   0.4944   0.4949   0.4962   0.4970   0.4980   0.4993
  0.5008   0.5028   0.5035   0.5065   0.5080   0.5110   0.5117   0.5122
  0.5126   0.5163   0.5183   0.5189   0.5213   0.5239   0.5245   0.5271
  0.5284   0.5292   0.5312   0.5330   0.5349   0.5360   0.5379   0.5402
  0.5415   0.5424   0.5439   0.5454   0.5464   0.5483   0.5488   0.5497
  0.5524   0.5531   0.5554   0.5574   0.5577   0.5602   0.5621   0.5625
  0.5634   0.5651   0.5663   0.5676   0.5689   0.5697   0.5730   0.5740
  0.5747   0.5767   0.5774   0.5780   0.5805   0.5829   0.5833   0.5838
  0.5868   0.5878   0.5896   0.5896   0.5907   0.5927   0.5938   0.5960
  0.5968   0.5972   0.5989   0.5997   0.6012   0.6025   0.6047   0.6051
  0.6058   0.6081   0.6085   0.6099   0.6105   0.6135   0.6141   0.6144
  0.6164   0.6171   0.6182   0.6203   0.6206   0.6234   0.6240   0.6253
  0.6274   0.6285   0.6296   0.6305   0.6314   0.6323   0.6333   0.6345
  0.6356   0.6384   0.6387   0.6399   0.6414   0.6419   0.6437   0.6441
  0.6451   0.6460   0.6478   0.6488   0.6501   0.6513   0.6521   0.6531
  0.6546   0.6553   0.6570   0.6576   0.6585   0.6596   0.6607   0.6619
  0.6623   0.6636   0.6661   0.6666   0.6676   0.6696   0.6704   0.6715
  0.6731   0.6736   0.6748   0.6754   0.6770   0.6783   0.6791   0.6802
  0.6809   0.6815   0.6842   0.6845   0.6853   0.6857   0.6868   0.6882
  0.6896   0.6913   0.6916   0.6929   0.6946   0.6954   0.6961   0.6967
  0.6989   0.6996   0.7012   0.7024   0.7034   0.7042   0.7050   0.7065
  0.7084   0.7091   0.7094   0.7104   0.7129   0.7142   0.7147   0.7152
  0.7168   0.7182   0.7200   0.7206   0.7226   0.7237   0.7247   0.7254
  0.7262   0.7282   0.7298   0.7302   0.7306   0.7329   0.7341   0.7354
  0.7361   0.7379   0.7386   0.7407   0.7422   0.7434   0.7439   0.7455
  0.7469   0.7481   0.7498   0.7500   0.7516   0.7538   0.7549   0.7567
  0.7569   0.7605   0.7628   0.7652   0.7659   0.7670   0.7687   0.7695
  0.7703   0.7722   0.7738   0.7750   0.7755   0.7772   0.7803   0.7826
  0.7829   0.7835   0.7861   0.7865   0.7894   0.7913   0.7925   0.7932
  0.7952   0.7967   0.7987   0.7998   0.8008   0.8020   0.8036   0.8041
  0.8064   0.8093   0.8101   0.8105   0.8114   0.8137   0.8159   0.8163
  0.8175   0.8192   0.8208   0.8231   0.8243   0.8247   0.8263   0.8284
  0.8304   0.8317   0.8320   0.8333   0.8356   0.8357   0.8365   0.8377
  0.8394   0.8408   0.8444   0.8447   0.8458   0.8471   0.8487   0.8498
  0.8507   0.8525   0.8538   0.8555   0.8563   0.8580   0.8582   0.8594
  0.8600   0.8633   0.8640   0.8656   0.8663   0.8681   0.8688   0.8692
  0.8707   0.8742   0.8756   0.8762   0.8774   0.8782   0.8784   0.8798
  0.8816   0.8834   0.8845   0.8848   0.8854   0.8866   0.8895   0.8906
  0.8917   0.8923   0.8947   0.8949   0.8973   0.8978   0.8988   0.9019
  0.9024   0.9039   0.9048   0.9073   0.9079   0.9097   0.9113   0.9129
  0.9143   0.9162   0.9167   0.9170   0.9184   0.9196   0.9199   0.9205
  0.9228   0.9236   0.9247   0.9257   0.9270   0.9283   0.9290   0.9299
  0.9313   0.9321   0.9330   0.9341   0.9354   0.9362   0.9380   0.9391
  0.9411   0.9429   0.9437   0.9447   0.9464   0.9472   0.9481   0.9516
  0.9525   0.9535   0.9543   0.9552   0.9558   0.9575   0.9593   0.9602
  0.9626   0.9630   0.9643   0.9651   0.9652   0.9663   0.9673   0.9692
  0.9693   0.9702   0.9716   0.9723   0.9748   0.9754   0.9763   0.9773
  0.9781   0.9787   0.9789   0.9801   0.9809   0.9826   0.9831   0.9841
  0.9850   0.9869   0.9870   0.9876   0.9887   0.9897   0.9907   0.9920
  0.9925   0.9944   0.9951   0.9964   0.9969   0.9979   0.9990   1.0000
  1.0018   1.0026   1.0038   1.0044   1.0057   1.0060   1.0083   1.0090
  1.0102   1.0110   1.0115   1.0126   1.0142   1.0147   1.0154   1.0171
  1.0176   1.0189   1.0202   1.0206   1.0219   1.0234   1.0243   1.0256
  1.0261   1.0277   1.0280   1.0301   1.0319   1.0333   1.0344   1.0355
  1.0359   1.0374   1.0384   1.0390   1.0423   1.0429   1.0442   1.0445
  1.0447   1.0459   1.0477   1.0481   1.0495   1.0510   1.0515   1.0525
  1.0535   1.0545   1.0559   1.0578   1.0585   1.0598   1.0618   1.0631
  1.0647   1.0666   1.0680   1.0686   1.0704   1.0715   1.0733   1.0742
  1.0753   1.0772   1.0777   1.0792   1.0803   1.0810   1.0833   1.0838
  1.0850   1.0865   1.0882   1.0898   1.0908   1.0929   1.0952   1.0962
  1.0966   1.0970   1.1018   1.1029   1.1037   1.1045   1.1068   1.1077
  1.1097   1.1106   1.1121   1.1139   1.1150   1.1164   1.1172   1.1186
  1.1196   1.1217   1.1224   1.1238   1.1243   1.1260   1.1282   1.1284
  1.1298   1.1306   1.1328   1.1335   1.1348   1.1356   1.1359   1.1375
  1.1386   1.1387   1.1409   1.1423   1.1435   1.1444   1.1453   1.1468
  1.1475   1.1495   1.1499   1.1525   1.1526   1.1538   1.1555   1.1564
  1.1573   1.1588   1.1606   1.1609   1.1621   1.1639   1.1659   1.1664
  1.1682   1.1708   1.1722   1.1737   1.1744   1.1757   1.1766   1.1795
  1.1808   1.1824   1.1845   1.1851   1.1863   1.1868   1.1902   1.1909
  1.1917   1.1939   1.1941   1.1963   1.1992   1.2005   1.2015   1.2031
  1.2047   1.2071   1.2092   1.2099   1.2128   1.2137   1.2153   1.2180
  1.2212   1.2227   1.2232   1.2280   1.2283   1.2293   1.2295   1.2327
  1.2351   1.2359   1.2377   1.2393   1.2410   1.2426   1.2427   1.2442
  1.2482   1.2487   1.2509   1.2528   1.2560   1.2578   1.2588   1.2623
  1.2637   1.2649   1.2679   1.2688   1.2728   1.2745   1.2762   1.2787
  1.2796   1.2819   1.2837   1.2887   1.2912   1.2946   1.2962   1.2969
  1.3004   1.3022   1.3036   1.3056   1.3095   1.3106   1.3149   1.3153
  1.3167   1.3181   1.3198   1.3225   1.3269   1.3274   1.3301   1.3324
  1.3325   1.3350   1.3362   1.3383   1.3402   1.3412   1.3442   1.3460
  1.3480   1.3486   1.3514   1.3536   1.3548   1.3575   1.3592   1.3610
  1.3627   1.3642   1.3660   1.3665   1.3687   1.3700   1.3706   1.3719
  1.3738   1.3761   1.3777   1.3790   1.3801   1.3811   1.3830   1.3837
  1.3851   1.3866   1.3871   1.3883   1.3896   1.3912   1.3925   1.3928
  1.3946   1.3955   1.3972   1.3982   1.3988   1.4031   1.4037   1.4049
  1.4082   1.4098   1.4102   1.4116   1.4130   1.4159   1.4164   1.4177
  1.4195   1.4202   1.4213   1.4225   1.4236   1.4259   1.4270   1.4277
  1.4289   1.4311   1.4330   1.4341   1.4348   1.4366   1.4370   1.4378
  1.4403   1.4418   1.4435   1.4438   1.4446   1.4471   1.4490   1.4497
  1.4504   1.4531   1.4538   1.4561   1.4583   1.4626   1.4628   1.4634
  1.4653   1.4659   1.4682   1.4693   1.4711   1.4732   1.4763   1.4769
  1.4783   1.4801   1.4803   1.4825   1.4858   1.4881   1.4899   1.4903
  1.4937   1.4944   1.4983   1.4994   1.5031   1.5037   1.5043   1.5065
  1.5087   1.5108   1.5125   1.5151   1.5175   1.5203   1.5247   1.5258
  1.5288   1.5310   1.5348   1.5361   1.5386   1.5402   1.5434   1.5450
  1.5489   1.5497   1.5517   1.5546   1.5563   1.5585   1.5608   1.5613
  1.5624   1.5673   1.5684   1.5711   1.5749   1.5787   1.5810   1.5859
  1.5875   1.5926   1.5935   1.5965   1.5990   1.6065   1.6127   1.6157
  1.6214   1.6272   1.6281   1.6346   1.6452   1.6458   1.6478   1.6493
  1.6527   1.6566   1.6621   1.6624   1.6644   1.6664   1.6691   1.6705
  1.6718   1.6730   1.6755   1.6765   1.6767   1.6773   1.6795   1.6805
  1.6813   1.6820   1.6845   1.6848   1.6871   1.6873   1.6890   1.6905
  1.6915   1.6920   1.6938   1.6942   1.6959   1.6962   1.6974   1.6991
  1.6992   1.7009   1.7019   1.7033   1.7041   1.7051   1.7078   1.7082
  1.7095   1.7120   1.7134   1.7146   1.7153   1.7159   1.7179   1.7186
  1.7190   1.7219   1.7230   1.7248   1.7251   1.7267   1.7279   1.7286
  1.7302   1.7321   1.7334   1.7348   1.7356   1.7368   1.7399   1.7414
  1.7426   1.7430   1.7440   1.7444   1.7456   1.7471   1.7474   1.7506
  1.7517   1.7527   1.7540   1.7566   1.7576   1.7596   1.7602   1.7627
  1.7653   1.7676   1.7681   1.7708   1.7721   1.7733   1.7744   1.7751
  1.7761   1.7778   1.7785   1.7827   1.7835   1.7853   1.7857   1.7884
  1.7912   1.7921   1.7944   1.7957   1.7978   1.7995   1.8014   1.8028
  1.8055   1.8070   1.8086   1.8132   1.8165   1.8190   1.8195   1.8205
  1.8261   1.8289   1.8331   1.8348   1.8377   1.8425   1.8432   1.8458
  1.8459   1.8495   1.8497   1.8549   1.8595   1.8628   1.8653   1.8671
  1.8677   1.8698   1.8728   1.8747   1.8759   1.8783   1.8796   1.8808
  1.8830   1.8841   1.8855   1.8860   1.8874   1.8887   1.8893   1.8906
  1.8915   1.8926   1.8939   1.8947   1.8964   1.8967   1.8969   1.8991
  1.9005   1.9021   1.9035   1.9043   1.9054   1.9068   1.9088   1.9114
  1.9133   1.9154   1.9168   1.9177   1.9183   1.9191   1.9198   1.9212
  1.9219   1.9233   1.9259   1.9262   1.9272   1.9289   1.9294   1.9311
  1.9322   1.9345   1.9369   1.9370   1.9384   1.9421   1.9440   1.9451
  1.9458   1.9489   1.9506   1.9526   1.9565   1.9580   1.9593   1.9608
  1.9644   1.9685   1.9687   1.9695   1.9838   1.9889   1.9907   1.9951
  2.0045   2.0142   2.0235   2.0297   2.0344   2.0398   2.0463   2.0466
  2.0488   2.0517   2.0542   2.0595   2.0610   2.0630   2.0659   2.0665
  2.0687   2.0700   2.0703   2.0725   2.0727   2.0740   2.0747   2.0755
  2.0768   2.0783   2.0814   2.0827   2.0835   2.0850   2.0869   2.0876
  2.0888   2.0893   2.0904   2.0908   2.0918   2.0930   2.0944   2.0969
  2.0984   2.0994   2.1006   2.1016   2.1042   2.1060   2.1069   2.1080
  2.1101   2.1121   2.1142   2.1157   2.1165   2.1170   2.1190   2.1200
  2.1206   2.1243   2.1251   2.1289   2.1298   2.1342   2.1367   2.1476
  2.1488   2.1521   2.1590   2.1605   2.1637   2.1722   2.1747   2.1795
  2.1799   2.1831   2.1845   2.1863   2.1893   2.1905   2.1908   2.1925
  2.1964   2.2015   2.2053   2.2058   2.2066   2.2096   2.2124   2.2139
  2.2154   2.2171   2.2177   2.2218   2.2245   2.2264   2.2285   2.2293
  2.2311   2.2314   2.2322   2.2337   2.2340   2.2347   2.2350   2.2365
  2.2377   2.2384   2.2400   2.2427   2.2438   2.2451   2.2464   2.2475
  2.2486   2.2488   2.2500   2.2521   2.2533   2.2536   2.2541   2.2548
  2.2563   2.2576   2.2583   2.2595   2.2603   2.2609   2.2624   2.2635
  2.2651   2.2657   2.2667   2.2680   2.2681   2.2694   2.2705   2.2718
  2.2728   2.2736   2.2743   2.2748   2.2768   2.2778   2.2784   2.2804
  2.2808   2.2815   2.2817   2.2830   2.2831   2.2838   2.2858   2.2872
  2.2877   2.2883   2.2895   2.2902   2.2910   2.2925   2.2934   2.2950
  2.2955   2.2968   2.2975   2.2985   2.2989   2.3007   2.3014   2.3030
  2.3037   2.3044   2.3059   2.3067   2.3082   2.3085   2.3098   2.3107
  2.3120   2.3129   2.3138   2.3146   2.3171   2.3177   2.3180   2.3188
  2.3205   2.3214   2.3222   2.3248   2.3251   2.3256   2.3267   2.3274
  2.3290   2.3305   2.3337   2.3360   2.3361   2.3385   2.3415   2.3417
  2.3430   2.3439   2.3449   2.3469   2.3489   2.3496   2.3507   2.3515
  2.3543   2.3558   2.3576   2.3597   2.3602   2.3618   2.3632   2.3646
  2.3659   2.3661   2.3693   2.3732   2.3735   2.3751   2.3759   2.3780
  2.3825   2.3836   2.3859   2.3899   2.3977   2.3996   2.4009   2.4060
  2.4092   2.4119   2.4130   2.4225   2.4502   2.4701   2.4814   2.5228
  2.5292   2.5836   2.6752   2.7253   2.7576   2.7669   2.8121   2.8189
  2.8226   2.8237   2.8306   2.8319   2.8336   2.8372   2.8398   2.8477
  2.8484   2.8493   2.8506   2.8512   2.8539   2.8573   2.8578   2.8589
  2.8615   2.8647   2.8692   2.8717   2.8746   2.8750   2.8773   2.8792
  2.8829   2.8846   2.8958   2.8971   2.8989   2.9531   3.1049   3.2667
  3.9507   3.9512   3.9566   3.9629   3.9672   3.9692   3.9720   3.9725
  3.9760   3.9784   3.9844   3.9849   3.9868   3.9870   3.9913   3.9951
  3.9966   3.9990   4.0028   4.0043   4.0078   4.0116   4.0143   4.0171
  4.0258   4.0355   4.0514   4.2119   4.2252   4.2305   4.2345   4.2371
  4.2419   4.2440   4.2490   4.2521   4.2558   4.2580   4.2587   4.2636
  4.2670   4.2678   4.2694   4.2706   4.2727   4.2738   4.2784   4.2797
  4.2821   4.2842   4.2879   4.2907   4.2926   4.2940   4.2980   4.2997
  4.3033   4.3050   4.3057   4.3085   4.3103   4.3114   4.3125   4.3149
  4.3171   4.3197   4.3230   4.3253   4.3276   4.3294   4.3315   4.3329
  4.3359   4.3379   4.3420   4.3451   4.3481   4.3504   4.3535   4.3594
  4.3628   4.3643   4.3686   4.3721   4.3749   4.3789   4.3813   4.3836
  4.3855   4.3870   4.3911   4.3935   4.3942   4.3966   4.4029   4.4106
  4.4162   4.4204   4.4266   4.4350   4.4450   4.4503   4.4570   4.4626
  4.4848   4.4878   4.5208   4.5296   4.5495   4.5743   4.5984   4.6109
  4.6803   4.7163   4.7312   4.7868   4.9220
 --------------------------------------------------------------
 
          Ground-State Mulliken Net Atomic Charges

     Atom                 Charge (a.u.)
  ----------------------------------------
      1 C                    -0.196200
      2 C                    -0.226464
      3 C                    -0.552285
      4 C                    -0.346763
      5 C                    -0.355861
      6 C                    -0.625792
      7 H                     0.240308
      8 H                     0.225298
      9 H                     0.216292
     10 H                     0.238424
     11 H                     0.243612
     12 H                     0.189362
     13 H                     0.185133
     14 H                     0.200092
     15 H                     0.189597
     16 H                     0.207161
     17 H                     0.177813
     18 N                    -0.479498
     19 H                     0.467303
     20 C                     0.389378
     21 H                     0.156550
     22 O                    -0.543459
     23 C                    -0.701947
     24 H                     0.231544
     25 H                     0.263741
     26 H                     0.244063
     27 S                     0.753256
     28 C                    -0.821392
     29 H                     0.224068
     30 H                     0.271230
     31 H                     0.287163
     32 O                    -0.683231
     33 C                    -1.064019
     34 H                     0.260660
     35 H                     0.260472
     36 H                     0.295573
     37 S                     1.176685
     38 C                    -0.969281
     39 H                     0.279286
     40 H                     0.223751
     41 H                     0.263936
     42 O                    -0.749886
     43 C                    -0.744741
     44 H                     0.254433
     45 H                     0.270168
     46 H                     0.308555
     47 S                     0.731010
     48 C                    -0.922967
     49 H                     0.228159
     50 H                     0.312728
     51 H                     0.234194
     52 O                    -0.678128
     53 C                    -0.818934
     54 H                     0.260896
     55 H                     0.228737
     56 H                     0.243958
     57 S                     0.893516
     58 C                    -0.857309
     59 H                     0.282822
     60 H                     0.249658
     61 H                     0.226156
     62 O                    -0.705064
     63 C                    -0.850014
     64 H                     0.302453
     65 H                     0.228661
     66 H                     0.256977
     67 S                     0.789797
     68 C                    -0.892275
     69 H                     0.286971
     70 H                     0.208421
     71 H                     0.284553
     72 O                    -0.668270
     73 C                    -0.835966
     74 H                     0.254034
     75 H                     0.256407
     76 H                     0.252642
     77 S                     0.831786
     78 C                    -0.825329
     79 H                     0.260479
     80 H                     0.253995
     81 H                     0.226845
     82 O                    -0.667711
     83 C                    -0.718604
     84 H                     0.268412
     85 H                     0.262351
     86 H                     0.268304
     87 S                     0.651994
     88 C                    -0.772548
     89 H                     0.231438
     90 H                     0.256241
     91 H                     0.290474
     92 O                    -0.668331
     93 C                    -0.663450
     94 H                     0.264645
     95 H                     0.268408
     96 H                     0.219616
     97 S                     0.688387
     98 C                    -0.799679
     99 H                     0.269872
    100 H                     0.225590
    101 H                     0.255265
    102 O                    -0.654268
    103 C                    -0.823338
    104 H                     0.296579
    105 H                     0.265477
    106 H                     0.231377
    107 S                     0.746269
    108 C                    -0.775285
    109 H                     0.228701
    110 H                     0.281404
    111 H                     0.282282
    112 O                    -0.703525
    113 C                    -0.883613
    114 H                     0.263454
    115 H                     0.273148
    116 H                     0.282862
    117 S                     0.784446
    118 C                    -0.853974
    119 H                     0.245523
    120 H                     0.256260
    121 H                     0.260146
    122 O                    -0.615484
    123 C                    -0.923721
    124 H                     0.334900
    125 H                     0.288226
    126 H                     0.229214
    127 S                     0.813010
    128 C                    -0.773742
    129 H                     0.239221
    130 H                     0.291428
    131 H                     0.241504
    132 O                    -0.734314
    133 C                    -0.643338
    134 H                     0.260526
    135 H                     0.255278
    136 H                     0.277526
    137 S                     0.046333
    138 C                    -0.674845
    139 H                     0.262647
    140 H                     0.226759
    141 H                     0.337541
    142 O                    -0.530576
    143 C                    -0.875411
    144 H                     0.231788
    145 H                     0.268403
    146 H                     0.251682
    147 S                     0.913790
    148 C                    -0.922102
    149 H                     0.299878
    150 H                     0.283666
    151 H                     0.250298
    152 O                    -0.711204
    153 C                    -0.835041
    154 H                     0.244900
    155 H                     0.269223
    156 H                     0.227989
    157 S                     0.963872
    158 C                    -0.839856
    159 H                     0.227502
    160 H                     0.249870
    161 H                     0.255464
    162 O                    -0.723194
    163 C                    -1.093339
    164 H                     0.290471
    165 H                     0.275473
    166 H                     0.266942
    167 S                     1.182547
    168 C                    -0.894674
    169 H                     0.239893
    170 H                     0.262507
    171 H                     0.247136
    172 O                    -0.737312
    173 C                    -0.910495
    174 H                     0.251631
    175 H                     0.234337
    176 H                     0.258919
    177 S                     0.818896
    178 C                    -0.750879
    179 H                     0.269381
    180 H                     0.246153
    181 H                     0.258606
    182 O                    -0.664031
    183 C                    -0.877077
    184 H                     0.238505
    185 H                     0.255335
    186 H                     0.267463
    187 S                     0.938591
    188 C                    -0.865958
    189 H                     0.283530
    190 H                     0.244240
    191 H                     0.239233
    192 O                    -0.710375
    193 C                    -0.506104
    194 H                     0.255656
    195 H                     0.245349
    196 H                     0.305533
    197 S                     0.137844
    198 C                    -0.685406
    199 H                     0.314670
    200 H                     0.245696
    201 H                     0.271615
    202 O                    -0.597191
    203 C                    -0.868233
    204 H                     0.240151
    205 H                     0.243314
    206 H                     0.249712
    207 S                     0.871046
    208 C                    -0.908513
    209 H                     0.258677
    210 H                     0.314532
    211 H                     0.252397
    212 O                    -0.674026
    213 C                    -0.753602
    214 H                     0.249507
    215 H                     0.216746
    216 H                     0.249615
    217 S                     0.873982
    218 C                    -0.824254
    219 H                     0.266382
    220 H                     0.259770
    221 H                     0.244875
    222 O                    -0.724082
    223 C                    -0.949256
    224 H                     0.263179
    225 H                     0.256695
    226 H                     0.270854
    227 S                     1.092280
    228 C                    -0.872154
    229 H                     0.278149
    230 H                     0.230796
    231 H                     0.222954
    232 O                    -0.758106
    233 C                    -0.965353
    234 H                     0.263283
    235 H                     0.295108
    236 H                     0.274509
    237 S                     0.756770
    238 C                    -0.704146
    239 H                     0.260874
    240 H                     0.252000
    241 H                     0.248869
    242 O                    -0.716064
    243 C                    -0.882543
    244 H                     0.281278
    245 H                     0.245039
    246 H                     0.239903
    247 S                     1.046630
    248 C                    -1.067086
    249 H                     0.250477
    250 H                     0.269711
    251 H                     0.265059
    252 O                    -0.684743
    253 C                    -0.782664
    254 H                     0.258683
    255 H                     0.267673
    256 H                     0.274941
    257 S                     0.715822
    258 C                    -0.800154
    259 H                     0.253771
    260 H                     0.252687
    261 H                     0.248956
    262 O                    -0.651139
    263 C                    -0.808676
    264 H                     0.217523
    265 H                     0.231968
    266 H                     0.263640
    267 S                     0.933397
    268 C                    -0.931489
    269 H                     0.273818
    270 H                     0.278972
    271 H                     0.249298
    272 O                    -0.645292
    273 C                    -0.535409
    274 H                     0.245925
    275 H                     0.296055
    276 H                     0.307237
    277 S                     0.493896
    278 C                    -0.919298
    279 H                     0.248792
    280 H                     0.277748
    281 H                     0.245327
    282 O                    -0.685310
    283 C                    -0.721455
    284 H                     0.289326
    285 H                     0.224857
    286 H                     0.303003
    287 S                     0.645764
    288 C                    -0.924127
    289 H                     0.262110
    290 H                     0.241724
    291 H                     0.273457
    292 O                    -0.767528
  ----------------------------------------
  Sum of atomic charges =     0.000000

 -----------------------------------------------------------------
                    Cartesian Multipole Moments
 -----------------------------------------------------------------
    Charge (ESU x 10^10)
                 0.0000
    Dipole Moment (Debye)
         X      -7.1168      Y     -19.3736      Z      12.3873
       Tot      24.0713
    Quadrupole Moments (Debye-Ang)
        XX   -1414.3009     XY    -770.6575     YY   -1818.8992
        XZ     142.9427     YZ    -160.1880     ZZ    -243.0378
    Octopole Moments (Debye-Ang^2)
       XXX -100242.7981    XXY  -52040.4074    XYY  -57873.5560
       YYY  -97381.8812    XXZ  -27692.2771    XYZ  -10547.8815
       YYZ  -37480.0410    XZZ  -11493.7513    YZZ  -16456.4182
       ZZZ  -42256.3696
    Hexadecapole Moments (Debye-Ang^3)
      XXXX ************   XXXY ************   XXYY ************
      XYYY ************   YYYY ************   XXXZ ************
      XXYZ ************   XYYZ ************   YYYZ ************
      XXZZ ************   XYZZ -595729.8050   YYZZ ************
      XZZZ ************   YZZZ ************   ZZZZ ************
 -----------------------------------------------------------------
Archival summary:
[...]
    1  -0.0038612   0.0008497   0.0159656  -0.0297990  -0.0160538   0.0115540
    2   0.0072262   0.0078602   0.0182800   0.0096338  -0.0400943   0.0013748
    3  -0.0002155   0.0309821  -0.0190046  -0.0139205   0.0362408   0.0028697
          139         140         141         142         143         144
    1   0.0132462   0.0113497   0.0230572   0.0040885   0.0041790   0.0281390
    2   0.0133867   0.0095058  -0.0271953  -0.0179556  -0.0108451   0.0187445
    3  -0.0276195   0.0365596   0.0013500  -0.1085737  -0.0025977   0.0066303
          145         146         147         148         149         150
    1  -0.0014950  -0.0051209   0.0017039   0.0031977  -0.0148243   0.0004299
    2  -0.0353554   0.0053290   0.0595975  -0.0070830   0.0158972  -0.0328590
    3  -0.0035428  -0.0286085   0.0067671   0.0084489   0.0257775  -0.0059126
          151         152         153         154         155         156
    1   0.0294875  -0.0913997  -0.0050491  -0.0139818  -0.0242763   0.0177523
    2   0.0077476  -0.0519271  -0.0019919   0.0279085  -0.0165655  -0.0247186
    3   0.0244229  -0.0302390   0.0066730   0.0127079  -0.0057885   0.0180874
          157         158         159         160         161         162
    1   0.0269101   0.0018821   0.0252730   0.0209995  -0.0133540  -0.0680282
    2  -0.0420286   0.0037947  -0.0103801   0.0225482   0.0226959   0.0766958
    3  -0.0292936   0.0016906   0.0231808  -0.0138045   0.0161704  -0.0407979
          163         164         165         166         167         168
    1   0.0031219   0.0104722  -0.0266167   0.0319018   0.0243031  -0.0051022
    2  -0.0053430   0.0060738  -0.0158298  -0.0020714   0.0421120  -0.0022895
    3   0.0081217   0.0363055  -0.0127532  -0.0015991   0.0209292   0.0020615
          169         170         171         172         173         174
    1  -0.0192702  -0.0121748  -0.0164757   0.0056700   0.0062689   0.0304812
    2   0.0242804  -0.0124735  -0.0053229  -0.0305576   0.0023978   0.0052218
    3  -0.0052915  -0.0246341   0.0329259  -0.1051770  -0.0019250   0.0161720
          175         176         177         178         179         180
    1   0.0026850  -0.0053034  -0.0019419  -0.0083435  -0.0281808   0.0100930
    2  -0.0238497   0.0251189  -0.0473350   0.0012609   0.0024027   0.0358208
    3  -0.0243114  -0.0189952   0.0253463  -0.0074494   0.0085191  -0.0112658
          181         182         183         184         185         186
    1  -0.0192277  -0.0097128   0.0038933   0.0291403  -0.0124081   0.0021501
    2  -0.0372324   0.0972271  -0.0063230   0.0079519  -0.0151640  -0.0199720
    3  -0.0033685   0.0522037   0.0045985   0.0118378   0.0219905  -0.0241163
          187         188         189         190         191         192
    1   0.0305676  -0.0030947  -0.0039154   0.0187870  -0.0247969  -0.0887131
    2   0.0386762  -0.0024495  -0.0226446   0.0160346   0.0198893  -0.0480035
    3  -0.0282891   0.0080034   0.0216991   0.0186516  -0.0005014  -0.0465211
          193         194         195         196         197         198
    1   0.0014077   0.0120033   0.0301804  -0.0175288   0.0448578  -0.0101404
    2   0.0092644   0.0167184  -0.0005847   0.0185802  -0.0308662   0.0012696
    3  -0.0114550   0.0191618  -0.0309616  -0.0228543   0.0261056  -0.0110618
          199         200         201         202         203         204
    1  -0.0158525   0.0233219  -0.0146597  -0.0872598  -0.0008159  -0.0241780
    2   0.0210567  -0.0123991  -0.0282110   0.0470144  -0.0076704   0.0047835
    3  -0.0289576  -0.0221966   0.0111413   0.0514405  -0.0042559  -0.0252771
          205         206         207         208         209         210
    1   0.0265090   0.0050002  -0.0484276   0.0048492  -0.0223993  -0.0021853
    2  -0.0078946  -0.0252106   0.0104382   0.0100095  -0.0036048   0.0310175
    3  -0.0133200   0.0227396   0.0289941  -0.0089806  -0.0209734   0.0006399
          211         212         213         214         215         216
    1   0.0245997   0.1001839  -0.0044832  -0.0017809  -0.0290122   0.0077132
    2  -0.0050896  -0.0064532   0.0046178   0.0275057  -0.0071616   0.0170606
    3  -0.0177190   0.0443521   0.0009012  -0.0225839   0.0031991   0.0195648
          217         218         219         220         221         222
    1  -0.0134028   0.0005210   0.0122417  -0.0322138   0.0150097   0.0939327
    2  -0.0348178  -0.0007117   0.0259352  -0.0063123  -0.0281919   0.0581572
    3  -0.0388289   0.0110857   0.0166677   0.0045594   0.0031842   0.0046175
          223         224         225         226         227         228
    1  -0.0091226   0.0132839  -0.0318317  -0.0006170   0.0103008  -0.0053869
    2  -0.0071745  -0.0303442   0.0025330   0.0106638  -0.0039081   0.0034772
    3  -0.0028887   0.0039783   0.0079012  -0.0284263   0.0441955  -0.0036735
          229         230         231         232         233         234
    1  -0.0050015  -0.0336538   0.0146301   0.0658077  -0.0040750   0.0209105
    2  -0.0023961   0.0071865   0.0281615  -0.0079403   0.0086407   0.0095043
    3  -0.0288824   0.0075601   0.0042632  -0.0891605  -0.0016795   0.0211599
          235         236         237         238         239         240
    1  -0.0024945  -0.0266829   0.0483179  -0.0080955  -0.0333121  -0.0049226
    2   0.0294390   0.0094604  -0.0125465   0.0056545   0.0146039   0.0201550
    3  -0.0217220   0.0069347  -0.0236725  -0.0042614   0.0000451  -0.0305678
          241         242         243         244         245         246
    1  -0.0057086  -0.0443368   0.0005264   0.0328150   0.0009445  -0.0136644
    2  -0.0298553  -0.0510422  -0.0078716   0.0008375   0.0186466  -0.0322254
    3  -0.0020289   0.0848813   0.0110461   0.0053332   0.0341011  -0.0157709
          247         248         249         250         251         252
    1   0.0241956  -0.0118597  -0.0115325  -0.0129823  -0.0073305   0.0318982
    2   0.0463884  -0.0064123   0.0082032   0.0100153  -0.0290881  -0.0715391
    3   0.0116253   0.0005908   0.0322203  -0.0281402  -0.0141411  -0.0804144
          253         254         255         256         257         258
    1   0.0028505   0.0271346  -0.0066193  -0.0061646   0.0151861  -0.0096301
    2   0.0032862  -0.0196360   0.0336075  -0.0053333   0.0445877  -0.0002452
    3   0.0104492  -0.0047926   0.0068573   0.0297730  -0.0458160   0.0048157
          259         260         261         262         263         264
    1  -0.0164880  -0.0067334   0.0057906   0.0170732  -0.0018681   0.0108745
    2  -0.0114247  -0.0249396   0.0304426  -0.1055928   0.0025327  -0.0185782
    3  -0.0292018   0.0187073   0.0178817  -0.0238160  -0.0061274  -0.0302624
          265         266         267         268         269         270
    1  -0.0246880   0.0158127   0.0408881  -0.0122539  -0.0193830   0.0041700
    2   0.0140864   0.0252936  -0.0287388  -0.0060537   0.0229743  -0.0219465
    3  -0.0069078   0.0054238   0.0108695  -0.0009553  -0.0066774  -0.0267702
          271         272         273         274         275         276
    1  -0.0100741  -0.0347540  -0.0114847  -0.0018629  -0.0251252   0.0009871
    2  -0.0119557   0.0865112   0.0053222   0.0103934  -0.0277428   0.0365769
    3   0.0311372   0.0605502   0.0042947  -0.0286978   0.0016313   0.0104550
          277         278         279         280         281         282
    1   0.0058204  -0.0015024   0.0353592  -0.0296967  -0.0053480   0.0656064
    2  -0.0491743  -0.0005807  -0.0006265   0.0233654  -0.0300487   0.0854258
    3  -0.0221599   0.0104099  -0.0001806   0.0026924   0.0180367  -0.0214616
          283         284         285         286         287         288
    1   0.0023327   0.0186312  -0.0280535   0.0030094   0.0495110  -0.0030526
    2   0.0013317  -0.0270705  -0.0033982   0.0252870   0.0013233  -0.0025433
    3  -0.0090076  -0.0168910  -0.0185300  -0.0195049   0.0207802   0.0011857
          289         290         291         292
    1  -0.0211408  -0.0204385   0.0148860  -0.0753417
    2   0.0044326  -0.0080963  -0.0280308   0.0774417
    3   0.0251683  -0.0237995   0.0200698   0.0130667
  --- DONE ESP SUMMARY ---
Archival summary:
1\1\n0071.mhg0\SP\ProcedureUnspecified\6-31+G*\272754h22\ymao\ThuMar1120:58:502021ThuMar1120:58:502021\0\\#,ProcedureUnspecified,6-31+G*,\\0,1\S\O,1,1.49713\C,1,1.80727,2,105.878\H,3,1.09306,1,117.316,2,-80.9107,0\H,3,1.09327,1,111.83,2,51.8738,0\H,3,1.09331,1,99.5081,2,157.176,0\C,1,1.80745,2,102.33,3,103.43,0\H,7,1.09267,1,114.597,2,178.476,0\H,7,1.09307,1,101.023,2,62.1027,0\H,7,1.09311,1,110.714,2,-56.5371,0\H,10,2.06047,7,116.456,1,132.19,0\C,11,1.09348,10,168.357,7,-93.4401,0\H,12,1.09299,11,113.799,10,-135.53,0\H,12,1.09307,11,109.753,10,98.2433,0\S,12,1.80643,11,110.753,10,-20.4685,0\O,15,1.49642,12,107.721,11,-39.1314,0\C,15,1.8074,12,93.7757,11,62.0319,0\H,17,1.09266,15,107.692,12,-155.815,0\H,17,1.09321,15,111.6,12,-44.6135,0\H,17,1.0938,15,116.186,12,83.9615,0\H,8,2.17629,7,124.501,1,-88.9585,0\C,21,1.09275,8,142.627,7,-92.4929,0\H,22,1.09255,21,110.765,8,-112.997,0\H,22,1.09276,21,105.545,8,129.35,0\S,22,1.80728,21,110.611,8,3.74927,0\O,25,1.49698,22,102.042,21,59.2756,0\C,25,1.80661,22,94.586,21,161.832,0\H,27,1.09294,25,106.427,22,-75.3045,0\H,27,1.09341,25,109.615,22,154.794,0\H,27,1.09356,25,101.993,22,36.5416,0\H,9,2.2556,7,121.339,1,57.3283,0\C,31,1.09307,9,120.085,7,-136.517,0\H,32,1.09296,31,110.503,9,55.666,0\H,32,1.09332,31,111.097,9,-69.9692,0\S,32,1.80662,31,112.888,9,171.214,0\O,35,1.497,32,103.441,31,72.5613,0\C,35,1.80759,32,102.853,31,-175.482,0\H,37,1.09228,35,113.861,32,63.0701,0\H,37,1.09296,35,106.835,32,-171.03,0\H,37,1.09323,35,104.525,32,-60.702,0\O,40,2.24306,37,156.653,35,58.996,0\S,41,1.49631,40,119.049,37,-136.711,0\C,42,1.80715,41,106.483,40,-21.0517,0\H,43,1.093,42,110.544,41,161.613,0\H,43,1.09311,42,106.365,41,44.5717,0\H,43,1.09385,42,108.309,41,-78.1488,0\C,42,1.80755,41,99.8096,40,76.94,0\H,47,1.09256,42,114.354,41,-56.9354,0\H,47,1.09294,42,107.28,41,62.2881,0\H,47,1.09298,42,112.954,41,-173.696,0\H,24,2.27395,22,113.311,21,61.5226,0\C,51,1.09321,24,120.821,22,38.4797,0\H,52,1.09269,51,109.778,24,-74.1655,0\H,52,1.09296,51,116.864,24,48.1584,0\S,52,1.80746,51,109.998,24,168.777,0\O,55,1.49751,52,103.479,51,-140.082,0\C,55,1.80702,52,96.7588,51,-38.8734,0\H,57,1.09262,55,111.194,52,-46.6513,0\H,57,1.09268,55,104.451,52,-163.973,0\H,57,1.09283,55,112.07,52,72.0647,0\H,54,2.27319,52,132.1,51,-165.47,0\C,61,1.09262,54,132.008,52,53.1161,0\H,62,1.09258,61,107.172,54,-103.849,0\H,62,1.09328,61,110.138,54,141.139,0\S,62,1.80655,61,108.878,54,17.3707,0\O,65,1.49657,62,101.965,61,70.4765,0\C,65,1.80728,62,96.5293,61,174.405,0\H,67,1.09259,65,108.285,62,-58.0026,0\H,67,1.09301,65,105.368,62,66.2636,0\H,67,1.09372,65,101.233,62,-176.485,0\H,70,2.2692,67,102.822,65,-84.415,0\C,71,1.09316,70,157.544,67,53.7989,0\H,72,1.09235,71,104.604,70,-164.814,0\H,72,1.09364,71,109.296,70,-49.0655,0\S,72,1.80735,71,105.485,70,70.0832,0\O,75,1.49628,72,106.7,71,-58.2218,0\C,75,1.80695,72,101.672,71,-163.763,0\H,77,1.09302,75,111.637,72,37.3217,0\H,77,1.09306,75,110.62,72,-82.2089,0\H,77,1.09309,75,110.816,72,159.036,0\Gh,38,2.27486,37,146.412,35,7.61299,0\Gh,81,1.0973,38,124.161,37,87.0159,0\Gh,82,1.09673,81,105.238,38,43.8609,0\Gh,82,1.53712,81,110.569,38,162.091,0\Gh,84,1.09709,82,106.42,81,-168.588,0\Gh,84,1.09769,82,115.872,81,-55.5655,0\Gh,82,1.53739,81,111.131,38,-69.3409,0\Gh,87,1.09683,82,108.514,81,52.08,0\Gh,87,1.0975,82,114.43,81,171.23,0\Gh,84,1.53755,82,111.328,81,73.2637,0\Gh,90,1.09677,84,113.2,82,172.041,0\Gh,90,1.09678,84,106.367,82,-70.7494,0\Gh,90,1.5374,84,112.43,82,44.7907,0\Gh,93,1.09667,90,108.597,84,-173.233,0\Gh,93,1.09755,90,103.325,84,76.1969,0\Gh,93,1.53705,90,117.453,84,-45.8445,0\Gh,96,1.09661,93,109.57,90,-69.4354,0\Gh,96,1.46181,93,110.249,90,168.956,0\Gh,98,1.01271,96,117.508,93,1.26032,0\Gh,98,1.3787,96,127.478,93,178.057,0\Gh,100,1.10503,98,109.2,96,178.84,0\Gh,100,1.21899,98,124.213,96,-6.79498,0\H,95,2.10676,93,154.439,90,-177.38,0\C,103,1.09287,95,135.581,93,47.627,0\H,104,1.09288,103,102.338,95,126.63,0\H,104,1.09333,103,111.443,95,6.88205,0\S,104,1.80673,103,114.786,95,-110.227,0\O,107,1.49704,104,105.295,103,64.8961,0\C,107,1.80647,104,103.041,103,172.937,0\H,109,1.09273,107,109.175,104,58.5167,0\H,109,1.09305,107,116.486,104,173.078,0\H,109,1.09326,107,105.683,104,-64.5044,0\H,103,2.16171,95,121.128,93,-150.74,0\C,113,1.09253,103,154.539,95,-103.503,0\H,114,1.09311,113,101.488,103,-73.8093,0\H,114,1.09315,113,110.707,103,48.1329,0\S,114,1.80702,113,113.752,103,170.604,0\O,117,1.49806,114,104.556,113,78.2409,0\C,117,1.80741,114,103.315,113,-167.106,0\H,119,1.09264,117,109.187,114,-62.5541,0\H,119,1.09277,117,104.512,114,55.9759,0\H,119,1.09315,117,100.756,114,177.333,0\H,116,2.16104,114,109.802,113,56.9749,0\C,123,1.09232,116,121.262,114,-119.782,0\H,124,1.09292,123,109.795,116,142.288,0\H,124,1.09333,123,110.453,116,18.9345,0\S,124,1.80757,123,110.074,116,-95.7931,0\O,127,1.49702,124,104.62,123,-66.531,0\C,127,1.80709,124,97.6697,123,37.4542,0\H,129,1.09256,127,107.547,124,-49.2558,0\H,129,1.09276,127,102.582,124,-168.612,0\H,129,1.09329,127,109.189,124,75.6947,0\H,5,2.32178,3,132.762,1,-40.7323,0\C,133,1.09327,5,112.377,3,-106.523,0\H,134,1.09307,133,105.304,5,56.8483,0\H,134,1.09324,133,108.602,5,172.316,0\S,134,1.80652,133,112.512,5,-63.7402,0\O,137,1.4968,134,98.0578,133,-160.455,0\C,137,1.80761,134,90.9058,133,-61.0794,0\H,139,1.09256,137,108.641,134,178.126,0\H,139,1.09288,137,107.497,134,-60.8831,0\H,139,1.09331,137,106.733,134,57.958,0\H,59,2.32372,57,119.787,55,-121.562,0\C,143,1.09372,59,124.572,57,26.2373,0\H,144,1.0927,143,102.464,59,-63.1791,0\H,144,1.09329,143,105.488,59,176.701,0\S,144,1.80681,143,115.289,59,56.8994,0\O,147,1.49731,144,102.18,143,160.719,0\C,147,1.80742,144,95.5067,143,59.1925,0\H,149,1.09255,147,117.237,144,169.942,0\H,149,1.09299,147,111.818,144,43.6371,0\H,149,1.09305,147,108.674,144,-65.2266,0\H,89,2.33569,87,141.593,82,-62.233,0\C,153,1.09294,89,133.592,87,81.3282,0\H,154,1.09211,153,116.896,89,-33.4046,0\H,154,1.09317,153,100.213,89,-151.572,0\S,154,1.8069,153,110.138,89,93.3184,0\O,157,1.49715,154,101.213,153,-58.3771,0\C,157,1.80721,154,101.914,153,46.4374,0\H,159,1.09226,157,111.514,154,-142.074,0\H,159,1.09256,157,103.9,154,98.9975,0\H,159,1.09336,157,121.596,154,-22.8849,0\H,86,2.33638,84,154.546,82,-100.435,0\C,163,1.09232,86,107.025,84,166.01,0\H,164,1.09314,163,115.688,86,-132.866,0\H,164,1.09377,163,108.927,86,-16.2599,0\S,164,1.80666,163,109.633,86,108.494,0\O,167,1.49676,164,106.573,163,-43.5802,0\C,167,1.80771,164,99.881,163,65.4254,0\H,169,1.09244,167,104.801,164,67.4849,0\H,169,1.09306,167,105.592,164,-172.802,0\H,169,1.09349,167,109.011,164,-53.8416,0\O,4,2.35091,3,160.937,1,-178.667,0\S,173,1.49737,4,156.793,3,-148.616,0\C,174,1.8062,173,101.956,4,42.2121,0\H,175,1.09263,174,104.611,173,-54.3073,0\H,175,1.09321,174,107.705,173,63.9821,0\H,175,1.09356,174,107.451,173,179.457,0\C,174,1.80722,173,105.105,4,-58.0888,0\H,179,1.09301,174,104.786,173,-35.7462,0\H,179,1.09315,174,110.531,173,88.0091,0\H,179,1.09334,174,99.6356,173,-158.597,0\H,112,2.35276,109,105.799,107,-89.7099,0\C,183,1.09236,112,124.456,109,-142.162,0\H,184,1.09299,183,110.847,112,163.899,0\H,184,1.09308,183,108.32,112,-78.6294,0\S,184,1.80782,183,106.756,112,46.2113,0\O,187,1.49669,184,102.185,183,-67.3228,0\C,187,1.80669,184,102.071,183,-171.15,0\H,189,1.09269,187,111.887,184,-94.32,0\H,189,1.09303,187,108.164,184,151.426,0\H,189,1.09372,187,107.151,184,36.6295,0\H,155,2.36746,154,109.356,153,169.784,0\C,193,1.0937,155,141.765,154,146.373,0\H,194,1.09257,193,115.148,155,65.8824,0\H,194,1.09309,193,110.105,155,-60.9807,0\S,194,1.80701,193,110.401,155,178.586,0\O,197,1.49715,194,99.9236,193,-53.2821,0\C,197,1.80638,194,95.5296,193,53.7424,0\H,199,1.09278,197,115.208,194,50.5685,0\H,199,1.09348,197,109.66,194,177.031,0\H,199,1.09368,197,109.065,194,-68.7468,0\H,196,2.05729,194,125.367,193,64.3723,0\C,203,1.09325,196,145.905,194,-131.764,0\H,204,1.09226,203,110.928,196,-120.824,0\H,204,1.09303,203,101.791,196,124.566,0\S,204,1.80701,203,108.004,196,7.3466,0\O,207,1.49657,204,107.894,203,31.4216,0\C,207,1.80737,204,91.4375,203,-72.6007,0\H,209,1.09229,207,111.993,204,-57.2701,0\H,209,1.09302,207,108.903,204,64.3722,0\H,209,1.09355,207,111.448,204,-170.3,0\H,41,2.36762,40,70.9698,37,84.7264,0\C,213,1.09317,41,118.827,40,-144.368,0\H,214,1.09263,213,109.327,41,6.62839,0\H,214,1.0929,213,116.947,41,120.759,0\S,214,1.80724,213,108.014,41,-113.667,0\O,217,1.4967,214,106.446,213,-76.6856,0\C,217,1.80618,214,100.429,213,38.3626,0\H,219,1.09305,217,111.382,214,167.829,0\H,219,1.09311,217,113.755,214,-67.6677,0\H,219,1.09377,217,111.424,214,56.1637,0\H,46,2.39322,43,142.667,42,153.407,0\C,223,1.09321,46,103.272,43,-64.465,0\H,224,1.09231,223,108.012,46,134.431,0\H,224,1.09339,223,115.152,46,10.874,0\S,224,1.80665,223,105.487,46,-107.074,0\O,227,1.49704,224,107.492,223,-53.0652,0\C,227,1.80734,224,94.736,223,-160.748,0\H,229,1.09195,227,113.059,224,167.581,0\H,229,1.09315,227,105.776,224,-77.1213,0\H,229,1.09321,227,108.668,224,39.5828,0\H,231,2.1731,229,128.93,227,150.286,0\C,233,1.09276,231,150.498,229,-77.9375,0\H,234,1.0928,233,107.442,231,159.305,0\H,234,1.09347,233,116.492,231,-78.8621,0\S,234,1.80715,233,106.193,231,40.0946,0\O,237,1.49722,234,104.498,233,-44.9784,0\C,237,1.8077,234,97.0896,233,64.9352,0\H,239,1.09234,237,100.035,234,-168.568,0\H,239,1.09279,237,108.034,234,-50.9297,0\H,239,1.09327,237,111.969,234,79.5177,0\H,166,2.39521,164,117.382,163,-59.9872,0\C,243,1.09309,166,99.4729,164,-77.3769,0\H,244,1.0929,243,113.019,166,-26.2651,0\H,244,1.09304,243,112.401,166,-152.128,0\S,244,1.80682,243,106.784,166,88.861,0\O,247,1.4965,244,103.354,243,75.4784,0\C,247,1.80776,244,97.7074,243,177.301,0\H,249,1.09264,247,115.305,244,-165.771,0\H,249,1.09293,247,106.386,244,70.4505,0\H,249,1.09348,247,98.855,244,-45.2303,0\H,168,2.40896,167,87.4767,164,-122.05,0\C,253,1.09338,168,165.258,167,162.527,0\H,254,1.09263,253,103.813,168,42.1845,0\H,254,1.0935,253,110.394,168,165.047,0\S,254,1.80676,253,101.055,168,-82.8224,0\O,257,1.49731,254,103.005,253,-53.8024,0\C,257,1.80702,254,101.235,253,51.4002,0\H,259,1.09326,257,112.912,254,-176.646,0\H,259,1.09326,257,104.315,254,57.9971,0\H,259,1.0934,257,109.12,254,-56.5359,0\H,255,2.21702,254,158.788,253,10.46,0\C,263,1.09318,255,179.345,254,-106.561,0\H,264,1.09302,263,108.271,255,153.996,0\H,264,1.09352,263,112.333,255,-83.8524,0\S,264,1.80734,263,105.999,255,42.1604,0\O,267,1.49665,264,99.7273,263,-65.6588,0\C,267,1.80723,264,92.6535,263,37.3315,0\H,269,1.09226,267,117.027,264,-59.6623,0\H,269,1.09285,267,107.89,264,-175.423,0\H,269,1.09295,267,120.251,264,72.3324,0\O,73,2.49993,72,125.08,71,147.98,0\S,273,1.49675,73,123.977,72,1.81065,0\C,274,1.80691,273,100.417,73,-86.7805,0\H,275,1.09246,274,107.716,273,173.292,0\H,275,1.0928,274,110.382,273,56.3094,0\H,275,1.09393,274,100.986,273,-62.5768,0\C,274,1.80752,273,103.173,73,167.846,0\H,279,1.09231,274,109.83,273,169.103,0\H,279,1.09259,274,104.805,273,47.4114,0\H,279,1.09366,274,111.413,273,-66.4139,0\O,178,2.5428,175,174.152,174,-162.455,0\S,283,1.49729,178,140.469,175,-82.9804,0\C,284,1.8067,283,107.349,178,138.751,0\H,285,1.09241,284,114.764,283,-45.2265,0\H,285,1.09297,284,102.347,283,70.4888,0\H,285,1.09382,284,108.397,283,-178.848,0\C,284,1.80714,283,100.793,178,37.8018,0\H,289,1.09265,284,107.198,283,-48.448,0\H,289,1.09281,284,114.488,283,-178.363,0\H,289,1.09348,284,112.912,283,72.7039,0\\\@

 Total job time:  49.09s(wall), 142.84s(cpu) 
 Thu Mar 11 20:58:50 2021

        *************************************************************
        *                                                           *
        *  Thank you very much for using Q-Chem.  Have a nice day.  *
        *                                                           *
        *************************************************************


