                  Welcome to Q-Chem
     A Quantum Leap Into The Future Of Chemistry


 Q-Chem 5.2 (devel), Q-Chem, Inc., Pleasanton, CA (2019)

 Yihan Shao,  Zhengting Gan,  E. Epifanovsky,  A. T. B. Gilbert,  M. Wormit,  
 J. Kussmann,  A. W. Lange,  A. Behn,  Jia Deng,  Xintian Feng,  D. Ghosh,  
 M. Goldey,  P. R. Horn,  L. D. Jacobson,  I. Kaliman,  T. Kus,  A. Landau,  
 Jie Liu,  E. I. Proynov,  R. M. Richard,  R. P. Steele,  E. J. Sundstrom,  
 H. L. Woodcock III,  P. M. Zimmerman,  D. Zuev,  B. Alam,  B. Albrecht,  
 E. Alguire,  S. A. Baeppler,  D. Barton,  Z. Benda,  Y. A. Bernard,  
 E. J. Berquist,  K. B. Bravaya,  H. Burton,  K. Carter-Fenk,  D. Casanova,  
 Chun-Min Chang,  Yunqing Chen,  A. Chien,  K. D. Closser,  M. P. Coons,  
 S. Coriani,  S. Dasgupta,  A. L. Dempwolff,  M. Diedenhofen,  Hainam Do,  
 R. G. Edgar,  Po-Tung Fang,  S. Faraji,  S. Fatehi,  Qingguo Feng,  
 J. Fosso-Tande,  J. Gayvert,  Qinghui Ge,  A. Ghysels,  G. Gidofalvi,  
 J. Gomes,  J. Gonthier,  A. Gunina,  D. Hait,  M. W. D. Hanson-Heine,  
 P. H. P. Harbach,  A. W. Hauser,  M. F. Herbst,  J. E. Herr,  
 E. G. Hohenstein,  Z. C. Holden,  Kerwin Hui,  B. C. Huynh,  T.-C. Jagau,  
 Hyunjun Ji,  B. Kaduk,  K. Khistyaev,  Jaehoon Kim,  P. Klunzinger,  K. Koh,  
 D. Kosenkov,  L. Koulias,  T. Kowalczyk,  C. M. Krauter,  A. Kunitsa,  
 Ka Un Lao,  A. Laurent,  K. V. Lawler,  Joonho Lee,  D. Lefrancois,  
 S. Lehtola,  D. S. Levine,  Yi-Pei Li,  You-Sheng Lin,  Fenglai Liu,  
 Kuan-Yu Liu,  E. Livshits,  M. Loipersberger,  A. Luenser,  P. Manohar,  
 E. Mansoor,  S. F. Manzer,  Shan-Ping Mao,  Yuezhi Mao,  N. Mardirossian,  
 A. V. Marenich,  T. Markovich,  L. A. Martinez-Martinez,  S. A. Maurer,  
 N. J. Mayhall,  S. C. McKenzie,  J.-M. Mewes,  P. Morgante,  A. F. Morrison,  
 J. W. Mullinax,  K. Nanda,  T. S. Nguyen-Beck,  R. Olivares-Amaya,  
 J. A. Parkhill,  S. K. Paul,  F. Pavosevic,  Zheng Pei,  T. M. Perrine,  
 F. Plasser,  P. Pokhilko,  S. Prager,  A. Prociuk,  E. Ramos,  B. Rana,  
 D. R. Rehn,  F. Rob,  M. Scheurer,  M. Schneider,  N. Sergueev,  
 S. M. Sharada,  S. Sharma,  D. W. Small,  T. Stauch,  C. J. Stein,  
 T. Stein,  Yu-Chuan Su,  S. P. Veccham,  Zhen Tao,  A. J. W. Thom,  
 A. Tkatchenko,  T. Tsuchimochi,  N. M. Tubman,  L. Vogt,  M. L. Vidal,  
 O. Vydrov,  M. A. Watson,  J. Wenzel,  M. de Wergifosse,  T. A. Wesolowski,  
 A. White,  J. Witte,  A. Yamada,  Jun Yang,  K. Yao,  S. Yeganeh,  
 S. R. Yost,  Zhi-Qiang You,  A. Zech,  Igor Ying Zhang,  Xing Zhang,  
 Yan Zhao,  Ying Zhu,  B. R. Brooks,  G. K. L. Chan,  C. J. Cramer,  
 M. S. Gordon,  W. J. Hehre,  A. Klamt,  M. W. Schmidt,  C. D. Sherrill,  
 D. G. Truhlar,  A. Aspuru-Guzik,  R. Baer,  A. T. Bell,  N. A. Besley,  
 Jeng-Da Chai,  A. E. DePrince, III,  R. A. DiStasio Jr.,  A. Dreuw,  
 B. D. Dunietz,  T. R. Furlani,  Chao-Ping Hsu,  Yousung Jung,  Jing Kong,  
 D. S. Lambrecht,  WanZhen Liang,  C. Ochsenfeld,  V. A. Rassolov,  
 L. V. Slipchenko,  J. E. Subotnik,  T. Van Voorhis,  J. M. Herbert,  
 A. I. Krylov,  P. M. W. Gill,  M. Head-Gordon

 Contributors to earlier versions of Q-Chem not listed above: 
 R. D. Adamson,  B. Austin,  J. Baker,  G. J. O. Beran,  K. Brandhorst,  
 S. T. Brown,  E. F. C. Byrd,  A. K. Chakraborty,  C.-L. Cheng,  
 Siu Hung Chien,  D. M. Chipman,  D. L. Crittenden,  H. Dachsel,  
 R. J. Doerksen,  A. D. Dutoi,  L. Fusti-Molnar,  W. A. Goddard III,  
 A. Golubeva-Zadorozhnaya,  S. R. Gwaltney,  G. Hawkins,  A. Heyden,  
 S. Hirata,  G. Kedziora,  F. J. Keil,  C. Kelley,  Jihan Kim,  R. A. King,  
 R. Z. Khaliullin,  P. P. Korambath,  W. Kurlancheek,  A. M. Lee,  M. S. Lee,  
 S. V. Levchenko,  Ching Yeh Lin,  D. Liotard,  R. C. Lochan,  I. Lotan,  
 P. E. Maslen,  N. Nair,  D. P. O'Neill,  D. Neuhauser,  E. Neuscamman,  
 C. M. Oana,  R. Olson,  B. Peters,  R. Peverati,  P. A. Pieniazek,  
 Y. M. Rhee,  J. Ritchie,  M. A. Rohrdanz,  E. Rosta,  N. J. Russ,  
 H. F. Schaefer III,  N. E. Schultz,  N. Shenvi,  A. C. Simmonett,  A. Sodt,  
 D. Stuck,  K. S. Thanthiriwatte,  V. Vanovschi,  Tao Wang,  A. Warshel,  
 C. F. Williams,  Q. Wu,  X. Xu,  W. Zhang

 Please cite Q-Chem as follows:
 Y. Shao et al., Mol. Phys. 113, 184-215 (2015)
 DOI: 10.1080/00268976.2014.952696

 Q-Chem 5.2.2 for Intel X86 EM64T Linux

 Parts of Q-Chem use Armadillo 9.800.1 (Horizon Scraper).
 http://arma.sourceforge.net/

 Q-Chem begins on Thu Mar 11 13:37:48 2021  

Host: n0101.mhg0
0

     Scratch files written to /local/scratch/users/ymao/r7.00_frame_0046_almo_B3LYP_dp.in20210311133746//

Checking the input file for inconsistencies... 	...done.

--------------------------------------------------------------
User input:
--------------------------------------------------------------
$molecule
0 1
--
0 1
C    25.93800   19.38200   26.41800  
C    24.88000   20.45100   26.73700  
C    25.36900   21.57800   27.66200  
C    26.64900   22.25600   27.14700  
C    27.71000   21.23900   26.69600  
C    27.18600   20.07100   25.84300  
H    24.57500   22.32000   27.81000  
H    24.56100   20.91900   25.79800  
H    26.20700   18.92500   27.37900  
H    25.57900   18.56200   25.78300  
H    26.42700   22.79800   26.22000  
H    27.05300   22.93700   27.90700  
H    28.61600   21.68900   26.27300  
H    28.01800   20.80200   27.65400  
H    26.99500   20.42900   24.82400  
H    27.97000   19.31600   25.71400  
H    25.49700   21.07300   28.62700  
N    23.68000   19.81800   27.28100  
H    23.75500   19.27300   28.13200  
C    22.46300   19.61800   26.66400  
H    21.79900   18.83600   27.07300  
O    22.14300   20.20900   25.64800  
--
0 1
C    21.81700   18.87700   22.66700  
H    22.36300   18.81200   23.61200  
H    22.04900   19.73300   22.02800  
H    20.75200   18.81100   22.90100  
S    22.07100   17.40400   21.65200  
C    23.86400   17.63300   21.67000  
H    24.18700   17.29100   20.68300  
H    24.20200   18.65900   21.83600  
H    24.24500   16.97000   22.45000  
O    21.69900   17.69100   20.23000  
C    32.85600   23.75300   30.04100  
H    33.23800   22.73400   30.13600  
H    32.65800   24.11900   31.05200  
H    31.99500   23.80700   29.37000  
S    34.02000   24.88100   29.24100  
C    34.35500   25.80300   30.75800  
H    35.07600   26.54100   30.39600  
H    33.44900   26.34200   31.04600  
H    34.83700   25.28000   31.58800  
O    33.35800   25.82500   28.28600  
C    34.07600   20.57900   28.38900  
H    33.68100   20.83700   29.37500  
H    34.14100   19.49900   28.23500  
H    35.05900   21.02800   28.22600  
S    33.03500   21.32000   27.11000  
C    31.76400   20.07300   27.41700  
H    32.04100   19.14800   26.90400  
H    31.57100   19.90200   28.48000  
H    30.89700   20.51000   26.91600  
O    33.66300   21.05900   25.77700  
C    21.45400   21.92700   35.90400  
H    20.78400   21.13300   36.24400  
H    22.37100   21.87900   36.49800  
H    20.90800   22.87300   35.94900  
S    21.82300   21.58100   34.17000  
C    22.12900   19.86800   34.65600  
H    22.41200   19.33300   33.74600  
H    22.78200   19.86600   35.53300  
H    21.16800   19.40400   34.89000  
O    23.20400   22.11900   33.95900  
C    28.41500   13.34800   25.71600  
H    29.17200   12.95500   25.03200  
H    29.10800   13.68200   26.49200  
H    27.58400   12.68200   25.96300  
S    27.70600   14.71400   24.76900  
C    27.14300   13.89900   23.25700  
H    26.26500   13.25700   23.36600  
H    26.97800   14.68900   22.52000  
H    27.93500   13.29200   22.81000  
O    29.00200   15.34400   24.36400  
C    25.73400   20.32900   34.53700  
H    25.51500   20.33900   33.46700  
H    25.93500   19.36000   35.00100  
H    24.94300   20.78800   35.13600  
S    27.15700   21.40700   34.81600  
C    26.54100   22.86400   33.94200  
H    27.30100   23.61100   34.18600  
H    26.58400   22.64100   32.87300  
H    25.57400   23.17900   34.34100  
O    28.20100   20.81000   33.92400  
C    21.05600   22.32300   22.69400  
H    20.12400   21.95700   22.25600  
H    21.70900   22.66000   21.88400  
H    21.54600   21.53900   23.27700  
S    20.82700   23.76500   23.75900  
C    22.43700   23.96900   24.55400  
H    22.65200   23.02800   25.06700  
H    23.26400   24.23100   23.89000  
H    22.36500   24.75800   25.30800  
O    19.91800   23.29600   24.85200  
C    28.69500   27.19600   33.76900  
H    28.11700   26.72900   34.57000  
H    29.56400   27.72700   34.16700  
H    28.10300   27.91200   33.19400  
S    29.20400   25.84400   32.68300  
C    29.75400   27.08700   31.49200  
H    29.79300   26.59600   30.51600  
H    29.04300   27.91300   31.41600  
H    30.76800   27.44400   31.69100  
O    27.89300   25.46600   32.06600  
C    22.77700   15.96900   35.57500  
H    22.39600   16.97700   35.75800  
H    22.10300   15.10900   35.58000  
H    23.58800   15.81500   36.29100  
S    23.47200   15.96400   33.90700  
C    24.40700   14.42300   34.02700  
H    25.17800   14.43000   33.25300  
H    24.85500   14.26300   35.01100  
H    23.76700   13.54900   33.88100  
O    24.45600   17.09100   33.85500  
C    16.79300   17.60100   22.63700  
H    17.16700   18.03800   21.70800  
H    15.77500   17.20900   22.57800  
H    16.71500   18.33900   23.43900  
S    17.92100   16.32700   23.24400  
C    16.78500   15.51200   24.38900  
H    15.74500   15.58500   24.06300  
H    17.17000   14.50000   24.53300  
H    16.88600   15.96500   25.37900  
O    18.92300   16.99300   24.13400  
C    21.89200   13.43200   21.51100  
H    21.24200   12.56700   21.35200  
H    21.47900   14.22000   22.14600  
H    22.01400   13.93500   20.54800  
S    23.52800   12.88500   22.04800  
C    22.99600   12.34100   23.68700  
H    22.58100   11.33300   23.60900  
H    23.87100   12.26800   24.33700  
H    22.24700   13.05300   24.04200  
O    24.34600   14.13500   22.15200  
C    28.31900   16.72200   28.06400  
H    27.32200   16.96400   27.68800  
H    28.96200   16.65100   27.18300  
H    28.25300   15.76900   28.59600  
S    28.84700   18.00500   29.22200  
C    30.30500   17.05700   29.71200  
H    30.29200   16.01200   29.39200  
H    31.24800   17.48300   29.36100  
H    30.32200   17.12300   30.80300  
O    27.94500   17.74300   30.38800  
C    24.48900   21.49300   21.98200  
H    25.22500   20.72900   21.72000  
H    24.28600   21.54500   23.05500  
H    23.60800   21.34600   21.35300  
S    25.14600   23.05200   21.34600  
C    26.41800   23.42100   22.57600  
H    27.43300   23.26100   22.20300  
H    26.18000   24.42700   22.93000  
H    26.29000   22.69600   23.38400  
O    24.02200   24.02100   21.54200  
C    28.51200   25.31400   24.83400  
H    27.74800   25.03300   25.56400  
H    28.58400   26.40100   24.92800  
H    28.30000   24.93800   23.83000  
S    30.04100   24.62000   25.50300  
C    29.95900   25.34500   27.15600  
H    31.00200   25.27200   27.47400  
H    29.55800   26.35600   27.04400  
H    29.18100   24.80100   27.69700  
O    31.09800   25.46200   24.86000  
C    26.91200   11.66500   31.68800  
H    26.80500   11.98900   32.72700  
H    26.26400   10.80500   31.50300  
H    27.96000   11.41800   31.50000  
S    26.46900   12.90700   30.45200  
C    27.43500   14.17200   31.30800  
H    28.51800   14.18000   31.16300  
H    27.11000   15.08700   30.80600  
H    27.12400   14.36400   32.33800  
O    25.09900   13.24900   30.94800  
C    16.77800   21.34900   24.98800  
H    17.32700   21.69800   24.11000  
H    16.39500   20.33000   24.88500  
H    15.97900   22.06300   25.20400  
S    17.89700   21.39200   26.40700  
C    18.91300   19.97200   25.94200  
H    18.27300   19.24100   25.44100  
H    19.73900   20.24600   25.28100  
H    19.35600   19.55700   26.85100  
O    17.04500   20.87700   27.52500  
C    19.94800   19.43500   31.63500  
H    19.64000   20.25200   32.29200  
H    20.93500   19.62900   31.20900  
H    19.28000   19.42200   30.77000  
S    19.67900   17.89100   32.53600  
C    19.83000   16.96500   30.99100  
H    20.03900   15.89600   31.07000  
H    18.90100   17.16200   30.44900  
H    20.73300   17.38600   30.54200  
O    18.21600   17.94100   32.85200  
C    25.52400   19.45000   31.04400  
H    26.04600   19.29800   30.09600  
H    25.36100   20.53000   31.09300  
H    26.15600   19.04900   31.84000  
S    23.93700   18.59800   31.18900  
C    24.42100   17.10600   30.29200  
H    23.51800   16.53100   30.07500  
H    24.85800   17.36000   29.32300  
H    25.10600   16.48600   30.87700  
O    23.14600   19.21400   30.07700  
C    19.05800   16.56200   27.38200  
H    19.01900   17.34100   28.14900  
H    19.48300   16.95600   26.45500  
H    18.12600   16.03800   27.15600  
S    20.27500   15.30700   27.84000  
C    19.80300   14.32300   26.39900  
H    18.73100   14.11200   26.39400  
H    19.90000   14.88500   25.46700  
H    20.30500   13.35200   26.41500  
O    19.72800   14.56900   29.02200  
C    31.06400   17.79400   23.69300  
H    30.59500   16.99600   24.27500  
H    30.58300   18.73700   23.96700  
H    30.97900   17.54800   22.63200  
S    32.85000   17.84600   23.96400  
C    33.31000   19.27300   22.95600  
H    34.31800   19.63200   23.18000  
H    33.37000   18.92400   21.92200  
H    32.60700   20.09600   23.10900  
O    33.29800   16.63400   23.20800  
C    21.96800   25.75800   33.31200  
H    21.17500   26.41500   33.67900  
H    21.71700   25.22300   32.39200  
H    22.39800   25.06100   34.03500  
S    23.35700   26.82400   32.86500  
C    24.46900   25.48100   32.38900  
H    25.45900   25.88800   32.16900  
H    24.55300   24.82600   33.26000  
H    24.00700   24.97900   31.53400  
O    23.96500   27.34600   34.12900  
C    27.88400   20.13900   20.42500  
H    27.16100   19.49700   19.91400  
H    27.42100   21.10800   20.63100  
H    28.73500   20.35400   19.77500  
S    28.40600   19.34600   21.96200  
C    28.56800   17.73500   21.16000  
H    27.60700   17.41500   20.74900  
H    29.36100   17.78800   20.41000  
H    28.73200   16.99300   21.94500  
O    27.11000   19.10800   22.67200  
C    24.31200   27.12500   27.25500  
H    23.44500   26.48300   27.43000  
H    24.41000   27.97800   27.93200  
H    24.30700   27.41100   26.20000  
S    25.78500   26.09600   27.44700  
C    25.40000   25.86600   29.19700  
H    24.63300   25.09200   29.28600  
H    26.19700   25.47300   29.83400  
H    25.02700   26.76600   29.69300  
O    26.92900   27.06100   27.43800  
C    20.46900   22.47900   29.63200  
H    20.13000   23.09000   30.47300  
H    19.86700   22.78300   28.77200  
H    20.24000   21.45600   29.94200  
S    22.20300   22.66800   29.16100  
C    22.84700   22.55700   30.84600  
H    22.36100   23.32200   31.45700  
H    22.45200   21.60400   31.21000  
H    23.93600   22.49200   30.90700  
O    22.43400   24.12600   28.91300  
C    29.78500   22.52900   31.86500  
H    30.64100   23.20800   31.82200  
H    29.00800   22.92600   32.52300  
H    30.09700   21.51300   32.12100  
S    29.09600   22.56400   30.19500  
C    27.98100   21.20600   30.62100  
H    27.49200   21.42000   31.57500  
H    27.26500   21.08700   29.80300  
H    28.54400   20.27700   30.73900  
O    30.10300   21.83300   29.36300  
C    23.42800   16.08800   24.99100  
H    24.08000   15.54100   24.30700  
H    22.42700   15.65400   25.06100  
H    23.45900   17.16700   24.82100  
S    24.10800   15.92000   26.65700  
C    23.82300   14.14400   26.82800  
H    24.74000   13.62000   27.10800  
H    23.16800   14.07400   27.70000  
H    23.35300   13.79000   25.90700  
O    23.02300   16.51200   27.50200  
C    31.21900   24.68700   20.25400  
H    32.11500   24.45700   20.83700  
H    30.99400   24.09100   19.36600  
H    31.24900   25.75200   20.01000  
S    29.88700   24.61900   21.47300  
C    30.16400   22.86200   21.79200  
H    31.24800   22.73100   21.84400  
H    29.70300   22.52400   22.72400  
H    29.81800   22.30600   20.91700  
O    28.75800   24.58800   20.49100  
$end

$rem
JOBTYPE  SP
METHOD  B3LYP
BASIS  6-31+G(D)
SYMMETRY  FALSE
SYM_IGNORE  TRUE
MEM_TOTAL  16000
MEM_STATIC  8000
MAX_SUB_FILE_NUM  16000
BASIS_LIN_DEP_THRESH  6
THRESH  14
SCF_CONVERGENCE  8
GEN_SCFMAN  TRUE
SCF_GUESS  FRAGMO
FD_MAT_VEC_PROD  FALSE
XC_GRID  000075000302
NL_GRID  1
MAX_SCF_CYCLES  200
FRGM_METHOD  STOLL
SCFMI_MODE  1
$end

$development
almo_efield  1
$end

$rem_frgm
SCF_CONVERGENCE  4
$end

--------------------------------------------------------------
 ----------------------------------------------------------------
             Standard Nuclear Orientation (Angstroms)
    I     Atom           X                Y                Z
 ----------------------------------------------------------------
    1      C      25.9380000000    19.3820000000    26.4180000000
    2      C      24.8800000000    20.4510000000    26.7370000000
    3      C      25.3690000000    21.5780000000    27.6620000000
    4      C      26.6490000000    22.2560000000    27.1470000000
    5      C      27.7100000000    21.2390000000    26.6960000000
    6      C      27.1860000000    20.0710000000    25.8430000000
    7      H      24.5750000000    22.3200000000    27.8100000000
    8      H      24.5610000000    20.9190000000    25.7980000000
    9      H      26.2070000000    18.9250000000    27.3790000000
   10      H      25.5790000000    18.5620000000    25.7830000000
   11      H      26.4270000000    22.7980000000    26.2200000000
   12      H      27.0530000000    22.9370000000    27.9070000000
   13      H      28.6160000000    21.6890000000    26.2730000000
   14      H      28.0180000000    20.8020000000    27.6540000000
   15      H      26.9950000000    20.4290000000    24.8240000000
   16      H      27.9700000000    19.3160000000    25.7140000000
   17      H      25.4970000000    21.0730000000    28.6270000000
   18      N      23.6800000000    19.8180000000    27.2810000000
   19      H      23.7550000000    19.2730000000    28.1320000000
   20      C      22.4630000000    19.6180000000    26.6640000000
   21      H      21.7990000000    18.8360000000    27.0730000000
   22      O      22.1430000000    20.2090000000    25.6480000000
   23      C      21.8170000000    18.8770000000    22.6670000000
   24      H      22.3630000000    18.8120000000    23.6120000000
   25      H      22.0490000000    19.7330000000    22.0280000000
   26      H      20.7520000000    18.8110000000    22.9010000000
   27      S      22.0710000000    17.4040000000    21.6520000000
   28      C      23.8640000000    17.6330000000    21.6700000000
   29      H      24.1870000000    17.2910000000    20.6830000000
   30      H      24.2020000000    18.6590000000    21.8360000000
   31      H      24.2450000000    16.9700000000    22.4500000000
   32      O      21.6990000000    17.6910000000    20.2300000000
   33      C      32.8560000000    23.7530000000    30.0410000000
   34      H      33.2380000000    22.7340000000    30.1360000000
   35      H      32.6580000000    24.1190000000    31.0520000000
   36      H      31.9950000000    23.8070000000    29.3700000000
   37      S      34.0200000000    24.8810000000    29.2410000000
   38      C      34.3550000000    25.8030000000    30.7580000000
   39      H      35.0760000000    26.5410000000    30.3960000000
   40      H      33.4490000000    26.3420000000    31.0460000000
   41      H      34.8370000000    25.2800000000    31.5880000000
   42      O      33.3580000000    25.8250000000    28.2860000000
   43      C      34.0760000000    20.5790000000    28.3890000000
   44      H      33.6810000000    20.8370000000    29.3750000000
   45      H      34.1410000000    19.4990000000    28.2350000000
   46      H      35.0590000000    21.0280000000    28.2260000000
   47      S      33.0350000000    21.3200000000    27.1100000000
   48      C      31.7640000000    20.0730000000    27.4170000000
   49      H      32.0410000000    19.1480000000    26.9040000000
   50      H      31.5710000000    19.9020000000    28.4800000000
   51      H      30.8970000000    20.5100000000    26.9160000000
   52      O      33.6630000000    21.0590000000    25.7770000000
   53      C      21.4540000000    21.9270000000    35.9040000000
   54      H      20.7840000000    21.1330000000    36.2440000000
   55      H      22.3710000000    21.8790000000    36.4980000000
   56      H      20.9080000000    22.8730000000    35.9490000000
   57      S      21.8230000000    21.5810000000    34.1700000000
   58      C      22.1290000000    19.8680000000    34.6560000000
   59      H      22.4120000000    19.3330000000    33.7460000000
   60      H      22.7820000000    19.8660000000    35.5330000000
   61      H      21.1680000000    19.4040000000    34.8900000000
   62      O      23.2040000000    22.1190000000    33.9590000000
   63      C      28.4150000000    13.3480000000    25.7160000000
   64      H      29.1720000000    12.9550000000    25.0320000000
   65      H      29.1080000000    13.6820000000    26.4920000000
   66      H      27.5840000000    12.6820000000    25.9630000000
   67      S      27.7060000000    14.7140000000    24.7690000000
   68      C      27.1430000000    13.8990000000    23.2570000000
   69      H      26.2650000000    13.2570000000    23.3660000000
   70      H      26.9780000000    14.6890000000    22.5200000000
   71      H      27.9350000000    13.2920000000    22.8100000000
   72      O      29.0020000000    15.3440000000    24.3640000000
   73      C      25.7340000000    20.3290000000    34.5370000000
   74      H      25.5150000000    20.3390000000    33.4670000000
   75      H      25.9350000000    19.3600000000    35.0010000000
   76      H      24.9430000000    20.7880000000    35.1360000000
   77      S      27.1570000000    21.4070000000    34.8160000000
   78      C      26.5410000000    22.8640000000    33.9420000000
   79      H      27.3010000000    23.6110000000    34.1860000000
   80      H      26.5840000000    22.6410000000    32.8730000000
   81      H      25.5740000000    23.1790000000    34.3410000000
   82      O      28.2010000000    20.8100000000    33.9240000000
   83      C      21.0560000000    22.3230000000    22.6940000000
   84      H      20.1240000000    21.9570000000    22.2560000000
   85      H      21.7090000000    22.6600000000    21.8840000000
   86      H      21.5460000000    21.5390000000    23.2770000000
   87      S      20.8270000000    23.7650000000    23.7590000000
   88      C      22.4370000000    23.9690000000    24.5540000000
   89      H      22.6520000000    23.0280000000    25.0670000000
   90      H      23.2640000000    24.2310000000    23.8900000000
   91      H      22.3650000000    24.7580000000    25.3080000000
   92      O      19.9180000000    23.2960000000    24.8520000000
   93      C      28.6950000000    27.1960000000    33.7690000000
   94      H      28.1170000000    26.7290000000    34.5700000000
   95      H      29.5640000000    27.7270000000    34.1670000000
   96      H      28.1030000000    27.9120000000    33.1940000000
   97      S      29.2040000000    25.8440000000    32.6830000000
   98      C      29.7540000000    27.0870000000    31.4920000000
   99      H      29.7930000000    26.5960000000    30.5160000000
  100      H      29.0430000000    27.9130000000    31.4160000000
  101      H      30.7680000000    27.4440000000    31.6910000000
  102      O      27.8930000000    25.4660000000    32.0660000000
  103      C      22.7770000000    15.9690000000    35.5750000000
  104      H      22.3960000000    16.9770000000    35.7580000000
  105      H      22.1030000000    15.1090000000    35.5800000000
  106      H      23.5880000000    15.8150000000    36.2910000000
  107      S      23.4720000000    15.9640000000    33.9070000000
  108      C      24.4070000000    14.4230000000    34.0270000000
  109      H      25.1780000000    14.4300000000    33.2530000000
  110      H      24.8550000000    14.2630000000    35.0110000000
  111      H      23.7670000000    13.5490000000    33.8810000000
  112      O      24.4560000000    17.0910000000    33.8550000000
  113      C      16.7930000000    17.6010000000    22.6370000000
  114      H      17.1670000000    18.0380000000    21.7080000000
  115      H      15.7750000000    17.2090000000    22.5780000000
  116      H      16.7150000000    18.3390000000    23.4390000000
  117      S      17.9210000000    16.3270000000    23.2440000000
  118      C      16.7850000000    15.5120000000    24.3890000000
  119      H      15.7450000000    15.5850000000    24.0630000000
  120      H      17.1700000000    14.5000000000    24.5330000000
  121      H      16.8860000000    15.9650000000    25.3790000000
  122      O      18.9230000000    16.9930000000    24.1340000000
  123      C      21.8920000000    13.4320000000    21.5110000000
  124      H      21.2420000000    12.5670000000    21.3520000000
  125      H      21.4790000000    14.2200000000    22.1460000000
  126      H      22.0140000000    13.9350000000    20.5480000000
  127      S      23.5280000000    12.8850000000    22.0480000000
  128      C      22.9960000000    12.3410000000    23.6870000000
  129      H      22.5810000000    11.3330000000    23.6090000000
  130      H      23.8710000000    12.2680000000    24.3370000000
  131      H      22.2470000000    13.0530000000    24.0420000000
  132      O      24.3460000000    14.1350000000    22.1520000000
  133      C      28.3190000000    16.7220000000    28.0640000000
  134      H      27.3220000000    16.9640000000    27.6880000000
  135      H      28.9620000000    16.6510000000    27.1830000000
  136      H      28.2530000000    15.7690000000    28.5960000000
  137      S      28.8470000000    18.0050000000    29.2220000000
  138      C      30.3050000000    17.0570000000    29.7120000000
  139      H      30.2920000000    16.0120000000    29.3920000000
  140      H      31.2480000000    17.4830000000    29.3610000000
  141      H      30.3220000000    17.1230000000    30.8030000000
  142      O      27.9450000000    17.7430000000    30.3880000000
  143      C      24.4890000000    21.4930000000    21.9820000000
  144      H      25.2250000000    20.7290000000    21.7200000000
  145      H      24.2860000000    21.5450000000    23.0550000000
  146      H      23.6080000000    21.3460000000    21.3530000000
  147      S      25.1460000000    23.0520000000    21.3460000000
  148      C      26.4180000000    23.4210000000    22.5760000000
  149      H      27.4330000000    23.2610000000    22.2030000000
  150      H      26.1800000000    24.4270000000    22.9300000000
  151      H      26.2900000000    22.6960000000    23.3840000000
  152      O      24.0220000000    24.0210000000    21.5420000000
  153      C      28.5120000000    25.3140000000    24.8340000000
  154      H      27.7480000000    25.0330000000    25.5640000000
  155      H      28.5840000000    26.4010000000    24.9280000000
  156      H      28.3000000000    24.9380000000    23.8300000000
  157      S      30.0410000000    24.6200000000    25.5030000000
  158      C      29.9590000000    25.3450000000    27.1560000000
  159      H      31.0020000000    25.2720000000    27.4740000000
  160      H      29.5580000000    26.3560000000    27.0440000000
  161      H      29.1810000000    24.8010000000    27.6970000000
  162      O      31.0980000000    25.4620000000    24.8600000000
  163      C      26.9120000000    11.6650000000    31.6880000000
  164      H      26.8050000000    11.9890000000    32.7270000000
  165      H      26.2640000000    10.8050000000    31.5030000000
  166      H      27.9600000000    11.4180000000    31.5000000000
  167      S      26.4690000000    12.9070000000    30.4520000000
  168      C      27.4350000000    14.1720000000    31.3080000000
  169      H      28.5180000000    14.1800000000    31.1630000000
  170      H      27.1100000000    15.0870000000    30.8060000000
  171      H      27.1240000000    14.3640000000    32.3380000000
  172      O      25.0990000000    13.2490000000    30.9480000000
  173      C      16.7780000000    21.3490000000    24.9880000000
  174      H      17.3270000000    21.6980000000    24.1100000000
  175      H      16.3950000000    20.3300000000    24.8850000000
  176      H      15.9790000000    22.0630000000    25.2040000000
  177      S      17.8970000000    21.3920000000    26.4070000000
  178      C      18.9130000000    19.9720000000    25.9420000000
  179      H      18.2730000000    19.2410000000    25.4410000000
  180      H      19.7390000000    20.2460000000    25.2810000000
  181      H      19.3560000000    19.5570000000    26.8510000000
  182      O      17.0450000000    20.8770000000    27.5250000000
  183      C      19.9480000000    19.4350000000    31.6350000000
  184      H      19.6400000000    20.2520000000    32.2920000000
  185      H      20.9350000000    19.6290000000    31.2090000000
  186      H      19.2800000000    19.4220000000    30.7700000000
  187      S      19.6790000000    17.8910000000    32.5360000000
  188      C      19.8300000000    16.9650000000    30.9910000000
  189      H      20.0390000000    15.8960000000    31.0700000000
  190      H      18.9010000000    17.1620000000    30.4490000000
  191      H      20.7330000000    17.3860000000    30.5420000000
  192      O      18.2160000000    17.9410000000    32.8520000000
  193      C      25.5240000000    19.4500000000    31.0440000000
  194      H      26.0460000000    19.2980000000    30.0960000000
  195      H      25.3610000000    20.5300000000    31.0930000000
  196      H      26.1560000000    19.0490000000    31.8400000000
  197      S      23.9370000000    18.5980000000    31.1890000000
  198      C      24.4210000000    17.1060000000    30.2920000000
  199      H      23.5180000000    16.5310000000    30.0750000000
  200      H      24.8580000000    17.3600000000    29.3230000000
  201      H      25.1060000000    16.4860000000    30.8770000000
  202      O      23.1460000000    19.2140000000    30.0770000000
  203      C      19.0580000000    16.5620000000    27.3820000000
  204      H      19.0190000000    17.3410000000    28.1490000000
  205      H      19.4830000000    16.9560000000    26.4550000000
  206      H      18.1260000000    16.0380000000    27.1560000000
  207      S      20.2750000000    15.3070000000    27.8400000000
  208      C      19.8030000000    14.3230000000    26.3990000000
  209      H      18.7310000000    14.1120000000    26.3940000000
  210      H      19.9000000000    14.8850000000    25.4670000000
  211      H      20.3050000000    13.3520000000    26.4150000000
  212      O      19.7280000000    14.5690000000    29.0220000000
  213      C      31.0640000000    17.7940000000    23.6930000000
  214      H      30.5950000000    16.9960000000    24.2750000000
  215      H      30.5830000000    18.7370000000    23.9670000000
  216      H      30.9790000000    17.5480000000    22.6320000000
  217      S      32.8500000000    17.8460000000    23.9640000000
  218      C      33.3100000000    19.2730000000    22.9560000000
  219      H      34.3180000000    19.6320000000    23.1800000000
  220      H      33.3700000000    18.9240000000    21.9220000000
  221      H      32.6070000000    20.0960000000    23.1090000000
  222      O      33.2980000000    16.6340000000    23.2080000000
  223      C      21.9680000000    25.7580000000    33.3120000000
  224      H      21.1750000000    26.4150000000    33.6790000000
  225      H      21.7170000000    25.2230000000    32.3920000000
  226      H      22.3980000000    25.0610000000    34.0350000000
  227      S      23.3570000000    26.8240000000    32.8650000000
  228      C      24.4690000000    25.4810000000    32.3890000000
  229      H      25.4590000000    25.8880000000    32.1690000000
  230      H      24.5530000000    24.8260000000    33.2600000000
  231      H      24.0070000000    24.9790000000    31.5340000000
  232      O      23.9650000000    27.3460000000    34.1290000000
  233      C      27.8840000000    20.1390000000    20.4250000000
  234      H      27.1610000000    19.4970000000    19.9140000000
  235      H      27.4210000000    21.1080000000    20.6310000000
  236      H      28.7350000000    20.3540000000    19.7750000000
  237      S      28.4060000000    19.3460000000    21.9620000000
  238      C      28.5680000000    17.7350000000    21.1600000000
  239      H      27.6070000000    17.4150000000    20.7490000000
  240      H      29.3610000000    17.7880000000    20.4100000000
  241      H      28.7320000000    16.9930000000    21.9450000000
  242      O      27.1100000000    19.1080000000    22.6720000000
  243      C      24.3120000000    27.1250000000    27.2550000000
  244      H      23.4450000000    26.4830000000    27.4300000000
  245      H      24.4100000000    27.9780000000    27.9320000000
  246      H      24.3070000000    27.4110000000    26.2000000000
  247      S      25.7850000000    26.0960000000    27.4470000000
  248      C      25.4000000000    25.8660000000    29.1970000000
  249      H      24.6330000000    25.0920000000    29.2860000000
  250      H      26.1970000000    25.4730000000    29.8340000000
  251      H      25.0270000000    26.7660000000    29.6930000000
  252      O      26.9290000000    27.0610000000    27.4380000000
  253      C      20.4690000000    22.4790000000    29.6320000000
  254      H      20.1300000000    23.0900000000    30.4730000000
  255      H      19.8670000000    22.7830000000    28.7720000000
  256      H      20.2400000000    21.4560000000    29.9420000000
  257      S      22.2030000000    22.6680000000    29.1610000000
  258      C      22.8470000000    22.5570000000    30.8460000000
  259      H      22.3610000000    23.3220000000    31.4570000000
  260      H      22.4520000000    21.6040000000    31.2100000000
  261      H      23.9360000000    22.4920000000    30.9070000000
  262      O      22.4340000000    24.1260000000    28.9130000000
  263      C      29.7850000000    22.5290000000    31.8650000000
  264      H      30.6410000000    23.2080000000    31.8220000000
  265      H      29.0080000000    22.9260000000    32.5230000000
  266      H      30.0970000000    21.5130000000    32.1210000000
  267      S      29.0960000000    22.5640000000    30.1950000000
  268      C      27.9810000000    21.2060000000    30.6210000000
  269      H      27.4920000000    21.4200000000    31.5750000000
  270      H      27.2650000000    21.0870000000    29.8030000000
  271      H      28.5440000000    20.2770000000    30.7390000000
  272      O      30.1030000000    21.8330000000    29.3630000000
  273      C      23.4280000000    16.0880000000    24.9910000000
  274      H      24.0800000000    15.5410000000    24.3070000000
  275      H      22.4270000000    15.6540000000    25.0610000000
  276      H      23.4590000000    17.1670000000    24.8210000000
  277      S      24.1080000000    15.9200000000    26.6570000000
  278      C      23.8230000000    14.1440000000    26.8280000000
  279      H      24.7400000000    13.6200000000    27.1080000000
  280      H      23.1680000000    14.0740000000    27.7000000000
  281      H      23.3530000000    13.7900000000    25.9070000000
  282      O      23.0230000000    16.5120000000    27.5020000000
  283      C      31.2190000000    24.6870000000    20.2540000000
  284      H      32.1150000000    24.4570000000    20.8370000000
  285      H      30.9940000000    24.0910000000    19.3660000000
  286      H      31.2490000000    25.7520000000    20.0100000000
  287      S      29.8870000000    24.6190000000    21.4730000000
  288      C      30.1640000000    22.8620000000    21.7920000000
  289      H      31.2480000000    22.7310000000    21.8440000000
  290      H      29.7030000000    22.5240000000    22.7240000000
  291      H      29.8180000000    22.3060000000    20.9170000000
  292      O      28.7580000000    24.5880000000    20.4910000000
 ----------------------------------------------------------------
 Nuclear Repulsion Energy =       48142.51958836 hartrees
 There are      602 alpha and      602 beta electrons
 Requested basis set is 6-31+G(d)
 There are 962 shells and 2681 basis functions

 Total QAlloc Memory Limit  16000 MB
 Mega-Array Size      7821 MB
 MEM_STATIC part      8000 MB
 A cutoff of  1.0D-14 yielded 176438 shell pairs
 There are   1531207 function pairs
 Smallest overlap matrix eigenvalue = 5.58E-07
 Linear dependence detected in AO basis
 Tighter screening thresholds may be required for diffuse basis sets
 Use S2THRESH > 14 and THRESH = 14 in case of SCF convergence issues
 Number of orthogonalized atomic orbitals = 2679
 Maximum deviation from orthogonality = 1.144E-10

 Scale SEOQF with 1.000000e-03/1.000000e-03/1.000000e-03

 Standard Electronic Orientation quadrupole field applied
 Nucleus-field energy     =    -0.0000003575 hartrees
Attempting to make child job directory: /local/scratch/users/ymao/r7.00_frame_0046_almo_B3LYP_dp.in20210311133746//Frg1/
Attempting to make child job directory: /local/scratch/users/ymao/r7.00_frame_0046_almo_B3LYP_dp.in20210311133746//Frg2/
Creating input file /local/scratch/users/ymao/r7.00_frame_0046_almo_B3LYP_dp.in20210311133746/Frg1.input
using default PutDataFrgm: nothing
calling putenv with: QCSCRATCH=/local/scratch/users/ymao/r7.00_frame_0046_almo_B3LYP_dp.in20210311133746/ 
Spawning Job For Fragment 0
Done Job For Fragment 0
calling putenv with: QCSCRATCH=/local/scratch/users/ymao 
calling putenv with: QCTHREADS=8 
Creating input file /local/scratch/users/ymao/r7.00_frame_0046_almo_B3LYP_dp.in20210311133746/Frg2.input
using default PutDataFrgm: nothing
calling putenv with: QCSCRATCH=/local/scratch/users/ymao/r7.00_frame_0046_almo_B3LYP_dp.in20210311133746/ 
Spawning Job For Fragment 1
Done Job For Fragment 1
calling putenv with: QCSCRATCH=/local/scratch/users/ymao 
calling putenv with: QCTHREADS=8 
 Time for running child jobs:  CPU 0.86 s  wall 21465.01 s

 -----------------------------------------------------------------------
  General SCF calculation program by
  Eric Jon Sundstrom, Paul Horn, Yuezhi Mao, Dmitri Zuev, Alec White,
  David Stuck, Shaama M.S., Shane Yost, Joonho Lee, David Small,
  Daniel Levine, Susi Lehtola, Hugh Burton, Evgeny Epifanovsky,
  Bang C. Huynh
 -----------------------------------------------------------------------
Performing Restricted Closed Shell SCFMI
Doing General SCFMI
 Exchange:     0.2000 Hartree-Fock + 0.0800 Slater + 0.7200 B88
 Correlation:  0.1900 VWN1RPA + 0.8100 LYP
 Using Euler-Maclaurin-Lebedev (75,302) quadrature formula
performing fock build before subrot guess so that all methods have access
Printing subrot_rss_gen Method Specification:
Occupied Subspace Method is 0
Virtual Subspace Method is 0
Energy prior to optimization (guess energy) = -15340.696705250819
Begin Timing: Total SCF Calculation
begin iterations for algorithm: DIIS         
the SCF tolerance is set to 1.00e-08
    1  -15340.6967052508      4.59e-05     00000 
    2  -15340.6947828264      7.27e-05     00000 
    3  -15340.7078929038      1.65e-05     00000 
    4  -15340.7085563157      6.45e-06     00000 
    5  -15340.7086723804      3.65e-06     00000 
    6  -15340.7087052070      2.24e-06     00000 
    7  -15340.7087178314      1.34e-06     00000 
    8  -15340.7087230573      6.90e-07     00000 
    9  -15340.7087239862      4.79e-07     00000 
   10  -15340.7087243643      3.29e-07     00000 
   11  -15340.7087245988      1.81e-07     00000 
   12  -15340.7087246852      1.05e-07     00000 
   13  -15340.7087247133      6.64e-08     00000 
   14  -15340.7087247224      4.55e-08     00000 
   15  -15340.7087247270      2.62e-08     00000 
   16  -15340.7087247287      1.35e-08     00000 
   17  -15340.7087247291      8.88e-09     00000 Convergence criterion met
write pseudocanon occs and virts to disk
write pseudocanon orbital energies to disk
Timing for Total SCF: 54915.00s (wall), 435310.02s (cpu)
SCFMI Energy  -15340.7087247291
<S^2>            0.00000
 Total energy in the final basis set =   -15340.7087247291
    ==================================================
        The end of Object-Oriented SCFman: SCFMI      
    ==================================================
 
 --------------------------------------------------------------
 
                    Orbital Energies (a.u.)
 --------------------------------------------------------------
 
 Alpha MOs
 -- Occupied --
-89.0336 -89.0314 -89.0242 -89.0238 -89.0218 -89.0194 -89.0152 -89.0149
-89.0138 -89.0130 -88.9986 -88.9966 -88.9939 -88.9919 -88.9916 -88.9908
-88.9907 -88.9898 -88.9874 -88.9869 -88.9859 -88.9852 -88.9805 -88.9801
-88.9700 -88.9693 -88.9629 -19.1519 -19.1410 -19.1382 -19.1350 -19.1343
-19.1320 -19.1316 -19.1272 -19.1238 -19.1230 -19.1211 -19.1158 -19.1154
-19.1125 -19.1108 -19.1099 -19.1094 -19.1075 -19.1046 -19.1041 -19.1016
-19.0992 -19.0987 -19.0985 -19.0946 -19.0843 -19.0795 -19.0789 -14.3437
-10.2769 -10.2583 -10.2448 -10.2432 -10.2423 -10.2406 -10.2384 -10.2373
-10.2366 -10.2365 -10.2361 -10.2353 -10.2339 -10.2335 -10.2329 -10.2298
-10.2285 -10.2277 -10.2275 -10.2238 -10.2232 -10.2203 -10.2203 -10.2196
-10.2171 -10.2147 -10.2144 -10.2139 -10.2107 -10.2101 -10.2093 -10.2085
-10.2081 -10.2072 -10.2072 -10.2065 -10.2058 -10.2058 -10.2053 -10.2044
-10.2022 -10.2016 -10.2008 -10.2003 -10.1997 -10.1996 -10.1981 -10.1964
-10.1954 -10.1941 -10.1940 -10.1929 -10.1922 -10.1899 -10.1896 -10.1878
-10.1858 -10.1844 -10.1832 -10.1814 -10.1797  -8.0795  -8.0776  -8.0698
 -8.0697  -8.0681  -8.0653  -8.0612  -8.0611  -8.0599  -8.0587  -8.0439
 -8.0426  -8.0403  -8.0387  -8.0381  -8.0366  -8.0363  -8.0353  -8.0330
 -8.0330  -8.0322  -8.0307  -8.0269  -8.0262  -8.0164  -8.0152  -8.0090
 -6.0435  -6.0425  -6.0420  -6.0407  -6.0374  -6.0348  -6.0340  -6.0340
 -6.0329  -6.0328  -6.0324  -6.0313  -6.0296  -6.0281  -6.0274  -6.0271
 -6.0254  -6.0254  -6.0252  -6.0241  -6.0241  -6.0239  -6.0232  -6.0231
 -6.0231  -6.0219  -6.0192  -6.0188  -6.0174  -6.0158  -6.0084  -6.0069
 -6.0068  -6.0054  -6.0044  -6.0035  -6.0028  -6.0025  -6.0016  -6.0014
 -6.0012  -6.0010  -6.0006  -6.0003  -5.9996  -5.9996  -5.9994  -5.9983
 -5.9975  -5.9974  -5.9974  -5.9965  -5.9962  -5.9961  -5.9960  -5.9955
 -5.9955  -5.9951  -5.9939  -5.9937  -5.9936  -5.9931  -5.9913  -5.9907
 -5.9906  -5.9903  -5.9900  -5.9895  -5.9892  -5.9885  -5.9843  -5.9835
 -5.9806  -5.9797  -5.9795  -5.9786  -5.9739  -5.9733  -5.9722  -5.9721
 -5.9661  -1.0577  -1.0526  -1.0490  -1.0481  -1.0459  -1.0453  -1.0395
 -1.0387  -1.0384  -1.0376  -1.0320  -1.0257  -1.0243  -1.0217  -1.0196
 -1.0180  -1.0172  -1.0156  -1.0141  -1.0125  -1.0121  -1.0110  -1.0075
 -1.0059  -1.0032  -0.9925  -0.9917  -0.9884  -0.9128  -0.8387  -0.8270
 -0.8269  -0.8253  -0.8237  -0.8207  -0.8199  -0.8182  -0.8160  -0.8120
 -0.8111  -0.8076  -0.8050  -0.8020  -0.7988  -0.7961  -0.7947  -0.7945
 -0.7930  -0.7928  -0.7914  -0.7889  -0.7874  -0.7850  -0.7796  -0.7726
 -0.7691  -0.7672  -0.7616  -0.7544  -0.7528  -0.7523  -0.7513  -0.7489
 -0.7463  -0.7445  -0.7424  -0.7369  -0.7357  -0.7305  -0.7277  -0.7268
 -0.7255  -0.7227  -0.7216  -0.7209  -0.7188  -0.7151  -0.7141  -0.7140
 -0.7130  -0.7127  -0.7074  -0.7049  -0.7016  -0.7010  -0.6990  -0.6461
 -0.6446  -0.6401  -0.6365  -0.6364  -0.6335  -0.6328  -0.6282  -0.6276
 -0.6272  -0.6258  -0.6236  -0.6170  -0.6111  -0.6099  -0.6069  -0.6062
 -0.6050  -0.6043  -0.6029  -0.6008  -0.5993  -0.5964  -0.5963  -0.5944
 -0.5905  -0.5835  -0.5794  -0.5788  -0.5734  -0.5653  -0.5214  -0.5176
 -0.5101  -0.5097  -0.5065  -0.5042  -0.5038  -0.5015  -0.5007  -0.4971
 -0.4945  -0.4939  -0.4938  -0.4928  -0.4912  -0.4910  -0.4897  -0.4883
 -0.4873  -0.4863  -0.4859  -0.4854  -0.4848  -0.4843  -0.4831  -0.4829
 -0.4825  -0.4816  -0.4809  -0.4806  -0.4797  -0.4793  -0.4783  -0.4781
 -0.4764  -0.4761  -0.4757  -0.4737  -0.4721  -0.4721  -0.4708  -0.4704
 -0.4699  -0.4686  -0.4676  -0.4666  -0.4661  -0.4656  -0.4654  -0.4653
 -0.4646  -0.4645  -0.4633  -0.4631  -0.4624  -0.4617  -0.4616  -0.4608
 -0.4603  -0.4598  -0.4590  -0.4578  -0.4574  -0.4568  -0.4566  -0.4561
 -0.4559  -0.4557  -0.4547  -0.4544  -0.4533  -0.4528  -0.4519  -0.4503
 -0.4492  -0.4490  -0.4485  -0.4482  -0.4472  -0.4469  -0.4463  -0.4462
 -0.4450  -0.4447  -0.4442  -0.4439  -0.4423  -0.4421  -0.4413  -0.4409
 -0.4401  -0.4398  -0.4394  -0.4385  -0.4367  -0.4360  -0.4354  -0.4342
 -0.4340  -0.4326  -0.4322  -0.4306  -0.4304  -0.4298  -0.4290  -0.4284
 -0.4274  -0.4270  -0.4267  -0.4264  -0.4246  -0.4241  -0.4228  -0.4217
 -0.4212  -0.4202  -0.4180  -0.4176  -0.4170  -0.4163  -0.4157  -0.4154
 -0.4150  -0.4128  -0.4121  -0.4111  -0.4106  -0.4097  -0.4089  -0.4077
 -0.4073  -0.4069  -0.4058  -0.4056  -0.4027  -0.4025  -0.4019  -0.4011
 -0.4005  -0.3999  -0.3997  -0.3986  -0.3981  -0.3974  -0.3969  -0.3962
 -0.3960  -0.3952  -0.3947  -0.3937  -0.3923  -0.3918  -0.3915  -0.3907
 -0.3901  -0.3888  -0.3884  -0.3879  -0.3874  -0.3862  -0.3854  -0.3848
 -0.3839  -0.3831  -0.3829  -0.3817  -0.3808  -0.3803  -0.3796  -0.3783
 -0.3780  -0.3774  -0.3765  -0.3759  -0.3756  -0.3750  -0.3745  -0.3741
 -0.3733  -0.3699  -0.3674  -0.3668  -0.3632  -0.3616  -0.3614  -0.3588
 -0.3570  -0.3568  -0.3562  -0.3560  -0.3535  -0.3529  -0.3514  -0.3509
 -0.3471  -0.3465  -0.3403  -0.3395  -0.3332  -0.3331  -0.3273  -0.3266
 -0.3217  -0.3143  -0.3068  -0.3032  -0.2960  -0.2959  -0.2955  -0.2932
 -0.2921  -0.2886  -0.2836  -0.2836  -0.2825  -0.2744  -0.2741  -0.2736
 -0.2731  -0.2720  -0.2715  -0.2685  -0.2681  -0.2662  -0.2659  -0.2654
 -0.2629  -0.2627  -0.2624  -0.2618  -0.2608  -0.2588  -0.2587  -0.2574
 -0.2563  -0.2557  -0.2555  -0.2546  -0.2530  -0.2490  -0.2445  -0.2440
 -0.2413  -0.2412  -0.2375  -0.2364  -0.2344  -0.2337  -0.2331  -0.2308
 -0.2301  -0.2289  -0.2279  -0.2269  -0.2227  -0.2209  -0.2162  -0.2081
 -0.2045  -0.2008
 -- Virtual --
 -0.0449  -0.0384  -0.0361  -0.0307  -0.0285  -0.0253  -0.0242  -0.0221
 -0.0212  -0.0200  -0.0192  -0.0181  -0.0177  -0.0164  -0.0141  -0.0139
 -0.0129  -0.0119  -0.0107  -0.0100  -0.0077  -0.0068  -0.0048  -0.0042
 -0.0034  -0.0026  -0.0008  -0.0007   0.0006   0.0015   0.0018   0.0025
  0.0031   0.0033   0.0046   0.0059   0.0075   0.0079   0.0085   0.0093
  0.0098   0.0099   0.0111   0.0120   0.0125   0.0135   0.0142   0.0148
  0.0155   0.0161   0.0167   0.0176   0.0183   0.0186   0.0196   0.0202
  0.0207   0.0215   0.0216   0.0223   0.0233   0.0234   0.0240   0.0252
  0.0258   0.0264   0.0266   0.0275   0.0280   0.0287   0.0291   0.0295
  0.0305   0.0311   0.0320   0.0328   0.0335   0.0337   0.0347   0.0354
  0.0360   0.0367   0.0370   0.0378   0.0383   0.0389   0.0391   0.0396
  0.0404   0.0414   0.0419   0.0426   0.0433   0.0437   0.0439   0.0446
  0.0456   0.0459   0.0466   0.0469   0.0478   0.0482   0.0484   0.0493
  0.0501   0.0512   0.0513   0.0521   0.0525   0.0526   0.0533   0.0552
  0.0556   0.0563   0.0575   0.0578   0.0584   0.0596   0.0598   0.0604
  0.0606   0.0615   0.0619   0.0626   0.0629   0.0634   0.0640   0.0648
  0.0655   0.0658   0.0664   0.0676   0.0682   0.0689   0.0692   0.0698
  0.0706   0.0711   0.0715   0.0718   0.0725   0.0743   0.0746   0.0748
  0.0754   0.0763   0.0770   0.0783   0.0788   0.0795   0.0798   0.0805
  0.0811   0.0820   0.0825   0.0832   0.0835   0.0843   0.0847   0.0851
  0.0852   0.0863   0.0880   0.0888   0.0892   0.0896   0.0898   0.0915
  0.0918   0.0924   0.0932   0.0935   0.0942   0.0948   0.0953   0.0964
  0.0965   0.0973   0.0976   0.0987   0.0991   0.0997   0.1007   0.1013
  0.1016   0.1022   0.1024   0.1030   0.1037   0.1037   0.1049   0.1054
  0.1063   0.1071   0.1079   0.1084   0.1091   0.1100   0.1104   0.1112
  0.1118   0.1129   0.1130   0.1131   0.1139   0.1144   0.1155   0.1157
  0.1170   0.1173   0.1175   0.1185   0.1188   0.1195   0.1204   0.1208
  0.1213   0.1220   0.1225   0.1232   0.1241   0.1247   0.1250   0.1251
  0.1261   0.1268   0.1270   0.1286   0.1291   0.1296   0.1303   0.1303
  0.1310   0.1319   0.1324   0.1332   0.1338   0.1343   0.1344   0.1348
  0.1353   0.1360   0.1362   0.1367   0.1377   0.1390   0.1397   0.1404
  0.1417   0.1420   0.1425   0.1433   0.1436   0.1441   0.1442   0.1454
  0.1455   0.1460   0.1466   0.1471   0.1476   0.1480   0.1494   0.1504
  0.1516   0.1522   0.1526   0.1529   0.1539   0.1544   0.1557   0.1560
  0.1573   0.1577   0.1581   0.1585   0.1593   0.1599   0.1605   0.1609
  0.1618   0.1621   0.1626   0.1633   0.1640   0.1647   0.1650   0.1657
  0.1661   0.1670   0.1674   0.1676   0.1688   0.1692   0.1696   0.1697
  0.1702   0.1713   0.1720   0.1727   0.1734   0.1736   0.1744   0.1748
  0.1757   0.1759   0.1762   0.1771   0.1778   0.1783   0.1788   0.1793
  0.1796   0.1807   0.1813   0.1822   0.1830   0.1836   0.1842   0.1851
  0.1855   0.1863   0.1865   0.1870   0.1874   0.1877   0.1887   0.1889
  0.1897   0.1900   0.1908   0.1913   0.1919   0.1926   0.1941   0.1945
  0.1951   0.1955   0.1963   0.1967   0.1973   0.1977   0.1983   0.1990
  0.1994   0.2001   0.2001   0.2012   0.2016   0.2022   0.2035   0.2042
  0.2050   0.2054   0.2057   0.2064   0.2070   0.2075   0.2081   0.2086
  0.2089   0.2101   0.2104   0.2117   0.2121   0.2130   0.2139   0.2144
  0.2145   0.2153   0.2157   0.2162   0.2166   0.2180   0.2184   0.2186
  0.2197   0.2205   0.2210   0.2218   0.2219   0.2230   0.2232   0.2239
  0.2241   0.2252   0.2258   0.2263   0.2265   0.2273   0.2276   0.2293
  0.2296   0.2301   0.2307   0.2308   0.2322   0.2331   0.2336   0.2338
  0.2343   0.2354   0.2358   0.2362   0.2370   0.2373   0.2383   0.2391
  0.2398   0.2405   0.2411   0.2418   0.2427   0.2432   0.2442   0.2448
  0.2452   0.2457   0.2466   0.2475   0.2478   0.2483   0.2491   0.2502
  0.2512   0.2520   0.2522   0.2528   0.2531   0.2536   0.2547   0.2559
  0.2564   0.2573   0.2575   0.2579   0.2583   0.2601   0.2609   0.2622
  0.2631   0.2639   0.2644   0.2653   0.2657   0.2661   0.2666   0.2670
  0.2686   0.2687   0.2702   0.2708   0.2720   0.2723   0.2732   0.2740
  0.2746   0.2754   0.2756   0.2764   0.2772   0.2776   0.2780   0.2790
  0.2792   0.2803   0.2812   0.2823   0.2826   0.2837   0.2840   0.2841
  0.2851   0.2859   0.2862   0.2875   0.2888   0.2901   0.2904   0.2908
  0.2920   0.2928   0.2932   0.2933   0.2947   0.2963   0.2969   0.2976
  0.2979   0.2984   0.2990   0.3001   0.3011   0.3020   0.3025   0.3032
  0.3036   0.3044   0.3056   0.3060   0.3066   0.3075   0.3081   0.3092
  0.3103   0.3110   0.3116   0.3127   0.3136   0.3143   0.3145   0.3149
  0.3166   0.3172   0.3178   0.3180   0.3189   0.3204   0.3208   0.3215
  0.3218   0.3228   0.3235   0.3243   0.3248   0.3262   0.3265   0.3290
  0.3297   0.3307   0.3315   0.3322   0.3326   0.3330   0.3346   0.3351
  0.3360   0.3364   0.3374   0.3394   0.3406   0.3411   0.3418   0.3420
  0.3434   0.3436   0.3446   0.3454   0.3467   0.3474   0.3481   0.3483
  0.3493   0.3498   0.3509   0.3521   0.3539   0.3542   0.3551   0.3567
  0.3577   0.3579   0.3586   0.3589   0.3600   0.3615   0.3621   0.3627
  0.3637   0.3640   0.3651   0.3654   0.3660   0.3671   0.3679   0.3685
  0.3695   0.3703   0.3715   0.3722   0.3728   0.3735   0.3749   0.3757
  0.3761   0.3767   0.3772   0.3781   0.3786   0.3809   0.3826   0.3832
  0.3835   0.3844   0.3859   0.3862   0.3872   0.3877   0.3879   0.3899
  0.3901   0.3910   0.3915   0.3933   0.3942   0.3953   0.3960   0.3973
  0.3975   0.3979   0.3994   0.3995   0.4008   0.4015   0.4025   0.4034
  0.4045   0.4055   0.4064   0.4069   0.4072   0.4077   0.4087   0.4104
  0.4113   0.4125   0.4137   0.4150   0.4152   0.4167   0.4177   0.4185
  0.4191   0.4197   0.4211   0.4222   0.4232   0.4241   0.4251   0.4266
  0.4276   0.4280   0.4285   0.4299   0.4310   0.4324   0.4345   0.4347
  0.4361   0.4373   0.4378   0.4392   0.4402   0.4408   0.4421   0.4430
  0.4440   0.4460   0.4465   0.4484   0.4489   0.4497   0.4515   0.4519
  0.4529   0.4535   0.4553   0.4565   0.4568   0.4582   0.4585   0.4598
  0.4622   0.4633   0.4650   0.4659   0.4669   0.4696   0.4710   0.4723
  0.4729   0.4740   0.4748   0.4754   0.4769   0.4782   0.4799   0.4804
  0.4819   0.4831   0.4838   0.4854   0.4867   0.4884   0.4888   0.4900
  0.4914   0.4927   0.4939   0.4953   0.4969   0.4983   0.5010   0.5027
  0.5048   0.5055   0.5073   0.5079   0.5085   0.5104   0.5122   0.5131
  0.5162   0.5165   0.5184   0.5191   0.5219   0.5254   0.5264   0.5266
  0.5281   0.5292   0.5304   0.5331   0.5335   0.5369   0.5376   0.5382
  0.5394   0.5415   0.5428   0.5458   0.5471   0.5477   0.5503   0.5514
  0.5527   0.5551   0.5559   0.5592   0.5597   0.5609   0.5621   0.5639
  0.5667   0.5670   0.5682   0.5687   0.5707   0.5725   0.5753   0.5763
  0.5782   0.5792   0.5802   0.5821   0.5834   0.5847   0.5856   0.5865
  0.5884   0.5892   0.5915   0.5920   0.5932   0.5948   0.5964   0.5976
  0.5995   0.6011   0.6018   0.6045   0.6057   0.6064   0.6078   0.6092
  0.6105   0.6119   0.6139   0.6151   0.6166   0.6176   0.6181   0.6188
  0.6202   0.6217   0.6227   0.6239   0.6256   0.6259   0.6274   0.6288
  0.6296   0.6312   0.6320   0.6333   0.6343   0.6351   0.6366   0.6381
  0.6390   0.6393   0.6412   0.6417   0.6442   0.6448   0.6457   0.6469
  0.6479   0.6488   0.6504   0.6514   0.6519   0.6538   0.6544   0.6556
  0.6565   0.6568   0.6577   0.6593   0.6601   0.6616   0.6627   0.6635
  0.6639   0.6647   0.6656   0.6663   0.6666   0.6679   0.6700   0.6708
  0.6717   0.6728   0.6739   0.6752   0.6758   0.6777   0.6792   0.6804
  0.6809   0.6821   0.6834   0.6840   0.6854   0.6864   0.6872   0.6886
  0.6894   0.6897   0.6923   0.6935   0.6936   0.6950   0.6953   0.6972
  0.6986   0.6996   0.7003   0.7031   0.7036   0.7044   0.7059   0.7063
  0.7074   0.7084   0.7107   0.7134   0.7141   0.7154   0.7156   0.7160
  0.7184   0.7192   0.7193   0.7207   0.7245   0.7246   0.7256   0.7277
  0.7289   0.7300   0.7302   0.7317   0.7323   0.7332   0.7338   0.7388
  0.7397   0.7420   0.7423   0.7444   0.7449   0.7461   0.7475   0.7491
  0.7510   0.7514   0.7517   0.7525   0.7550   0.7564   0.7586   0.7598
  0.7617   0.7628   0.7638   0.7650   0.7677   0.7681   0.7696   0.7722
  0.7723   0.7729   0.7753   0.7761   0.7771   0.7787   0.7793   0.7823
  0.7827   0.7853   0.7859   0.7873   0.7896   0.7902   0.7927   0.7943
  0.7956   0.7971   0.7988   0.8002   0.8018   0.8041   0.8056   0.8067
  0.8088   0.8098   0.8118   0.8129   0.8141   0.8150   0.8162   0.8188
  0.8201   0.8205   0.8225   0.8238   0.8249   0.8265   0.8283   0.8301
  0.8302   0.8314   0.8323   0.8330   0.8346   0.8358   0.8378   0.8383
  0.8420   0.8429   0.8437   0.8450   0.8465   0.8479   0.8489   0.8507
  0.8513   0.8523   0.8539   0.8560   0.8568   0.8580   0.8584   0.8598
  0.8602   0.8617   0.8638   0.8652   0.8667   0.8686   0.8701   0.8705
  0.8718   0.8724   0.8743   0.8753   0.8758   0.8776   0.8786   0.8800
  0.8811   0.8814   0.8841   0.8843   0.8861   0.8873   0.8891   0.8895
  0.8906   0.8921   0.8931   0.8940   0.8944   0.8974   0.8984   0.9003
  0.9009   0.9024   0.9041   0.9043   0.9059   0.9064   0.9089   0.9100
  0.9109   0.9130   0.9145   0.9150   0.9169   0.9177   0.9191   0.9208
  0.9209   0.9211   0.9233   0.9243   0.9245   0.9250   0.9291   0.9297
  0.9299   0.9318   0.9328   0.9333   0.9351   0.9359   0.9373   0.9393
  0.9409   0.9414   0.9422   0.9436   0.9450   0.9459   0.9460   0.9474
  0.9490   0.9497   0.9505   0.9511   0.9531   0.9545   0.9547   0.9557
  0.9576   0.9579   0.9594   0.9605   0.9613   0.9618   0.9625   0.9637
  0.9648   0.9661   0.9678   0.9685   0.9696   0.9703   0.9710   0.9719
  0.9742   0.9757   0.9762   0.9770   0.9775   0.9786   0.9799   0.9809
  0.9830   0.9832   0.9851   0.9865   0.9874   0.9876   0.9881   0.9898
  0.9906   0.9920   0.9930   0.9940   0.9947   0.9971   0.9981   0.9982
  0.9999   1.0013   1.0023   1.0036   1.0045   1.0060   1.0071   1.0082
  1.0096   1.0102   1.0112   1.0126   1.0135   1.0147   1.0151   1.0169
  1.0187   1.0199   1.0208   1.0217   1.0220   1.0226   1.0235   1.0249
  1.0261   1.0282   1.0289   1.0311   1.0327   1.0331   1.0343   1.0346
  1.0359   1.0377   1.0389   1.0399   1.0412   1.0422   1.0437   1.0450
  1.0454   1.0476   1.0492   1.0494   1.0509   1.0528   1.0540   1.0552
  1.0554   1.0562   1.0564   1.0579   1.0583   1.0614   1.0626   1.0631
  1.0636   1.0655   1.0664   1.0685   1.0698   1.0710   1.0722   1.0746
  1.0762   1.0773   1.0782   1.0794   1.0799   1.0815   1.0845   1.0854
  1.0861   1.0868   1.0905   1.0917   1.0929   1.0937   1.0944   1.0958
  1.0983   1.0998   1.1003   1.1024   1.1038   1.1051   1.1061   1.1071
  1.1088   1.1102   1.1115   1.1141   1.1147   1.1157   1.1182   1.1196
  1.1201   1.1226   1.1237   1.1249   1.1263   1.1270   1.1293   1.1304
  1.1314   1.1334   1.1337   1.1346   1.1358   1.1369   1.1396   1.1410
  1.1412   1.1426   1.1438   1.1454   1.1472   1.1476   1.1490   1.1502
  1.1510   1.1519   1.1538   1.1545   1.1566   1.1575   1.1577   1.1585
  1.1594   1.1608   1.1615   1.1635   1.1641   1.1661   1.1669   1.1677
  1.1703   1.1713   1.1728   1.1743   1.1758   1.1763   1.1777   1.1783
  1.1802   1.1812   1.1831   1.1839   1.1847   1.1887   1.1894   1.1916
  1.1935   1.1948   1.1967   1.1974   1.1986   1.2002   1.2021   1.2028
  1.2029   1.2057   1.2059   1.2072   1.2094   1.2114   1.2118   1.2144
  1.2159   1.2172   1.2199   1.2223   1.2238   1.2257   1.2277   1.2289
  1.2312   1.2317   1.2357   1.2380   1.2385   1.2410   1.2416   1.2456
  1.2472   1.2478   1.2496   1.2518   1.2558   1.2570   1.2607   1.2616
  1.2647   1.2659   1.2677   1.2686   1.2700   1.2734   1.2744   1.2778
  1.2801   1.2803   1.2842   1.2849   1.2866   1.2887   1.2924   1.2933
  1.2967   1.2989   1.2997   1.3034   1.3062   1.3081   1.3098   1.3146
  1.3156   1.3190   1.3220   1.3244   1.3249   1.3278   1.3291   1.3318
  1.3332   1.3355   1.3388   1.3403   1.3415   1.3441   1.3441   1.3457
  1.3475   1.3486   1.3510   1.3535   1.3545   1.3559   1.3577   1.3600
  1.3603   1.3641   1.3645   1.3651   1.3670   1.3689   1.3702   1.3713
  1.3724   1.3746   1.3760   1.3783   1.3790   1.3805   1.3816   1.3825
  1.3830   1.3858   1.3869   1.3889   1.3904   1.3912   1.3918   1.3934
  1.3944   1.3961   1.3971   1.3984   1.4023   1.4030   1.4041   1.4045
  1.4074   1.4082   1.4090   1.4106   1.4117   1.4128   1.4144   1.4154
  1.4174   1.4180   1.4196   1.4209   1.4224   1.4247   1.4262   1.4267
  1.4271   1.4295   1.4305   1.4335   1.4346   1.4362   1.4381   1.4392
  1.4411   1.4415   1.4419   1.4448   1.4460   1.4485   1.4500   1.4504
  1.4522   1.4542   1.4558   1.4584   1.4597   1.4603   1.4624   1.4638
  1.4656   1.4683   1.4684   1.4695   1.4714   1.4739   1.4759   1.4784
  1.4803   1.4812   1.4819   1.4850   1.4864   1.4895   1.4908   1.4929
  1.4951   1.4954   1.4991   1.5010   1.5023   1.5048   1.5057   1.5082
  1.5102   1.5125   1.5146   1.5169   1.5191   1.5217   1.5234   1.5248
  1.5276   1.5305   1.5313   1.5375   1.5401   1.5413   1.5426   1.5437
  1.5510   1.5518   1.5547   1.5557   1.5588   1.5605   1.5670   1.5687
  1.5696   1.5751   1.5756   1.5803   1.5855   1.5907   1.5963   1.5993
  1.6015   1.6032   1.6097   1.6126   1.6143   1.6162   1.6210   1.6240
  1.6321   1.6362   1.6397   1.6429   1.6435   1.6473   1.6501   1.6520
  1.6544   1.6563   1.6585   1.6602   1.6610   1.6637   1.6658   1.6688
  1.6697   1.6722   1.6739   1.6749   1.6756   1.6767   1.6779   1.6786
  1.6799   1.6809   1.6817   1.6820   1.6828   1.6851   1.6863   1.6889
  1.6912   1.6923   1.6948   1.6958   1.6983   1.6988   1.7004   1.7008
  1.7026   1.7042   1.7046   1.7073   1.7084   1.7094   1.7109   1.7117
  1.7128   1.7137   1.7148   1.7157   1.7169   1.7180   1.7192   1.7208
  1.7221   1.7225   1.7240   1.7249   1.7260   1.7272   1.7290   1.7298
  1.7309   1.7313   1.7333   1.7344   1.7351   1.7375   1.7385   1.7394
  1.7403   1.7425   1.7434   1.7446   1.7457   1.7477   1.7482   1.7501
  1.7509   1.7516   1.7527   1.7550   1.7571   1.7589   1.7605   1.7623
  1.7635   1.7653   1.7663   1.7681   1.7707   1.7720   1.7731   1.7756
  1.7769   1.7783   1.7794   1.7825   1.7832   1.7835   1.7862   1.7901
  1.7915   1.7923   1.7948   1.7972   1.7982   1.8034   1.8042   1.8085
  1.8093   1.8109   1.8139   1.8172   1.8221   1.8241   1.8281   1.8318
  1.8333   1.8348   1.8418   1.8450   1.8464   1.8480   1.8496   1.8506
  1.8537   1.8546   1.8563   1.8591   1.8600   1.8637   1.8658   1.8662
  1.8707   1.8714   1.8730   1.8747   1.8751   1.8778   1.8782   1.8802
  1.8807   1.8829   1.8836   1.8851   1.8875   1.8889   1.8899   1.8906
  1.8916   1.8943   1.8950   1.8964   1.8967   1.8984   1.8996   1.9001
  1.9015   1.9020   1.9032   1.9043   1.9058   1.9069   1.9080   1.9109
  1.9120   1.9126   1.9136   1.9156   1.9167   1.9174   1.9180   1.9202
  1.9207   1.9221   1.9242   1.9255   1.9265   1.9272   1.9294   1.9307
  1.9319   1.9328   1.9345   1.9364   1.9393   1.9396   1.9423   1.9454
  1.9457   1.9502   1.9518   1.9594   1.9634   1.9664   1.9689   1.9718
  1.9758   1.9792   1.9875   1.9911   1.9922   2.0004   2.0022   2.0070
  2.0150   2.0190   2.0224   2.0231   2.0317   2.0356   2.0394   2.0451
  2.0507   2.0516   2.0528   2.0564   2.0574   2.0596   2.0615   2.0647
  2.0664   2.0675   2.0694   2.0719   2.0739   2.0756   2.0768   2.0773
  2.0781   2.0793   2.0800   2.0802   2.0807   2.0813   2.0833   2.0856
  2.0861   2.0873   2.0879   2.0897   2.0922   2.0934   2.0960   2.0977
  2.0983   2.1014   2.1040   2.1077   2.1089   2.1101   2.1134   2.1155
  2.1166   2.1188   2.1202   2.1210   2.1223   2.1244   2.1254   2.1306
  2.1340   2.1355   2.1376   2.1381   2.1443   2.1443   2.1450   2.1473
  2.1494   2.1545   2.1600   2.1638   2.1671   2.1685   2.1711   2.1740
  2.1783   2.1827   2.1872   2.1917   2.1926   2.1941   2.1976   2.1995
  2.2001   2.2020   2.2036   2.2049   2.2064   2.2084   2.2107   2.2112
  2.2165   2.2171   2.2198   2.2206   2.2240   2.2260   2.2263   2.2265
  2.2279   2.2285   2.2287   2.2304   2.2312   2.2325   2.2333   2.2337
  2.2368   2.2370   2.2385   2.2394   2.2402   2.2409   2.2417   2.2433
  2.2437   2.2449   2.2459   2.2473   2.2475   2.2505   2.2508   2.2526
  2.2527   2.2547   2.2557   2.2574   2.2584   2.2587   2.2605   2.2629
  2.2634   2.2648   2.2653   2.2663   2.2667   2.2680   2.2692   2.2702
  2.2707   2.2718   2.2731   2.2734   2.2740   2.2750   2.2754   2.2773
  2.2778   2.2783   2.2802   2.2806   2.2840   2.2846   2.2861   2.2864
  2.2880   2.2892   2.2900   2.2907   2.2921   2.2932   2.2937   2.2945
  2.2955   2.2970   2.2975   2.2988   2.3002   2.3014   2.3021   2.3028
  2.3033   2.3048   2.3058   2.3068   2.3095   2.3100   2.3109   2.3131
  2.3141   2.3147   2.3154   2.3164   2.3168   2.3191   2.3194   2.3206
  2.3222   2.3224   2.3241   2.3249   2.3253   2.3279   2.3285   2.3293
  2.3298   2.3312   2.3334   2.3350   2.3367   2.3376   2.3386   2.3407
  2.3426   2.3436   2.3450   2.3457   2.3475   2.3482   2.3494   2.3508
  2.3530   2.3547   2.3552   2.3566   2.3587   2.3600   2.3625   2.3630
  2.3638   2.3647   2.3675   2.3689   2.3731   2.3744   2.3758   2.3812
  2.3836   2.3871   2.3880   2.3899   2.3934   2.3982   2.4039   2.4093
  2.4260   2.4328   2.4376   2.4401   2.4501   2.4583   2.4951   2.5430
  2.5577   2.6035   2.6797   2.7230   2.7808   2.7892   2.7981   2.8103
  2.8169   2.8258   2.8292   2.8335   2.8380   2.8404   2.8423   2.8465
  2.8500   2.8519   2.8533   2.8550   2.8577   2.8608   2.8620   2.8636
  2.8648   2.8675   2.8691   2.8734   2.8739   2.8749   2.8881   2.8900
  2.8913   2.8922   2.8983   2.9097   2.9165   2.9346   3.1126   3.2573
  3.9426   3.9519   3.9614   3.9626   3.9645   3.9688   3.9708   3.9735
  3.9772   3.9813   3.9831   3.9865   3.9870   3.9886   3.9914   3.9925
  3.9948   3.9966   3.9991   4.0025   4.0087   4.0190   4.0228   4.0244
  4.0304   4.0366   4.0462   4.2062   4.2119   4.2283   4.2298   4.2302
  4.2360   4.2397   4.2454   4.2470   4.2488   4.2513   4.2521   4.2540
  4.2574   4.2580   4.2624   4.2663   4.2684   4.2694   4.2742   4.2772
  4.2796   4.2819   4.2838   4.2865   4.2898   4.2911   4.2939   4.2962
  4.2964   4.2986   4.3027   4.3051   4.3079   4.3108   4.3135   4.3170
  4.3180   4.3210   4.3241   4.3256   4.3308   4.3325   4.3349   4.3363
  4.3390   4.3432   4.3452   4.3487   4.3492   4.3515   4.3534   4.3566
  4.3599   4.3605   4.3648   4.3669   4.3705   4.3781   4.3787   4.3841
  4.3899   4.3922   4.3944   4.3973   4.4007   4.4110   4.4121   4.4148
  4.4239   4.4257   4.4343   4.4451   4.4628   4.4719   4.4862   4.5092
  4.5113   4.5382   4.5484   4.5697   4.5809   4.6084   4.6666   4.6986
  4.7210   4.7269   4.7859   4.8680   4.8920
 --------------------------------------------------------------
 
          Ground-State Mulliken Net Atomic Charges

     Atom                 Charge (a.u.)
  ----------------------------------------
      1 C                    -0.243765
      2 C                    -0.661721
      3 C                    -0.093951
      4 C                    -0.650542
      5 C                    -0.334032
      6 C                    -0.446954
      7 H                     0.225789
      8 H                     0.217697
      9 H                     0.178778
     10 H                     0.203709
     11 H                     0.205138
     12 H                     0.208339
     13 H                     0.207669
     14 H                     0.208573
     15 H                     0.238836
     16 H                     0.196692
     17 H                     0.177386
     18 N                    -0.289165
     19 H                     0.477072
     20 C                     0.335752
     21 H                     0.181201
     22 O                    -0.542501
     23 C                    -0.793188
     24 H                     0.275999
     25 H                     0.243392
     26 H                     0.269808
     27 S                     1.000591
     28 C                    -0.956937
     29 H                     0.255214
     30 H                     0.253700
     31 H                     0.251119
     32 O                    -0.706711
     33 C                    -0.835092
     34 H                     0.236302
     35 H                     0.232008
     36 H                     0.290837
     37 S                     0.868110
     38 C                    -0.884751
     39 H                     0.250418
     40 H                     0.243728
     41 H                     0.239682
     42 O                    -0.645086
     43 C                    -0.924899
     44 H                     0.227069
     45 H                     0.253281
     46 H                     0.257302
     47 S                     0.900765
     48 C                    -0.981838
     49 H                     0.259039
     50 H                     0.261532
     51 H                     0.274487
     52 O                    -0.623175
     53 C                    -0.921982
     54 H                     0.248264
     55 H                     0.263599
     56 H                     0.249777
     57 S                     1.169960
     58 C                    -1.141217
     59 H                     0.297986
     60 H                     0.252830
     61 H                     0.269734
     62 O                    -0.681445
     63 C                    -0.871215
     64 H                     0.270139
     65 H                     0.262688
     66 H                     0.212073
     67 S                     1.145774
     68 C                    -0.930625
     69 H                     0.226190
     70 H                     0.288649
     71 H                     0.258096
     72 O                    -0.760357
     73 C                    -0.627222
     74 H                     0.252139
     75 H                     0.271003
     76 H                     0.233678
     77 S                     0.670242
     78 C                    -0.781138
     79 H                     0.252724
     80 H                     0.249347
     81 H                     0.265424
     82 O                    -0.695885
     83 C                    -0.747859
     84 H                     0.248642
     85 H                     0.274785
     86 H                     0.278351
     87 S                     0.551446
     88 C                    -0.711956
     89 H                     0.277830
     90 H                     0.277431
     91 H                     0.260320
     92 O                    -0.674096
     93 C                    -0.885922
     94 H                     0.252346
     95 H                     0.236568
     96 H                     0.259626
     97 S                     1.065346
     98 C                    -0.864294
     99 H                     0.275486
    100 H                     0.249376
    101 H                     0.236900
    102 O                    -0.739767
    103 C                    -0.876852
    104 H                     0.263223
    105 H                     0.243739
    106 H                     0.251876
    107 S                     1.178731
    108 C                    -0.932034
    109 H                     0.259273
    110 H                     0.233611
    111 H                     0.261809
    112 O                    -0.636589
    113 C                    -0.853498
    114 H                     0.263750
    115 H                     0.235751
    116 H                     0.264879
    117 S                     0.965762
    118 C                    -0.903644
    119 H                     0.234672
    120 H                     0.250282
    121 H                     0.277462
    122 O                    -0.714348
    123 C                    -0.842414
    124 H                     0.238175
    125 H                     0.273809
    126 H                     0.283158
    127 S                     0.783106
    128 C                    -0.783945
    129 H                     0.255418
    130 H                     0.242896
    131 H                     0.242645
    132 O                    -0.662188
    133 C                    -1.035013
    134 H                     0.273549
    135 H                     0.271784
    136 H                     0.246276
    137 S                     1.285700
    138 C                    -1.042488
    139 H                     0.236233
    140 H                     0.250887
    141 H                     0.279540
    142 O                    -0.694984
    143 C                    -0.880670
    144 H                     0.259331
    145 H                     0.270759
    146 H                     0.248690
    147 S                     0.758330
    148 C                    -0.857099
    149 H                     0.258713
    150 H                     0.280613
    151 H                     0.251573
    152 O                    -0.734975
    153 C                    -0.920962
    154 H                     0.243116
    155 H                     0.291808
    156 H                     0.223521
    157 S                     1.191020
    158 C                    -1.014208
    159 H                     0.288530
    160 H                     0.297075
    161 H                     0.237957
    162 O                    -0.711202
    163 C                    -0.843044
    164 H                     0.255098
    165 H                     0.250119
    166 H                     0.225652
    167 S                     0.918248
    168 C                    -0.861053
    169 H                     0.236140
    170 H                     0.282476
    171 H                     0.261850
    172 O                    -0.707346
    173 C                    -0.966054
    174 H                     0.245954
    175 H                     0.213452
    176 H                     0.249593
    177 S                     1.045442
    178 C                    -0.848606
    179 H                     0.231152
    180 H                     0.303767
    181 H                     0.229255
    182 O                    -0.723289
    183 C                    -1.033801
    184 H                     0.255699
    185 H                     0.288139
    186 H                     0.279411
    187 S                     0.850071
    188 C                    -0.959289
    189 H                     0.303342
    190 H                     0.271856
    191 H                     0.251163
    192 O                    -0.689917
    193 C                    -1.093459
    194 H                     0.278134
    195 H                     0.260335
    196 H                     0.311205
    197 S                     0.798750
    198 C                    -1.377070
    199 H                     0.299062
    200 H                     0.269946
    201 H                     0.259200
    202 O                    -0.676475
    203 C                    -0.931280
    204 H                     0.253743
    205 H                     0.291264
    206 H                     0.219608
    207 S                     1.343650
    208 C                    -1.084720
    209 H                     0.250808
    210 H                     0.266728
    211 H                     0.237214
    212 O                    -0.654465
    213 C                    -0.850739
    214 H                     0.305470
    215 H                     0.222678
    216 H                     0.243930
    217 S                     0.891055
    218 C                    -0.832369
    219 H                     0.275944
    220 H                     0.249116
    221 H                     0.243192
    222 O                    -0.722928
    223 C                    -0.775995
    224 H                     0.245220
    225 H                     0.232654
    226 H                     0.252498
    227 S                     0.883909
    228 C                    -0.858900
    229 H                     0.304078
    230 H                     0.243848
    231 H                     0.239163
    232 O                    -0.689991
    233 C                    -0.907897
    234 H                     0.257965
    235 H                     0.275576
    236 H                     0.247891
    237 S                     0.727528
    238 C                    -0.839248
    239 H                     0.265368
    240 H                     0.238317
    241 H                     0.298257
    242 O                    -0.606239
    243 C                    -0.965747
    244 H                     0.280633
    245 H                     0.253268
    246 H                     0.244438
    247 S                     0.958800
    248 C                    -0.892439
    249 H                     0.291135
    250 H                     0.284353
    251 H                     0.239822
    252 O                    -0.716900
    253 C                    -0.914371
    254 H                     0.253391
    255 H                     0.288270
    256 H                     0.250895
    257 S                     1.101555
    258 C                    -1.081573
    259 H                     0.254436
    260 H                     0.255520
    261 H                     0.253527
    262 O                    -0.711200
    263 C                    -0.903674
    264 H                     0.223185
    265 H                     0.262893
    266 H                     0.293233
    267 S                     1.386773
    268 C                    -1.237822
    269 H                     0.236062
    270 H                     0.243406
    271 H                     0.285615
    272 O                    -0.595053
    273 C                    -0.748714
    274 H                     0.285090
    275 H                     0.255714
    276 H                     0.255764
    277 S                     0.566836
    278 C                    -0.924453
    279 H                     0.243566
    280 H                     0.315588
    281 H                     0.226848
    282 O                    -0.611946
    283 C                    -0.905910
    284 H                     0.227084
    285 H                     0.259069
    286 H                     0.253633
    287 S                     1.073306
    288 C                    -0.999228
    289 H                     0.244685
    290 H                     0.253800
    291 H                     0.256163
    292 O                    -0.710753
  ----------------------------------------
  Sum of atomic charges =     0.000000

 -----------------------------------------------------------------
                    Cartesian Multipole Moments
 -----------------------------------------------------------------
    Charge (ESU x 10^10)
                 0.0000
    Dipole Moment (Debye)
         X       2.5439      Y     -25.2394      Z       9.4452
       Tot      27.0686
    Quadrupole Moments (Debye-Ang)
        XX    -900.6721     XY    -552.2194     YY   -1923.2004
        XZ     425.9740     YZ    -449.3637     ZZ    -388.7234
    Octopole Moments (Debye-Ang^2)
       XXX  -73853.8409    XXY  -32514.2739    XYY  -46481.5833
       YYY  -87085.0755    XXZ  -12884.6365    XYZ   -6923.8342
       YYZ  -46788.8859    XZZ   -1489.6608    YZZ  -24360.7109
       ZZZ  -52928.2825
    Hexadecapole Moments (Debye-Ang^3)
      XXXX ************   XXXY ************   XXYY ************
      XYYY ************   YYYY ************   XXXZ ************
      XXYZ -633161.7053   XYYZ ************   YYYZ ************
      XXZZ -643540.8328   XYZZ -439152.8067   YYZZ ************
      XZZZ ************   YZZZ ************   ZZZZ ************
 -----------------------------------------------------------------
Archival summary:
[...]
    2  -0.0045883   0.0092250  -0.0030000  -0.0244812   0.0485929  -0.0030928
    3  -0.0063487  -0.0096885  -0.0270731   0.0163982  -0.0240536   0.0051909
          139         140         141         142         143         144
    1  -0.0043311   0.0270802  -0.0027823  -0.0668543   0.0033143   0.0225561
    2  -0.0290940   0.0152667  -0.0001998  -0.0159076  -0.0051088  -0.0296919
    3  -0.0069115  -0.0126542   0.0317700   0.0853368   0.0001112   0.0027916
          145         146         147         148         149         150
    1  -0.0045830  -0.0260587   0.0261874   0.0061867   0.0238416   0.0009896
    2  -0.0007490  -0.0073566  -0.0109115   0.0017036   0.0084541   0.0300061
    3   0.0269883  -0.0140251  -0.0564659   0.0074579  -0.0203331   0.0079155
          151         152         153         154         155         156
    1  -0.0012220  -0.0808490  -0.0048213  -0.0325059   0.0042373  -0.0056532
    2  -0.0165145   0.0737709   0.0058527  -0.0081793   0.0315293  -0.0040155
    3   0.0331568   0.0087120   0.0014980   0.0142536  -0.0061835  -0.0252369
          157         158         159         160         161         162
    1   0.0001993  -0.0005451   0.0277772  -0.0030026  -0.0149315   0.0793577
    2  -0.0528394   0.0055011   0.0067728   0.0330952  -0.0183692   0.0620262
    3   0.0016812   0.0054795   0.0198045   0.0016989   0.0297203  -0.0462011
          163         164         165         166         167         168
    1   0.0016061  -0.0090149  -0.0162853   0.0323806   0.0145599   0.0022004
    2  -0.0063471   0.0155355  -0.0278070  -0.0177199  -0.0102268   0.0122801
    3   0.0042137   0.0250605  -0.0011895   0.0003522  -0.0423233   0.0020233
          169         170         171         172         173         174
    1   0.0331551  -0.0058256  -0.0071361  -0.1026740  -0.0042266   0.0128113
    2  -0.0058398   0.0358572  -0.0045354   0.0245932   0.0007518   0.0104168
    3   0.0010767  -0.0111710   0.0297330   0.0355857  -0.0032851  -0.0283406
          175         176         177         178         179         180
    1  -0.0172672  -0.0259993   0.0297718  -0.0004548  -0.0152452   0.0121430
    2  -0.0267792   0.0177341   0.0527293  -0.0083024  -0.0313860   0.0098715
    3  -0.0013259   0.0068521   0.0065474  -0.0010442  -0.0081095  -0.0145638
          181         182         183         184         185         186
    1   0.0087634  -0.0628633   0.0011750  -0.0101735   0.0380769  -0.0255693
    2  -0.0157495  -0.0350147   0.0073657   0.0242523  -0.0032906   0.0009891
    3   0.0337528   0.0853250  -0.0067222   0.0154235  -0.0102156  -0.0204636
          187         188         189         190         191         192
    1   0.0403714   0.0019795  -0.0040908  -0.0234059   0.0253059  -0.1070702
    2  -0.0127513  -0.0065943  -0.0325078   0.0010009   0.0120149   0.0024647
    3   0.0335309  -0.0079896   0.0029913  -0.0164400  -0.0296829   0.0245649
          193         194         195         196         197         198
    1   0.0079980   0.0051769  -0.0103538   0.0267845  -0.0144903   0.0005246
    2   0.0009380  -0.0174486   0.0266637  -0.0056572  -0.0079145  -0.0066336
    3  -0.0046607  -0.0298210   0.0065235   0.0169065   0.0451690  -0.0088436
          199         200         201         202         203         204
    1  -0.0259611   0.0051700   0.0197347  -0.0535050  -0.0007042  -0.0063584
    2  -0.0103793   0.0194978  -0.0158592   0.0413984   0.0057233   0.0201288
    3  -0.0113519  -0.0277678   0.0135528  -0.0945696  -0.0023755   0.0195267
          205         206         207         208         209         210
    1   0.0018084  -0.0304879   0.0581309  -0.0035336  -0.0316038   0.0153243
    2   0.0214243  -0.0055396   0.0245591  -0.0028871  -0.0107767   0.0173978
    3  -0.0276431   0.0050715  -0.0017881  -0.0033296   0.0159397  -0.0273781
          211         212         213         214         215         216
    1   0.0173900  -0.0370043  -0.0079071  -0.0114095  -0.0162675  -0.0069602
    2  -0.0256162  -0.0523536  -0.0028400  -0.0274640   0.0289735  -0.0089162
    3  -0.0002030   0.0881485  -0.0014127   0.0133653   0.0050003  -0.0293252
          217         218         219         220         221         222
    1   0.0134317   0.0026599   0.0263706  -0.0043885  -0.0168094   0.0339001
    2   0.0077679   0.0061969   0.0092016  -0.0110486   0.0269938  -0.0908037
    3   0.0586355  -0.0062415   0.0179074  -0.0321114   0.0038411  -0.0532975
          223         224         225         226         227         228
    1  -0.0011520  -0.0251775  -0.0181307   0.0028208  -0.0114151   0.0065580
    2  -0.0043624   0.0112601  -0.0153364  -0.0212303   0.0326884  -0.0064807
    3   0.0027586   0.0131977  -0.0239144   0.0274117  -0.0459346  -0.0009272
          229         230         231         232         233         234
    1   0.0294436   0.0033966  -0.0039381   0.0455998  -0.0036708  -0.0207667
    2   0.0084660  -0.0215535  -0.0196071   0.0415169   0.0041293  -0.0157300
    3  -0.0071222   0.0215207  -0.0252363   0.0917782  -0.0070204  -0.0141748
          235         236         237         238         239         240
    1  -0.0128953   0.0251335   0.0448253   0.0004002  -0.0290012   0.0245806
    2   0.0266260   0.0040859   0.0177368  -0.0096060   0.0002368  -0.0104405
    3   0.0052437  -0.0234607   0.0201838  -0.0010684  -0.0152475  -0.0226917
          241         242         243         244         245         246
    1   0.0168998  -0.0934236  -0.0058722  -0.0304867   0.0002383  -0.0039442
    2  -0.0211510  -0.0183175   0.0036114  -0.0138068   0.0257816   0.0183194
    3   0.0237355   0.0560000  -0.0011917   0.0117129   0.0152753  -0.0282158
          247         248         249         250         251         252
    1  -0.0035435  -0.0028978  -0.0322033   0.0352993  -0.0076793   0.0850929
    2  -0.0451589  -0.0055843  -0.0196476  -0.0064123   0.0285115   0.0701370
    3  -0.0255879   0.0119370  -0.0022235   0.0099405   0.0093231  -0.0008057
          253         254         255         256         257         258
    1  -0.0100476  -0.0022049  -0.0193889  -0.0060653   0.0212693  -0.0006657
    2  -0.0012184   0.0259658   0.0038764  -0.0332845  -0.0439590  -0.0055535
    3   0.0025108   0.0238530  -0.0237827   0.0000956  -0.0304322   0.0077801
          259         260         261         262         263         264
    1  -0.0027764  -0.0008860   0.0286527   0.0189654   0.0020893   0.0260022
    2   0.0239336  -0.0324507   0.0039744   0.1058249  -0.0011049   0.0162309
    3   0.0149320   0.0143620   0.0009508  -0.0184376   0.0078696   0.0078959
          265         266         267         268         269         270
    1  -0.0151883   0.0039814  -0.0267317  -0.0052565  -0.0145840  -0.0235490
    2   0.0051035  -0.0270917   0.0443079  -0.0076450  -0.0031365  -0.0050815
    3   0.0256304   0.0116600  -0.0097791   0.0035156   0.0253548  -0.0244789
          271         272         273         274         275         276
    1   0.0166292   0.0713123   0.0000395   0.0147311  -0.0315335  -0.0038275
    2  -0.0229811  -0.0527803  -0.0009096  -0.0142278  -0.0021621   0.0257834
    3   0.0045119  -0.0628222  -0.0032641  -0.0299660  -0.0031427  -0.0076602
          277         278         279         280         281         282
    1   0.0538884  -0.0041702   0.0269005  -0.0224847  -0.0124935  -0.0790530
    2   0.0174089  -0.0046006  -0.0172092  -0.0015946  -0.0176649   0.0485572
    3   0.0040430   0.0049764   0.0043023   0.0231174  -0.0170934   0.0665690
          283         284         285         286         287         288
    1   0.0056298   0.0379782  -0.0089659   0.0065856   0.0065146   0.0027855
    2   0.0030124  -0.0068702  -0.0189001   0.0290318   0.0321212  -0.0059939
    3  -0.0017846   0.0024754  -0.0211786  -0.0166788   0.0395044  -0.0000899
          289         290         291         292
    1   0.0306203  -0.0115373  -0.0153015  -0.0824306
    2  -0.0118176  -0.0119910  -0.0112258   0.0002132
    3   0.0105633   0.0265475  -0.0239715  -0.0732754
  --- DONE ESP SUMMARY ---
Archival summary:
1\1\n0101.mhg0\SP\ProcedureUnspecified\6-31+G*\272754h22\ymao\FriMar1212:54:312021FriMar1212:54:312021\0\\#,ProcedureUnspecified,6-31+G*,\\0,1\S\O,1,1.49722\C,1,1.80691,2,96.4616\H,3,1.0923,1,108.171,2,-64.7438,0\H,3,1.09291,1,110.815,2,51.1304,0\H,3,1.09355,1,111.739,2,175.265,0\C,1,1.80707,2,102.146,3,98.1621,0\H,7,1.09263,1,106.051,2,179.616,0\H,7,1.09284,1,115.057,2,-61.4096,0\H,7,1.09333,1,109.342,2,55.5678,0\Gh,2,2.03897,1,124.235,3,-43.7942,0\Gh,11,1.01334,2,142.613,1,-150.544,0\Gh,12,1.37905,11,111.288,2,-76.773,0\Gh,13,1.1044,12,117.877,11,-7.23108,0\Gh,13,1.21817,12,122.318,11,177.534,0\Gh,12,1.46172,11,118.992,2,115.379,0\Gh,16,1.09659,12,105.348,11,176.468,0\Gh,16,1.53749,12,109.941,11,59.6121,0\Gh,18,1.0975,16,114.484,12,52.7274,0\Gh,18,1.0976,16,106.05,12,-63.7725,0\Gh,18,1.53716,16,108.944,12,179.774,0\Gh,21,1.09605,18,108.422,16,174.338,0\Gh,21,1.09682,18,110.637,16,-72.346,0\Gh,16,1.53782,12,110.766,11,-68.0001,0\Gh,24,1.09665,16,103.234,12,55.7509,0\Gh,24,1.09677,16,110.29,12,-57.2442,0\Gh,24,1.53731,16,112.735,12,178.765,0\Gh,27,1.09653,24,109.429,16,67.0469,0\Gh,27,1.09753,24,110.375,16,-170.91,0\Gh,27,1.53734,24,112.406,16,-46.2982,0\Gh,30,1.09648,27,114.327,24,176.921,0\Gh,30,1.09709,27,101.601,24,-69.9085,0\H,25,2.12344,24,125.555,16,126.367,0\C,33,1.09359,25,163.76,24,123.699,0\H,34,1.09267,33,109.002,25,130.178,0\H,34,1.09318,33,112.408,25,10.9514,0\S,34,1.808,33,108.015,25,-110.013,0\O,37,1.49687,34,100.314,33,-84.8608,0\C,37,1.80689,34,90.1628,33,170.525,0\H,39,1.09284,37,106.161,34,-71.2793,0\H,39,1.09322,37,110.075,34,52.0043,0\H,39,1.09345,37,104.486,34,171.574,0\H,36,2.00003,34,152.742,33,-78.525,0\C,43,1.09286,36,141.01,34,-139.842,0\H,44,1.09248,43,116.802,36,-145.79,0\H,44,1.09323,43,109.293,36,88.995,0\S,44,1.80726,43,107.165,36,-20.6711,0\O,47,1.49733,44,105.723,43,32.9816,0\C,47,1.80689,44,97.9249,43,-72.6324,0\H,49,1.09223,47,107.681,44,51.1955,0\H,49,1.093,47,108.575,44,179.324,0\H,49,1.09324,47,103.576,44,-68.5236,0\H,45,2.21892,44,116.319,43,-50.6846,0\C,53,1.09303,45,150.27,44,11.7253,0\H,54,1.09277,53,108.3,45,-48.01,0\H,54,1.09383,53,112.353,45,77.9498,0\S,54,1.80742,53,106.421,45,-165.645,0\O,57,1.49661,54,103.394,53,53.066,0\C,57,1.80707,54,95.7231,53,-57.006,0\H,59,1.09245,57,103.741,54,54.1816,0\H,59,1.09325,57,106.623,54,177.754,0\H,59,1.09345,57,104.889,54,-60.7723,0\H,62,2.21422,59,135.12,57,89.6955,0\C,63,1.09304,62,165.07,59,-98.2298,0\H,64,1.09264,63,116.973,62,58.231,0\H,64,1.09395,63,105.258,62,176.623,0\S,64,1.80729,63,108.647,62,-72.9385,0\O,67,1.49687,64,99.1663,63,52.3474,0\C,67,1.80674,64,95.3082,63,-55.9081,0\H,69,1.0929,67,107.123,64,165.147,0\H,69,1.09319,67,111.892,64,-72.2472,0\H,69,1.0934,67,116.079,64,46.732,0\H,20,2.27689,18,126.686,16,164.455,0\C,73,1.09268,20,133.178,18,110.868,0\H,74,1.093,73,105.89,20,-93.8664,0\H,74,1.09343,73,107.781,20,146.368,0\S,74,1.80716,73,109.26,20,28.1261,0\O,77,1.49727,74,101.465,73,70.5213,0\C,77,1.80681,74,92.123,73,171.737,0\H,79,1.09267,77,113.875,74,109.705,0\H,79,1.09297,77,114.372,74,-13.4872,0\H,79,1.09313,77,104.569,74,-134.477,0\H,71,2.32943,69,145.659,67,44.9621,0\C,83,1.09237,71,94.6935,69,135.134,0\H,84,1.0927,83,110.878,71,-66.411,0\H,84,1.09299,83,104.223,71,49.7997,0\S,84,1.80779,83,118.717,71,168.742,0\O,87,1.49757,84,102.827,83,-175.401,0\C,87,1.80757,84,89.9488,83,-68.7822,0\H,89,1.0921,87,117.104,84,161.464,0\H,89,1.09282,87,102.877,84,47.6625,0\H,89,1.09344,87,105.094,84,-73.4968,0\H,92,2.30997,89,117.652,87,144.329,0\C,93,1.09392,92,130.148,89,80.6262,0\H,94,1.09283,93,117.132,92,75.6279,0\H,94,1.09325,93,110.594,92,-158.395,0\S,94,1.80717,93,109.929,92,-46.844,0\O,97,1.49699,94,107.241,93,69.3527,0\C,97,1.80763,94,90.0091,93,175.506,0\H,99,1.09258,97,111.406,94,-55.4618,0\H,99,1.09265,97,112.136,94,56.323,0\H,99,1.09321,97,110.606,94,-173.343,0\H,95,2.1681,94,132.33,93,114.339,0\C,103,1.09339,95,143.987,94,79.3909,0\H,104,1.09229,103,103.41,95,35.426,0\H,104,1.09234,103,109.298,95,159.434,0\S,104,1.80714,103,109.194,95,-77.3776,0\O,107,1.49655,104,104.169,103,19.1198,0\C,107,1.80663,104,97.9564,103,-91.4838,0\H,109,1.09246,107,110.299,104,-34.9442,0\H,109,1.09265,107,110.731,104,-162.887,0\H,109,1.09267,107,105.917,104,75.2003,0\H,56,2.33627,54,128.079,53,-137.95,0\C,113,1.09329,56,107.491,54,-8.27219,0\H,114,1.09323,113,107.85,56,-50.2685,0\H,114,1.09336,113,102.093,56,61.456,0\S,114,1.80655,113,108.572,56,-174.305,0\O,117,1.49668,114,104.525,113,-174.44,0\C,117,1.80705,114,90.0977,113,80.2444,0\H,119,1.09292,117,107.165,114,-65.2865,0\H,119,1.09309,117,104.789,114,-179.572,0\H,119,1.09341,117,107.781,114,59.5985,0\H,42,2.34331,39,158.151,37,-53.3318,0\C,123,1.09329,42,109.245,39,17.1935,0\H,124,1.09239,123,107.169,42,-78.0015,0\H,124,1.09292,123,114.112,42,46.6272,0\S,124,1.80756,123,108.481,42,159.34,0\O,127,1.49713,124,113.02,123,-101.548,0\C,127,1.80654,124,93.799,123,8.96103,0\H,129,1.09284,127,108.619,124,-67.3679,0\H,129,1.09305,127,118.373,124,64.1942,0\H,129,1.0934,127,100.879,124,179.788,0\H,125,2.09141,124,152.69,123,161.707,0\C,133,1.09306,125,128.234,124,38.5647,0\H,134,1.09286,133,112.449,125,-175.697,0\H,134,1.09291,133,111.259,125,61.2367,0\S,134,1.80793,133,109.471,125,-53.2985,0\O,137,1.49646,134,108.484,133,174.92,0\C,137,1.80685,134,90.1128,133,-74.924,0\H,139,1.09255,137,101.786,134,164.844,0\H,139,1.0934,137,109.022,134,-80.1742,0\H,139,1.09383,137,113.399,134,44.8402,0\H,52,2.38277,49,125.805,47,-172.746,0\C,143,1.09341,52,114.034,49,-70.6955,0\H,144,1.09251,143,110.656,52,178.081,0\H,144,1.09289,143,120.818,52,59.9459,0\S,144,1.80671,143,108.581,52,-63.3821,0\O,147,1.49704,144,102.851,143,56.6469,0\C,147,1.80628,144,87.592,143,-47.9552,0\H,149,1.09313,147,106.539,144,-46.7236,0\H,149,1.09319,147,107.897,144,-162.529,0\H,149,1.09363,147,109.981,144,70.3744,0\H,15,2.43213,13,113.134,12,-159.421,0\C,153,1.09283,15,130.693,13,11.2999,0\H,154,1.09305,153,106.97,15,-5.24054,0\H,154,1.09314,153,109.449,15,-126.034,0\S,154,1.8069,153,112.558,15,113.463,0\O,157,1.49701,154,103.996,153,-167.657,0\C,157,1.80764,154,97.3175,153,86.8825,0\H,159,1.09274,157,108.188,154,-72.839,0\H,159,1.09309,157,106.369,154,170.757,0\H,159,1.09346,157,108.236,154,50.4763,0\H,6,2.44505,3,145.313,1,-139.484,0\C,163,1.09309,6,135.179,3,-143.691,0\H,164,1.09269,163,103.157,6,-161.404,0\H,164,1.09292,163,101.604,6,-43.1466,0\S,164,1.80724,163,102.092,6,75.5131,0\O,167,1.49662,164,99.9255,163,-68.8608,0\C,167,1.80735,164,91.4943,163,-168.168,0\H,169,1.09258,167,106.245,164,168.621,0\H,169,1.093,167,105.824,164,-73.0764,0\H,169,1.09359,167,114.971,164,47.1677,0\H,166,2.15139,164,131.575,163,71.4789,0\C,173,1.0925,166,159.961,164,162.108,0\H,174,1.09296,173,110.457,166,-2.70254,0\H,174,1.09307,173,108.887,166,-116.403,0\S,174,1.80646,173,108.225,166,121.96,0\O,177,1.49703,174,107.716,173,-49.4291,0\C,177,1.80701,174,98.0544,173,-159.613,0\H,179,1.09266,177,103.845,174,-66.3292,0\H,179,1.09275,177,108.602,174,50.8415,0\H,179,1.09303,177,106.928,174,165.053,0\O,55,2.47246,54,146.791,53,38.4116,0\S,183,1.49743,55,143.286,54,-114.066,0\C,184,1.80722,183,99.702,55,-97.2699,0\H,185,1.09251,184,111.58,183,59.1837,0\H,185,1.09324,184,106.876,183,-58.0667,0\H,185,1.09327,184,112.762,183,-174.18,0\C,184,1.80731,183,100.945,55,-7.31801,0\H,189,1.09259,184,109.062,183,-50.6966,0\H,189,1.0926,184,105.651,183,70.2035,0\H,189,1.0934,184,110.989,183,-169.186,0\H,15,2.47897,13,112.848,12,102.103,0\C,193,1.09333,15,129.202,13,152.861,0\H,194,1.0924,193,107.345,15,-55.6991,0\H,194,1.09311,193,116.477,15,71.147,0\S,194,1.80678,193,111.524,15,-166.65,0\O,197,1.49761,194,110.014,193,-161.844,0\C,197,1.80765,194,91.7517,193,-56.9109,0\H,199,1.0923,197,106.033,194,98.0352,0\H,199,1.09292,197,115.29,194,-24.8217,0\H,199,1.09337,197,104.147,194,-145.232,0\H,196,2.2527,194,104.851,193,-59.8688,0\C,203,1.093,196,112.298,194,-139.606,0\H,204,1.0929,203,110.846,196,59.7728,0\H,204,1.09365,203,110.39,196,-60.3435,0\S,204,1.80722,203,108.349,196,-175.339,0\O,207,1.49696,204,104.906,203,-62.541,0\C,207,1.80714,204,103.676,203,47.1234,0\H,209,1.09246,207,115.729,204,65.3277,0\H,209,1.0931,207,106.53,204,-57.3526,0\H,209,1.09372,207,109.03,204,-173.769,0\H,201,2.3119,199,165.876,197,-128.568,0\C,213,1.09272,201,108.418,199,140.279,0\H,214,1.09243,213,108.123,201,-52.6766,0\H,214,1.09327,213,113.181,201,75.8515,0\S,214,1.80738,213,105.895,201,-161.294,0\O,217,1.49691,214,103.848,213,171.77,0\C,217,1.8075,214,101.096,213,-76.4697,0\H,219,1.0927,217,104.781,214,-125.564,0\H,219,1.0931,217,106.571,214,-8.72533,0\H,219,1.09314,217,113.039,214,106.47,0\H,193,2.31709,15,90.7747,13,-9.38761,0\C,223,1.09275,193,140.243,15,130.554,0\H,224,1.09186,223,112.351,193,91.832,0\H,224,1.09328,223,115.335,193,-39.3763,0\S,224,1.80726,223,102.975,193,-152.413,0\O,227,1.49724,224,102.172,223,69.769,0\C,227,1.80683,224,96.8498,223,174.456,0\H,229,1.09264,227,111.301,224,126.734,0\H,229,1.09284,227,103.475,224,-120.373,0\H,229,1.09291,227,107.846,224,-0.195775,0\H,232,2.24716,229,135.155,227,121.025,0\C,233,1.09245,232,100.708,229,177.923,0\H,234,1.09269,233,113.532,232,-1.62043,0\H,234,1.09287,233,106.558,232,-124.545,0\S,234,1.80701,233,108.904,232,118.073,0\O,237,1.49748,234,110.434,233,-52.7857,0\C,237,1.80667,234,95.4022,233,-161.248,0\H,239,1.09304,237,112.814,234,60.0858,0\H,239,1.09328,237,107.461,234,172.731,0\H,239,1.09362,237,109.996,234,-70.4265,0\H,220,2.35914,219,97.3124,217,-160.45,0\C,243,1.09286,220,126.822,219,-128.645,0\H,244,1.09342,243,112.916,220,26.0828,0\H,244,1.09343,243,115.708,220,-93.7621,0\S,244,1.80749,243,111.841,220,143.234,0\O,247,1.49655,244,102.851,243,80.6593,0\C,247,1.80686,244,98.4042,243,-175.43,0\H,249,1.09266,247,106.589,244,73.4775,0\H,249,1.09284,247,101.308,244,-160.082,0\H,249,1.09337,247,107.095,244,-37.8972,0\H,238,2.43459,237,99.4486,234,65.3105,0\C,253,1.09313,238,111.813,237,160.09,0\H,254,1.09293,253,111.747,238,-8.16016,0\H,254,1.0934,253,107.249,238,-121.035,0\S,254,1.80758,253,115.567,238,113.926,0\O,257,1.49684,254,103.481,253,172.142,0\C,257,1.80705,254,102.693,253,71.7285,0\H,259,1.09269,257,112.951,254,159.917,0\H,259,1.09322,257,106.301,254,-65.7803,0\H,259,1.09332,257,102.446,254,57.1256,0\H,258,2.29667,257,156.032,254,138.296,0\C,263,1.09338,258,147.472,257,-103.816,0\H,264,1.09246,263,108.617,258,-28.5837,0\H,264,1.09347,263,107.899,258,95.1994,0\S,264,1.80719,263,111.413,258,-141.643,0\O,267,1.49706,264,101.345,263,73.088,0\C,267,1.80665,264,100.993,263,-177.554,0\H,269,1.09296,267,106.834,264,-80.6885,0\H,269,1.09314,267,110.661,264,44.0478,0\H,269,1.09322,267,112.323,264,165.456,0\H,265,2.41433,264,113.612,263,51.26,0\C,273,1.09256,265,100.838,264,122.327,0\H,274,1.09278,273,114.654,265,50.3431,0\H,274,1.09309,273,101.73,265,172.905,0\S,274,1.80687,273,107.461,265,-71.051,0\O,277,1.49678,274,98.4187,273,-67.3913,0\C,277,1.80657,274,92.2721,273,-170.786,0\H,279,1.09221,277,111.567,274,-79.266,0\H,279,1.09351,277,110.551,274,163.639,0\H,279,1.09362,277,109.322,274,43.4414,0\H,222,2.44285,219,146.533,217,-144.089,0\C,283,1.09334,222,96.7039,219,-170.228,0\H,284,1.09292,283,113.061,222,-66.9913,0\H,284,1.09312,283,109.909,222,173.627,0\S,284,1.80708,283,112.732,222,55.5229,0\O,287,1.49664,284,102.2,283,-99.7832,0\C,287,1.80688,284,92.4464,283,162.967,0\H,289,1.09288,287,112.079,284,66.3572,0\H,289,1.09301,287,101.976,284,-175.064,0\H,289,1.09344,287,103.677,284,-63.4216,0\\\@

 Total job time:  68.93s(wall), 238.56s(cpu) 
 Fri Mar 12 12:54:31 2021

        *************************************************************
        *                                                           *
        *  Thank you very much for using Q-Chem.  Have a nice day.  *
        *                                                           *
        *************************************************************


