                  Welcome to Q-Chem
     A Quantum Leap Into The Future Of Chemistry


 Q-Chem 6.0 (devel), Q-Chem, Inc., Pleasanton, CA (2022)

 E. Epifanovsky,  A. T. B. Gilbert,  Xintian Feng,  Joonho Lee,  Yuezhi Mao,  
 N. Mardirossian,  P. Pokhilko,  A. White,  M. Wormit,  M. P. Coons,  
 A. L. Dempwolff,  Zhengting Gan,  D. Hait,  P. R. Horn,  L. D. Jacobson,  
 I. Kaliman,  J. Kussmann,  A. W. Lange,  Ka Un Lao,  D. S. Levine,  Jie Liu,  
 S. C. McKenzie,  A. F. Morrison,  K. Nanda,  F. Plasser,  D. R. Rehn,  
 M. L. Vidal,  Zhi-Qiang You,  Ying Zhu,  B. Alam,  B. Albrecht,  
 A. Aldossary,  E. Alguire,  J. H. Andersen,  V. Athavale,  D. Barton,  
 K. Begam,  A. Behn,  N. Bellonzi,  Y. A. Bernard,  E. J. Berquist,  
 H. Burton,  A. Carreras,  K. Carter-Fenk,  Romit Chakraborty,  
 Chandrima Chakravarty,  Junhan Chen,  A. D. Chien,  K. D. Closser,  
 V. Cofer-Shabica,  L. Cunha,  S. Dasgupta,  Jia Deng,  M. de Wergifosse,  
 M. Diedenhofen,  Hainam Do,  S. Ehlert,  Po-Tung Fang,  S. Fatehi,  
 Qingguo Feng,  T. Friedhoff,  B. Ganoe,  J. Gayvert,  Qinghui Ge,  
 G. Gidofalvi,  M. Goldey,  J. Gomes,  C. Gonzalez-Espinoza,  S. Gulania,  
 A. Gunina,  J. A. Gyamfi,  M. W. D. Hanson-Heine,  P. H. P. Harbach,  
 A. W. Hauser,  M. F. Herbst,  M. Hernandez Vera,  M. Hodecker,  
 Z. C. Holden,  S. Houck,  Xunkun Huang,  Kerwin Hui,  B. C. Huynh,  
 K. Ikeda,  M. Ivanov,  Hyunjun Ji,  Zuxin Jin,  Hanjie Jiang,  B. Kaduk,  
 S. Kaehler,  R. Kang,  K. Khistyaev,  Jaehoon Kim,  Yongbin Kim,  
 P. Klunzinger,  Z. Koczor-Benda,  Joong Hoon Koh,  D. Kosenkov,  
 Saikiran Kotaru,  L. Koulias,  T. Kowalczyk,  C. M. Krauter,  K. Kue,  
 A. Kunitsa,  T. Kus,  A. Landau,  K. V. Lawler,  D. Lefrancois,  S. Lehtola,  
 Rain Li,  Shaozhi Li,  Yi-Pei Li,  Jiashu Liang,  M. Liebenthal,  
 Hung-Hsuan Lin,  You-Sheng Lin,  Fenglai Liu,  Kuan-Yu Liu,  
 M. Loipersberger,  A. Luenser,  C. Malbon,  A. Manjanath,  P. Manohar,  
 E. Mansoor,  S. F. Manzer,  Shan-Ping Mao,  A. V. Marenich,  T. Markovich,  
 S. Mason,  F. Matz,  S. A. Maurer,  P. F. McLaughlin,  M. F. S. J. Menger,  
 J.-M. Mewes,  S. A. Mewes,  P. Morgante,  Mohammad Mostafanejad,  
 J. W. Mullinax,  K. J. Oosterbaan,  G. Paran,  V. Parravicini,  
 Alexander C. Paul,  Suranjan K. Paul,  F. Pavosevic,  Zheng Pei,  S. Prager,  
 E. I. Proynov,  E. Ramos,  B. Rana,  A. E. Rask,  A. Rettig,  R. M. Richard,  
 F. Rob,  E. Rossomme,  T. Scheele,  M. Scheurer,  M. Schneider,  
 P. E. Schneider,  N. Sergueev,  S. M. Sharada,  Hengyuan Shen,  
 W. Skomorowski,  D. W. Small,  C. J. Stein,  Yingli Su,  Yu-Chuan Su,  
 E. J. Sundstrom,  Zhen Tao,  J. Thirman,  Hung-Yi Tsai,  T. Tsuchimochi,  
 N. M. Tubman,  C. Utku,  S. P. Veccham,  O. Vydrov,  J. Wenzel,  
 Jonathan Wong,  J. Witte,  A. Yamada,  Chou-Hsun Yang,  Kun Yao,  
 S. Yeganeh,  S. R. Yost,  A. Zech,  F. Zeller,  Igor Ying Zhang,  
 Xing Zhang,  Yu Zhang,  D. Zuev,  A. Aspuru-Guzik,  A. T. Bell,  
 N. A. Besley,  K. B. Bravaya,  B. R. Brooks,  D. Casanova,  Jeng-Da Chai,  
 Hsing-Ta Chen,  S. Coriani,  C. J. Cramer,  A. E. DePrince, III,  
 R. A. DiStasio Jr.,  A. Dreuw,  B. D. Dunietz,  T. R. Furlani,  
 W. A. Goddard III,  S. Grimme,  S. Hammes-Schiffer,  T. Head-Gordon,  
 W. J. Hehre,  Chao-Ping Hsu,  T.-C. Jagau,  Yousung Jung,  A. Klamt,  
 Jing Kong,  D. S. Lambrecht,  Xiangyuan Li,  WanZhen Liang,  N. J. Mayhall,  
 C. W. McCurdy,  J. B. Neaton,  T. Neudecker,  C. Ochsenfeld,  
 J. A. Parkhill,  R. Peverati,  V. A. Rassolov,  Haisheng Ren,  Yihan Shao,  
 L. V. Slipchenko,  R. P. Steele,  J. E. Subotnik,  A. J. W. Thom,  
 A. Tkatchenko,  D. G. Truhlar,  T. Van Voorhis,  Fan Wang,  
 T. A. Wesolowski,  K. B. Whaley,  H. L. Woodcock III,  P. M. Zimmerman,  
 S. Faraji,  P. M. W. Gill,  M. Head-Gordon,  J. M. Herbert,  A. I. Krylov

 Contributors to earlier versions of Q-Chem not listed above: 
 R. D. Adamson,  B. Austin,  R. Baer,  J. Baker,  G. J. O. Beran,  
 K. Brandhorst,  S. T. Brown,  E. F. C. Byrd,  Arup K. Chakraborty,  
 G. K. L. Chan,  Chun-Min Chang,  Yunqing Chen,  C.-L. Cheng,  
 Siu Hung Chien,  D. M. Chipman,  D. L. Crittenden,  H. Dachsel,  
 R. J. Doerksen,  A. D. Dutoi,  R. G. Edgar,  J. Fosso-Tande,  
 L. Fusti-Molnar,  D. Ghosh,  A. Ghysels,  A. Golubeva-Zadorozhnaya,  
 J. Gonthier,  M. S. Gordon,  S. R. Gwaltney,  G. Hawkins,  J. E. Herr,  
 A. Heyden,  S. Hirata,  E. G. Hohenstein,  G. Kedziora,  F. J. Keil,  
 C. Kelley,  Jihan Kim,  R. A. King,  R. Z. Khaliullin,  P. P. Korambath,  
 W. Kurlancheek,  A. Laurent,  A. M. Lee,  M. S. Lee,  S. V. Levchenko,  
 Ching Yeh Lin,  D. Liotard,  E. Livshits,  R. C. Lochan,  I. Lotan,  
 L. A. Martinez-Martinez,  P. E. Maslen,  N. Nair,  D. P. O'Neill,  
 D. Neuhauser,  E. Neuscamman,  C. M. Oana,  R. Olivares-Amaya,  R. Olson,  
 T. M. Perrine,  B. Peters,  P. A. Pieniazek,  A. Prociuk,  Y. M. Rhee,  
 J. Ritchie,  M. A. Rohrdanz,  E. Rosta,  N. J. Russ,  H. F. Schaefer III,  
 M. W. Schmidt,  N. E. Schultz,  S. Sharma,  N. Shenvi,  C. D. Sherrill,  
 A. C. Simmonett,  A. Sodt,  T. Stein,  D. Stuck,  K. S. Thanthiriwatte,  
 V. Vanovschi,  L. Vogt,  Tao Wang,  A. Warshel,  M. A. Watson,  
 C. F. Williams,  Q. Wu,  X. Xu,  Jun Yang,  W. Zhang,  Yan Zhao

   Please cite Q-Chem as follows:
  "Software for the frontiers of quantum chemistry:
   An overview of developments in the Q-Chem 5 package"
   J. Chem. Phys. 155, 084801 (2021)
   https://doi.org/10.1063/5.0055522 (open access)

 Q-Chem 6.0.0 for Intel X86 EM64T Linux

 Parts of Q-Chem use Armadillo 9.900.5 (Nocturnal Misbehaviour).
 http://arma.sourceforge.net/

 Q-Chem begins on Thu Jul 21 03:47:20 2022  

 Host: nid00529
0

     Scratch files written to /global/cscratch1/sd/ymao90/r7.00_frame_0043_almo_B3LYP_dp20220721031447//
 Processing $rem in /global/homes/y/ymao90/my_qchem/qchem_embedding_5p4/config/preferences:
 Processing $rem in /global/homes/y/ymao90/.qchemrc:

 Checking the input file for inconsistencies... 	...done.

--------------------------------------------------------------
User input:
--------------------------------------------------------------
$molecule
0 1
--
0 1
C    23.81400   17.59600   26.47100  
C    22.71000   18.65800   26.60400  
C    23.15200   19.97600   27.26000  
C    24.34100   20.59100   26.50400  
C    25.44300   19.55500   26.22900  
C    25.00000   18.18500   25.69000  
H    22.25400   20.60600   27.25700  
H    22.42400   18.84000   25.56100  
H    24.13000   17.40200   27.50400  
H    23.55100   16.57400   26.17400  
H    23.97700   20.92700   25.52500  
H    24.68100   21.51000   26.99800  
H    26.09800   19.98600   25.46200  
H    26.08300   19.37700   27.10200  
H    24.65500   18.41200   24.67400  
H    25.84800   17.49800   25.57400  
H    23.42000   19.71300   28.29100  
N    21.50700   18.22200   27.31100  
H    21.50200   18.35700   28.31500  
C    20.42900   17.66800   26.65500  
H    19.58500   17.55800   27.36100  
O    20.36900   17.45300   25.45800  
--
0 1
C    19.04500   18.41700   22.75400  
H    19.45200   19.33000   23.19600  
H    18.44000   18.53500   21.85100  
H    18.40800   17.97600   23.52500  
S    20.32500   17.23500   22.27400  
C    20.84500   18.20000   20.83700  
H    20.07900   18.29800   20.06400  
H    21.14000   19.18700   21.20100  
H    21.67800   17.71100   20.32500  
O    19.49700   16.17300   21.62000  
C    22.99400   21.58900   34.94500  
H    23.13600   21.84500   35.99800  
H    22.88900   20.51000   34.80500  
H    23.84400   21.92400   34.34500  
S    21.50200   22.32600   34.24000  
C    20.58500   20.78300   34.03000  
H    19.97100   20.93800   33.13900  
H    21.32800   20.01300   33.80700  
H    20.04100   20.58800   34.95800  
O    21.99000   22.70400   32.87600  
C    25.77300   14.34700   25.63400  
H    25.30100   15.26000   25.26200  
H    25.13700   13.50500   25.34700  
H    25.93500   14.42500   26.71200  
S    27.33700   14.38400   24.72900  
C    28.01400   13.04200   25.73200  
H    28.04300   13.31500   26.79000  
H    27.32400   12.22400   25.51200  
H    29.00100   12.80500   25.32600  
O    27.99200   15.61600   25.27300  
C    30.27400   18.14500   30.91500  
H    30.28400   17.21600   30.34000  
H    30.32300   17.78800   31.94700  
H    29.27500   18.57800   30.82300  
S    31.64200   19.25000   30.49800  
C    31.23300   19.09300   28.74500  
H    30.21500   19.48700   28.68300  
H    31.83800   19.73600   28.10100  
H    31.26300   18.05300   28.40900  
O    32.81700   18.35000   30.72400  
C    21.31800   22.75700   21.89100  
H    20.37700   22.49700   22.38300  
H    21.09000   23.52400   21.14600  
H    21.79900   21.85000   21.51600  
S    22.36500   23.45900   23.18600  
C    21.70800   22.52300   24.58400  
H    22.35500   22.59800   25.46200  
H    20.68600   22.82100   24.83000  
H    21.73500   21.51100   24.17200  
O    21.64200   24.73900   23.46800  
C    18.09700   14.25300   26.18700  
H    17.55300   15.19300   26.31400  
H    18.21100   13.65900   27.09800  
H    19.10400   14.35300   25.77500  
S    17.18200   13.17800   25.05900  
C    17.20300   14.29500   23.63900  
H    17.16700   15.33000   23.98900  
H    18.16200   14.16200   23.13200  
H    16.31500   13.98400   23.08400  
O    15.74400   13.28500   25.46200  
C    21.62300   14.34600   24.10500  
H    20.92100   14.48500   23.27900  
H    21.14500   14.95000   24.88100  
H    22.57000   14.85200   23.90000  
S    21.75000   12.63600   24.67400  
C    21.77900   11.91600   23.01700  
H    22.69700   12.06200   22.44100  
H    21.51100   10.87000   23.18500  
H    20.97300   12.44600   22.50200  
O    20.37300   12.38400   25.20400  
C    28.36700   14.82100   28.71900  
H    27.84300   13.88700   28.93400  
H    28.64300   14.91800   27.66600  
H    29.22900   14.95000   29.37900  
S    27.19500   16.14200   29.10100  
C    28.07600   17.35700   28.09400  
H    27.62400   18.26400   28.50300  
H    29.15600   17.25700   28.22900  
H    27.84400   17.27500   27.02900  
O    27.55700   16.69300   30.44500  
C    26.23300   22.21000   22.35700  
H    27.16600   22.25300   21.78900  
H    25.61000   23.09900   22.22600  
H    26.49600   22.09400   23.41100  
S    25.24500   20.82900   21.73800  
C    24.88400   21.58100   20.13500  
H    24.12300   22.36000   20.22400  
H    25.77000   22.02000   19.66900  
H    24.48100   20.80900   19.47400  
O    23.97000   20.84400   22.52100  
C    14.99800   15.15900   28.13300  
H    15.79800   15.78000   27.72300  
H    14.53900   14.55500   27.34600  
H    14.29200   15.78600   28.68300  
S    15.69200   14.10300   29.42400  
C    15.66900   15.31100   30.76800  
H    16.08100   16.28400   30.48700  
H    14.61300   15.42300   31.02800  
H    16.37400   15.00300   31.54400  
O    17.16400   13.99000   29.17500  
C    28.79000   20.34900   20.00100  
H    28.66300   21.16900   20.71200  
H    28.86100   20.69200   18.96600  
H    28.04400   19.56500   20.16000  
S    30.39400   19.56600   20.28100  
C    31.57400   20.89800   19.96600  
H    32.58500   20.48900   19.88800  
H    31.26100   21.25000   18.98000  
H    31.64600   21.70900   20.69400  
O    30.45300   18.85000   18.96800  
C    17.10800   20.38300   25.65100  
H    18.18300   20.51000   25.80000  
H    16.81200   20.56600   24.61500  
H    16.43200   20.96300   26.28500  
S    16.65600   18.66300   25.97000  
C    14.94800   18.88600   26.51600  
H    14.42600   17.94500   26.71000  
H    14.88400   19.58900   27.35000  
H    14.44200   19.40600   25.69900  
O    17.35000   18.35800   27.26100  
C    18.86500   17.32100   30.67200  
H    18.99000   16.24300   30.54500  
H    17.92000   17.64200   30.22500  
H    19.76500   17.81100   30.29400  
S    18.63000   17.52800   32.45100  
C    20.20600   16.83100   32.99300  
H    20.18600   15.76300   32.76000  
H    21.04500   17.23700   32.42300  
H    20.27600   16.93900   34.07800  
O    17.50100   16.65100   32.89700  
C    23.85500   14.43600   31.89700  
H    23.52900   14.87500   30.95100  
H    23.02700   14.39200   32.60900  
H    24.78400   14.96000   32.13900  
S    24.51000   12.77000   31.65600  
C    25.53800   12.93600   30.18000  
H    25.00200   13.58700   29.48400  
H    26.49300   13.39500   30.44600  
H    25.75300   11.89900   29.91000  
O    23.35400   11.87000   31.34500  
C    24.08600   20.38100   31.32300  
H    23.85400   21.07100   32.13800  
H    25.15200   20.13900   31.30600  
H    23.93100   20.79200   30.32200  
S    23.16900   18.83100   31.47400  
C    24.30100   17.93600   30.38600  
H    24.86300   18.67500   29.80800  
H    24.96700   17.28200   30.95400  
H    23.68600   17.35100   29.69700  
O    22.00200   19.02300   30.55600  
C    29.52900   18.56900   24.84200  
H    29.49500   17.48700   24.99100  
H    30.48400   18.80300   24.36500  
H    29.41200   19.15500   25.75700  
S    28.22000   18.98400   23.66600  
C    28.50300   17.58300   22.56100  
H    28.36100   16.71600   23.21100  
H    27.78000   17.61400   21.74100  
H    29.48700   17.78100   22.12800  
O    28.83500   20.17000   22.99000  
C    24.34600   26.42000   31.56900  
H    25.40700   26.21700   31.73700  
H    24.26000   27.16000   30.77000  
H    23.83800   26.68500   32.50000  
S    23.58000   24.92600   30.89900  
C    25.08600   23.98700   30.56200  
H    24.77600   23.06500   30.06200  
H    25.70800   24.70700   30.02600  
H    25.45400   23.78100   31.57100  
O    23.11600   25.45600   29.57800  
C    23.52600   14.86800   21.13300  
H    22.70900   15.56200   21.34700  
H    23.76200   14.71000   20.07700  
H    23.23200   13.87700   21.48700  
S    24.90100   15.55000   22.08700  
C    24.42800   17.28400   21.90800  
H    23.95400   17.62100   22.83400  
H    25.38000   17.75900   21.65700  
H    23.75900   17.32800   21.04500  
O    26.01400   15.31700   21.11300  
C    24.47000   26.22200   24.95300  
H    25.11600   27.04300   25.27500  
H    24.04400   26.43300   23.96900  
H    23.69400   26.20400   25.72200  
S    25.43300   24.69900   24.82600  
C    25.64500   24.53600   26.61300  
H    25.93200   25.55300   26.89300  
H    24.66200   24.30300   27.03000  
H    26.39000   23.74500   26.73300  
O    26.74500   25.18900   24.29500  
C    20.96500   22.89100   28.92400  
H    21.34500   22.58800   29.90300  
H    21.35600   22.30400   28.08900  
H    21.25600   23.91200   28.66400  
S    19.20700   22.56400   28.66400  
C    19.20200   20.80800   29.09000  
H    19.37600   20.61800   30.15200  
H    18.28800   20.32000   28.74400  
H    20.05500   20.35300   28.58000  
O    19.15100   22.49000   27.17000  
C    13.52400   19.56600   21.99200  
H    13.55300   18.76100   21.25400  
H    12.96300   19.27000   22.88100  
H    13.18800   20.52700   21.59400  
S    15.26600   19.77800   22.42600  
C    16.00000   20.69900   21.05600  
H    15.47200   21.65600   21.05600  
H    17.08300   20.74500   21.19700  
H    15.87000   20.28500   20.05400  
O    15.83200   18.39300   22.36500  
C    17.01800   25.10500   25.45700  
H    17.45600   25.12900   26.45800  
H    17.00200   26.16000   25.17200  
H    15.98200   24.76500   25.53300  
S    18.03500   24.03000   24.42000  
C    18.31200   25.34600   23.21300  
H    19.10400   24.86200   22.63700  
H    17.33100   25.53000   22.76900  
H    18.78000   26.15000   23.78700  
O    17.07800   23.07900   23.77100  
C    28.63600   23.66700   28.52700  
H    28.67600   23.90700   29.59200  
H    29.60200   23.94700   28.10000  
H    27.78400   24.25400   28.17500  
S    28.27600   21.91400   28.27500  
C    28.73500   22.01900   26.53000  
H    28.25600   22.89500   26.08500  
H    29.82200   22.01300   26.42000  
H    28.36300   21.14100   25.99500  
O    26.78800   21.74200   28.27500  
C    21.10300   13.29400   29.41700  
H    21.89300   12.79700   29.98600  
H    20.70300   14.27800   29.67500  
H    20.25500   12.63700   29.21000  
S    22.04500   13.61600   27.90800  
C    22.91500   12.03500   27.81900  
H    22.19800   11.21800   27.71000  
H    23.60100   12.24600   26.99500  
H    23.52800   12.01200   28.72400  
O    23.04400   14.64700   28.33300  
C    30.63700   25.98000   22.13700  
H    30.95800   26.13800   23.17000  
H    31.45200   25.58400   21.52600  
H    30.36400   26.93200   21.67500  
S    29.30300   24.76100   22.15500  
C    30.35700   23.42100   22.75400  
H    29.76700   22.50100   22.72100  
H    31.29000   23.34100   22.19100  
H    30.62000   23.56800   23.80500  
O    29.11600   24.41500   20.71000  
C    25.22700   9.75800    21.88500  
H    24.14100   9.68300    21.79200  
H    25.61400   9.41700    20.92100  
H    25.60100   9.15300    22.71400  
S    25.64800   11.47800   22.24500  
C    27.44300   11.26800   22.26300  
H    27.56300   10.44700   22.97400  
H    27.74400   11.04400   21.23700  
H    27.87300   12.19300   22.65700  
O    25.35900   11.62200   23.70700  
$end

$rem
JOBTYPE  SP
METHOD  B3LYP
BASIS  6-31+G(D)
SYMMETRY  FALSE
SYM_IGNORE  TRUE
MEM_TOTAL  12000
MEM_STATIC  4000
BASIS_LIN_DEP_THRESH  6
THRESH  14
SCF_CONVERGENCE  8
FD_MAT_VEC_PROD  FALSE
XC_GRID  000075000302
NL_GRID  1
MAX_SCF_CYCLES  200
FRGM_METHOD  STOLL
SCFMI_MODE  1
ALMO_EFIELD  TRUE
$end

$rem_frgm
SCF_CONVERGENCE  4
$end


--------------------------------------------------------------
 ----------------------------------------------------------------
             Standard Nuclear Orientation (Angstroms)
    I     Atom           X                Y                Z
 ----------------------------------------------------------------
    1      C      23.8140000000    17.5960000000    26.4710000000
    2      C      22.7100000000    18.6580000000    26.6040000000
    3      C      23.1520000000    19.9760000000    27.2600000000
    4      C      24.3410000000    20.5910000000    26.5040000000
    5      C      25.4430000000    19.5550000000    26.2290000000
    6      C      25.0000000000    18.1850000000    25.6900000000
    7      H      22.2540000000    20.6060000000    27.2570000000
    8      H      22.4240000000    18.8400000000    25.5610000000
    9      H      24.1300000000    17.4020000000    27.5040000000
   10      H      23.5510000000    16.5740000000    26.1740000000
   11      H      23.9770000000    20.9270000000    25.5250000000
   12      H      24.6810000000    21.5100000000    26.9980000000
   13      H      26.0980000000    19.9860000000    25.4620000000
   14      H      26.0830000000    19.3770000000    27.1020000000
   15      H      24.6550000000    18.4120000000    24.6740000000
   16      H      25.8480000000    17.4980000000    25.5740000000
   17      H      23.4200000000    19.7130000000    28.2910000000
   18      N      21.5070000000    18.2220000000    27.3110000000
   19      H      21.5020000000    18.3570000000    28.3150000000
   20      C      20.4290000000    17.6680000000    26.6550000000
   21      H      19.5850000000    17.5580000000    27.3610000000
   22      O      20.3690000000    17.4530000000    25.4580000000
   23      C      19.0450000000    18.4170000000    22.7540000000
   24      H      19.4520000000    19.3300000000    23.1960000000
   25      H      18.4400000000    18.5350000000    21.8510000000
   26      H      18.4080000000    17.9760000000    23.5250000000
   27      S      20.3250000000    17.2350000000    22.2740000000
   28      C      20.8450000000    18.2000000000    20.8370000000
   29      H      20.0790000000    18.2980000000    20.0640000000
   30      H      21.1400000000    19.1870000000    21.2010000000
   31      H      21.6780000000    17.7110000000    20.3250000000
   32      O      19.4970000000    16.1730000000    21.6200000000
   33      C      22.9940000000    21.5890000000    34.9450000000
   34      H      23.1360000000    21.8450000000    35.9980000000
   35      H      22.8890000000    20.5100000000    34.8050000000
   36      H      23.8440000000    21.9240000000    34.3450000000
   37      S      21.5020000000    22.3260000000    34.2400000000
   38      C      20.5850000000    20.7830000000    34.0300000000
   39      H      19.9710000000    20.9380000000    33.1390000000
   40      H      21.3280000000    20.0130000000    33.8070000000
   41      H      20.0410000000    20.5880000000    34.9580000000
   42      O      21.9900000000    22.7040000000    32.8760000000
   43      C      25.7730000000    14.3470000000    25.6340000000
   44      H      25.3010000000    15.2600000000    25.2620000000
   45      H      25.1370000000    13.5050000000    25.3470000000
   46      H      25.9350000000    14.4250000000    26.7120000000
   47      S      27.3370000000    14.3840000000    24.7290000000
   48      C      28.0140000000    13.0420000000    25.7320000000
   49      H      28.0430000000    13.3150000000    26.7900000000
   50      H      27.3240000000    12.2240000000    25.5120000000
   51      H      29.0010000000    12.8050000000    25.3260000000
   52      O      27.9920000000    15.6160000000    25.2730000000
   53      C      30.2740000000    18.1450000000    30.9150000000
   54      H      30.2840000000    17.2160000000    30.3400000000
   55      H      30.3230000000    17.7880000000    31.9470000000
   56      H      29.2750000000    18.5780000000    30.8230000000
   57      S      31.6420000000    19.2500000000    30.4980000000
   58      C      31.2330000000    19.0930000000    28.7450000000
   59      H      30.2150000000    19.4870000000    28.6830000000
   60      H      31.8380000000    19.7360000000    28.1010000000
   61      H      31.2630000000    18.0530000000    28.4090000000
   62      O      32.8170000000    18.3500000000    30.7240000000
   63      C      21.3180000000    22.7570000000    21.8910000000
   64      H      20.3770000000    22.4970000000    22.3830000000
   65      H      21.0900000000    23.5240000000    21.1460000000
   66      H      21.7990000000    21.8500000000    21.5160000000
   67      S      22.3650000000    23.4590000000    23.1860000000
   68      C      21.7080000000    22.5230000000    24.5840000000
   69      H      22.3550000000    22.5980000000    25.4620000000
   70      H      20.6860000000    22.8210000000    24.8300000000
   71      H      21.7350000000    21.5110000000    24.1720000000
   72      O      21.6420000000    24.7390000000    23.4680000000
   73      C      18.0970000000    14.2530000000    26.1870000000
   74      H      17.5530000000    15.1930000000    26.3140000000
   75      H      18.2110000000    13.6590000000    27.0980000000
   76      H      19.1040000000    14.3530000000    25.7750000000
   77      S      17.1820000000    13.1780000000    25.0590000000
   78      C      17.2030000000    14.2950000000    23.6390000000
   79      H      17.1670000000    15.3300000000    23.9890000000
   80      H      18.1620000000    14.1620000000    23.1320000000
   81      H      16.3150000000    13.9840000000    23.0840000000
   82      O      15.7440000000    13.2850000000    25.4620000000
   83      C      21.6230000000    14.3460000000    24.1050000000
   84      H      20.9210000000    14.4850000000    23.2790000000
   85      H      21.1450000000    14.9500000000    24.8810000000
   86      H      22.5700000000    14.8520000000    23.9000000000
   87      S      21.7500000000    12.6360000000    24.6740000000
   88      C      21.7790000000    11.9160000000    23.0170000000
   89      H      22.6970000000    12.0620000000    22.4410000000
   90      H      21.5110000000    10.8700000000    23.1850000000
   91      H      20.9730000000    12.4460000000    22.5020000000
   92      O      20.3730000000    12.3840000000    25.2040000000
   93      C      28.3670000000    14.8210000000    28.7190000000
   94      H      27.8430000000    13.8870000000    28.9340000000
   95      H      28.6430000000    14.9180000000    27.6660000000
   96      H      29.2290000000    14.9500000000    29.3790000000
   97      S      27.1950000000    16.1420000000    29.1010000000
   98      C      28.0760000000    17.3570000000    28.0940000000
   99      H      27.6240000000    18.2640000000    28.5030000000
  100      H      29.1560000000    17.2570000000    28.2290000000
  101      H      27.8440000000    17.2750000000    27.0290000000
  102      O      27.5570000000    16.6930000000    30.4450000000
  103      C      26.2330000000    22.2100000000    22.3570000000
  104      H      27.1660000000    22.2530000000    21.7890000000
  105      H      25.6100000000    23.0990000000    22.2260000000
  106      H      26.4960000000    22.0940000000    23.4110000000
  107      S      25.2450000000    20.8290000000    21.7380000000
  108      C      24.8840000000    21.5810000000    20.1350000000
  109      H      24.1230000000    22.3600000000    20.2240000000
  110      H      25.7700000000    22.0200000000    19.6690000000
  111      H      24.4810000000    20.8090000000    19.4740000000
  112      O      23.9700000000    20.8440000000    22.5210000000
  113      C      14.9980000000    15.1590000000    28.1330000000
  114      H      15.7980000000    15.7800000000    27.7230000000
  115      H      14.5390000000    14.5550000000    27.3460000000
  116      H      14.2920000000    15.7860000000    28.6830000000
  117      S      15.6920000000    14.1030000000    29.4240000000
  118      C      15.6690000000    15.3110000000    30.7680000000
  119      H      16.0810000000    16.2840000000    30.4870000000
  120      H      14.6130000000    15.4230000000    31.0280000000
  121      H      16.3740000000    15.0030000000    31.5440000000
  122      O      17.1640000000    13.9900000000    29.1750000000
  123      C      28.7900000000    20.3490000000    20.0010000000
  124      H      28.6630000000    21.1690000000    20.7120000000
  125      H      28.8610000000    20.6920000000    18.9660000000
  126      H      28.0440000000    19.5650000000    20.1600000000
  127      S      30.3940000000    19.5660000000    20.2810000000
  128      C      31.5740000000    20.8980000000    19.9660000000
  129      H      32.5850000000    20.4890000000    19.8880000000
  130      H      31.2610000000    21.2500000000    18.9800000000
  131      H      31.6460000000    21.7090000000    20.6940000000
  132      O      30.4530000000    18.8500000000    18.9680000000
  133      C      17.1080000000    20.3830000000    25.6510000000
  134      H      18.1830000000    20.5100000000    25.8000000000
  135      H      16.8120000000    20.5660000000    24.6150000000
  136      H      16.4320000000    20.9630000000    26.2850000000
  137      S      16.6560000000    18.6630000000    25.9700000000
  138      C      14.9480000000    18.8860000000    26.5160000000
  139      H      14.4260000000    17.9450000000    26.7100000000
  140      H      14.8840000000    19.5890000000    27.3500000000
  141      H      14.4420000000    19.4060000000    25.6990000000
  142      O      17.3500000000    18.3580000000    27.2610000000
  143      C      18.8650000000    17.3210000000    30.6720000000
  144      H      18.9900000000    16.2430000000    30.5450000000
  145      H      17.9200000000    17.6420000000    30.2250000000
  146      H      19.7650000000    17.8110000000    30.2940000000
  147      S      18.6300000000    17.5280000000    32.4510000000
  148      C      20.2060000000    16.8310000000    32.9930000000
  149      H      20.1860000000    15.7630000000    32.7600000000
  150      H      21.0450000000    17.2370000000    32.4230000000
  151      H      20.2760000000    16.9390000000    34.0780000000
  152      O      17.5010000000    16.6510000000    32.8970000000
  153      C      23.8550000000    14.4360000000    31.8970000000
  154      H      23.5290000000    14.8750000000    30.9510000000
  155      H      23.0270000000    14.3920000000    32.6090000000
  156      H      24.7840000000    14.9600000000    32.1390000000
  157      S      24.5100000000    12.7700000000    31.6560000000
  158      C      25.5380000000    12.9360000000    30.1800000000
  159      H      25.0020000000    13.5870000000    29.4840000000
  160      H      26.4930000000    13.3950000000    30.4460000000
  161      H      25.7530000000    11.8990000000    29.9100000000
  162      O      23.3540000000    11.8700000000    31.3450000000
  163      C      24.0860000000    20.3810000000    31.3230000000
  164      H      23.8540000000    21.0710000000    32.1380000000
  165      H      25.1520000000    20.1390000000    31.3060000000
  166      H      23.9310000000    20.7920000000    30.3220000000
  167      S      23.1690000000    18.8310000000    31.4740000000
  168      C      24.3010000000    17.9360000000    30.3860000000
  169      H      24.8630000000    18.6750000000    29.8080000000
  170      H      24.9670000000    17.2820000000    30.9540000000
  171      H      23.6860000000    17.3510000000    29.6970000000
  172      O      22.0020000000    19.0230000000    30.5560000000
  173      C      29.5290000000    18.5690000000    24.8420000000
  174      H      29.4950000000    17.4870000000    24.9910000000
  175      H      30.4840000000    18.8030000000    24.3650000000
  176      H      29.4120000000    19.1550000000    25.7570000000
  177      S      28.2200000000    18.9840000000    23.6660000000
  178      C      28.5030000000    17.5830000000    22.5610000000
  179      H      28.3610000000    16.7160000000    23.2110000000
  180      H      27.7800000000    17.6140000000    21.7410000000
  181      H      29.4870000000    17.7810000000    22.1280000000
  182      O      28.8350000000    20.1700000000    22.9900000000
  183      C      24.3460000000    26.4200000000    31.5690000000
  184      H      25.4070000000    26.2170000000    31.7370000000
  185      H      24.2600000000    27.1600000000    30.7700000000
  186      H      23.8380000000    26.6850000000    32.5000000000
  187      S      23.5800000000    24.9260000000    30.8990000000
  188      C      25.0860000000    23.9870000000    30.5620000000
  189      H      24.7760000000    23.0650000000    30.0620000000
  190      H      25.7080000000    24.7070000000    30.0260000000
  191      H      25.4540000000    23.7810000000    31.5710000000
  192      O      23.1160000000    25.4560000000    29.5780000000
  193      C      23.5260000000    14.8680000000    21.1330000000
  194      H      22.7090000000    15.5620000000    21.3470000000
  195      H      23.7620000000    14.7100000000    20.0770000000
  196      H      23.2320000000    13.8770000000    21.4870000000
  197      S      24.9010000000    15.5500000000    22.0870000000
  198      C      24.4280000000    17.2840000000    21.9080000000
  199      H      23.9540000000    17.6210000000    22.8340000000
  200      H      25.3800000000    17.7590000000    21.6570000000
  201      H      23.7590000000    17.3280000000    21.0450000000
  202      O      26.0140000000    15.3170000000    21.1130000000
  203      C      24.4700000000    26.2220000000    24.9530000000
  204      H      25.1160000000    27.0430000000    25.2750000000
  205      H      24.0440000000    26.4330000000    23.9690000000
  206      H      23.6940000000    26.2040000000    25.7220000000
  207      S      25.4330000000    24.6990000000    24.8260000000
  208      C      25.6450000000    24.5360000000    26.6130000000
  209      H      25.9320000000    25.5530000000    26.8930000000
  210      H      24.6620000000    24.3030000000    27.0300000000
  211      H      26.3900000000    23.7450000000    26.7330000000
  212      O      26.7450000000    25.1890000000    24.2950000000
  213      C      20.9650000000    22.8910000000    28.9240000000
  214      H      21.3450000000    22.5880000000    29.9030000000
  215      H      21.3560000000    22.3040000000    28.0890000000
  216      H      21.2560000000    23.9120000000    28.6640000000
  217      S      19.2070000000    22.5640000000    28.6640000000
  218      C      19.2020000000    20.8080000000    29.0900000000
  219      H      19.3760000000    20.6180000000    30.1520000000
  220      H      18.2880000000    20.3200000000    28.7440000000
  221      H      20.0550000000    20.3530000000    28.5800000000
  222      O      19.1510000000    22.4900000000    27.1700000000
  223      C      13.5240000000    19.5660000000    21.9920000000
  224      H      13.5530000000    18.7610000000    21.2540000000
  225      H      12.9630000000    19.2700000000    22.8810000000
  226      H      13.1880000000    20.5270000000    21.5940000000
  227      S      15.2660000000    19.7780000000    22.4260000000
  228      C      16.0000000000    20.6990000000    21.0560000000
  229      H      15.4720000000    21.6560000000    21.0560000000
  230      H      17.0830000000    20.7450000000    21.1970000000
  231      H      15.8700000000    20.2850000000    20.0540000000
  232      O      15.8320000000    18.3930000000    22.3650000000
  233      C      17.0180000000    25.1050000000    25.4570000000
  234      H      17.4560000000    25.1290000000    26.4580000000
  235      H      17.0020000000    26.1600000000    25.1720000000
  236      H      15.9820000000    24.7650000000    25.5330000000
  237      S      18.0350000000    24.0300000000    24.4200000000
  238      C      18.3120000000    25.3460000000    23.2130000000
  239      H      19.1040000000    24.8620000000    22.6370000000
  240      H      17.3310000000    25.5300000000    22.7690000000
  241      H      18.7800000000    26.1500000000    23.7870000000
  242      O      17.0780000000    23.0790000000    23.7710000000
  243      C      28.6360000000    23.6670000000    28.5270000000
  244      H      28.6760000000    23.9070000000    29.5920000000
  245      H      29.6020000000    23.9470000000    28.1000000000
  246      H      27.7840000000    24.2540000000    28.1750000000
  247      S      28.2760000000    21.9140000000    28.2750000000
  248      C      28.7350000000    22.0190000000    26.5300000000
  249      H      28.2560000000    22.8950000000    26.0850000000
  250      H      29.8220000000    22.0130000000    26.4200000000
  251      H      28.3630000000    21.1410000000    25.9950000000
  252      O      26.7880000000    21.7420000000    28.2750000000
  253      C      21.1030000000    13.2940000000    29.4170000000
  254      H      21.8930000000    12.7970000000    29.9860000000
  255      H      20.7030000000    14.2780000000    29.6750000000
  256      H      20.2550000000    12.6370000000    29.2100000000
  257      S      22.0450000000    13.6160000000    27.9080000000
  258      C      22.9150000000    12.0350000000    27.8190000000
  259      H      22.1980000000    11.2180000000    27.7100000000
  260      H      23.6010000000    12.2460000000    26.9950000000
  261      H      23.5280000000    12.0120000000    28.7240000000
  262      O      23.0440000000    14.6470000000    28.3330000000
  263      C      30.6370000000    25.9800000000    22.1370000000
  264      H      30.9580000000    26.1380000000    23.1700000000
  265      H      31.4520000000    25.5840000000    21.5260000000
  266      H      30.3640000000    26.9320000000    21.6750000000
  267      S      29.3030000000    24.7610000000    22.1550000000
  268      C      30.3570000000    23.4210000000    22.7540000000
  269      H      29.7670000000    22.5010000000    22.7210000000
  270      H      31.2900000000    23.3410000000    22.1910000000
  271      H      30.6200000000    23.5680000000    23.8050000000
  272      O      29.1160000000    24.4150000000    20.7100000000
  273      C      25.2270000000     9.7580000000    21.8850000000
  274      H      24.1410000000     9.6830000000    21.7920000000
  275      H      25.6140000000     9.4170000000    20.9210000000
  276      H      25.6010000000     9.1530000000    22.7140000000
  277      S      25.6480000000    11.4780000000    22.2450000000
  278      C      27.4430000000    11.2680000000    22.2630000000
  279      H      27.5630000000    10.4470000000    22.9740000000
  280      H      27.7440000000    11.0440000000    21.2370000000
  281      H      27.8730000000    12.1930000000    22.6570000000
  282      O      25.3590000000    11.6220000000    23.7070000000
 ----------------------------------------------------------------
 Nuclear Repulsion Energy =       45375.82438895 hartrees
 There are      581 alpha and      581 beta electrons
 Requested basis set is 6-31+G(d)
 There are 929 shells and 2589 basis functions

 Total QAlloc Memory Limit  12000 MB
 Mega-Array Size      3911 MB
 MEM_STATIC part      4000 MB

 A cutoff of  1.0D-14 yielded 167254 shell pairs
 There are   1452416 function pairs
 Smallest overlap matrix eigenvalue = 4.05E-07
 Linear dependence detected in AO basis
 Tighter screening thresholds may be required for diffuse basis sets
 Use S2THRESH > 14 and THRESH = 14 in case of SCF convergence issues
 Number of orthogonalized atomic orbitals = 2586
 Maximum deviation from orthogonality = 9.212E-11

 Scale SEOQF with 1.000000e-03/1.000000e-03/1.000000e-03

 Standard Electronic Orientation quadrupole field applied
 Nucleus-field energy     =    -0.0000003390 hartrees
 Attempting to make child job directory: /global/cscratch1/sd/ymao90/r7.00_frame_0043_almo_B3LYP_dp20220721031447//Frg1/
 Attempting to make child job directory: /global/cscratch1/sd/ymao90/r7.00_frame_0043_almo_B3LYP_dp20220721031447//Frg2/
 Creating input file /global/cscratch1/sd/ymao90/r7.00_frame_0043_almo_B3LYP_dp20220721031447/Frg1.input
 using default PutDataFrgm: nothing
 calling putenv with: QCSCRATCH=/global/cscratch1/sd/ymao90/r7.00_frame_0043_almo_B3LYP_dp20220721031447/ 
 Spawning Job For Fragment 0
 Done Job For Fragment 0
 calling putenv with: QCSCRATCH=/global/cscratch1/sd/ymao90 
 calling putenv with: QCTHREADS=16 
 Creating input file /global/cscratch1/sd/ymao90/r7.00_frame_0043_almo_B3LYP_dp20220721031447/Frg2.input
 using default PutDataFrgm: nothing
 calling putenv with: QCSCRATCH=/global/cscratch1/sd/ymao90/r7.00_frame_0043_almo_B3LYP_dp20220721031447/ 
 Spawning Job For Fragment 1
 Done Job For Fragment 1
 calling putenv with: QCSCRATCH=/global/cscratch1/sd/ymao90 
 calling putenv with: QCTHREADS=16 
 Time for running child jobs:  CPU 0.46 s  wall 14183.51 s

 -----------------------------------------------------------------------
  General SCF calculation program by
  Eric Jon Sundstrom, Paul Horn, Yuezhi Mao, Dmitri Zuev, Alec White,
  David Stuck, Shaama M.S., Shane Yost, Joonho Lee, David Small,
  Daniel Levine, Susi Lehtola, Hugh Burton, Evgeny Epifanovsky,
  Bang C. Huynh
 -----------------------------------------------------------------------
Performing Restricted Closed Shell SCFMI
Doing General SCFMI
 Exchange:     0.2000 Hartree-Fock + 0.0800 Slater + 0.7200 B88
 Correlation:  0.1900 VWN1RPA + 0.8100 LYP
 Using Euler-Maclaurin-Lebedev (75,302) quadrature formula
performing fock build before subrot guess so that all methods have access
 using 16 threads for integral computing
 -------------------------------------------------------
 OpenMP Integral computing Module                
 Release: version 1.0, May 2013, Q-Chem Inc. Pittsburgh 
 -------------------------------------------------------
Printing subrot_rss_gen Method Specification:
Occupied Subspace Method is 0
Virtual Subspace Method is 0
Energy prior to optimization (guess energy) = -14787.541412237711
Begin Timing: Total SCF Calculation
begin iterations for algorithm: DIIS         
the SCF tolerance is set to 1.00e-08
    1  -14787.5414122377      3.09e-05     00000 
    2  -14787.5469474043      2.28e-05     00000 
    3  -14787.5481214936      1.49e-05     00000 
    4  -14787.5485902491      6.63e-06     00000 
    5  -14787.5486968583      2.66e-06     00000 
    6  -14787.5487179382      1.33e-06     00000 
    7  -14787.5487230075      9.03e-07     00000 
    8  -14787.5487244415      6.46e-07     00000 
    9  -14787.5487252551      3.21e-07     00000 
   10  -14787.5487254843      1.74e-07     00000 
   11  -14787.5487255500      1.14e-07     00000 
   12  -14787.5487255715      8.04e-08     00000 
   13  -14787.5487255849      4.04e-08     00000 
   14  -14787.5487255887      2.25e-08     00000 
   15  -14787.5487255898      1.34e-08     00000 
   16  -14787.5487255902      9.38e-09     00000 Convergence criterion met
write pseudocanon occs and virts to disk
write pseudocanon orbital energies to disk
Timing for Total SCF: 16541.00s (wall), 226576.18s (cpu)
SCFMI Energy  -14787.5487255902
<S^2>            0.00000
 Total energy in the final basis set =   -14787.5487255902
    ==================================================
        The end of Object-Oriented SCFman: SCFMI      
    ==================================================

 --------------------------------------------------------------

                    Orbital Energies (a.u.)
 --------------------------------------------------------------

 Alpha MOs
 -- Occupied --
-89.0326 -89.0219 -89.0214 -89.0201 -89.0183 -89.0172 -89.0117 -89.0069
-89.0061 -89.0060 -88.9981 -88.9980 -88.9957 -88.9936 -88.9916 -88.9888
-88.9861 -88.9856 -88.9850 -88.9833 -88.9831 -88.9784 -88.9764 -88.9742
-88.9603 -88.9369 -19.1493 -19.1421 -19.1394 -19.1354 -19.1334 -19.1319
-19.1279 -19.1228 -19.1192 -19.1189 -19.1169 -19.1161 -19.1151 -19.1149
-19.1118 -19.1094 -19.1082 -19.1068 -19.1018 -19.1016 -19.0989 -19.0933
-19.0900 -19.0896 -19.0868 -19.0742 -19.0560 -14.3490 -10.2697 -10.2461
-10.2433 -10.2417 -10.2409 -10.2404 -10.2375 -10.2370 -10.2341 -10.2318
-10.2316 -10.2302 -10.2294 -10.2277 -10.2253 -10.2246 -10.2245 -10.2241
-10.2240 -10.2233 -10.2228 -10.2205 -10.2190 -10.2182 -10.2161 -10.2154
-10.2151 -10.2149 -10.2139 -10.2139 -10.2138 -10.2134 -10.2124 -10.2074
-10.2063 -10.2052 -10.2050 -10.2038 -10.2029 -10.2022 -10.1996 -10.1977
-10.1966 -10.1965 -10.1964 -10.1955 -10.1942 -10.1903 -10.1866 -10.1855
-10.1854 -10.1840 -10.1836 -10.1807 -10.1783 -10.1769 -10.1766 -10.1583
-10.1515  -8.0780  -8.0683  -8.0674  -8.0658  -8.0645  -8.0641  -8.0574
 -8.0523  -8.0522  -8.0522  -8.0451  -8.0450  -8.0419  -8.0395  -8.0369
 -8.0353  -8.0321  -8.0313  -8.0312  -8.0300  -8.0287  -8.0245  -8.0233
 -8.0202  -8.0068  -7.9835  -6.0424  -6.0411  -6.0356  -6.0326  -6.0318
 -6.0313  -6.0303  -6.0303  -6.0288  -6.0286  -6.0284  -6.0275  -6.0272
 -6.0257  -6.0251  -6.0234  -6.0221  -6.0216  -6.0214  -6.0204  -6.0169
 -6.0167  -6.0165  -6.0154  -6.0153  -6.0151  -6.0151  -6.0097  -6.0097
 -6.0096  -6.0094  -6.0093  -6.0083  -6.0082  -6.0062  -6.0049  -6.0038
 -6.0027  -6.0021  -6.0017  -6.0011  -6.0001  -5.9997  -5.9994  -5.9987
 -5.9967  -5.9965  -5.9957  -5.9956  -5.9954  -5.9944  -5.9944  -5.9942
 -5.9940  -5.9931  -5.9931  -5.9922  -5.9917  -5.9892  -5.9889  -5.9889
 -5.9886  -5.9878  -5.9875  -5.9873  -5.9864  -5.9862  -5.9847  -5.9832
 -5.9818  -5.9803  -5.9773  -5.9712  -5.9698  -5.9641  -5.9479  -5.9465
 -5.9409  -1.0563  -1.0522  -1.0498  -1.0471  -1.0464  -1.0431  -1.0354
 -1.0343  -1.0290  -1.0282  -1.0268  -1.0266  -1.0252  -1.0234  -1.0166
 -1.0162  -1.0149  -1.0136  -1.0112  -1.0111  -1.0081  -1.0076  -1.0064
 -1.0052  -0.9994  -0.9842  -0.9658  -0.9138  -0.8355  -0.8243  -0.8240
 -0.8235  -0.8225  -0.8213  -0.8192  -0.8117  -0.8113  -0.8109  -0.8097
 -0.8085  -0.8072  -0.8022  -0.7971  -0.7950  -0.7932  -0.7912  -0.7883
 -0.7882  -0.7831  -0.7800  -0.7789  -0.7772  -0.7765  -0.7635  -0.7547
 -0.7525  -0.7505  -0.7483  -0.7462  -0.7430  -0.7410  -0.7406  -0.7390
 -0.7378  -0.7363  -0.7351  -0.7327  -0.7311  -0.7297  -0.7291  -0.7248
 -0.7217  -0.7203  -0.7200  -0.7173  -0.7149  -0.7119  -0.7092  -0.7079
 -0.7072  -0.7057  -0.6888  -0.6677  -0.6454  -0.6364  -0.6347  -0.6334
 -0.6327  -0.6302  -0.6284  -0.6223  -0.6194  -0.6181  -0.6173  -0.6157
 -0.6138  -0.6134  -0.6113  -0.6078  -0.6066  -0.6034  -0.5998  -0.5986
 -0.5974  -0.5964  -0.5956  -0.5922  -0.5863  -0.5855  -0.5805  -0.5727
 -0.5622  -0.5469  -0.5149  -0.5137  -0.5118  -0.5086  -0.5077  -0.5035
 -0.5017  -0.4989  -0.4972  -0.4957  -0.4944  -0.4918  -0.4910  -0.4907
 -0.4901  -0.4877  -0.4872  -0.4863  -0.4859  -0.4838  -0.4828  -0.4825
 -0.4815  -0.4811  -0.4804  -0.4793  -0.4787  -0.4783  -0.4767  -0.4763
 -0.4760  -0.4751  -0.4745  -0.4737  -0.4727  -0.4722  -0.4714  -0.4707
 -0.4703  -0.4702  -0.4695  -0.4686  -0.4685  -0.4682  -0.4679  -0.4675
 -0.4660  -0.4648  -0.4645  -0.4639  -0.4634  -0.4632  -0.4628  -0.4618
 -0.4607  -0.4604  -0.4601  -0.4599  -0.4598  -0.4585  -0.4568  -0.4564
 -0.4563  -0.4547  -0.4539  -0.4531  -0.4523  -0.4515  -0.4510  -0.4496
 -0.4491  -0.4484  -0.4471  -0.4459  -0.4456  -0.4455  -0.4451  -0.4445
 -0.4442  -0.4433  -0.4422  -0.4411  -0.4399  -0.4392  -0.4369  -0.4366
 -0.4360  -0.4357  -0.4349  -0.4333  -0.4327  -0.4320  -0.4314  -0.4307
 -0.4301  -0.4295  -0.4291  -0.4282  -0.4251  -0.4248  -0.4232  -0.4227
 -0.4221  -0.4209  -0.4204  -0.4196  -0.4185  -0.4177  -0.4176  -0.4174
 -0.4172  -0.4166  -0.4163  -0.4149  -0.4147  -0.4140  -0.4137  -0.4128
 -0.4124  -0.4114  -0.4105  -0.4095  -0.4087  -0.4074  -0.4072  -0.4067
 -0.4062  -0.4055  -0.4047  -0.4043  -0.4039  -0.4031  -0.4024  -0.4016
 -0.4014  -0.4007  -0.3997  -0.3972  -0.3965  -0.3959  -0.3957  -0.3950
 -0.3948  -0.3943  -0.3941  -0.3937  -0.3934  -0.3925  -0.3909  -0.3901
 -0.3894  -0.3889  -0.3885  -0.3875  -0.3873  -0.3871  -0.3858  -0.3847
 -0.3832  -0.3832  -0.3813  -0.3804  -0.3801  -0.3760  -0.3734  -0.3731
 -0.3718  -0.3712  -0.3696  -0.3689  -0.3683  -0.3662  -0.3640  -0.3631
 -0.3627  -0.3623  -0.3591  -0.3560  -0.3541  -0.3510  -0.3502  -0.3489
 -0.3486  -0.3462  -0.3458  -0.3445  -0.3435  -0.3428  -0.3418  -0.3363
 -0.3334  -0.3306  -0.3215  -0.3207  -0.3180  -0.3096  -0.3076  -0.3031
 -0.3015  -0.2994  -0.2952  -0.2941  -0.2929  -0.2892  -0.2843  -0.2830
 -0.2790  -0.2778  -0.2771  -0.2760  -0.2740  -0.2728  -0.2708  -0.2694
 -0.2691  -0.2684  -0.2655  -0.2649  -0.2641  -0.2635  -0.2615  -0.2601
 -0.2575  -0.2540  -0.2534  -0.2523  -0.2519  -0.2500  -0.2488  -0.2486
 -0.2465  -0.2441  -0.2439  -0.2428  -0.2379  -0.2378  -0.2348  -0.2327
 -0.2325  -0.2283  -0.2250  -0.2242  -0.2240  -0.2223  -0.2188  -0.2182
 -0.2178  -0.2149  -0.2119  -0.2004  -0.1817
 -- Virtual --
 -0.0359  -0.0327  -0.0288  -0.0272  -0.0227  -0.0221  -0.0205  -0.0198
 -0.0180  -0.0172  -0.0156  -0.0147  -0.0133  -0.0128  -0.0101  -0.0086
 -0.0074  -0.0066  -0.0056  -0.0055  -0.0046  -0.0032  -0.0023   0.0001
  0.0004   0.0009   0.0012   0.0022   0.0027   0.0033   0.0044   0.0048
  0.0064   0.0071   0.0081   0.0093   0.0101   0.0118   0.0125   0.0128
  0.0140   0.0150   0.0154   0.0164   0.0170   0.0172   0.0179   0.0183
  0.0188   0.0194   0.0196   0.0212   0.0216   0.0224   0.0227   0.0228
  0.0235   0.0242   0.0246   0.0257   0.0271   0.0277   0.0280   0.0286
  0.0290   0.0302   0.0303   0.0305   0.0311   0.0317   0.0323   0.0337
  0.0349   0.0351   0.0358   0.0361   0.0368   0.0376   0.0386   0.0390
  0.0398   0.0407   0.0413   0.0423   0.0427   0.0434   0.0442   0.0444
  0.0456   0.0459   0.0463   0.0466   0.0477   0.0487   0.0492   0.0496
  0.0497   0.0505   0.0512   0.0518   0.0537   0.0538   0.0541   0.0546
  0.0558   0.0560   0.0562   0.0572   0.0575   0.0581   0.0590   0.0594
  0.0603   0.0607   0.0611   0.0619   0.0625   0.0628   0.0629   0.0634
  0.0648   0.0650   0.0659   0.0668   0.0669   0.0676   0.0682   0.0685
  0.0694   0.0702   0.0717   0.0718   0.0724   0.0732   0.0737   0.0738
  0.0745   0.0755   0.0763   0.0766   0.0770   0.0778   0.0782   0.0785
  0.0804   0.0810   0.0822   0.0831   0.0831   0.0843   0.0853   0.0853
  0.0860   0.0865   0.0868   0.0878   0.0882   0.0883   0.0895   0.0900
  0.0906   0.0916   0.0921   0.0928   0.0931   0.0935   0.0947   0.0952
  0.0956   0.0964   0.0974   0.0977   0.0980   0.0981   0.0993   0.1000
  0.1006   0.1010   0.1021   0.1029   0.1037   0.1046   0.1049   0.1054
  0.1061   0.1067   0.1074   0.1086   0.1093   0.1097   0.1102   0.1118
  0.1122   0.1127   0.1130   0.1135   0.1142   0.1150   0.1154   0.1158
  0.1171   0.1178   0.1180   0.1188   0.1194   0.1201   0.1202   0.1208
  0.1213   0.1225   0.1231   0.1239   0.1243   0.1247   0.1258   0.1262
  0.1269   0.1276   0.1283   0.1288   0.1294   0.1303   0.1307   0.1317
  0.1321   0.1329   0.1330   0.1337   0.1340   0.1345   0.1352   0.1356
  0.1370   0.1374   0.1378   0.1384   0.1391   0.1403   0.1404   0.1414
  0.1423   0.1430   0.1432   0.1438   0.1445   0.1447   0.1451   0.1460
  0.1462   0.1470   0.1478   0.1486   0.1488   0.1495   0.1502   0.1507
  0.1516   0.1520   0.1525   0.1535   0.1539   0.1541   0.1545   0.1548
  0.1561   0.1577   0.1578   0.1582   0.1586   0.1591   0.1594   0.1610
  0.1619   0.1622   0.1632   0.1636   0.1643   0.1646   0.1653   0.1656
  0.1660   0.1666   0.1675   0.1684   0.1690   0.1695   0.1696   0.1700
  0.1709   0.1712   0.1714   0.1724   0.1731   0.1742   0.1745   0.1750
  0.1757   0.1760   0.1765   0.1777   0.1780   0.1783   0.1791   0.1797
  0.1809   0.1809   0.1814   0.1816   0.1828   0.1836   0.1849   0.1851
  0.1862   0.1870   0.1878   0.1880   0.1886   0.1893   0.1898   0.1909
  0.1917   0.1926   0.1929   0.1943   0.1949   0.1953   0.1955   0.1964
  0.1970   0.1974   0.1983   0.1988   0.1997   0.2002   0.2006   0.2011
  0.2025   0.2034   0.2038   0.2043   0.2049   0.2051   0.2058   0.2063
  0.2071   0.2077   0.2085   0.2090   0.2096   0.2104   0.2108   0.2117
  0.2122   0.2130   0.2138   0.2143   0.2147   0.2152   0.2163   0.2165
  0.2171   0.2182   0.2187   0.2201   0.2202   0.2208   0.2213   0.2218
  0.2224   0.2232   0.2235   0.2246   0.2258   0.2259   0.2270   0.2281
  0.2283   0.2288   0.2292   0.2302   0.2309   0.2312   0.2325   0.2333
  0.2336   0.2342   0.2348   0.2350   0.2362   0.2366   0.2371   0.2381
  0.2387   0.2396   0.2403   0.2414   0.2420   0.2425   0.2437   0.2444
  0.2457   0.2460   0.2463   0.2466   0.2477   0.2480   0.2490   0.2498
  0.2504   0.2511   0.2520   0.2521   0.2529   0.2532   0.2545   0.2549
  0.2559   0.2569   0.2575   0.2581   0.2588   0.2590   0.2599   0.2607
  0.2613   0.2618   0.2625   0.2630   0.2641   0.2653   0.2660   0.2667
  0.2675   0.2684   0.2688   0.2697   0.2702   0.2709   0.2709   0.2725
  0.2728   0.2741   0.2747   0.2749   0.2762   0.2766   0.2774   0.2782
  0.2792   0.2797   0.2805   0.2812   0.2813   0.2818   0.2834   0.2839
  0.2849   0.2854   0.2862   0.2868   0.2879   0.2884   0.2893   0.2899
  0.2905   0.2912   0.2925   0.2943   0.2951   0.2956   0.2966   0.2970
  0.2976   0.2983   0.2987   0.3002   0.3013   0.3019   0.3024   0.3026
  0.3036   0.3045   0.3048   0.3060   0.3073   0.3079   0.3086   0.3098
  0.3104   0.3116   0.3125   0.3136   0.3142   0.3148   0.3150   0.3153
  0.3165   0.3173   0.3180   0.3190   0.3196   0.3217   0.3219   0.3226
  0.3232   0.3243   0.3253   0.3257   0.3267   0.3276   0.3280   0.3292
  0.3295   0.3306   0.3311   0.3318   0.3327   0.3333   0.3341   0.3356
  0.3361   0.3377   0.3388   0.3403   0.3406   0.3409   0.3415   0.3437
  0.3447   0.3457   0.3464   0.3471   0.3479   0.3485   0.3493   0.3500
  0.3506   0.3515   0.3526   0.3534   0.3554   0.3558   0.3571   0.3580
  0.3595   0.3601   0.3607   0.3626   0.3640   0.3642   0.3649   0.3665
  0.3672   0.3681   0.3683   0.3696   0.3704   0.3708   0.3723   0.3743
  0.3748   0.3757   0.3762   0.3766   0.3774   0.3784   0.3802   0.3812
  0.3817   0.3829   0.3844   0.3845   0.3855   0.3865   0.3876   0.3885
  0.3888   0.3896   0.3911   0.3916   0.3921   0.3926   0.3939   0.3950
  0.3953   0.3958   0.3976   0.3990   0.3995   0.4003   0.4014   0.4017
  0.4027   0.4039   0.4051   0.4065   0.4078   0.4085   0.4093   0.4095
  0.4102   0.4111   0.4119   0.4138   0.4147   0.4169   0.4170   0.4180
  0.4184   0.4200   0.4214   0.4221   0.4226   0.4232   0.4239   0.4253
  0.4272   0.4279   0.4288   0.4297   0.4299   0.4321   0.4330   0.4335
  0.4346   0.4357   0.4363   0.4370   0.4383   0.4397   0.4406   0.4417
  0.4434   0.4450   0.4458   0.4481   0.4484   0.4498   0.4512   0.4518
  0.4526   0.4541   0.4563   0.4571   0.4583   0.4593   0.4602   0.4617
  0.4629   0.4632   0.4644   0.4652   0.4672   0.4684   0.4703   0.4708
  0.4722   0.4733   0.4740   0.4749   0.4764   0.4786   0.4789   0.4807
  0.4815   0.4833   0.4845   0.4859   0.4867   0.4894   0.4908   0.4926
  0.4934   0.4947   0.4955   0.4972   0.4997   0.5024   0.5034   0.5043
  0.5066   0.5072   0.5079   0.5126   0.5130   0.5134   0.5154   0.5182
  0.5195   0.5203   0.5220   0.5246   0.5263   0.5284   0.5315   0.5338
  0.5342   0.5376   0.5377   0.5411   0.5422   0.5430   0.5453   0.5474
  0.5487   0.5493   0.5511   0.5522   0.5542   0.5552   0.5559   0.5567
  0.5583   0.5600   0.5612   0.5626   0.5643   0.5654   0.5675   0.5680
  0.5697   0.5718   0.5730   0.5744   0.5764   0.5770   0.5792   0.5803
  0.5825   0.5832   0.5847   0.5867   0.5874   0.5885   0.5903   0.5922
  0.5929   0.5960   0.5962   0.5973   0.5995   0.6007   0.6014   0.6021
  0.6039   0.6044   0.6061   0.6064   0.6099   0.6110   0.6116   0.6121
  0.6140   0.6148   0.6160   0.6177   0.6194   0.6211   0.6215   0.6219
  0.6238   0.6244   0.6264   0.6275   0.6290   0.6303   0.6306   0.6327
  0.6333   0.6344   0.6360   0.6377   0.6386   0.6393   0.6406   0.6420
  0.6428   0.6432   0.6446   0.6457   0.6490   0.6499   0.6518   0.6525
  0.6529   0.6545   0.6546   0.6567   0.6580   0.6587   0.6609   0.6624
  0.6633   0.6646   0.6652   0.6663   0.6666   0.6671   0.6686   0.6707
  0.6711   0.6731   0.6739   0.6749   0.6767   0.6790   0.6797   0.6810
  0.6814   0.6833   0.6861   0.6867   0.6873   0.6893   0.6904   0.6907
  0.6928   0.6942   0.6950   0.6961   0.6963   0.6982   0.7003   0.7015
  0.7021   0.7049   0.7056   0.7068   0.7073   0.7084   0.7094   0.7103
  0.7131   0.7136   0.7149   0.7154   0.7180   0.7187   0.7200   0.7209
  0.7224   0.7232   0.7248   0.7266   0.7268   0.7292   0.7298   0.7307
  0.7322   0.7339   0.7353   0.7365   0.7375   0.7385   0.7404   0.7413
  0.7421   0.7428   0.7454   0.7458   0.7466   0.7482   0.7507   0.7519
  0.7530   0.7533   0.7536   0.7556   0.7568   0.7583   0.7590   0.7610
  0.7622   0.7647   0.7648   0.7666   0.7698   0.7704   0.7708   0.7719
  0.7748   0.7764   0.7775   0.7806   0.7813   0.7830   0.7833   0.7843
  0.7863   0.7877   0.7884   0.7894   0.7934   0.7940   0.7960   0.7966
  0.7980   0.7993   0.8006   0.8029   0.8052   0.8059   0.8068   0.8087
  0.8105   0.8131   0.8138   0.8149   0.8164   0.8168   0.8190   0.8207
  0.8221   0.8233   0.8240   0.8260   0.8283   0.8302   0.8306   0.8317
  0.8336   0.8345   0.8356   0.8370   0.8375   0.8396   0.8401   0.8424
  0.8433   0.8450   0.8467   0.8471   0.8491   0.8505   0.8529   0.8543
  0.8556   0.8568   0.8571   0.8584   0.8589   0.8596   0.8607   0.8631
  0.8645   0.8648   0.8668   0.8679   0.8686   0.8692   0.8704   0.8712
  0.8732   0.8740   0.8754   0.8765   0.8785   0.8794   0.8811   0.8823
  0.8831   0.8842   0.8858   0.8875   0.8889   0.8899   0.8902   0.8914
  0.8944   0.8955   0.8969   0.8983   0.8990   0.8998   0.9007   0.9026
  0.9034   0.9061   0.9067   0.9089   0.9100   0.9109   0.9122   0.9143
  0.9155   0.9174   0.9189   0.9196   0.9199   0.9215   0.9240   0.9254
  0.9256   0.9264   0.9305   0.9314   0.9318   0.9323   0.9341   0.9353
  0.9364   0.9382   0.9390   0.9404   0.9413   0.9422   0.9443   0.9457
  0.9470   0.9477   0.9493   0.9501   0.9504   0.9526   0.9534   0.9546
  0.9562   0.9578   0.9588   0.9592   0.9611   0.9620   0.9628   0.9643
  0.9649   0.9666   0.9677   0.9680   0.9685   0.9702   0.9715   0.9725
  0.9738   0.9742   0.9751   0.9770   0.9780   0.9796   0.9807   0.9814
  0.9828   0.9836   0.9843   0.9854   0.9866   0.9873   0.9885   0.9893
  0.9913   0.9919   0.9924   0.9949   0.9958   0.9966   0.9971   0.9982
  0.9995   0.9998   1.0005   1.0016   1.0030   1.0041   1.0051   1.0055
  1.0073   1.0082   1.0094   1.0102   1.0121   1.0128   1.0145   1.0160
  1.0162   1.0166   1.0173   1.0176   1.0190   1.0217   1.0218   1.0233
  1.0245   1.0256   1.0262   1.0294   1.0303   1.0307   1.0334   1.0339
  1.0357   1.0361   1.0368   1.0380   1.0387   1.0400   1.0409   1.0419
  1.0437   1.0441   1.0457   1.0503   1.0505   1.0516   1.0533   1.0548
  1.0564   1.0568   1.0582   1.0593   1.0609   1.0625   1.0642   1.0649
  1.0658   1.0664   1.0689   1.0698   1.0716   1.0727   1.0744   1.0756
  1.0760   1.0765   1.0785   1.0806   1.0818   1.0841   1.0849   1.0861
  1.0864   1.0883   1.0898   1.0917   1.0922   1.0938   1.0950   1.0952
  1.0984   1.0998   1.1006   1.1009   1.1031   1.1042   1.1056   1.1063
  1.1087   1.1091   1.1094   1.1125   1.1131   1.1149   1.1162   1.1166
  1.1187   1.1204   1.1211   1.1221   1.1245   1.1253   1.1260   1.1273
  1.1280   1.1291   1.1301   1.1321   1.1323   1.1327   1.1356   1.1361
  1.1381   1.1386   1.1403   1.1405   1.1426   1.1441   1.1457   1.1471
  1.1477   1.1504   1.1516   1.1522   1.1535   1.1564   1.1583   1.1604
  1.1611   1.1631   1.1640   1.1659   1.1675   1.1690   1.1706   1.1712
  1.1737   1.1752   1.1766   1.1786   1.1792   1.1806   1.1827   1.1852
  1.1869   1.1878   1.1885   1.1903   1.1923   1.1937   1.1949   1.1959
  1.1980   1.1994   1.2008   1.2033   1.2052   1.2063   1.2088   1.2096
  1.2119   1.2125   1.2136   1.2154   1.2190   1.2213   1.2232   1.2247
  1.2269   1.2278   1.2284   1.2311   1.2326   1.2333   1.2340   1.2373
  1.2376   1.2405   1.2430   1.2469   1.2487   1.2489   1.2510   1.2531
  1.2562   1.2577   1.2601   1.2629   1.2652   1.2683   1.2694   1.2704
  1.2714   1.2727   1.2735   1.2755   1.2767   1.2800   1.2823   1.2844
  1.2865   1.2909   1.2927   1.2963   1.2979   1.3001   1.3052   1.3064
  1.3081   1.3104   1.3125   1.3141   1.3169   1.3173   1.3188   1.3227
  1.3245   1.3262   1.3275   1.3299   1.3339   1.3350   1.3360   1.3371
  1.3389   1.3422   1.3447   1.3456   1.3493   1.3531   1.3552   1.3563
  1.3577   1.3595   1.3623   1.3633   1.3644   1.3656   1.3693   1.3709
  1.3716   1.3742   1.3764   1.3770   1.3794   1.3807   1.3816   1.3824
  1.3838   1.3877   1.3879   1.3924   1.3935   1.3945   1.3951   1.3983
  1.3993   1.4005   1.4021   1.4042   1.4053   1.4057   1.4087   1.4099
  1.4108   1.4133   1.4137   1.4160   1.4178   1.4194   1.4208   1.4216
  1.4227   1.4245   1.4261   1.4277   1.4287   1.4309   1.4323   1.4333
  1.4343   1.4348   1.4357   1.4366   1.4390   1.4404   1.4416   1.4446
  1.4465   1.4478   1.4488   1.4530   1.4540   1.4561   1.4572   1.4583
  1.4596   1.4613   1.4641   1.4658   1.4684   1.4695   1.4710   1.4729
  1.4738   1.4755   1.4766   1.4772   1.4797   1.4820   1.4856   1.4860
  1.4881   1.4897   1.4932   1.4954   1.4987   1.5004   1.5014   1.5030
  1.5065   1.5084   1.5107   1.5121   1.5149   1.5194   1.5216   1.5221
  1.5235   1.5254   1.5273   1.5289   1.5324   1.5369   1.5375   1.5384
  1.5407   1.5419   1.5447   1.5501   1.5508   1.5538   1.5563   1.5580
  1.5613   1.5652   1.5680   1.5709   1.5717   1.5734   1.5785   1.5795
  1.5840   1.5862   1.5915   1.5928   1.5958   1.6010   1.6034   1.6041
  1.6124   1.6135   1.6180   1.6209   1.6248   1.6296   1.6306   1.6337
  1.6391   1.6458   1.6472   1.6503   1.6537   1.6568   1.6582   1.6595
  1.6616   1.6637   1.6659   1.6692   1.6702   1.6709   1.6745   1.6747
  1.6764   1.6795   1.6811   1.6819   1.6838   1.6846   1.6868   1.6876
  1.6882   1.6897   1.6920   1.6924   1.6941   1.6958   1.6965   1.6973
  1.6991   1.6997   1.7021   1.7033   1.7058   1.7068   1.7081   1.7089
  1.7092   1.7119   1.7124   1.7138   1.7141   1.7156   1.7177   1.7191
  1.7192   1.7210   1.7227   1.7252   1.7264   1.7288   1.7295   1.7317
  1.7324   1.7354   1.7360   1.7362   1.7374   1.7386   1.7403   1.7414
  1.7423   1.7450   1.7470   1.7485   1.7501   1.7515   1.7526   1.7546
  1.7558   1.7590   1.7600   1.7602   1.7611   1.7619   1.7629   1.7652
  1.7668   1.7675   1.7693   1.7715   1.7743   1.7759   1.7778   1.7789
  1.7808   1.7817   1.7824   1.7847   1.7856   1.7871   1.7884   1.7908
  1.7929   1.7946   1.7958   1.7978   1.7984   1.8028   1.8059   1.8075
  1.8082   1.8101   1.8135   1.8167   1.8183   1.8225   1.8233   1.8271
  1.8276   1.8321   1.8359   1.8363   1.8387   1.8403   1.8429   1.8471
  1.8510   1.8533   1.8576   1.8606   1.8619   1.8647   1.8683   1.8687
  1.8702   1.8716   1.8768   1.8801   1.8805   1.8824   1.8835   1.8853
  1.8866   1.8891   1.8899   1.8906   1.8914   1.8924   1.8936   1.8949
  1.8955   1.8970   1.8985   1.8986   1.9001   1.9009   1.9022   1.9039
  1.9058   1.9066   1.9100   1.9114   1.9125   1.9143   1.9165   1.9174
  1.9191   1.9211   1.9232   1.9239   1.9260   1.9288   1.9297   1.9308
  1.9323   1.9333   1.9352   1.9369   1.9374   1.9381   1.9394   1.9430
  1.9468   1.9478   1.9502   1.9525   1.9538   1.9570   1.9592   1.9595
  1.9622   1.9647   1.9667   1.9695   1.9722   1.9764   1.9810   1.9851
  1.9875   1.9928   1.9964   2.0030   2.0065   2.0134   2.0210   2.0299
  2.0313   2.0334   2.0388   2.0443   2.0456   2.0521   2.0539   2.0561
  2.0594   2.0611   2.0632   2.0645   2.0657   2.0679   2.0690   2.0699
  2.0719   2.0724   2.0735   2.0751   2.0774   2.0785   2.0800   2.0819
  2.0846   2.0861   2.0879   2.0893   2.0909   2.0921   2.0937   2.0985
  2.0998   2.1002   2.1015   2.1027   2.1036   2.1056   2.1058   2.1071
  2.1099   2.1106   2.1116   2.1131   2.1150   2.1159   2.1166   2.1184
  2.1196   2.1239   2.1277   2.1288   2.1298   2.1308   2.1323   2.1382
  2.1399   2.1469   2.1508   2.1530   2.1538   2.1586   2.1682   2.1699
  2.1785   2.1834   2.1854   2.1876   2.1914   2.1930   2.1977   2.1996
  2.2003   2.2026   2.2045   2.2052   2.2073   2.2101   2.2132   2.2143
  2.2159   2.2168   2.2174   2.2190   2.2200   2.2220   2.2265   2.2277
  2.2284   2.2302   2.2310   2.2333   2.2342   2.2356   2.2367   2.2369
  2.2387   2.2394   2.2403   2.2411   2.2412   2.2425   2.2432   2.2436
  2.2448   2.2459   2.2477   2.2499   2.2505   2.2523   2.2542   2.2551
  2.2558   2.2563   2.2574   2.2599   2.2610   2.2621   2.2638   2.2641
  2.2652   2.2655   2.2667   2.2689   2.2691   2.2705   2.2710   2.2724
  2.2726   2.2735   2.2744   2.2760   2.2767   2.2784   2.2787   2.2793
  2.2801   2.2808   2.2832   2.2836   2.2842   2.2844   2.2860   2.2873
  2.2882   2.2888   2.2892   2.2905   2.2919   2.2936   2.2939   2.2941
  2.2955   2.2967   2.2974   2.2989   2.3004   2.3007   2.3014   2.3022
  2.3039   2.3045   2.3059   2.3061   2.3068   2.3077   2.3093   2.3097
  2.3108   2.3119   2.3138   2.3141   2.3148   2.3157   2.3166   2.3189
  2.3205   2.3223   2.3231   2.3241   2.3272   2.3275   2.3287   2.3305
  2.3312   2.3324   2.3337   2.3358   2.3370   2.3390   2.3395   2.3421
  2.3430   2.3443   2.3465   2.3477   2.3484   2.3506   2.3527   2.3560
  2.3565   2.3573   2.3589   2.3615   2.3626   2.3650   2.3654   2.3678
  2.3700   2.3738   2.3765   2.3787   2.3825   2.3839   2.3856   2.3864
  2.3890   2.3914   2.3931   2.3960   2.3988   2.4094   2.4102   2.4186
  2.4309   2.4401   2.4844   2.4933   2.5406   2.5639   2.6214   2.6960
  2.7467   2.7548   2.7976   2.8170   2.8200   2.8236   2.8293   2.8310
  2.8332   2.8372   2.8429   2.8438   2.8469   2.8483   2.8509   2.8549
  2.8563   2.8587   2.8594   2.8622   2.8654   2.8697   2.8712   2.8738
  2.8800   2.8810   2.8838   2.8860   2.8886   2.8892   2.8941   2.9074
  2.9109   2.9883   3.1003   3.2772   3.9448   3.9535   3.9548   3.9594
  3.9680   3.9701   3.9736   3.9774   3.9792   3.9821   3.9883   3.9919
  3.9945   3.9953   3.9977   3.9999   4.0009   4.0052   4.0082   4.0163
  4.0207   4.0226   4.0291   4.0347   4.0408   4.0441   4.1764   4.2123
  4.2211   4.2288   4.2318   4.2327   4.2368   4.2403   4.2461   4.2469
  4.2495   4.2515   4.2548   4.2564   4.2632   4.2651   4.2677   4.2704
  4.2804   4.2822   4.2855   4.2879   4.2903   4.2930   4.2941   4.2958
  4.2983   4.3001   4.3037   4.3045   4.3062   4.3104   4.3152   4.3172
  4.3201   4.3234   4.3268   4.3289   4.3321   4.3347   4.3375   4.3393
  4.3421   4.3438   4.3445   4.3478   4.3518   4.3541   4.3586   4.3612
  4.3636   4.3688   4.3697   4.3734   4.3829   4.3849   4.3861   4.3910
  4.3955   4.3987   4.4055   4.4077   4.4118   4.4190   4.4252   4.4289
  4.4297   4.4441   4.4487   4.4521   4.4643   4.4807   4.4926   4.5161
  4.5251   4.5315   4.5495   4.5573   4.5732   4.5952   4.6407   4.6495
  4.6935   4.7292   4.7587   4.7723   4.8947
 --------------------------------------------------------------

          Ground-State Mulliken Net Atomic Charges

     Atom                 Charge (a.u.)
  ----------------------------------------
      1 C                    -0.261114
      2 C                    -0.291638
      3 C                    -0.515122
      4 C                    -0.415547
      5 C                    -0.392955
      6 C                    -0.418822
      7 H                     0.201484
      8 H                     0.219201
      9 H                     0.195867
     10 H                     0.227536
     11 H                     0.227701
     12 H                     0.220544
     13 H                     0.187083
     14 H                     0.190771
     15 H                     0.188091
     16 H                     0.208704
     17 H                     0.190928
     18 N                    -0.412811
     19 H                     0.452848
     20 C                     0.329353
     21 H                     0.217290
     22 O                    -0.549392
     23 C                    -0.754631
     24 H                     0.226312
     25 H                     0.253295
     26 H                     0.303636
     27 S                     0.907450
     28 C                    -0.872605
     29 H                     0.264322
     30 H                     0.239207
     31 H                     0.217595
     32 O                    -0.709685
     33 C                    -0.846869
     34 H                     0.244002
     35 H                     0.228841
     36 H                     0.264398
     37 S                     0.818017
     38 C                    -0.695971
     39 H                     0.279362
     40 H                     0.225792
     41 H                     0.246742
     42 O                    -0.776348
     43 C                    -0.668942
     44 H                     0.261858
     45 H                     0.297874
     46 H                     0.268204
     47 S                     0.664938
     48 C                    -0.853138
     49 H                     0.223031
     50 H                     0.281837
     51 H                     0.249071
     52 O                    -0.763216
     53 C                    -0.849577
     54 H                     0.242914
     55 H                     0.254404
     56 H                     0.261427
     57 S                     0.969822
     58 C                    -0.856789
     59 H                     0.234875
     60 H                     0.244310
     61 H                     0.257446
     62 O                    -0.727994
     63 C                    -1.080076
     64 H                     0.268008
     65 H                     0.264795
     66 H                     0.262446
     67 S                     0.957596
     68 C                    -0.717627
     69 H                     0.239945
     70 H                     0.308217
     71 H                     0.249525
     72 O                    -0.714878
     73 C                    -0.895751
     74 H                     0.240864
     75 H                     0.302988
     76 H                     0.251383
     77 S                     0.982293
     78 C                    -0.814816
     79 H                     0.250346
     80 H                     0.249557
     81 H                     0.240497
     82 O                    -0.744199
     83 C                    -0.922720
     84 H                     0.290041
     85 H                     0.328411
     86 H                     0.235436
     87 S                     0.791928
     88 C                    -0.961275
     89 H                     0.215318
     90 H                     0.252030
     91 H                     0.262514
     92 O                    -0.624040
     93 C                    -0.851711
     94 H                     0.226679
     95 H                     0.285945
     96 H                     0.274484
     97 S                     0.755691
     98 C                    -0.889657
     99 H                     0.249236
    100 H                     0.241922
    101 H                     0.305687
    102 O                    -0.656086
    103 C                    -0.502417
    104 H                     0.263301
    105 H                     0.264596
    106 H                     0.270109
    107 S                     0.118164
    108 C                    -0.742331
    109 H                     0.274870
    110 H                     0.268668
    111 H                     0.250858
    112 O                    -0.567968
    113 C                    -0.854411
    114 H                     0.277561
    115 H                     0.304773
    116 H                     0.214234
    117 S                     0.930155
    118 C                    -0.859447
    119 H                     0.249542
    120 H                     0.211043
    121 H                     0.296520
    122 O                    -0.750671
    123 C                    -0.840458
    124 H                     0.254109
    125 H                     0.249606
    126 H                     0.250424
    127 S                     1.051666
    128 C                    -0.881348
    129 H                     0.250480
    130 H                     0.251894
    131 H                     0.217704
    132 O                    -0.732766
    133 C                    -0.960782
    134 H                     0.301562
    135 H                     0.282017
    136 H                     0.236570
    137 S                     0.858512
    138 C                    -0.864576
    139 H                     0.257043
    140 H                     0.254087
    141 H                     0.227236
    142 O                    -0.700534
    143 C                    -0.855602
    144 H                     0.272657
    145 H                     0.273269
    146 H                     0.282960
    147 S                     0.771020
    148 C                    -0.803292
    149 H                     0.263576
    150 H                     0.244387
    151 H                     0.244133
    152 O                    -0.653564
    153 C                    -0.736600
    154 H                     0.308871
    155 H                     0.262364
    156 H                     0.238738
    157 S                     0.566668
    158 C                    -0.784306
    159 H                     0.307753
    160 H                     0.230170
    161 H                     0.262808
    162 O                    -0.663113
    163 C                    -0.981536
    164 H                     0.262570
    165 H                     0.264062
    166 H                     0.294072
    167 S                     1.374030
    168 C                    -1.365645
    169 H                     0.266544
    170 H                     0.278099
    171 H                     0.318834
    172 O                    -0.780771
    173 C                    -0.923182
    174 H                     0.293403
    175 H                     0.272417
    176 H                     0.221848
    177 S                     0.817862
    178 C                    -0.877160
    179 H                     0.279924
    180 H                     0.274255
    181 H                     0.273163
    182 O                    -0.658060
    183 C                    -0.973937
    184 H                     0.230040
    185 H                     0.285890
    186 H                     0.244977
    187 S                     0.909696
    188 C                    -0.766324
    189 H                     0.277956
    190 H                     0.240261
    191 H                     0.230826
    192 O                    -0.726864
    193 C                    -1.071299
    194 H                     0.238551
    195 H                     0.282730
    196 H                     0.243986
    197 S                     1.269579
    198 C                    -1.097263
    199 H                     0.286201
    200 H                     0.255977
    201 H                     0.244670
    202 O                    -0.713289
    203 C                    -0.939796
    204 H                     0.254513
    205 H                     0.274888
    206 H                     0.273698
    207 S                     0.911373
    208 C                    -0.799864
    209 H                     0.236743
    210 H                     0.276552
    211 H                     0.217006
    212 O                    -0.688136
    213 C                    -0.844592
    214 H                     0.257709
    215 H                     0.244431
    216 H                     0.309151
    217 S                     0.796380
    218 C                    -0.764929
    219 H                     0.246075
    220 H                     0.294505
    221 H                     0.264099
    222 O                    -0.749931
    223 C                    -0.870122
    224 H                     0.268528
    225 H                     0.250694
    226 H                     0.222384
    227 S                     0.923404
    228 C                    -0.861147
    229 H                     0.240381
    230 H                     0.266263
    231 H                     0.249396
    232 O                    -0.653502
    233 C                    -1.118080
    234 H                     0.258882
    235 H                     0.235964
    236 H                     0.261073
    237 S                     1.125880
    238 C                    -0.767297
    239 H                     0.259713
    240 H                     0.244136
    241 H                     0.245200
    242 O                    -0.710640
    243 C                    -0.925555
    244 H                     0.256728
    245 H                     0.243757
    246 H                     0.272271
    247 S                     0.880023
    248 C                    -0.919499
    249 H                     0.274694
    250 H                     0.245462
    251 H                     0.266150
    252 O                    -0.599202
    253 C                    -0.607446
    254 H                     0.290027
    255 H                     0.242522
    256 H                     0.275931
    257 S                     0.109719
    258 C                    -0.565438
    259 H                     0.267822
    260 H                     0.259637
    261 H                     0.271416
    262 O                    -0.500657
    263 C                    -0.925552
    264 H                     0.221522
    265 H                     0.244990
    266 H                     0.254570
    267 S                     1.093530
    268 C                    -0.847727
    269 H                     0.301675
    270 H                     0.231077
    271 H                     0.219719
    272 O                    -0.703081
    273 C                    -0.851551
    274 H                     0.255323
    275 H                     0.244222
    276 H                     0.254521
    277 S                     0.912740
    278 C                    -0.782723
    279 H                     0.246079
    280 H                     0.243572
    281 H                     0.273191
    282 O                    -0.741187
  ----------------------------------------
  Sum of atomic charges =     0.000000

 -----------------------------------------------------------------
                    Cartesian Multipole Moments
 -----------------------------------------------------------------
    Charge (ESU x 10^10)
                 0.0000
    Dipole Moment (Debye)
         X      11.0944      Y      10.0219      Z       5.3103
       Tot      15.8658
    Quadrupole Moments (Debye-Ang)
        XX    -465.1089     XY     353.9223     YY    -516.9632
        XZ     467.0788     YZ     456.8568     ZZ    -624.9842
    Octopole Moments (Debye-Ang^2)
       XXX  -51190.5157    XXY   -6250.6782    XYY  -10393.9794
       YYY  -39511.2901    XXZ   -7241.7412    XYZ   15017.1417
       YYZ   -8486.5186    XZZ   -4716.4291    YZZ     584.7298
       ZZZ  -59365.2417
    Hexadecapole Moments (Debye-Ang^3)
      XXXX ************   XXXY -905894.9761   XXYY -542060.8534
      XYYY -891659.9793   YYYY ************   XXXZ ************
      XXYZ   -8942.2822   XYYZ -125119.6821   YYYZ -912586.7538
      XXZZ -614182.5435   XYZZ  147207.3334   YYZZ -418493.3007
      XZZZ ************   YZZZ -696460.7215   ZZZZ ************
 -----------------------------------------------------------------
 Total job time:  32586.93s(wall), 252993.03s(cpu) 
 Thu Jul 21 12:50:27 2022

        *************************************************************
        *                                                           *
        *  Thank you very much for using Q-Chem.  Have a nice day.  *
        *                                                           *
        *************************************************************


 
User input: 2 of 2 
 
                  Welcome to Q-Chem
     A Quantum Leap Into The Future Of Chemistry


 Q-Chem 6.0 (devel), Q-Chem, Inc., Pleasanton, CA (2022)

 E. Epifanovsky,  A. T. B. Gilbert,  Xintian Feng,  Joonho Lee,  Yuezhi Mao,  
 N. Mardirossian,  P. Pokhilko,  A. White,  M. Wormit,  M. P. Coons,  
 A. L. Dempwolff,  Zhengting Gan,  D. Hait,  P. R. Horn,  L. D. Jacobson,  
 I. Kaliman,  J. Kussmann,  A. W. Lange,  Ka Un Lao,  D. S. Levine,  Jie Liu,  
 S. C. McKenzie,  A. F. Morrison,  K. Nanda,  F. Plasser,  D. R. Rehn,  
 M. L. Vidal,  Zhi-Qiang You,  Ying Zhu,  B. Alam,  B. Albrecht,  
 A. Aldossary,  E. Alguire,  J. H. Andersen,  V. Athavale,  D. Barton,  
 K. Begam,  A. Behn,  N. Bellonzi,  Y. A. Bernard,  E. J. Berquist,  
 H. Burton,  A. Carreras,  K. Carter-Fenk,  Romit Chakraborty,  
 Chandrima Chakravarty,  Junhan Chen,  A. D. Chien,  K. D. Closser,  
 V. Cofer-Shabica,  L. Cunha,  S. Dasgupta,  Jia Deng,  M. de Wergifosse,  
 M. Diedenhofen,  Hainam Do,  S. Ehlert,  Po-Tung Fang,  S. Fatehi,  
 Qingguo Feng,  T. Friedhoff,  B. Ganoe,  J. Gayvert,  Qinghui Ge,  
 G. Gidofalvi,  M. Goldey,  J. Gomes,  C. Gonzalez-Espinoza,  S. Gulania,  
 A. Gunina,  J. A. Gyamfi,  M. W. D. Hanson-Heine,  P. H. P. Harbach,  
 A. W. Hauser,  M. F. Herbst,  M. Hernandez Vera,  M. Hodecker,  
 Z. C. Holden,  S. Houck,  Xunkun Huang,  Kerwin Hui,  B. C. Huynh,  
 K. Ikeda,  M. Ivanov,  Hyunjun Ji,  Zuxin Jin,  Hanjie Jiang,  B. Kaduk,  
 S. Kaehler,  R. Kang,  K. Khistyaev,  Jaehoon Kim,  Yongbin Kim,  
 P. Klunzinger,  Z. Koczor-Benda,  Joong Hoon Koh,  D. Kosenkov,  
 Saikiran Kotaru,  L. Koulias,  T. Kowalczyk,  C. M. Krauter,  K. Kue,  
 A. Kunitsa,  T. Kus,  A. Landau,  K. V. Lawler,  D. Lefrancois,  S. Lehtola,  
 Rain Li,  Shaozhi Li,  Yi-Pei Li,  Jiashu Liang,  M. Liebenthal,  
 Hung-Hsuan Lin,  You-Sheng Lin,  Fenglai Liu,  Kuan-Yu Liu,  
 M. Loipersberger,  A. Luenser,  C. Malbon,  A. Manjanath,  P. Manohar,  
 E. Mansoor,  S. F. Manzer,  Shan-Ping Mao,  A. V. Marenich,  T. Markovich,  
 S. Mason,  F. Matz,  S. A. Maurer,  P. F. McLaughlin,  M. F. S. J. Menger,  
 J.-M. Mewes,  S. A. Mewes,  P. Morgante,  Mohammad Mostafanejad,  
 J. W. Mullinax,  K. J. Oosterbaan,  G. Paran,  V. Parravicini,  
 Alexander C. Paul,  Suranjan K. Paul,  F. Pavosevic,  Zheng Pei,  S. Prager,  
 E. I. Proynov,  E. Ramos,  B. Rana,  A. E. Rask,  A. Rettig,  R. M. Richard,  
 F. Rob,  E. Rossomme,  T. Scheele,  M. Scheurer,  M. Schneider,  
 P. E. Schneider,  N. Sergueev,  S. M. Sharada,  Hengyuan Shen,  
 W. Skomorowski,  D. W. Small,  C. J. Stein,  Yingli Su,  Yu-Chuan Su,  
 E. J. Sundstrom,  Zhen Tao,  J. Thirman,  Hung-Yi Tsai,  T. Tsuchimochi,  
 N. M. Tubman,  C. Utku,  S. P. Veccham,  O. Vydrov,  J. Wenzel,  
 Jonathan Wong,  J. Witte,  A. Yamada,  Chou-Hsun Yang,  Kun Yao,  
 S. Yeganeh,  S. R. Yost,  A. Zech,  F. Zeller,  Igor Ying Zhang,  
 Xing Zhang,  Yu Zhang,  D. Zuev,  A. Aspuru-Guzik,  A. T. Bell,  
[...]
    3  -2.0577116  -1.3217266   1.9658498   2.0210326   0.0459257   3.2195869
          187         188         189         190         191         192
    1  -0.2135250   1.7627771   0.4859752   2.4325307   2.1045671  -0.9690653
    2   1.5667246   0.8766254  -0.3487643   2.7028517   0.7450489   2.9734851
    3   1.9860161   1.2744804   0.4411349   0.3686386   3.3562609  -0.9475761
          193         194         195         196         197         198
    1  -1.0353188  -1.8842530  -0.1416346  -1.0090751   0.1705191  -0.1948791
    2  -1.5462568  -0.1732447  -1.5209127  -2.9512826  -0.8604339   0.7953519
    3  -2.9732604  -2.2848583  -4.6188468  -2.0655592  -0.9746068  -1.7115104
          199         200         201         202         203         204
    1  -0.8436315   1.5948083  -1.1032756   2.4377305  -0.6008003   0.9919181
    2   0.7219089   0.8200095   0.3524955  -1.2945034   3.6990966   4.5859589
    3   0.4694472  -2.3461228  -3.7095715  -3.5780552  -0.2246423   0.4006346
          205         206         207         208         209         210
    1  -0.8970950  -1.6352683  -0.0635080   0.6200021   1.2946164  -1.2741099
    2   3.5722501   3.0790610   1.5239417   1.8249410   4.0140641   1.3423879
    3  -2.2291868   1.2423272  -0.3894355   1.5236908   1.5785069   1.4623843
          211         212         213         214         215         216
    1   1.6758602   2.5341343   0.3133036   0.1278164   0.9608925  -0.0966461
    2   0.6115948   2.9255472   1.7442293   0.9407049   0.2805443   3.4676479
    3   0.8606203  -1.1138201   1.0638215   2.4587027  -0.6922512   0.2805205
          217         218         219         220         221         222
    1  -1.8054457  -1.4104532  -1.2613568  -2.9506209   0.5101957  -1.3037073
    2   1.8905398  -0.2644211   0.2513114  -0.3091625  -0.7675773   1.3236332
    3   1.7192942   1.4088726   2.9794897   0.8440866  -0.0543974  -1.3171895
          223         224         225         226         227         228
    1  -3.5038411  -2.7306925  -3.8268933  -3.2482373  -2.1872988  -1.0811104
    2   0.1154763  -1.5207317  -0.3832669   2.0182137   0.9757324   1.3580360
    3  -1.3253500  -2.7251088   0.6036979  -1.8171894  -0.8644095  -2.7677040
          229         230         231         232         233         234
    1  -2.2985546   0.5498899  -1.4352054  -1.2562939  -2.3679506  -1.2053275
    2   2.8193119   1.1218688   0.0610962  -2.1683953   2.7329625   2.5177632
    3  -2.1109311  -2.2237341  -4.0184009  -1.5614109   0.8313009   2.2931115
          235         236         237         238         239         240
    1  -1.8255964  -3.9401064  -0.8174515  -1.0178741   0.0754866  -2.8631771
    2   4.1108056   1.5521719   1.7799713   3.0713209   1.7726545   2.7437575
    3  -0.1150794   0.5662761  -0.1465881  -1.9306785  -2.8421872  -2.3389678
          241         242         243         244         245         246
    1  -0.1630746  -2.9846780   2.0926302   1.8961655   3.6393599   0.4568992
    2   4.1495634   0.1697989   2.7878097   2.4236498   2.6194984   3.3915023
    3  -0.1687283  -1.7299088   1.3430367   3.1419754   0.3358189   0.6179115
          247         248         249         250         251         252
    1   2.1906045   2.2077677   1.1919574   4.1185818   1.1082794  -1.0454545
    2   0.6327990   1.0401059   2.5919788   1.0630719  -0.4726867   0.4228857
    3   1.4032373  -0.6863105  -0.8888964  -0.2217905  -0.8055570   1.0207029
          253         254         255         256         257         258
    1  -1.6170072  -0.1981964  -1.7849083  -2.5339959  -0.9637961   0.5380045
    2  -1.9499415  -2.8227995   0.1213512  -3.2375590  -1.5249948  -3.6674475
    3   2.2109800   2.6943928   2.1290483   1.2640028   0.1855733   0.4877402
          259         260         261         262         263         264
    1  -1.1546564   1.7471131   1.3583371   1.1582399   2.3656418   2.5228855
    2  -4.5943099  -2.7033032  -3.2335170   0.6234005   2.7320974   2.4667481
    3   0.4572277  -0.8218367   1.8035428   1.0784297  -0.6176617   1.4382039
          265         266         267         268         269         270
    1   3.4943435   1.0823564   0.8908837   2.7202507   1.4388128   4.0263564
    2   1.3518165   3.7502390   2.0567325   0.4177552  -0.4344324   0.6080893
    3  -1.8306218  -1.4898045  -0.3061259  -0.0273881  -0.4270893  -1.2755453
          271         272         273         274         275         276
    1   2.8965315   0.6862948   0.0187936  -1.8820604   0.8797333   0.9243753
    2   1.1987762   1.2141445  -3.4852435  -2.9768951  -3.0449526  -4.0788212
    3   1.7330889  -3.6670677  -1.5287257  -1.5718531  -3.0477239   0.4902608
          277         278         279         280         281         282
    1   0.5119294   2.7334926   2.3650241   2.3911628   3.0526374   0.1722784
    2  -1.8072711  -2.1104975  -3.6777645  -2.1299306  -0.5934994  -2.2759096
    3  -2.1892223  -1.3301439   0.4180647  -3.1433068  -0.8054720   1.2802718
 EField
            1           2           3           4           5           6
    1  -0.0041321  -0.0022164  -0.0024609   0.0017810  -0.0029783  -0.0013507
    2  -0.0010938   0.0000621  -0.0020034   0.0003439   0.0042451   0.0040201
    3   0.0062667   0.0054561   0.0023766   0.0013414   0.0013687   0.0022299
            7           8           9          10          11          12
    1  -0.0008307   0.0006401  -0.0075665  -0.0046313   0.0005015   0.0097900
    2  -0.0054907   0.0026185  -0.0058527  -0.0028806  -0.0027054  -0.0025045
    3   0.0017518   0.0050420   0.0006283   0.0144059  -0.0051864   0.0060939
           13          14          15          16          17          18
    1  -0.0066371  -0.0052727   0.0007913   0.0023421  -0.0108671  -0.0019332
    2  -0.0007022   0.0102154   0.0097287   0.0018658  -0.0034382  -0.0007806
    3   0.0002109   0.0014780   0.0044081   0.0010256   0.0007288   0.0082688
           19          20          21          22          23          24
    1   0.0019158  -0.0065868  -0.0196601  -0.0019449  -0.0145521   0.0097723
    2   0.0025819   0.0013396   0.0054608   0.0021486   0.0071589   0.0369724
    3   0.0149906   0.0104252   0.0047984   0.0135371  -0.0033092   0.0053438
           25          26          27          28          29          30
    1  -0.0269130  -0.0266029   0.0382533   0.0007706  -0.0314389   0.0153609
    2   0.0064985  -0.0144430  -0.0071803   0.0051695  -0.0011445   0.0336448
    3  -0.0229587   0.0124929   0.0277045  -0.0079078  -0.0166137   0.0022702
           31          32          33          34          35          36
    1   0.0260160  -0.0635353   0.0062333   0.0055030   0.0076670   0.0208188
    2  -0.0126111  -0.0792259  -0.0040987   0.0060326  -0.0317031   0.0147733
    3  -0.0145985  -0.0519420   0.0011251   0.0306748   0.0037064  -0.0163354
           37          38          39          40          41          42
    1  -0.0271271  -0.0024063  -0.0240860   0.0105576  -0.0226197   0.0347183
    2   0.0357661  -0.0062719  -0.0014838  -0.0296508  -0.0126495   0.0317402
    3   0.0343820  -0.0045889  -0.0220300  -0.0109914   0.0210062  -0.1000512
           43          44          45          46          47          48
    1  -0.0103874  -0.0236095  -0.0146593   0.0003088  -0.0077397   0.0018300
    2   0.0009088   0.0278053  -0.0272714   0.0050070  -0.0179198  -0.0064290
    3   0.0038705   0.0006704  -0.0090665   0.0302716  -0.0514886   0.0034615
           49          50          51          52          53          54
    1   0.0009747  -0.0163592   0.0309522   0.0472194  -0.0104465   0.0040272
    2   0.0024993  -0.0330874  -0.0100517   0.0894206  -0.0077132  -0.0235597
    3   0.0239788   0.0013394  -0.0039172   0.0382543   0.0033334  -0.0174325
           55          56          57          58          59          60
    1   0.0083392  -0.0313993  -0.0051009  -0.0021037  -0.0331519   0.0246446
    2  -0.0053242   0.0105453   0.0470883  -0.0008009   0.0082394   0.0145297
    3   0.0320866  -0.0057678   0.0184980  -0.0058969  -0.0088662  -0.0161312
           61          62          63          64          65          66
    1   0.0078262   0.0879400  -0.0039515  -0.0291299   0.0004930   0.0138698
    2  -0.0282957  -0.0654902  -0.0044961  -0.0075547   0.0225131  -0.0244852
    3  -0.0064742   0.0188222  -0.0025325   0.0103804  -0.0214671  -0.0152812
           67          68          69          70          71          72
    1   0.0543903  -0.0055870   0.0194749  -0.0270454   0.0009546  -0.0522587
    2  -0.0035399  -0.0060404   0.0008642   0.0147273  -0.0398089   0.0938638
    3  -0.0056110   0.0058593   0.0258011   0.0082002   0.0076924   0.0230248
           73          74          75          76          77          78
    1   0.0038104  -0.0127948  -0.0037167   0.0266469   0.0282798  -0.0004552
    2   0.0007085   0.0251247  -0.0040852   0.0030655  -0.0481437   0.0023860
    3   0.0103979   0.0131067   0.0364910  -0.0054553  -0.0094340  -0.0037898
           79          80          81          82          83          84
    1  -0.0131839   0.0208390  -0.0239638  -0.1058492  -0.0018578  -0.0181904
    2   0.0279500  -0.0022555  -0.0018540   0.0043156   0.0064277  -0.0061059
    3   0.0047603  -0.0281875  -0.0227233   0.0285362  -0.0017698  -0.0310881
           85          86          87          88          89          90
    1  -0.0052920   0.0331287   0.0509171  -0.0049980   0.0297348  -0.0071573
    2   0.0049477   0.0072575  -0.0104297  -0.0027725  -0.0007419  -0.0324762
    3   0.0310999  -0.0058575   0.0315743  -0.0065789  -0.0087635  -0.0036571
           91          92          93          94          95          96
    1  -0.0270188  -0.1000354   0.0055056  -0.0051667   0.0103824   0.0242296
    2   0.0032977  -0.0201140  -0.0037751  -0.0314375   0.0025015   0.0019191
    3  -0.0200388   0.0427908  -0.0012213   0.0044550  -0.0286722   0.0198949
           97          98          99         100         101         102
    1  -0.0513877  -0.0002221  -0.0022982   0.0262924  -0.0086614   0.0244927
    2  -0.0098783   0.0063754   0.0366110   0.0022195  -0.0066387   0.0418850
    3  -0.0208194  -0.0075680   0.0068455   0.0090256  -0.0326445   0.0979891
          103         104         105         106         107         108
    1   0.0052827   0.0257446  -0.0100587   0.0047152   0.0368634  -0.0024163
    2   0.0098337   0.0078200   0.0303241  -0.0069060  -0.0468674   0.0054951
    3   0.0037086  -0.0145728   0.0008769   0.0292809  -0.0054969  -0.0076566
          109         110         111         112         113         114
    1  -0.0212102   0.0273673  -0.0103427  -0.0905276  -0.0002411   0.0256746
    2   0.0234305   0.0124671  -0.0214665  -0.0012437   0.0041130   0.0169617
    3   0.0079548  -0.0132915  -0.0203650   0.0601916  -0.0081169  -0.0083739
          115         116         117         118         119         120
    1  -0.0080393  -0.0267778  -0.0326604   0.0035778   0.0099890  -0.0267821
    2  -0.0174927   0.0236629  -0.0419880   0.0054328   0.0269158   0.0068516
    3  -0.0249105   0.0050225   0.0128807   0.0060227  -0.0158931   0.0253471
          121         122         123         124         125         126
    1   0.0110772   0.1078447  -0.0040304  -0.0085323  -0.0046720  -0.0208089
    2  -0.0118712  -0.0087973   0.0085242   0.0229604   0.0072524  -0.0184671
    3   0.0291819  -0.0171684  -0.0008777   0.0189000  -0.0307985  -0.0002707
          127         128         129         130         131         132
    1   0.0033221   0.0030610   0.0256206  -0.0021578  -0.0073181   0.0037697
    2  -0.0274058   0.0079098  -0.0196823   0.0161373   0.0255909  -0.0538142
    3   0.0498183  -0.0044429  -0.0063995  -0.0297793   0.0207934  -0.0968823
          133         134         135         136         137         138
    1  -0.0002250   0.0260794  -0.0031486  -0.0037413   0.0049379  -0.0063375
    2   0.0098283   0.0129162   0.0212350   0.0306909  -0.0317180   0.0039142
    3  -0.0022445   0.0145202  -0.0282666   0.0210754  -0.0454202   0.0028284
          139         140         141         142         143         144
    1  -0.0088399   0.0046991  -0.0232384   0.0554185   0.0032413  -0.0025530
    2  -0.0275156   0.0134769   0.0129558  -0.0248138  -0.0036146  -0.0312719
    3   0.0080085   0.0330098  -0.0256881   0.0980339  -0.0127278  -0.0178778
          145         146         147         148         149         150
    1  -0.0162797   0.0286390   0.0013945   0.0049755  -0.0033097   0.0225124
    2   0.0095348   0.0241336   0.0640543  -0.0060619  -0.0338553   0.0201470
    3  -0.0268252  -0.0154123   0.0104632  -0.0013856  -0.0039453  -0.0147625
          151         152         153         154         155         156
    1   0.0059052  -0.0844012  -0.0033971  -0.0178217  -0.0171875   0.0178514
    2   0.0046551  -0.0600329   0.0085990   0.0091327   0.0017382   0.0292745
    3   0.0290472   0.0343570  -0.0059583  -0.0314855   0.0245371   0.0233203
          157         158         159         160         161         162
    1   0.0360640   0.0004409  -0.0155364   0.0260656   0.0014100  -0.0842975
    2  -0.0121400   0.0041211   0.0120062   0.0145017  -0.0273965  -0.0686977
    3   0.0512600  -0.0078892  -0.0318078   0.0145307  -0.0184763  -0.0171164
          163         164         165         166         167         168
    1   0.0037497  -0.0136221   0.0331111  -0.0192619  -0.0013998   0.0013837
    2   0.0075626   0.0248202  -0.0032038   0.0108895  -0.0192812  -0.0053150
    3  -0.0027394   0.0131181   0.0069068  -0.0288248   0.0450147  -0.0096665
          169         170         171         172         173         174
    1   0.0142443   0.0245949  -0.0233015  -0.0875368   0.0074449  -0.0021152
    2   0.0160015  -0.0168979  -0.0165677   0.0120035  -0.0063639  -0.0317551
    3  -0.0219402   0.0114641  -0.0220570  -0.0750583   0.0026465   0.0169764
          175         176         177         178         179         180
    1   0.0256549  -0.0022022  -0.0509690   0.0030797   0.0022360  -0.0200766
    2   0.0119804   0.0114103  -0.0029633  -0.0079296  -0.0345554  -0.0076496
    3  -0.0163218   0.0268990   0.0234139  -0.0048515   0.0092651  -0.0221835
          181         182         183         184         185         186
    1   0.0316537   0.0446061   0.0023017   0.0320226  -0.0093989  -0.0129953
    2  -0.0067504   0.0863131   0.0056636   0.0014518   0.0212884   0.0145010
    3  -0.0109366  -0.0479319  -0.0007044   0.0111912  -0.0211523   0.0246491
          187         188         189         190         191         192
    1  -0.0372399   0.0018896   0.0032808   0.0240880   0.0220789  -0.0367572
    2  -0.0297155  -0.0021904  -0.0239130   0.0072422  -0.0142672   0.0395068
    3   0.0390330  -0.0017855  -0.0217852  -0.0245773   0.0250623  -0.0948652
          193         194         195         196         197         198
    1  -0.0071503  -0.0339603   0.0160703  -0.0070039   0.0014128   0.0017147
    2  -0.0034394   0.0071262   0.0088008  -0.0262385  -0.0175037   0.0068212
    3  -0.0045975  -0.0085087  -0.0302826   0.0133782   0.0509766  -0.0033354
          199         200         201         202         203         204
    1  -0.0100905   0.0230528  -0.0144921   0.0822894  -0.0057120   0.0276119
    2   0.0226300   0.0237085   0.0136410  -0.0192973   0.0090656   0.0218301
    3   0.0240279  -0.0032709  -0.0243866  -0.0723086  -0.0000237   0.0006089
          205         206         207         208         209         210
    1  -0.0178493  -0.0312658  -0.0316025  -0.0002295   0.0161074  -0.0245196
    2   0.0079200  -0.0076874  -0.0432344  -0.0013360   0.0233553  -0.0116307
    3  -0.0240600   0.0163415  -0.0204287   0.0049946   0.0205715   0.0226231
          211         212         213         214         215         216
    1   0.0108516   0.0948689   0.0108260   0.0123437   0.0225003   0.0043818
    2  -0.0223181   0.0352260  -0.0005008  -0.0102607  -0.0249747   0.0335759
    3   0.0162469  -0.0421195  -0.0013118   0.0292735  -0.0207812   0.0019559
          217         218         219         220         221         222
    1  -0.0337987   0.0033195   0.0051912  -0.0238295   0.0255753  -0.0045930
    2   0.0291771  -0.0139510  -0.0083546  -0.0175039  -0.0208269  -0.0052193
    3   0.0331794   0.0013382   0.0322850  -0.0124622  -0.0169522  -0.1075692
          223         224         225         226         227         228
    1  -0.0049031  -0.0080811  -0.0162905  -0.0224402   0.0062784   0.0012202
    2  -0.0030292  -0.0242569  -0.0090955   0.0244408   0.0326018   0.0048721
    3  -0.0054137  -0.0227419   0.0246572  -0.0147404   0.0519026  -0.0084305
          229         230         231         232         233         234
    1  -0.0005843   0.0268570  -0.0097593   0.0407172  -0.0048894   0.0106525
    2   0.0387890   0.0114532  -0.0229502  -0.1023741   0.0041706  -0.0072854
    3   0.0008392   0.0128013  -0.0285880  -0.0031118   0.0074328   0.0328450
          235         236         237         238         239         240
    1  -0.0012657  -0.0267094   0.0527323   0.0043799   0.0218457  -0.0222638
    2   0.0288924  -0.0177630  -0.0135592   0.0010537   0.0046350   0.0099996
    3  -0.0163994  -0.0013586   0.0267706  -0.0029044  -0.0334403  -0.0217191
          241         242         243         244         245         246
    1   0.0147075  -0.0687169  -0.0020663   0.0034680   0.0248696  -0.0194801
    2   0.0304203  -0.0704943   0.0102674   0.0024414   0.0124394   0.0169830
    3   0.0058348  -0.0445766   0.0026778   0.0339729  -0.0161646  -0.0182417
          247         248         249         250         251         252
    1   0.0371359  -0.0012574  -0.0084028   0.0321983  -0.0144202  -0.1107146
    2  -0.0343076   0.0001929   0.0250226   0.0052404  -0.0228072  -0.0158878
    3   0.0285373  -0.0100720  -0.0179532  -0.0068670  -0.0144677   0.0009371
          253         254         255         256         257         258
    1  -0.0015983   0.0073478  -0.0094414  -0.0263753  -0.0410312   0.0068305
    2  -0.0036405  -0.0096814   0.0260546  -0.0194940   0.0054762  -0.0027709
    3   0.0088297   0.0448410   0.0207090  -0.0025038  -0.0486507   0.0038542
          259         260         261         262         263         264
    1  -0.0145182   0.0183427   0.0111351   0.0688531   0.0062516   0.0139729
    2  -0.0269751  -0.0131778  -0.0145884   0.0798885   0.0035372   0.0101990
    3  -0.0063785  -0.0284341   0.0279374   0.0281680  -0.0020267   0.0294913
          265         266         267         268         269         270
    1   0.0242002  -0.0162677  -0.0448763   0.0023621  -0.0131894   0.0228490
    2  -0.0127883   0.0258347   0.0133802  -0.0073834  -0.0299575  -0.0028221
    3  -0.0178815  -0.0110944   0.0376373   0.0019936  -0.0027956  -0.0217176
          271         272         273         274         275         276
    1   0.0075212  -0.0159992  -0.0016072  -0.0320592   0.0162546   0.0064250
    2   0.0054421  -0.0239053  -0.0084632  -0.0047493  -0.0116617  -0.0210767
    3   0.0331695  -0.1061540   0.0003044   0.0042646  -0.0277895   0.0246591
          277         278         279         280         281         282
    1  -0.0165973   0.0061355   0.0163226   0.0217473   0.0145990  -0.0224355
    2   0.0368866  -0.0013574  -0.0237153  -0.0066296   0.0251173   0.0107353
    3  -0.0413986   0.0011049   0.0195617  -0.0271734   0.0053872   0.1066692
  --- DONE ESP SUMMARY ---
 Total job time:  27.08s(wall), 76.09s(cpu) 
 Thu Jul 21 12:50:54 2022

        *************************************************************
        *                                                           *
        *  Thank you very much for using Q-Chem.  Have a nice day.  *
        *                                                           *
        *************************************************************


