                  Welcome to Q-Chem
     A Quantum Leap Into The Future Of Chemistry


 Q-Chem 5.2 (devel), Q-Chem, Inc., Pleasanton, CA (2019)

 Yihan Shao,  Zhengting Gan,  E. Epifanovsky,  A. T. B. Gilbert,  M. Wormit,  
 J. Kussmann,  A. W. Lange,  A. Behn,  Jia Deng,  Xintian Feng,  D. Ghosh,  
 M. Goldey,  P. R. Horn,  L. D. Jacobson,  I. Kaliman,  T. Kus,  A. Landau,  
 Jie Liu,  E. I. Proynov,  R. M. Richard,  R. P. Steele,  E. J. Sundstrom,  
 H. L. Woodcock III,  P. M. Zimmerman,  D. Zuev,  B. Alam,  B. Albrecht,  
 E. Alguire,  S. A. Baeppler,  D. Barton,  Z. Benda,  Y. A. Bernard,  
 E. J. Berquist,  K. B. Bravaya,  H. Burton,  K. Carter-Fenk,  D. Casanova,  
 Chun-Min Chang,  Yunqing Chen,  A. Chien,  K. D. Closser,  M. P. Coons,  
 S. Coriani,  S. Dasgupta,  A. L. Dempwolff,  M. Diedenhofen,  Hainam Do,  
 R. G. Edgar,  Po-Tung Fang,  S. Faraji,  S. Fatehi,  Qingguo Feng,  
 J. Fosso-Tande,  J. Gayvert,  Qinghui Ge,  A. Ghysels,  G. Gidofalvi,  
 J. Gomes,  J. Gonthier,  A. Gunina,  D. Hait,  M. W. D. Hanson-Heine,  
 P. H. P. Harbach,  A. W. Hauser,  M. F. Herbst,  J. E. Herr,  
 E. G. Hohenstein,  Z. C. Holden,  Kerwin Hui,  B. C. Huynh,  T.-C. Jagau,  
 Hyunjun Ji,  B. Kaduk,  K. Khistyaev,  Jaehoon Kim,  P. Klunzinger,  K. Koh,  
 D. Kosenkov,  L. Koulias,  T. Kowalczyk,  C. M. Krauter,  A. Kunitsa,  
 Ka Un Lao,  A. Laurent,  K. V. Lawler,  Joonho Lee,  D. Lefrancois,  
 S. Lehtola,  D. S. Levine,  Yi-Pei Li,  You-Sheng Lin,  Fenglai Liu,  
 Kuan-Yu Liu,  E. Livshits,  M. Loipersberger,  A. Luenser,  P. Manohar,  
 E. Mansoor,  S. F. Manzer,  Shan-Ping Mao,  Yuezhi Mao,  N. Mardirossian,  
 A. V. Marenich,  T. Markovich,  L. A. Martinez-Martinez,  S. A. Maurer,  
 N. J. Mayhall,  S. C. McKenzie,  J.-M. Mewes,  P. Morgante,  A. F. Morrison,  
 J. W. Mullinax,  K. Nanda,  T. S. Nguyen-Beck,  R. Olivares-Amaya,  
 J. A. Parkhill,  S. K. Paul,  F. Pavosevic,  Zheng Pei,  T. M. Perrine,  
 F. Plasser,  P. Pokhilko,  S. Prager,  A. Prociuk,  E. Ramos,  B. Rana,  
 D. R. Rehn,  F. Rob,  M. Scheurer,  M. Schneider,  N. Sergueev,  
 S. M. Sharada,  S. Sharma,  D. W. Small,  T. Stauch,  C. J. Stein,  
 T. Stein,  Yu-Chuan Su,  S. P. Veccham,  Zhen Tao,  A. J. W. Thom,  
 A. Tkatchenko,  T. Tsuchimochi,  N. M. Tubman,  L. Vogt,  M. L. Vidal,  
 O. Vydrov,  M. A. Watson,  J. Wenzel,  M. de Wergifosse,  T. A. Wesolowski,  
 A. White,  J. Witte,  A. Yamada,  Jun Yang,  K. Yao,  S. Yeganeh,  
 S. R. Yost,  Zhi-Qiang You,  A. Zech,  Igor Ying Zhang,  Xing Zhang,  
 Yan Zhao,  Ying Zhu,  B. R. Brooks,  G. K. L. Chan,  C. J. Cramer,  
 M. S. Gordon,  W. J. Hehre,  A. Klamt,  M. W. Schmidt,  C. D. Sherrill,  
 D. G. Truhlar,  A. Aspuru-Guzik,  R. Baer,  A. T. Bell,  N. A. Besley,  
 Jeng-Da Chai,  A. E. DePrince, III,  R. A. DiStasio Jr.,  A. Dreuw,  
 B. D. Dunietz,  T. R. Furlani,  Chao-Ping Hsu,  Yousung Jung,  Jing Kong,  
 D. S. Lambrecht,  WanZhen Liang,  C. Ochsenfeld,  V. A. Rassolov,  
 L. V. Slipchenko,  J. E. Subotnik,  T. Van Voorhis,  J. M. Herbert,  
 A. I. Krylov,  P. M. W. Gill,  M. Head-Gordon

 Contributors to earlier versions of Q-Chem not listed above: 
 R. D. Adamson,  B. Austin,  J. Baker,  G. J. O. Beran,  K. Brandhorst,  
 S. T. Brown,  E. F. C. Byrd,  A. K. Chakraborty,  C.-L. Cheng,  
 Siu Hung Chien,  D. M. Chipman,  D. L. Crittenden,  H. Dachsel,  
 R. J. Doerksen,  A. D. Dutoi,  L. Fusti-Molnar,  W. A. Goddard III,  
 A. Golubeva-Zadorozhnaya,  S. R. Gwaltney,  G. Hawkins,  A. Heyden,  
 S. Hirata,  G. Kedziora,  F. J. Keil,  C. Kelley,  Jihan Kim,  R. A. King,  
 R. Z. Khaliullin,  P. P. Korambath,  W. Kurlancheek,  A. M. Lee,  M. S. Lee,  
 S. V. Levchenko,  Ching Yeh Lin,  D. Liotard,  R. C. Lochan,  I. Lotan,  
 P. E. Maslen,  N. Nair,  D. P. O'Neill,  D. Neuhauser,  E. Neuscamman,  
 C. M. Oana,  R. Olson,  B. Peters,  R. Peverati,  P. A. Pieniazek,  
 Y. M. Rhee,  J. Ritchie,  M. A. Rohrdanz,  E. Rosta,  N. J. Russ,  
 H. F. Schaefer III,  N. E. Schultz,  N. Shenvi,  A. C. Simmonett,  A. Sodt,  
 D. Stuck,  K. S. Thanthiriwatte,  V. Vanovschi,  Tao Wang,  A. Warshel,  
 C. F. Williams,  Q. Wu,  X. Xu,  W. Zhang

 Please cite Q-Chem as follows:
 Y. Shao et al., Mol. Phys. 113, 184-215 (2015)
 DOI: 10.1080/00268976.2014.952696

 Q-Chem 5.2.2 for Intel X86 EM64T Linux

 Parts of Q-Chem use Armadillo 9.800.1 (Horizon Scraper).
 http://arma.sourceforge.net/

 Q-Chem begins on Thu Mar 11 13:37:36 2021  

Host: n0081.mhg0
0

     Scratch files written to /local/scratch/users/ymao/r7.00_frame_0097_almo_B3LYP_dp.in20210311133734//

Checking the input file for inconsistencies... 	...done.

--------------------------------------------------------------
User input:
--------------------------------------------------------------
$molecule
0 1
--
0 1
C    24.89600   30.74100   26.04200  
C    26.01000   29.86300   26.63600  
C    25.55600   28.41400   26.40000  
C    25.29600   28.06200   24.92600  
C    24.21000   28.98900   24.35500  
C    24.60800   30.46000   24.55800  
H    26.41900   27.78000   26.63900  
H    26.92000   29.98000   26.03600  
H    23.98500   30.46600   26.58700  
H    25.03400   31.81800   26.19800  
H    26.20400   28.22100   24.33100  
H    24.95100   27.04600   24.70000  
H    24.16600   28.80100   23.27600  
H    23.28500   28.76400   24.90100  
H    25.48300   30.74600   23.96100  
H    23.82400   31.11000   24.15000  
H    24.65900   28.21100   26.99700  
N    26.17800   30.15100   28.06000  
H    25.89100   29.38800   28.66200  
C    27.00200   31.17400   28.47800  
H    27.18500   31.24200   29.56600  
O    27.46500   32.02600   27.74000  
--
0 1
C    22.32900   24.46200   21.83200  
H    23.30400   23.96700   21.81700  
H    21.48600   23.82200   22.10500  
H    22.19700   24.85200   20.82000  
S    22.50200   25.91200   22.89800  
C    20.99000   26.78100   22.42400  
H    20.17900   26.44100   23.07300  
H    21.15400   27.85300   22.56100  
H    20.82700   26.62700   21.35400  
O    23.58600   26.52700   22.06900  
C    32.21000   29.81600   28.81800  
H    31.81300   29.31100   27.93400  
H    33.27600   30.02100   28.69300  
H    32.04900   29.29900   29.76800  
S    31.31400   31.36700   29.05600  
C    31.06100   31.54300   27.27600  
H    30.46900   30.70000   26.91100  
H    30.57100   32.51900   27.22400  
H    31.98100   31.54100   26.68700  
O    32.32700   32.39700   29.44800  
C    23.69600   26.98500   17.59200  
H    23.05300   26.42000   18.27200  
H    23.16700   27.80000   17.09000  
H    24.27600   26.33700   16.93000  
S    25.01800   27.61700   18.65000  
C    23.87700   28.75300   19.46900  
H    23.27700   28.11700   20.12500  
H    24.61400   29.38400   19.97300  
H    23.25500   29.28300   18.74300  
O    25.93500   28.49200   17.85400  
C    27.28000   35.80100   26.41900  
H    28.06500   36.55700   26.49700  
H    26.31700   36.28300   26.60500  
H    27.54400   34.97200   27.08100  
S    27.30700   35.23600   24.70300  
C    26.52400   33.62600   24.94800  
H    25.57300   33.92600   25.39600  
H    26.38000   33.12100   23.98900  
H    26.97000   32.96800   25.69700  
O    28.72300   34.92500   24.32800  
C    25.89300   31.73500   17.79600  
H    24.97700   31.15900   17.95000  
H    25.64000   32.78800   17.65100  
H    26.34900   31.34200   16.88300  
S    27.08300   31.59700   19.14900  
C    26.10600   32.50100   20.37100  
H    25.80700   33.49100   20.01600  
H    25.28000   31.81400   20.57100  
H    26.71200   32.60000   21.27500  
O    28.24500   32.49400   18.85600  
C    28.89000   31.49000   24.05800  
H    28.39100   32.06900   23.27700  
H    28.13400   31.25400   24.81100  
H    29.70100   31.96700   24.61400  
S    29.45500   30.01100   23.18600  
C    30.92300   30.66900   22.36400  
H    31.59300   31.03300   23.14600  
H    31.35400   29.93400   21.67900  
H    30.51900   31.50200   21.78300  
O    28.50000   29.95500   22.03400  
C    27.65800   23.93700   30.83000  
H    28.64300   24.27000   31.16900  
H    27.15200   23.97500   31.79800  
H    27.68800   22.94600   30.37100  
S    27.05900   25.04300   29.53300  
C    25.35600   25.07200   30.13600  
H    25.04000   24.06300   30.41400  
H    25.28500   25.69900   31.02800  
H    24.71300   25.43200   29.32800  
O    26.78700   23.98700   28.50700  
C    25.60200   23.83800   23.72100  
H    26.14700   23.15900   23.05900  
H    25.19700   24.71000   23.20300  
H    26.21000   24.05700   24.60300  
S    24.18200   22.91000   24.34300  
C    24.02100   23.81000   25.90200  
H    24.93100   23.63100   26.48100  
H    23.85400   24.85800   25.64000  
H    23.23400   23.49400   26.59100  
O    24.76000   21.58000   24.71300  
C    29.22800   26.39600   23.20500  
H    28.68300   25.97100   24.05200  
H    30.26600   26.06300   23.13500  
H    29.24400   27.48700   23.27500  
S    28.41700   26.00700   21.63800  
C    26.88100   26.93600   21.84400  
H    26.35700   26.88000   20.88600  
H    26.27900   26.50800   22.65000  
H    27.02000   27.98800   22.10500  
O    27.96900   24.58200   21.74500  
C    22.59200   37.67700   21.19200  
H    23.02500   38.43500   21.84900  
H    23.39200   37.18300   20.63400  
H    21.83700   38.15800   20.56600  
S    21.78600   36.31700   22.06700  
C    23.24200   35.49600   22.75400  
H    23.76400   36.22400   23.38000  
H    22.91600   34.63700   23.34700  
H    23.89800   35.19000   21.93500  
O    21.41900   35.29700   21.03500  
C    24.21600   27.05800   34.61600  
H    23.69500   26.89500   33.66900  
H    23.47400   27.18300   35.40900  
H    24.85700   27.94000   34.54000  
S    25.31700   25.65300   34.89500  
C    26.39900   26.47000   36.09000  
H    26.79100   27.37900   35.62700  
H    25.91500   26.79100   37.01600  
H    27.17900   25.74100   36.32300  
O    26.02200   25.59900   33.57500  
C    17.55800   31.05400   24.61900  
H    16.72500   30.35300   24.71800  
H    17.03600   32.01300   24.59300  
H    18.10700   30.93000   23.68200  
S    18.63100   30.67900   26.02300  
C    17.61300   31.54300   27.24100  
H    17.46100   32.55500   26.85500  
H    16.70000   30.97500   27.43600  
H    18.17500   31.59700   28.17700  
O    19.76700   31.65400   26.01600  
C    31.04400   36.30100   30.17000  
H    31.06100   37.17400   30.82800  
H    30.29200   35.55900   30.44800  
H    32.02100   35.81900   30.26600  
S    30.83400   36.94900   28.49600  
C    30.41600   35.41200   27.64400  
H    31.30300   34.77600   27.69800  
H    29.53300   34.89300   28.02700  
H    30.22000   35.70100   26.60800  
O    32.24200   37.17300   28.03800  
C    18.94500   26.78700   26.04400  
H    18.31700   27.45100   26.64200  
H    19.04400   27.17800   25.02800  
H    18.46300   25.81500   26.17900  
S    20.57700   26.75000   26.81800  
C    20.92800   28.50400   26.56200  
H    21.94600   28.73500   26.88600  
H    20.77000   28.75700   25.51100  
H    20.26100   29.03300   27.24700  
O    21.44300   26.01100   25.84500  
C    31.21100   33.28500   33.32800  
H    30.67700   33.69200   34.19100  
H    31.22100   34.14900   32.65800  
H    30.47900   32.52500   33.04400  
S    32.77400   32.53600   33.84000  
C    32.96500   31.35100   32.48900  
H    33.88100   30.79800   32.71100  
H    32.08500   30.70300   32.48300  
H    33.13600   31.84700   31.53000  
O    32.37200   31.56700   34.90700  
C    19.70600   34.64400   30.47000  
H    19.64000   34.23500   29.45800  
H    18.83300   34.31900   31.04200  
H    19.85500   35.72600   30.50800  
S    21.00500   33.82700   31.42400  
C    20.09100   32.29100   31.68800  
H    19.90700   31.85800   30.70200  
H    20.81200   31.73300   32.29200  
H    19.20400   32.56800   32.26300  
O    20.75800   34.51900   32.72900  
C    22.79100   32.42400   35.60200  
H    22.08100   32.46600   36.43200  
H    23.71100   32.95800   35.85400  
H    22.23300   32.87300   34.77700  
S    23.10900   30.71300   35.11400  
C    23.98100   31.37200   33.67600  
H    24.48500   30.54400   33.16900  
H    23.32300   31.91500   32.99300  
H    24.75100   32.06400   34.02600  
O    21.85000   30.33300   34.39900  
C    22.69400   27.46600   29.71900  
H    22.81700   26.50900   30.23200  
H    21.72300   27.93000   29.91000  
H    22.92700   27.49800   28.65200  
S    23.93500   28.49000   30.54300  
C    23.38500   30.07900   29.88100  
H    22.29400   30.06100   29.80900  
H    23.65600   30.95200   30.48000  
H    23.73800   30.33600   28.87900  
O    25.15800   28.19100   29.73400  
C    25.19800   21.59700   20.51500  
H    25.18300   21.94200   21.55300  
H    24.25200   21.81100   20.01300  
H    25.45400   20.53900   20.41700  
S    26.43200   22.70300   19.79400  
C    25.34300   24.14600   19.79600  
H    24.29300   23.84800   19.84800  
H    25.57500   24.73300   20.68800  
H    25.54500   24.66900   18.85800  
O    26.56100   22.36300   18.34200  
C    29.80800   27.03500   27.84200  
H    29.39600   27.48400   28.75000  
H    30.75400   27.47000   27.50900  
H    29.14700   27.11400   26.97500  
S    30.28800   25.34700   28.27300  
C    31.52600   25.62300   29.56100  
H    32.23000   26.36300   29.17300  
H    31.15300   25.94800   30.53600  
H    32.08800   24.69700   29.70600  
O    31.17500   25.06000   27.10200  
C    23.01600   39.15600   27.09200  
H    21.95300   39.39100   26.99900  
H    23.21000   38.47300   27.92300  
H    23.71700   39.99400   27.06500  
S    23.27300   38.19100   25.58600  
C    25.06300   38.36700   25.41200  
H    25.32900   37.89200   24.46400  
H    25.16400   39.45500   25.37700  
H    25.62500   38.09200   26.30800  
O    22.69400   39.09600   24.54400  
C    18.86200   23.49300   29.03400  
H    18.61700   24.53000   28.79200  
H    18.97500   22.89800   28.12400  
H    18.06300   23.02800   29.61800  
S    20.38300   23.26800   29.98300  
C    20.39000   24.91200   30.73300  
H    21.13100   25.15100   31.50000  
H    20.49200   25.62700   29.91300  
H    19.38900   24.96200   31.16900  
O    21.46400   23.35400   28.95100  
C    24.16600   34.38900   28.86100  
H    24.47400   33.34300   28.78600  
H    24.96400   35.09600   28.61700  
H    23.87400   34.69200   29.86900  
S    22.88500   34.79500   27.65300  
C    22.12000   33.16000   27.72900  
H    21.36500   33.09900   26.94200  
H    22.94600   32.46300   27.56400  
H    21.71300   33.00900   28.73200  
O    23.52900   34.70800   26.30400  
C    20.94700   32.45000   22.92600  
H    21.68500   32.92000   23.58100  
H    21.06000   32.90600   21.93900  
H    19.92200   32.67300   23.23100  
S    21.20500   30.66200   22.93900  
C    22.38200   30.76000   21.57200  
H    22.04900   31.37900   20.73500  
H    23.26400   31.26000   21.98100  
H    22.55700   29.73500   21.23600  
O    19.93800   30.19400   22.29200  
C    29.27300   31.64900   36.76600  
H    29.03300   30.98700   37.60200  
H    29.78700   31.14900   35.94100  
H    29.89000   32.44600   37.19000  
S    27.77300   32.34100   36.03300  
C    26.93900   32.38100   37.63600  
H    26.73700   31.36100   37.97200  
H    27.56800   32.96000   38.31700  
H    26.00200   32.93000   37.51600  
O    27.07500   31.21000   35.34300  
C    28.44800   22.47200   25.78200  
H    27.68600   22.27700   25.02200  
H    28.31900   21.77700   26.61500  
H    28.26100   23.50000   26.10500  
S    30.11400   22.12100   25.17700  
C    30.41200   23.54600   24.10600  
H    30.43800   24.37200   24.82100  
H    31.32500   23.49700   23.50700  
H    29.53000   23.59600   23.46100  
O    30.13200   20.94500   24.25100  
C    27.75000   28.93500   32.11600  
H    27.13300   28.79700   33.00800  
H    27.90700   29.99300   31.89300  
H    27.36000   28.44500   31.22000  
S    29.35400   28.19300   32.49300  
C    29.63900   29.22900   33.94600  
H    28.78300   29.20800   34.62500  
H    30.53000   28.78700   34.39900  
H    29.92400   30.24000   33.64300  
O    30.32800   28.77600   31.51700  
C    26.03200   34.66200   32.88700  
H    25.04500   34.76300   32.42800  
H    26.02100   34.20600   33.88000  
H    26.49900   35.64300   33.00800  
S    26.99300   33.55500   31.83100  
C    27.17400   34.61800   30.38100  
H    27.30000   33.92000   29.55000  
H    26.35000   35.31100   30.19400  
H    28.09600   35.20300   30.44600  
O    25.98200   32.58300   31.30900  
$end

$rem
JOBTYPE  SP
METHOD  B3LYP
BASIS  6-31+G(D)
SYMMETRY  FALSE
SYM_IGNORE  TRUE
MEM_TOTAL  16000
MEM_STATIC  8000
MAX_SUB_FILE_NUM  16000
BASIS_LIN_DEP_THRESH  6
THRESH  14
SCF_CONVERGENCE  8
GEN_SCFMAN  TRUE
SCF_GUESS  FRAGMO
FD_MAT_VEC_PROD  FALSE
XC_GRID  000075000302
NL_GRID  1
MAX_SCF_CYCLES  200
FRGM_METHOD  STOLL
SCFMI_MODE  1
$end

$development
almo_efield  1
$end

$rem_frgm
SCF_CONVERGENCE  4
$end

--------------------------------------------------------------
 ----------------------------------------------------------------
             Standard Nuclear Orientation (Angstroms)
    I     Atom           X                Y                Z
 ----------------------------------------------------------------
    1      C      24.8960000000    30.7410000000    26.0420000000
    2      C      26.0100000000    29.8630000000    26.6360000000
    3      C      25.5560000000    28.4140000000    26.4000000000
    4      C      25.2960000000    28.0620000000    24.9260000000
    5      C      24.2100000000    28.9890000000    24.3550000000
    6      C      24.6080000000    30.4600000000    24.5580000000
    7      H      26.4190000000    27.7800000000    26.6390000000
    8      H      26.9200000000    29.9800000000    26.0360000000
    9      H      23.9850000000    30.4660000000    26.5870000000
   10      H      25.0340000000    31.8180000000    26.1980000000
   11      H      26.2040000000    28.2210000000    24.3310000000
   12      H      24.9510000000    27.0460000000    24.7000000000
   13      H      24.1660000000    28.8010000000    23.2760000000
   14      H      23.2850000000    28.7640000000    24.9010000000
   15      H      25.4830000000    30.7460000000    23.9610000000
   16      H      23.8240000000    31.1100000000    24.1500000000
   17      H      24.6590000000    28.2110000000    26.9970000000
   18      N      26.1780000000    30.1510000000    28.0600000000
   19      H      25.8910000000    29.3880000000    28.6620000000
   20      C      27.0020000000    31.1740000000    28.4780000000
   21      H      27.1850000000    31.2420000000    29.5660000000
   22      O      27.4650000000    32.0260000000    27.7400000000
   23      C      22.3290000000    24.4620000000    21.8320000000
   24      H      23.3040000000    23.9670000000    21.8170000000
   25      H      21.4860000000    23.8220000000    22.1050000000
   26      H      22.1970000000    24.8520000000    20.8200000000
   27      S      22.5020000000    25.9120000000    22.8980000000
   28      C      20.9900000000    26.7810000000    22.4240000000
   29      H      20.1790000000    26.4410000000    23.0730000000
   30      H      21.1540000000    27.8530000000    22.5610000000
   31      H      20.8270000000    26.6270000000    21.3540000000
   32      O      23.5860000000    26.5270000000    22.0690000000
   33      C      32.2100000000    29.8160000000    28.8180000000
   34      H      31.8130000000    29.3110000000    27.9340000000
   35      H      33.2760000000    30.0210000000    28.6930000000
   36      H      32.0490000000    29.2990000000    29.7680000000
   37      S      31.3140000000    31.3670000000    29.0560000000
   38      C      31.0610000000    31.5430000000    27.2760000000
   39      H      30.4690000000    30.7000000000    26.9110000000
   40      H      30.5710000000    32.5190000000    27.2240000000
   41      H      31.9810000000    31.5410000000    26.6870000000
   42      O      32.3270000000    32.3970000000    29.4480000000
   43      C      23.6960000000    26.9850000000    17.5920000000
   44      H      23.0530000000    26.4200000000    18.2720000000
   45      H      23.1670000000    27.8000000000    17.0900000000
   46      H      24.2760000000    26.3370000000    16.9300000000
   47      S      25.0180000000    27.6170000000    18.6500000000
   48      C      23.8770000000    28.7530000000    19.4690000000
   49      H      23.2770000000    28.1170000000    20.1250000000
   50      H      24.6140000000    29.3840000000    19.9730000000
   51      H      23.2550000000    29.2830000000    18.7430000000
   52      O      25.9350000000    28.4920000000    17.8540000000
   53      C      27.2800000000    35.8010000000    26.4190000000
   54      H      28.0650000000    36.5570000000    26.4970000000
   55      H      26.3170000000    36.2830000000    26.6050000000
   56      H      27.5440000000    34.9720000000    27.0810000000
   57      S      27.3070000000    35.2360000000    24.7030000000
   58      C      26.5240000000    33.6260000000    24.9480000000
   59      H      25.5730000000    33.9260000000    25.3960000000
   60      H      26.3800000000    33.1210000000    23.9890000000
   61      H      26.9700000000    32.9680000000    25.6970000000
   62      O      28.7230000000    34.9250000000    24.3280000000
   63      C      25.8930000000    31.7350000000    17.7960000000
   64      H      24.9770000000    31.1590000000    17.9500000000
   65      H      25.6400000000    32.7880000000    17.6510000000
   66      H      26.3490000000    31.3420000000    16.8830000000
   67      S      27.0830000000    31.5970000000    19.1490000000
   68      C      26.1060000000    32.5010000000    20.3710000000
   69      H      25.8070000000    33.4910000000    20.0160000000
   70      H      25.2800000000    31.8140000000    20.5710000000
   71      H      26.7120000000    32.6000000000    21.2750000000
   72      O      28.2450000000    32.4940000000    18.8560000000
   73      C      28.8900000000    31.4900000000    24.0580000000
   74      H      28.3910000000    32.0690000000    23.2770000000
   75      H      28.1340000000    31.2540000000    24.8110000000
   76      H      29.7010000000    31.9670000000    24.6140000000
   77      S      29.4550000000    30.0110000000    23.1860000000
   78      C      30.9230000000    30.6690000000    22.3640000000
   79      H      31.5930000000    31.0330000000    23.1460000000
   80      H      31.3540000000    29.9340000000    21.6790000000
   81      H      30.5190000000    31.5020000000    21.7830000000
   82      O      28.5000000000    29.9550000000    22.0340000000
   83      C      27.6580000000    23.9370000000    30.8300000000
   84      H      28.6430000000    24.2700000000    31.1690000000
   85      H      27.1520000000    23.9750000000    31.7980000000
   86      H      27.6880000000    22.9460000000    30.3710000000
   87      S      27.0590000000    25.0430000000    29.5330000000
   88      C      25.3560000000    25.0720000000    30.1360000000
   89      H      25.0400000000    24.0630000000    30.4140000000
   90      H      25.2850000000    25.6990000000    31.0280000000
   91      H      24.7130000000    25.4320000000    29.3280000000
   92      O      26.7870000000    23.9870000000    28.5070000000
   93      C      25.6020000000    23.8380000000    23.7210000000
   94      H      26.1470000000    23.1590000000    23.0590000000
   95      H      25.1970000000    24.7100000000    23.2030000000
   96      H      26.2100000000    24.0570000000    24.6030000000
   97      S      24.1820000000    22.9100000000    24.3430000000
   98      C      24.0210000000    23.8100000000    25.9020000000
   99      H      24.9310000000    23.6310000000    26.4810000000
  100      H      23.8540000000    24.8580000000    25.6400000000
  101      H      23.2340000000    23.4940000000    26.5910000000
  102      O      24.7600000000    21.5800000000    24.7130000000
  103      C      29.2280000000    26.3960000000    23.2050000000
  104      H      28.6830000000    25.9710000000    24.0520000000
  105      H      30.2660000000    26.0630000000    23.1350000000
  106      H      29.2440000000    27.4870000000    23.2750000000
  107      S      28.4170000000    26.0070000000    21.6380000000
  108      C      26.8810000000    26.9360000000    21.8440000000
  109      H      26.3570000000    26.8800000000    20.8860000000
  110      H      26.2790000000    26.5080000000    22.6500000000
  111      H      27.0200000000    27.9880000000    22.1050000000
  112      O      27.9690000000    24.5820000000    21.7450000000
  113      C      22.5920000000    37.6770000000    21.1920000000
  114      H      23.0250000000    38.4350000000    21.8490000000
  115      H      23.3920000000    37.1830000000    20.6340000000
  116      H      21.8370000000    38.1580000000    20.5660000000
  117      S      21.7860000000    36.3170000000    22.0670000000
  118      C      23.2420000000    35.4960000000    22.7540000000
  119      H      23.7640000000    36.2240000000    23.3800000000
  120      H      22.9160000000    34.6370000000    23.3470000000
  121      H      23.8980000000    35.1900000000    21.9350000000
  122      O      21.4190000000    35.2970000000    21.0350000000
  123      C      24.2160000000    27.0580000000    34.6160000000
  124      H      23.6950000000    26.8950000000    33.6690000000
  125      H      23.4740000000    27.1830000000    35.4090000000
  126      H      24.8570000000    27.9400000000    34.5400000000
  127      S      25.3170000000    25.6530000000    34.8950000000
  128      C      26.3990000000    26.4700000000    36.0900000000
  129      H      26.7910000000    27.3790000000    35.6270000000
  130      H      25.9150000000    26.7910000000    37.0160000000
  131      H      27.1790000000    25.7410000000    36.3230000000
  132      O      26.0220000000    25.5990000000    33.5750000000
  133      C      17.5580000000    31.0540000000    24.6190000000
  134      H      16.7250000000    30.3530000000    24.7180000000
  135      H      17.0360000000    32.0130000000    24.5930000000
  136      H      18.1070000000    30.9300000000    23.6820000000
  137      S      18.6310000000    30.6790000000    26.0230000000
  138      C      17.6130000000    31.5430000000    27.2410000000
  139      H      17.4610000000    32.5550000000    26.8550000000
  140      H      16.7000000000    30.9750000000    27.4360000000
  141      H      18.1750000000    31.5970000000    28.1770000000
  142      O      19.7670000000    31.6540000000    26.0160000000
  143      C      31.0440000000    36.3010000000    30.1700000000
  144      H      31.0610000000    37.1740000000    30.8280000000
  145      H      30.2920000000    35.5590000000    30.4480000000
  146      H      32.0210000000    35.8190000000    30.2660000000
  147      S      30.8340000000    36.9490000000    28.4960000000
  148      C      30.4160000000    35.4120000000    27.6440000000
  149      H      31.3030000000    34.7760000000    27.6980000000
  150      H      29.5330000000    34.8930000000    28.0270000000
  151      H      30.2200000000    35.7010000000    26.6080000000
  152      O      32.2420000000    37.1730000000    28.0380000000
  153      C      18.9450000000    26.7870000000    26.0440000000
  154      H      18.3170000000    27.4510000000    26.6420000000
  155      H      19.0440000000    27.1780000000    25.0280000000
  156      H      18.4630000000    25.8150000000    26.1790000000
  157      S      20.5770000000    26.7500000000    26.8180000000
  158      C      20.9280000000    28.5040000000    26.5620000000
  159      H      21.9460000000    28.7350000000    26.8860000000
  160      H      20.7700000000    28.7570000000    25.5110000000
  161      H      20.2610000000    29.0330000000    27.2470000000
  162      O      21.4430000000    26.0110000000    25.8450000000
  163      C      31.2110000000    33.2850000000    33.3280000000
  164      H      30.6770000000    33.6920000000    34.1910000000
  165      H      31.2210000000    34.1490000000    32.6580000000
  166      H      30.4790000000    32.5250000000    33.0440000000
  167      S      32.7740000000    32.5360000000    33.8400000000
  168      C      32.9650000000    31.3510000000    32.4890000000
  169      H      33.8810000000    30.7980000000    32.7110000000
  170      H      32.0850000000    30.7030000000    32.4830000000
  171      H      33.1360000000    31.8470000000    31.5300000000
  172      O      32.3720000000    31.5670000000    34.9070000000
  173      C      19.7060000000    34.6440000000    30.4700000000
  174      H      19.6400000000    34.2350000000    29.4580000000
  175      H      18.8330000000    34.3190000000    31.0420000000
  176      H      19.8550000000    35.7260000000    30.5080000000
  177      S      21.0050000000    33.8270000000    31.4240000000
  178      C      20.0910000000    32.2910000000    31.6880000000
  179      H      19.9070000000    31.8580000000    30.7020000000
  180      H      20.8120000000    31.7330000000    32.2920000000
  181      H      19.2040000000    32.5680000000    32.2630000000
  182      O      20.7580000000    34.5190000000    32.7290000000
  183      C      22.7910000000    32.4240000000    35.6020000000
  184      H      22.0810000000    32.4660000000    36.4320000000
  185      H      23.7110000000    32.9580000000    35.8540000000
  186      H      22.2330000000    32.8730000000    34.7770000000
  187      S      23.1090000000    30.7130000000    35.1140000000
  188      C      23.9810000000    31.3720000000    33.6760000000
  189      H      24.4850000000    30.5440000000    33.1690000000
  190      H      23.3230000000    31.9150000000    32.9930000000
  191      H      24.7510000000    32.0640000000    34.0260000000
  192      O      21.8500000000    30.3330000000    34.3990000000
  193      C      22.6940000000    27.4660000000    29.7190000000
  194      H      22.8170000000    26.5090000000    30.2320000000
  195      H      21.7230000000    27.9300000000    29.9100000000
  196      H      22.9270000000    27.4980000000    28.6520000000
  197      S      23.9350000000    28.4900000000    30.5430000000
  198      C      23.3850000000    30.0790000000    29.8810000000
  199      H      22.2940000000    30.0610000000    29.8090000000
  200      H      23.6560000000    30.9520000000    30.4800000000
  201      H      23.7380000000    30.3360000000    28.8790000000
  202      O      25.1580000000    28.1910000000    29.7340000000
  203      C      25.1980000000    21.5970000000    20.5150000000
  204      H      25.1830000000    21.9420000000    21.5530000000
  205      H      24.2520000000    21.8110000000    20.0130000000
  206      H      25.4540000000    20.5390000000    20.4170000000
  207      S      26.4320000000    22.7030000000    19.7940000000
  208      C      25.3430000000    24.1460000000    19.7960000000
  209      H      24.2930000000    23.8480000000    19.8480000000
  210      H      25.5750000000    24.7330000000    20.6880000000
  211      H      25.5450000000    24.6690000000    18.8580000000
  212      O      26.5610000000    22.3630000000    18.3420000000
  213      C      29.8080000000    27.0350000000    27.8420000000
  214      H      29.3960000000    27.4840000000    28.7500000000
  215      H      30.7540000000    27.4700000000    27.5090000000
  216      H      29.1470000000    27.1140000000    26.9750000000
  217      S      30.2880000000    25.3470000000    28.2730000000
  218      C      31.5260000000    25.6230000000    29.5610000000
  219      H      32.2300000000    26.3630000000    29.1730000000
  220      H      31.1530000000    25.9480000000    30.5360000000
  221      H      32.0880000000    24.6970000000    29.7060000000
  222      O      31.1750000000    25.0600000000    27.1020000000
  223      C      23.0160000000    39.1560000000    27.0920000000
  224      H      21.9530000000    39.3910000000    26.9990000000
  225      H      23.2100000000    38.4730000000    27.9230000000
  226      H      23.7170000000    39.9940000000    27.0650000000
  227      S      23.2730000000    38.1910000000    25.5860000000
  228      C      25.0630000000    38.3670000000    25.4120000000
  229      H      25.3290000000    37.8920000000    24.4640000000
  230      H      25.1640000000    39.4550000000    25.3770000000
  231      H      25.6250000000    38.0920000000    26.3080000000
  232      O      22.6940000000    39.0960000000    24.5440000000
  233      C      18.8620000000    23.4930000000    29.0340000000
  234      H      18.6170000000    24.5300000000    28.7920000000
  235      H      18.9750000000    22.8980000000    28.1240000000
  236      H      18.0630000000    23.0280000000    29.6180000000
  237      S      20.3830000000    23.2680000000    29.9830000000
  238      C      20.3900000000    24.9120000000    30.7330000000
  239      H      21.1310000000    25.1510000000    31.5000000000
  240      H      20.4920000000    25.6270000000    29.9130000000
  241      H      19.3890000000    24.9620000000    31.1690000000
  242      O      21.4640000000    23.3540000000    28.9510000000
  243      C      24.1660000000    34.3890000000    28.8610000000
  244      H      24.4740000000    33.3430000000    28.7860000000
  245      H      24.9640000000    35.0960000000    28.6170000000
  246      H      23.8740000000    34.6920000000    29.8690000000
  247      S      22.8850000000    34.7950000000    27.6530000000
  248      C      22.1200000000    33.1600000000    27.7290000000
  249      H      21.3650000000    33.0990000000    26.9420000000
  250      H      22.9460000000    32.4630000000    27.5640000000
  251      H      21.7130000000    33.0090000000    28.7320000000
  252      O      23.5290000000    34.7080000000    26.3040000000
  253      C      20.9470000000    32.4500000000    22.9260000000
  254      H      21.6850000000    32.9200000000    23.5810000000
  255      H      21.0600000000    32.9060000000    21.9390000000
  256      H      19.9220000000    32.6730000000    23.2310000000
  257      S      21.2050000000    30.6620000000    22.9390000000
  258      C      22.3820000000    30.7600000000    21.5720000000
  259      H      22.0490000000    31.3790000000    20.7350000000
  260      H      23.2640000000    31.2600000000    21.9810000000
  261      H      22.5570000000    29.7350000000    21.2360000000
  262      O      19.9380000000    30.1940000000    22.2920000000
  263      C      29.2730000000    31.6490000000    36.7660000000
  264      H      29.0330000000    30.9870000000    37.6020000000
  265      H      29.7870000000    31.1490000000    35.9410000000
  266      H      29.8900000000    32.4460000000    37.1900000000
  267      S      27.7730000000    32.3410000000    36.0330000000
  268      C      26.9390000000    32.3810000000    37.6360000000
  269      H      26.7370000000    31.3610000000    37.9720000000
  270      H      27.5680000000    32.9600000000    38.3170000000
  271      H      26.0020000000    32.9300000000    37.5160000000
  272      O      27.0750000000    31.2100000000    35.3430000000
  273      C      28.4480000000    22.4720000000    25.7820000000
  274      H      27.6860000000    22.2770000000    25.0220000000
  275      H      28.3190000000    21.7770000000    26.6150000000
  276      H      28.2610000000    23.5000000000    26.1050000000
  277      S      30.1140000000    22.1210000000    25.1770000000
  278      C      30.4120000000    23.5460000000    24.1060000000
  279      H      30.4380000000    24.3720000000    24.8210000000
  280      H      31.3250000000    23.4970000000    23.5070000000
  281      H      29.5300000000    23.5960000000    23.4610000000
  282      O      30.1320000000    20.9450000000    24.2510000000
  283      C      27.7500000000    28.9350000000    32.1160000000
  284      H      27.1330000000    28.7970000000    33.0080000000
  285      H      27.9070000000    29.9930000000    31.8930000000
  286      H      27.3600000000    28.4450000000    31.2200000000
  287      S      29.3540000000    28.1930000000    32.4930000000
  288      C      29.6390000000    29.2290000000    33.9460000000
  289      H      28.7830000000    29.2080000000    34.6250000000
  290      H      30.5300000000    28.7870000000    34.3990000000
  291      H      29.9240000000    30.2400000000    33.6430000000
  292      O      30.3280000000    28.7760000000    31.5170000000
  293      C      26.0320000000    34.6620000000    32.8870000000
  294      H      25.0450000000    34.7630000000    32.4280000000
  295      H      26.0210000000    34.2060000000    33.8800000000
  296      H      26.4990000000    35.6430000000    33.0080000000
  297      S      26.9930000000    33.5550000000    31.8310000000
  298      C      27.1740000000    34.6180000000    30.3810000000
  299      H      27.3000000000    33.9200000000    29.5500000000
  300      H      26.3500000000    35.3110000000    30.1940000000
  301      H      28.0960000000    35.2030000000    30.4460000000
  302      O      25.9820000000    32.5830000000    31.3090000000
 ----------------------------------------------------------------
 Nuclear Repulsion Energy =       50285.23187437 hartrees
 There are      623 alpha and      623 beta electrons
 Requested basis set is 6-31+G(d)
 There are 995 shells and 2773 basis functions

 Total QAlloc Memory Limit  16000 MB
 Mega-Array Size      7821 MB
 MEM_STATIC part      8000 MB
 A cutoff of  1.0D-14 yielded 182880 shell pairs
 There are   1580509 function pairs
 Smallest overlap matrix eigenvalue = 5.12E-07
 Linear dependence detected in AO basis
 Tighter screening thresholds may be required for diffuse basis sets
 Use S2THRESH > 14 and THRESH = 14 in case of SCF convergence issues
 Number of orthogonalized atomic orbitals = 2771
 Maximum deviation from orthogonality = 9.974E-11

 Scale SEOQF with 1.000000e-03/1.000000e-03/1.000000e-03

 Standard Electronic Orientation quadrupole field applied
 Nucleus-field energy     =     0.0000000910 hartrees
Attempting to make child job directory: /local/scratch/users/ymao/r7.00_frame_0097_almo_B3LYP_dp.in20210311133734//Frg1/
Attempting to make child job directory: /local/scratch/users/ymao/r7.00_frame_0097_almo_B3LYP_dp.in20210311133734//Frg2/
Creating input file /local/scratch/users/ymao/r7.00_frame_0097_almo_B3LYP_dp.in20210311133734/Frg1.input
using default PutDataFrgm: nothing
calling putenv with: QCSCRATCH=/local/scratch/users/ymao/r7.00_frame_0097_almo_B3LYP_dp.in20210311133734/ 
Spawning Job For Fragment 0
Done Job For Fragment 0
calling putenv with: QCSCRATCH=/local/scratch/users/ymao 
calling putenv with: QCTHREADS=8 
Creating input file /local/scratch/users/ymao/r7.00_frame_0097_almo_B3LYP_dp.in20210311133734/Frg2.input
using default PutDataFrgm: nothing
calling putenv with: QCSCRATCH=/local/scratch/users/ymao/r7.00_frame_0097_almo_B3LYP_dp.in20210311133734/ 
Spawning Job For Fragment 1
Done Job For Fragment 1
calling putenv with: QCSCRATCH=/local/scratch/users/ymao 
calling putenv with: QCTHREADS=8 
 Time for running child jobs:  CPU 1.32 s  wall 27172.86 s

 -----------------------------------------------------------------------
  General SCF calculation program by
  Eric Jon Sundstrom, Paul Horn, Yuezhi Mao, Dmitri Zuev, Alec White,
  David Stuck, Shaama M.S., Shane Yost, Joonho Lee, David Small,
  Daniel Levine, Susi Lehtola, Hugh Burton, Evgeny Epifanovsky,
  Bang C. Huynh
 -----------------------------------------------------------------------
Performing Restricted Closed Shell SCFMI
Doing General SCFMI
 Exchange:     0.2000 Hartree-Fock + 0.0800 Slater + 0.7200 B88
 Correlation:  0.1900 VWN1RPA + 0.8100 LYP
 Using Euler-Maclaurin-Lebedev (75,302) quadrature formula
performing fock build before subrot guess so that all methods have access
Printing subrot_rss_gen Method Specification:
Occupied Subspace Method is 0
Virtual Subspace Method is 0
Energy prior to optimization (guess energy) = -15893.871211531252
Begin Timing: Total SCF Calculation
begin iterations for algorithm: DIIS         
the SCF tolerance is set to 1.00e-08
    1  -15893.8712115313      5.82e-05     00000 
    2  -15893.8658819066      9.38e-05     00000 
    3  -15893.8899796925      2.12e-05     00000 
    4  -15893.8911378090      7.87e-06     00000 
    5  -15893.8913442799      3.53e-06     00000 
    6  -15893.8913804775      2.54e-06     00000 
    7  -15893.8914006097      1.40e-06     00000 
    8  -15893.8914082631      7.12e-07     00000 
    9  -15893.8914098378      4.63e-07     00000 
   10  -15893.8914102064      3.53e-07     00000 
   11  -15893.8914104803      1.97e-07     00000 
   12  -15893.8914105815      1.18e-07     00000 
   13  -15893.8914106229      6.49e-08     00000 
   14  -15893.8914106354      4.30e-08     00000 
   15  -15893.8914106397      3.06e-08     00000 
   16  -15893.8914106426      1.51e-08     00000 
   17  -15893.8914106429      8.73e-09     00000 Convergence criterion met
write pseudocanon occs and virts to disk
write pseudocanon orbital energies to disk
Timing for Total SCF: 61070.00s (wall), 470155.80s (cpu)
SCFMI Energy  -15893.8914106429
<S^2>            0.00000
 Total energy in the final basis set =   -15893.8914106429
    ==================================================
        The end of Object-Oriented SCFman: SCFMI      
    ==================================================
 
 --------------------------------------------------------------
 
                    Orbital Energies (a.u.)
 --------------------------------------------------------------
 
 Alpha MOs
 -- Occupied --
-89.0479 -89.0472 -89.0443 -89.0435 -89.0385 -89.0365 -89.0335 -89.0306
-89.0305 -89.0231 -89.0149 -89.0142 -89.0126 -89.0117 -89.0075 -89.0069
-89.0054 -89.0011 -88.9977 -88.9970 -88.9952 -88.9934 -88.9846 -88.9709
-88.9685 -88.9620 -88.9496 -88.9347 -19.1607 -19.1574 -19.1571 -19.1564
-19.1557 -19.1511 -19.1478 -19.1472 -19.1440 -19.1405 -19.1338 -19.1321
-19.1288 -19.1279 -19.1267 -19.1232 -19.1197 -19.1163 -19.1145 -19.1093
-19.1093 -19.1056 -19.1019 -19.0911 -19.0862 -19.0855 -19.0749 -19.0669
-19.0547 -14.3808 -10.3144 -10.2661 -10.2625 -10.2619 -10.2607 -10.2580
-10.2566 -10.2564 -10.2559 -10.2553 -10.2552 -10.2539 -10.2514 -10.2486
-10.2485 -10.2476 -10.2475 -10.2472 -10.2460 -10.2443 -10.2439 -10.2426
-10.2413 -10.2365 -10.2360 -10.2343 -10.2286 -10.2278 -10.2270 -10.2258
-10.2230 -10.2227 -10.2190 -10.2180 -10.2178 -10.2165 -10.2156 -10.2156
-10.2143 -10.2136 -10.2136 -10.2135 -10.2132 -10.2120 -10.2104 -10.2090
-10.2047 -10.2039 -10.2011 -10.2004 -10.1997 -10.1988 -10.1936 -10.1933
-10.1902 -10.1881 -10.1840 -10.1803 -10.1791 -10.1778 -10.1730 -10.1605
-10.1569  -8.0932  -8.0926  -8.0904  -8.0896  -8.0853  -8.0822  -8.0789
 -8.0769  -8.0766  -8.0692  -8.0610  -8.0608  -8.0586  -8.0577  -8.0530
 -8.0530  -8.0515  -8.0473  -8.0443  -8.0427  -8.0414  -8.0391  -8.0308
 -8.0165  -8.0139  -8.0082  -7.9957  -7.9809  -6.0575  -6.0571  -6.0565
 -6.0558  -6.0547  -6.0540  -6.0533  -6.0525  -6.0507  -6.0500  -6.0494
 -6.0483  -6.0479  -6.0473  -6.0465  -6.0452  -6.0432  -6.0431  -6.0422
 -6.0411  -6.0408  -6.0399  -6.0398  -6.0396  -6.0365  -6.0349  -6.0339
 -6.0334  -6.0324  -6.0265  -6.0252  -6.0252  -6.0243  -6.0238  -6.0229
 -6.0222  -6.0217  -6.0206  -6.0183  -6.0181  -6.0174  -6.0171  -6.0164
 -6.0163  -6.0160  -6.0159  -6.0154  -6.0145  -6.0117  -6.0105  -6.0104
 -6.0102  -6.0090  -6.0086  -6.0074  -6.0069  -6.0060  -6.0057  -6.0046
 -6.0046  -6.0031  -6.0022  -6.0018  -6.0000  -5.9987  -5.9971  -5.9950
 -5.9938  -5.9883  -5.9809  -5.9798  -5.9783  -5.9772  -5.9737  -5.9725
 -5.9713  -5.9710  -5.9657  -5.9601  -5.9589  -5.9528  -5.9453  -5.9443
 -5.9378  -1.0734  -1.0712  -1.0702  -1.0690  -1.0684  -1.0620  -1.0610
 -1.0552  -1.0539  -1.0527  -1.0422  -1.0420  -1.0393  -1.0376  -1.0352
 -1.0344  -1.0309  -1.0269  -1.0257  -1.0227  -1.0199  -1.0170  -1.0119
 -1.0112  -0.9952  -0.9910  -0.9843  -0.9744  -0.9589  -0.9474  -0.8474
 -0.8455  -0.8452  -0.8430  -0.8412  -0.8407  -0.8395  -0.8380  -0.8324
 -0.8281  -0.8272  -0.8243  -0.8160  -0.8132  -0.8131  -0.8100  -0.8039
 -0.8035  -0.8009  -0.7995  -0.7955  -0.7954  -0.7908  -0.7777  -0.7776
 -0.7768  -0.7726  -0.7717  -0.7676  -0.7676  -0.7667  -0.7659  -0.7641
 -0.7630  -0.7629  -0.7624  -0.7604  -0.7601  -0.7575  -0.7569  -0.7438
 -0.7430  -0.7423  -0.7393  -0.7387  -0.7373  -0.7334  -0.7312  -0.7303
 -0.7294  -0.7279  -0.7275  -0.7190  -0.7131  -0.7053  -0.7039  -0.6910
 -0.6887  -0.6735  -0.6632  -0.6607  -0.6572  -0.6532  -0.6530  -0.6492
 -0.6470  -0.6453  -0.6451  -0.6436  -0.6386  -0.6353  -0.6289  -0.6283
 -0.6241  -0.6236  -0.6230  -0.6190  -0.6178  -0.6174  -0.6116  -0.6098
 -0.6075  -0.6070  -0.6058  -0.5976  -0.5879  -0.5845  -0.5831  -0.5736
 -0.5688  -0.5544  -0.5502  -0.5324  -0.5300  -0.5261  -0.5239  -0.5229
 -0.5211  -0.5187  -0.5180  -0.5150  -0.5135  -0.5128  -0.5107  -0.5101
 -0.5097  -0.5079  -0.5073  -0.5071  -0.5061  -0.5054  -0.5046  -0.5043
 -0.5039  -0.5022  -0.5014  -0.5013  -0.4984  -0.4964  -0.4958  -0.4946
 -0.4939  -0.4936  -0.4926  -0.4909  -0.4897  -0.4885  -0.4874  -0.4869
 -0.4863  -0.4862  -0.4859  -0.4858  -0.4850  -0.4844  -0.4827  -0.4814
 -0.4813  -0.4805  -0.4794  -0.4788  -0.4769  -0.4766  -0.4759  -0.4755
 -0.4742  -0.4737  -0.4728  -0.4721  -0.4715  -0.4707  -0.4704  -0.4699
 -0.4686  -0.4681  -0.4669  -0.4666  -0.4660  -0.4655  -0.4654  -0.4647
 -0.4643  -0.4641  -0.4636  -0.4630  -0.4623  -0.4615  -0.4610  -0.4604
 -0.4602  -0.4595  -0.4588  -0.4585  -0.4577  -0.4575  -0.4550  -0.4546
 -0.4524  -0.4513  -0.4509  -0.4506  -0.4498  -0.4496  -0.4479  -0.4468
 -0.4450  -0.4443  -0.4439  -0.4432  -0.4429  -0.4422  -0.4419  -0.4411
 -0.4406  -0.4394  -0.4389  -0.4388  -0.4375  -0.4373  -0.4370  -0.4362
 -0.4343  -0.4338  -0.4336  -0.4334  -0.4326  -0.4321  -0.4314  -0.4308
 -0.4305  -0.4296  -0.4294  -0.4293  -0.4288  -0.4275  -0.4270  -0.4267
 -0.4262  -0.4255  -0.4251  -0.4245  -0.4244  -0.4239  -0.4208  -0.4191
 -0.4188  -0.4183  -0.4176  -0.4165  -0.4147  -0.4140  -0.4133  -0.4125
 -0.4113  -0.4108  -0.4099  -0.4097  -0.4093  -0.4080  -0.4079  -0.4066
 -0.4057  -0.4053  -0.4050  -0.4046  -0.4038  -0.4033  -0.4027  -0.4024
 -0.4014  -0.4012  -0.4003  -0.4000  -0.3999  -0.3988  -0.3986  -0.3966
 -0.3955  -0.3947  -0.3943  -0.3938  -0.3915  -0.3910  -0.3907  -0.3888
 -0.3843  -0.3827  -0.3816  -0.3795  -0.3782  -0.3777  -0.3754  -0.3747
 -0.3740  -0.3729  -0.3722  -0.3710  -0.3708  -0.3699  -0.3679  -0.3677
 -0.3671  -0.3651  -0.3642  -0.3612  -0.3581  -0.3577  -0.3565  -0.3552
 -0.3538  -0.3509  -0.3505  -0.3494  -0.3449  -0.3439  -0.3337  -0.3330
 -0.3298  -0.3259  -0.3218  -0.3194  -0.3191  -0.3156  -0.3154  -0.3137
 -0.3116  -0.3092  -0.3056  -0.3054  -0.2984  -0.2965  -0.2945  -0.2929
 -0.2921  -0.2897  -0.2895  -0.2884  -0.2879  -0.2873  -0.2856  -0.2847
 -0.2833  -0.2815  -0.2810  -0.2801  -0.2772  -0.2768  -0.2761  -0.2750
 -0.2719  -0.2715  -0.2711  -0.2708  -0.2643  -0.2625  -0.2611  -0.2567
 -0.2562  -0.2537  -0.2528  -0.2507  -0.2502  -0.2501  -0.2476  -0.2443
 -0.2431  -0.2419  -0.2361  -0.2356  -0.2335  -0.2313  -0.2307  -0.2291
 -0.2270  -0.2166  -0.2106  -0.2057  -0.1995  -0.1877  -0.1687
 -- Virtual --
 -0.0659  -0.0576  -0.0515  -0.0485  -0.0472  -0.0453  -0.0441  -0.0424
 -0.0408  -0.0400  -0.0387  -0.0373  -0.0332  -0.0310  -0.0305  -0.0277
 -0.0269  -0.0250  -0.0229  -0.0223  -0.0215  -0.0204  -0.0191  -0.0177
 -0.0168  -0.0162  -0.0152  -0.0145  -0.0139  -0.0118  -0.0117  -0.0106
 -0.0093  -0.0085  -0.0079  -0.0075  -0.0072  -0.0063  -0.0061  -0.0053
 -0.0046  -0.0033  -0.0027  -0.0023  -0.0015  -0.0010  -0.0002   0.0014
  0.0026   0.0033   0.0034   0.0039   0.0049   0.0052   0.0053   0.0063
  0.0075   0.0076   0.0082   0.0088   0.0096   0.0106   0.0110   0.0119
  0.0120   0.0135   0.0145   0.0147   0.0157   0.0165   0.0171   0.0177
  0.0187   0.0195   0.0198   0.0201   0.0211   0.0216   0.0225   0.0232
  0.0234   0.0246   0.0254   0.0260   0.0270   0.0273   0.0281   0.0287
  0.0295   0.0302   0.0308   0.0318   0.0326   0.0334   0.0339   0.0348
  0.0350   0.0355   0.0363   0.0371   0.0379   0.0389   0.0393   0.0398
  0.0400   0.0422   0.0426   0.0428   0.0432   0.0435   0.0437   0.0454
  0.0457   0.0462   0.0468   0.0474   0.0483   0.0488   0.0492   0.0494
  0.0499   0.0505   0.0511   0.0517   0.0520   0.0529   0.0537   0.0543
  0.0546   0.0552   0.0556   0.0569   0.0575   0.0582   0.0583   0.0588
  0.0592   0.0598   0.0602   0.0613   0.0615   0.0626   0.0633   0.0643
  0.0649   0.0657   0.0661   0.0667   0.0670   0.0686   0.0692   0.0693
  0.0704   0.0708   0.0714   0.0722   0.0728   0.0734   0.0744   0.0749
  0.0752   0.0765   0.0769   0.0772   0.0780   0.0789   0.0801   0.0804
  0.0809   0.0812   0.0818   0.0820   0.0830   0.0834   0.0839   0.0843
  0.0846   0.0853   0.0859   0.0867   0.0876   0.0878   0.0886   0.0889
  0.0898   0.0901   0.0907   0.0915   0.0922   0.0928   0.0933   0.0941
  0.0947   0.0950   0.0952   0.0964   0.0973   0.0974   0.0978   0.0986
  0.0993   0.0999   0.1001   0.1003   0.1014   0.1016   0.1023   0.1025
  0.1039   0.1049   0.1056   0.1060   0.1068   0.1072   0.1078   0.1086
  0.1087   0.1092   0.1100   0.1104   0.1114   0.1121   0.1125   0.1130
  0.1140   0.1146   0.1148   0.1157   0.1164   0.1174   0.1178   0.1190
  0.1193   0.1196   0.1202   0.1206   0.1213   0.1215   0.1222   0.1231
  0.1237   0.1242   0.1249   0.1255   0.1257   0.1265   0.1268   0.1272
  0.1278   0.1286   0.1288   0.1297   0.1298   0.1308   0.1311   0.1315
  0.1323   0.1331   0.1338   0.1343   0.1355   0.1359   0.1361   0.1364
  0.1366   0.1374   0.1379   0.1386   0.1394   0.1394   0.1400   0.1405
  0.1413   0.1417   0.1420   0.1432   0.1438   0.1438   0.1444   0.1454
  0.1459   0.1464   0.1471   0.1478   0.1479   0.1488   0.1498   0.1504
  0.1514   0.1516   0.1520   0.1528   0.1534   0.1537   0.1543   0.1551
  0.1557   0.1562   0.1563   0.1567   0.1570   0.1577   0.1584   0.1596
  0.1602   0.1606   0.1607   0.1614   0.1621   0.1629   0.1629   0.1639
  0.1642   0.1644   0.1652   0.1656   0.1659   0.1677   0.1679   0.1684
  0.1685   0.1695   0.1700   0.1708   0.1711   0.1716   0.1719   0.1729
  0.1737   0.1740   0.1744   0.1755   0.1763   0.1768   0.1771   0.1778
  0.1780   0.1789   0.1796   0.1804   0.1808   0.1810   0.1817   0.1826
  0.1827   0.1832   0.1836   0.1846   0.1850   0.1864   0.1868   0.1871
  0.1877   0.1882   0.1883   0.1891   0.1892   0.1899   0.1905   0.1914
  0.1919   0.1926   0.1931   0.1938   0.1943   0.1952   0.1957   0.1962
  0.1968   0.1969   0.1977   0.1983   0.1990   0.1995   0.2004   0.2009
  0.2014   0.2019   0.2029   0.2037   0.2044   0.2051   0.2053   0.2058
  0.2064   0.2074   0.2083   0.2090   0.2094   0.2095   0.2106   0.2108
  0.2116   0.2122   0.2126   0.2136   0.2140   0.2148   0.2153   0.2158
  0.2159   0.2174   0.2180   0.2185   0.2192   0.2196   0.2204   0.2206
  0.2215   0.2219   0.2233   0.2239   0.2249   0.2251   0.2257   0.2263
  0.2277   0.2281   0.2289   0.2294   0.2305   0.2307   0.2314   0.2320
  0.2325   0.2327   0.2336   0.2345   0.2348   0.2351   0.2358   0.2371
  0.2379   0.2385   0.2387   0.2394   0.2399   0.2411   0.2416   0.2425
  0.2430   0.2435   0.2444   0.2444   0.2446   0.2458   0.2468   0.2473
  0.2474   0.2481   0.2486   0.2495   0.2504   0.2514   0.2519   0.2531
  0.2533   0.2540   0.2544   0.2554   0.2558   0.2569   0.2574   0.2588
  0.2594   0.2600   0.2602   0.2606   0.2615   0.2619   0.2621   0.2624
  0.2631   0.2639   0.2645   0.2651   0.2658   0.2660   0.2676   0.2681
  0.2687   0.2698   0.2699   0.2711   0.2720   0.2732   0.2735   0.2745
  0.2748   0.2755   0.2768   0.2772   0.2775   0.2776   0.2784   0.2794
  0.2806   0.2813   0.2817   0.2825   0.2829   0.2839   0.2847   0.2849
  0.2862   0.2866   0.2878   0.2887   0.2893   0.2907   0.2914   0.2924
  0.2928   0.2931   0.2942   0.2947   0.2956   0.2964   0.2966   0.2980
  0.2987   0.2990   0.3003   0.3022   0.3023   0.3026   0.3028   0.3045
  0.3048   0.3057   0.3063   0.3072   0.3078   0.3084   0.3091   0.3097
  0.3111   0.3116   0.3131   0.3137   0.3143   0.3158   0.3161   0.3171
  0.3173   0.3183   0.3186   0.3189   0.3198   0.3212   0.3222   0.3236
  0.3240   0.3252   0.3253   0.3270   0.3273   0.3281   0.3288   0.3297
  0.3306   0.3313   0.3320   0.3326   0.3334   0.3341   0.3351   0.3356
  0.3358   0.3377   0.3382   0.3390   0.3403   0.3411   0.3416   0.3424
  0.3426   0.3435   0.3447   0.3455   0.3461   0.3467   0.3474   0.3484
  0.3491   0.3493   0.3499   0.3508   0.3519   0.3535   0.3542   0.3547
  0.3553   0.3556   0.3568   0.3580   0.3587   0.3592   0.3600   0.3610
  0.3618   0.3621   0.3639   0.3641   0.3652   0.3661   0.3665   0.3672
  0.3678   0.3684   0.3694   0.3697   0.3712   0.3716   0.3723   0.3733
  0.3741   0.3748   0.3760   0.3767   0.3773   0.3786   0.3789   0.3800
  0.3814   0.3825   0.3835   0.3838   0.3847   0.3855   0.3860   0.3872
  0.3879   0.3884   0.3890   0.3895   0.3914   0.3922   0.3934   0.3943
  0.3951   0.3966   0.3970   0.3975   0.3984   0.3991   0.4000   0.4012
  0.4028   0.4035   0.4043   0.4057   0.4067   0.4077   0.4080   0.4088
  0.4093   0.4104   0.4119   0.4128   0.4138   0.4151   0.4161   0.4162
  0.4175   0.4187   0.4196   0.4198   0.4205   0.4225   0.4237   0.4240
  0.4257   0.4264   0.4269   0.4277   0.4284   0.4294   0.4304   0.4313
  0.4327   0.4341   0.4357   0.4360   0.4375   0.4387   0.4409   0.4416
  0.4433   0.4437   0.4450   0.4461   0.4470   0.4486   0.4489   0.4503
  0.4508   0.4522   0.4532   0.4544   0.4556   0.4565   0.4588   0.4596
  0.4609   0.4621   0.4638   0.4655   0.4662   0.4677   0.4682   0.4696
  0.4699   0.4720   0.4726   0.4753   0.4760   0.4766   0.4791   0.4803
  0.4807   0.4817   0.4847   0.4860   0.4871   0.4879   0.4888   0.4893
  0.4920   0.4923   0.4936   0.4956   0.4965   0.4975   0.5001   0.5020
  0.5021   0.5029   0.5042   0.5058   0.5084   0.5093   0.5099   0.5122
  0.5133   0.5151   0.5160   0.5177   0.5199   0.5209   0.5223   0.5241
  0.5244   0.5250   0.5263   0.5282   0.5295   0.5305   0.5312   0.5331
  0.5349   0.5352   0.5370   0.5384   0.5396   0.5420   0.5430   0.5441
  0.5469   0.5487   0.5498   0.5513   0.5522   0.5555   0.5562   0.5578
  0.5581   0.5583   0.5613   0.5627   0.5656   0.5668   0.5672   0.5693
  0.5703   0.5725   0.5747   0.5754   0.5758   0.5791   0.5800   0.5810
  0.5825   0.5846   0.5860   0.5866   0.5874   0.5894   0.5902   0.5921
  0.5932   0.5936   0.5959   0.5969   0.5985   0.5994   0.6005   0.6030
  0.6044   0.6052   0.6063   0.6068   0.6077   0.6089   0.6106   0.6118
  0.6128   0.6141   0.6151   0.6156   0.6176   0.6184   0.6192   0.6216
  0.6231   0.6233   0.6252   0.6260   0.6270   0.6280   0.6287   0.6314
  0.6324   0.6326   0.6334   0.6344   0.6351   0.6366   0.6374   0.6382
  0.6387   0.6403   0.6414   0.6432   0.6434   0.6459   0.6469   0.6471
  0.6492   0.6496   0.6512   0.6516   0.6520   0.6544   0.6550   0.6561
  0.6570   0.6575   0.6581   0.6595   0.6620   0.6631   0.6643   0.6650
  0.6658   0.6669   0.6678   0.6688   0.6700   0.6714   0.6723   0.6734
  0.6738   0.6749   0.6755   0.6760   0.6778   0.6798   0.6810   0.6824
  0.6825   0.6837   0.6844   0.6848   0.6856   0.6867   0.6876   0.6887
  0.6903   0.6918   0.6924   0.6938   0.6947   0.6955   0.6964   0.6981
  0.6990   0.6997   0.7011   0.7030   0.7046   0.7046   0.7068   0.7070
  0.7090   0.7111   0.7117   0.7131   0.7136   0.7143   0.7149   0.7159
  0.7171   0.7189   0.7199   0.7224   0.7225   0.7235   0.7243   0.7289
  0.7303   0.7310   0.7323   0.7330   0.7354   0.7366   0.7383   0.7397
  0.7399   0.7415   0.7442   0.7450   0.7459   0.7468   0.7485   0.7490
  0.7496   0.7515   0.7522   0.7560   0.7565   0.7577   0.7591   0.7605
  0.7621   0.7624   0.7644   0.7657   0.7669   0.7671   0.7688   0.7712
  0.7733   0.7751   0.7760   0.7784   0.7789   0.7805   0.7807   0.7821
  0.7839   0.7842   0.7865   0.7876   0.7893   0.7902   0.7912   0.7922
  0.7936   0.7954   0.7965   0.7988   0.7998   0.8022   0.8029   0.8050
  0.8053   0.8073   0.8084   0.8091   0.8108   0.8134   0.8139   0.8154
  0.8168   0.8171   0.8194   0.8205   0.8234   0.8238   0.8241   0.8277
  0.8279   0.8289   0.8327   0.8346   0.8355   0.8366   0.8370   0.8380
  0.8397   0.8398   0.8417   0.8434   0.8443   0.8461   0.8474   0.8488
  0.8497   0.8514   0.8524   0.8540   0.8555   0.8558   0.8566   0.8573
  0.8585   0.8596   0.8601   0.8617   0.8631   0.8635   0.8651   0.8656
  0.8667   0.8678   0.8695   0.8716   0.8720   0.8737   0.8742   0.8760
  0.8770   0.8786   0.8791   0.8807   0.8817   0.8826   0.8843   0.8864
  0.8874   0.8879   0.8889   0.8906   0.8911   0.8919   0.8938   0.8946
  0.8953   0.8960   0.8970   0.8975   0.8984   0.8994   0.9010   0.9028
  0.9044   0.9054   0.9062   0.9068   0.9086   0.9096   0.9117   0.9132
  0.9144   0.9153   0.9173   0.9187   0.9190   0.9207   0.9221   0.9230
  0.9240   0.9241   0.9251   0.9263   0.9274   0.9287   0.9295   0.9319
  0.9329   0.9337   0.9348   0.9358   0.9364   0.9367   0.9371   0.9383
  0.9404   0.9414   0.9431   0.9433   0.9445   0.9453   0.9471   0.9482
  0.9493   0.9501   0.9515   0.9525   0.9528   0.9538   0.9555   0.9564
  0.9574   0.9586   0.9594   0.9605   0.9613   0.9634   0.9644   0.9651
  0.9660   0.9665   0.9680   0.9687   0.9695   0.9716   0.9717   0.9738
  0.9741   0.9757   0.9765   0.9766   0.9770   0.9785   0.9794   0.9804
  0.9817   0.9821   0.9833   0.9839   0.9851   0.9862   0.9872   0.9895
  0.9910   0.9916   0.9927   0.9935   0.9944   0.9951   0.9956   0.9968
  0.9975   1.0000   1.0005   1.0019   1.0029   1.0043   1.0051   1.0062
  1.0070   1.0080   1.0089   1.0108   1.0116   1.0128   1.0135   1.0140
  1.0152   1.0157   1.0170   1.0178   1.0183   1.0194   1.0197   1.0207
  1.0222   1.0233   1.0250   1.0259   1.0276   1.0285   1.0299   1.0308
  1.0321   1.0324   1.0340   1.0349   1.0368   1.0373   1.0383   1.0394
  1.0404   1.0414   1.0418   1.0443   1.0457   1.0480   1.0488   1.0500
  1.0510   1.0544   1.0546   1.0555   1.0564   1.0572   1.0592   1.0592
  1.0602   1.0623   1.0633   1.0641   1.0650   1.0664   1.0675   1.0696
  1.0730   1.0734   1.0742   1.0754   1.0768   1.0784   1.0793   1.0801
  1.0825   1.0832   1.0846   1.0860   1.0874   1.0893   1.0916   1.0929
  1.0939   1.0948   1.0956   1.0979   1.0985   1.0989   1.1003   1.1019
  1.1045   1.1048   1.1053   1.1081   1.1091   1.1097   1.1113   1.1136
  1.1142   1.1159   1.1159   1.1166   1.1194   1.1204   1.1221   1.1233
  1.1246   1.1256   1.1268   1.1298   1.1303   1.1310   1.1323   1.1332
  1.1344   1.1351   1.1365   1.1374   1.1388   1.1398   1.1412   1.1417
  1.1445   1.1449   1.1463   1.1472   1.1482   1.1496   1.1508   1.1512
  1.1544   1.1565   1.1576   1.1597   1.1607   1.1615   1.1629   1.1641
  1.1651   1.1676   1.1681   1.1694   1.1698   1.1725   1.1751   1.1765
  1.1783   1.1796   1.1813   1.1842   1.1855   1.1860   1.1878   1.1889
  1.1893   1.1910   1.1933   1.1954   1.1966   1.1984   1.1996   1.2005
  1.2024   1.2025   1.2055   1.2060   1.2071   1.2095   1.2109   1.2122
  1.2132   1.2135   1.2160   1.2169   1.2210   1.2227   1.2250   1.2268
  1.2286   1.2296   1.2311   1.2337   1.2354   1.2379   1.2389   1.2416
  1.2428   1.2445   1.2487   1.2512   1.2531   1.2546   1.2588   1.2610
  1.2618   1.2621   1.2657   1.2667   1.2669   1.2684   1.2710   1.2722
  1.2745   1.2766   1.2772   1.2787   1.2828   1.2846   1.2861   1.2865
  1.2906   1.2918   1.2943   1.2974   1.2983   1.3001   1.3005   1.3018
  1.3037   1.3073   1.3086   1.3107   1.3122   1.3147   1.3184   1.3195
  1.3210   1.3224   1.3243   1.3264   1.3272   1.3297   1.3317   1.3327
  1.3334   1.3354   1.3387   1.3392   1.3402   1.3422   1.3439   1.3462
  1.3476   1.3487   1.3512   1.3525   1.3543   1.3556   1.3568   1.3584
  1.3601   1.3640   1.3643   1.3647   1.3665   1.3670   1.3692   1.3699
  1.3704   1.3735   1.3738   1.3758   1.3769   1.3777   1.3787   1.3807
  1.3817   1.3832   1.3843   1.3859   1.3872   1.3882   1.3907   1.3908
  1.3927   1.3937   1.3951   1.3968   1.3979   1.4002   1.4007   1.4029
  1.4039   1.4062   1.4073   1.4080   1.4090   1.4102   1.4125   1.4129
  1.4151   1.4163   1.4177   1.4187   1.4189   1.4207   1.4211   1.4247
  1.4250   1.4268   1.4284   1.4292   1.4311   1.4321   1.4334   1.4343
  1.4372   1.4389   1.4418   1.4426   1.4437   1.4453   1.4483   1.4488
  1.4503   1.4531   1.4537   1.4553   1.4570   1.4584   1.4621   1.4626
  1.4630   1.4641   1.4685   1.4691   1.4712   1.4739   1.4757   1.4768
  1.4776   1.4818   1.4828   1.4843   1.4852   1.4881   1.4890   1.4902
  1.4936   1.4944   1.4959   1.4982   1.4988   1.5015   1.5056   1.5077
  1.5097   1.5104   1.5129   1.5150   1.5169   1.5222   1.5239   1.5255
  1.5288   1.5318   1.5340   1.5350   1.5402   1.5406   1.5486   1.5511
  1.5558   1.5573   1.5582   1.5600   1.5638   1.5667   1.5692   1.5738
  1.5758   1.5767   1.5807   1.5856   1.5911   1.5926   1.5968   1.5993
  1.6016   1.6056   1.6082   1.6125   1.6183   1.6223   1.6253   1.6272
  1.6293   1.6326   1.6332   1.6353   1.6370   1.6390   1.6426   1.6436
  1.6447   1.6455   1.6461   1.6483   1.6494   1.6533   1.6549   1.6574
  1.6592   1.6609   1.6642   1.6646   1.6662   1.6667   1.6696   1.6712
  1.6722   1.6728   1.6743   1.6763   1.6764   1.6784   1.6796   1.6819
  1.6826   1.6829   1.6852   1.6857   1.6861   1.6873   1.6884   1.6897
  1.6931   1.6938   1.6944   1.6960   1.6980   1.6982   1.6987   1.7010
  1.7020   1.7022   1.7045   1.7065   1.7075   1.7087   1.7099   1.7124
  1.7135   1.7148   1.7149   1.7165   1.7168   1.7175   1.7221   1.7226
  1.7232   1.7244   1.7264   1.7279   1.7305   1.7315   1.7323   1.7327
  1.7334   1.7350   1.7360   1.7364   1.7376   1.7386   1.7395   1.7409
  1.7426   1.7447   1.7464   1.7483   1.7492   1.7501   1.7510   1.7539
  1.7549   1.7564   1.7578   1.7591   1.7599   1.7633   1.7640   1.7659
  1.7668   1.7704   1.7725   1.7738   1.7751   1.7793   1.7808   1.7823
  1.7838   1.7863   1.7872   1.7882   1.7901   1.7936   1.7959   1.7972
  1.8012   1.8028   1.8050   1.8087   1.8106   1.8126   1.8146   1.8175
  1.8185   1.8209   1.8246   1.8254   1.8291   1.8294   1.8325   1.8335
  1.8366   1.8400   1.8439   1.8452   1.8470   1.8494   1.8538   1.8545
  1.8556   1.8586   1.8609   1.8626   1.8642   1.8666   1.8685   1.8687
  1.8713   1.8717   1.8728   1.8742   1.8765   1.8778   1.8784   1.8793
  1.8812   1.8829   1.8834   1.8840   1.8857   1.8866   1.8881   1.8897
  1.8908   1.8919   1.8922   1.8932   1.8945   1.8963   1.8981   1.8997
  1.9009   1.9028   1.9035   1.9045   1.9053   1.9070   1.9075   1.9087
  1.9107   1.9118   1.9143   1.9169   1.9207   1.9216   1.9221   1.9244
  1.9249   1.9287   1.9297   1.9324   1.9331   1.9337   1.9346   1.9358
  1.9377   1.9382   1.9401   1.9424   1.9447   1.9475   1.9526   1.9554
  1.9557   1.9612   1.9640   1.9660   1.9684   1.9718   1.9769   1.9913
  1.9949   1.9958   2.0075   2.0087   2.0146   2.0197   2.0271   2.0287
  2.0313   2.0326   2.0344   2.0377   2.0394   2.0418   2.0444   2.0458
  2.0460   2.0469   2.0480   2.0488   2.0502   2.0509   2.0517   2.0543
  2.0573   2.0585   2.0590   2.0594   2.0604   2.0638   2.0657   2.0670
  2.0685   2.0705   2.0730   2.0752   2.0777   2.0805   2.0814   2.0822
  2.0826   2.0864   2.0888   2.0910   2.0930   2.0961   2.0966   2.0987
  2.1005   2.1008   2.1026   2.1050   2.1060   2.1096   2.1107   2.1137
  2.1159   2.1192   2.1246   2.1255   2.1266   2.1281   2.1301   2.1346
  2.1360   2.1376   2.1404   2.1411   2.1433   2.1455   2.1470   2.1484
  2.1524   2.1555   2.1589   2.1598   2.1626   2.1664   2.1749   2.1787
  2.1808   2.1835   2.1847   2.1865   2.1901   2.1919   2.1927   2.1935
  2.1974   2.1981   2.2027   2.2037   2.2056   2.2060   2.2079   2.2085
  2.2101   2.2108   2.2123   2.2129   2.2144   2.2151   2.2168   2.2180
  2.2194   2.2197   2.2201   2.2216   2.2235   2.2239   2.2254   2.2265
  2.2270   2.2284   2.2309   2.2315   2.2321   2.2329   2.2348   2.2365
  2.2373   2.2379   2.2394   2.2398   2.2414   2.2424   2.2429   2.2445
  2.2451   2.2455   2.2473   2.2483   2.2494   2.2499   2.2512   2.2515
  2.2522   2.2536   2.2545   2.2562   2.2567   2.2579   2.2588   2.2601
  2.2609   2.2624   2.2628   2.2641   2.2650   2.2654   2.2663   2.2670
  2.2679   2.2696   2.2706   2.2710   2.2722   2.2741   2.2753   2.2758
  2.2767   2.2779   2.2783   2.2798   2.2803   2.2817   2.2819   2.2825
  2.2833   2.2851   2.2852   2.2874   2.2885   2.2891   2.2899   2.2906
  2.2931   2.2944   2.2954   2.2957   2.2983   2.2987   2.3000   2.3011
  2.3014   2.3028   2.3031   2.3041   2.3060   2.3067   2.3084   2.3103
  2.3112   2.3118   2.3130   2.3153   2.3165   2.3174   2.3185   2.3198
  2.3216   2.3231   2.3252   2.3260   2.3263   2.3276   2.3288   2.3304
  2.3321   2.3329   2.3337   2.3359   2.3363   2.3381   2.3394   2.3402
  2.3438   2.3452   2.3456   2.3469   2.3487   2.3494   2.3517   2.3528
  2.3549   2.3574   2.3599   2.3606   2.3625   2.3634   2.3663   2.3679
  2.3719   2.3737   2.3769   2.3796   2.3802   2.3838   2.3906   2.3929
  2.3960   2.3974   2.4018   2.4133   2.4207   2.4233   2.4420   2.4500
  2.4842   2.5319   2.5402   2.5707   2.6454   2.7080   2.7380   2.7734
  2.7910   2.8021   2.8120   2.8124   2.8193   2.8212   2.8230   2.8266
  2.8283   2.8288   2.8323   2.8351   2.8371   2.8398   2.8416   2.8434
  2.8454   2.8529   2.8533   2.8567   2.8640   2.8664   2.8669   2.8776
  2.8788   2.8829   2.8898   2.8930   2.8974   2.8992   2.9038   2.9098
  2.9327   3.0696   3.2290   3.9275   3.9368   3.9450   3.9469   3.9470
  3.9481   3.9501   3.9545   3.9560   3.9577   3.9661   3.9701   3.9728
  3.9747   3.9784   3.9845   3.9865   3.9882   3.9902   3.9914   4.0014
  4.0028   4.0086   4.0094   4.0141   4.0189   4.0287   4.0350   4.1656
  4.1878   4.2044   4.2056   4.2072   4.2127   4.2163   4.2196   4.2252
  4.2255   4.2314   4.2327   4.2370   4.2417   4.2454   4.2482   4.2495
  4.2528   4.2565   4.2581   4.2620   4.2632   4.2680   4.2700   4.2736
  4.2745   4.2771   4.2782   4.2815   4.2822   4.2857   4.2866   4.2895
  4.2913   4.2934   4.2968   4.2983   4.3007   4.3021   4.3033   4.3060
  4.3095   4.3130   4.3162   4.3214   4.3230   4.3248   4.3279   4.3308
  4.3362   4.3407   4.3425   4.3438   4.3458   4.3477   4.3504   4.3555
  4.3602   4.3619   4.3644   4.3662   4.3701   4.3717   4.3761   4.3813
  4.3852   4.3929   4.3967   4.4036   4.4115   4.4147   4.4169   4.4231
  4.4310   4.4355   4.4401   4.4569   4.4657   4.4721   4.4739   4.4905
  4.4937   4.5269   4.5367   4.5454   4.6002   4.6044   4.6414   4.7084
  4.7155   4.7582   4.7844   4.8466
 --------------------------------------------------------------
 
          Ground-State Mulliken Net Atomic Charges

     Atom                 Charge (a.u.)
  ----------------------------------------
      1 C                    -0.248979
      2 C                    -0.587790
      3 C                    -0.185027
      4 C                    -0.408852
      5 C                    -0.473233
      6 C                    -0.442234
      7 H                     0.211328
      8 H                     0.199720
      9 H                     0.174239
     10 H                     0.215770
     11 H                     0.205673
     12 H                     0.228549
     13 H                     0.241740
     14 H                     0.186551
     15 H                     0.216177
     16 H                     0.174161
     17 H                     0.198383
     18 N                    -0.443671
     19 H                     0.530342
     20 C                     0.378134
     21 H                     0.186299
     22 O                    -0.557279
     23 C                    -0.757645
     24 H                     0.273741
     25 H                     0.242252
     26 H                     0.252243
     27 S                     0.581765
     28 C                    -0.821311
     29 H                     0.235884
     30 H                     0.262145
     31 H                     0.247284
     32 O                    -0.607723
     33 C                    -0.995564
     34 H                     0.218831
     35 H                     0.277431
     36 H                     0.303450
     37 S                     1.179754
     38 C                    -0.938719
     39 H                     0.236197
     40 H                     0.248022
     41 H                     0.266185
     42 O                    -0.707484
     43 C                    -0.897376
     44 H                     0.235069
     45 H                     0.246960
     46 H                     0.261298
     47 S                     0.946690
     48 C                    -0.932148
     49 H                     0.272037
     50 H                     0.254142
     51 H                     0.247465
     52 O                    -0.615718
     53 C                    -0.940336
     54 H                     0.265661
     55 H                     0.216009
     56 H                     0.264981
     57 S                     0.905781
     58 C                    -0.979403
     59 H                     0.294485
     60 H                     0.259732
     61 H                     0.327868
     62 O                    -0.643471
     63 C                    -0.867661
     64 H                     0.244822
     65 H                     0.231620
     66 H                     0.275493
     67 S                     0.940439
     68 C                    -0.762009
     69 H                     0.240620
     70 H                     0.197890
     71 H                     0.243050
     72 O                    -0.713364
     73 C                    -0.609822
     74 H                     0.270985
     75 H                     0.249397
     76 H                     0.247139
     77 S                     0.489303
     78 C                    -0.723121
     79 H                     0.231236
     80 H                     0.263722
     81 H                     0.287945
     82 O                    -0.707646
     83 C                    -1.013445
     84 H                     0.223926
     85 H                     0.281332
     86 H                     0.297913
     87 S                     1.318966
     88 C                    -1.116936
     89 H                     0.271003
     90 H                     0.251484
     91 H                     0.260190
     92 O                    -0.774445
     93 C                    -1.194307
     94 H                     0.294217
     95 H                     0.239789
     96 H                     0.265582
     97 S                     0.885676
     98 C                    -0.701899
     99 H                     0.303229
    100 H                     0.235119
    101 H                     0.291181
    102 O                    -0.669912
    103 C                    -0.903763
    104 H                     0.258013
    105 H                     0.269644
    106 H                     0.222876
    107 S                     0.871970
    108 C                    -0.866906
    109 H                     0.256871
    110 H                     0.264691
    111 H                     0.288716
    112 O                    -0.646562
    113 C                    -0.876768
    114 H                     0.277059
    115 H                     0.239832
    116 H                     0.250335
    117 S                     0.990800
    118 C                    -0.820302
    119 H                     0.211993
    120 H                     0.253460
    121 H                     0.256584
    122 O                    -0.699492
    123 C                    -0.795598
    124 H                     0.254603
    125 H                     0.249523
    126 H                     0.242612
    127 S                     0.749541
    128 C                    -0.740197
    129 H                     0.244860
    130 H                     0.247564
    131 H                     0.254331
    132 O                    -0.717225
    133 C                    -0.863713
    134 H                     0.239138
    135 H                     0.255906
    136 H                     0.327853
    137 S                     0.794002
    138 C                    -0.786103
    139 H                     0.266224
    140 H                     0.235480
    141 H                     0.235811
    142 O                    -0.673691
    143 C                    -0.879310
    144 H                     0.243874
    145 H                     0.205369
    146 H                     0.299991
    147 S                     0.940569
    148 C                    -0.852364
    149 H                     0.283938
    150 H                     0.217434
    151 H                     0.284647
    152 O                    -0.717716
    153 C                    -0.843896
    154 H                     0.234100
    155 H                     0.260459
    156 H                     0.260491
    157 S                     0.521475
    158 C                    -0.746278
    159 H                     0.263084
    160 H                     0.276703
    161 H                     0.228647
    162 O                    -0.500450
    163 C                    -0.871675
    164 H                     0.253148
    165 H                     0.244092
    166 H                     0.254803
    167 S                     0.806727
    168 C                    -0.788722
    169 H                     0.244938
    170 H                     0.268384
    171 H                     0.296045
    172 O                    -0.735687
    173 C                    -0.851698
    174 H                     0.234355
    175 H                     0.240265
    176 H                     0.269308
    177 S                     0.897524
    178 C                    -0.829862
    179 H                     0.214226
    180 H                     0.294529
    181 H                     0.264100
    182 O                    -0.747414
    183 C                    -0.967942
    184 H                     0.249563
    185 H                     0.213389
    186 H                     0.290508
    187 S                     1.214260
    188 C                    -1.053931
    189 H                     0.267395
    190 H                     0.253092
    191 H                     0.236398
    192 O                    -0.737437
    193 C                    -1.128968
    194 H                     0.271369
    195 H                     0.235546
    196 H                     0.276903
    197 S                     1.516608
    198 C                    -1.192773
    199 H                     0.226843
    200 H                     0.295567
    201 H                     0.301419
    202 O                    -0.824025
    203 C                    -0.864851
    204 H                     0.228279
    205 H                     0.228231
    206 H                     0.257228
    207 S                     1.106942
    208 C                    -0.909685
    209 H                     0.202328
    210 H                     0.288993
    211 H                     0.253662
    212 O                    -0.738252
    213 C                    -0.826348
    214 H                     0.247343
    215 H                     0.237842
    216 H                     0.264967
    217 S                     0.975168
    218 C                    -0.927587
    219 H                     0.248306
    220 H                     0.246506
    221 H                     0.267367
    222 O                    -0.727117
    223 C                    -0.917224
    224 H                     0.266000
    225 H                     0.219729
    226 H                     0.241112
    227 S                     1.021841
    228 C                    -0.801176
    229 H                     0.260634
    230 H                     0.254843
    231 H                     0.217544
    232 O                    -0.731764
    233 C                    -0.893131
    234 H                     0.229925
    235 H                     0.280870
    236 H                     0.241325
    237 S                     0.984316
    238 C                    -0.837970
    239 H                     0.244390
    240 H                     0.259041
    241 H                     0.224704
    242 O                    -0.711794
    243 C                    -0.527140
    244 H                     0.274001
    245 H                     0.230519
    246 H                     0.249723
    247 S                     0.356389
    248 C                    -0.773758
    249 H                     0.313296
    250 H                     0.252158
    251 H                     0.214583
    252 O                    -0.643467
    253 C                    -1.085660
    254 H                     0.240486
    255 H                     0.306132
    256 H                     0.258207
    257 S                     1.399339
    258 C                    -1.222607
    259 H                     0.280402
    260 H                     0.246344
    261 H                     0.248245
    262 O                    -0.741527
    263 C                    -0.854928
    264 H                     0.247445
    265 H                     0.294404
    266 H                     0.261325
    267 S                     0.916555
    268 C                    -0.856386
    269 H                     0.269801
    270 H                     0.241286
    271 H                     0.236457
    272 O                    -0.708385
    273 C                    -0.764848
    274 H                     0.277428
    275 H                     0.251566
    276 H                     0.244355
    277 S                     0.764399
    278 C                    -0.797152
    279 H                     0.259844
    280 H                     0.243015
    281 H                     0.291882
    282 O                    -0.682990
    283 C                    -0.729124
    284 H                     0.228519
    285 H                     0.269354
    286 H                     0.285937
    287 S                     0.729116
    288 C                    -0.950133
    289 H                     0.244448
    290 H                     0.268505
    291 H                     0.264779
    292 O                    -0.719374
    293 C                    -0.763499
    294 H                     0.269658
    295 H                     0.250846
    296 H                     0.248483
    297 S                     0.546484
    298 C                    -0.725221
    299 H                     0.325764
    300 H                     0.238506
    301 H                     0.233086
    302 O                    -0.606483
  ----------------------------------------
  Sum of atomic charges =     0.000000

 -----------------------------------------------------------------
                    Cartesian Multipole Moments
 -----------------------------------------------------------------
    Charge (ESU x 10^10)
                 0.0000
    Dipole Moment (Debye)
         X     -29.1133      Y      21.6016      Z      40.5333
       Tot      54.3798
    Quadrupole Moments (Debye-Ang)
        XX   -2456.9976     XY    -239.6696     YY      60.4831
        XZ     319.1140     YZ    1746.8234     ZZ    1181.3067
    Octopole Moments (Debye-Ang^2)
       XXX -133051.7684    XXY  -55770.8434    XYY  -20922.0554
       YYY  -49875.8319    XXZ  -36243.2719    XYZ   25073.3707
       YYZ   36462.4268    XZZ   12285.4834    YZZ   49132.9880
       ZZZ    9851.4575
    Hexadecapole Moments (Debye-Ang^3)
      XXXX ************   XXXY ************   XXYY ************
      XYYY ************   YYYY ************   XXXZ ************
      XXYZ -654856.6516   XYYZ  372237.7910   YYYZ -274874.7063
      XXZZ -886688.0193   XYZZ  767269.0894   YYZZ 1017518.2954
      XZZZ -205102.8301   YZZZ  656116.9694   ZZZZ ************
 -----------------------------------------------------------------
Archival summary:
[...]
    2   0.0018845   0.0188421   0.0006897   0.0257438   0.0026548  -0.0317984
    3  -0.0347228  -0.0345605  -0.0031541   0.0133842  -0.0310656  -0.0099561
          157         158         159         160         161         162
    1  -0.0004238   0.0021784   0.0347488   0.0018977  -0.0175393   0.0667128
    2  -0.0129923   0.0056253   0.0038866   0.0120067   0.0225375  -0.0568754
    3   0.0541931  -0.0032850   0.0014034  -0.0281716   0.0136475  -0.0685317
          163         164         165         166         167         168
    1  -0.0091335  -0.0028704   0.0102197  -0.0144861   0.0438588   0.0000875
    2   0.0013544   0.0121059   0.0164441  -0.0263648   0.0334981  -0.0054918
    3  -0.0015720   0.0372995  -0.0294043  -0.0219470   0.0027574  -0.0111135
          169         170         171         172         173         174
    1   0.0227849  -0.0220188  -0.0023175  -0.0255946  -0.0070549  -0.0057232
    2  -0.0224391  -0.0233605   0.0138954  -0.0726625   0.0016395  -0.0046691
    3   0.0087991  -0.0017248  -0.0331742   0.0794808  -0.0017162  -0.0335417
          175         176         177         178         179         180
    1  -0.0328414   0.0013857   0.0433288  -0.0008229  -0.0116941   0.0067841
    2   0.0065995   0.0291451  -0.0069576  -0.0050317  -0.0251562  -0.0327424
    3   0.0126592   0.0016784  -0.0229934   0.0049125  -0.0237924   0.0224244
          181         182         183         184         185         186
    1  -0.0246025  -0.0186490  -0.0065962  -0.0179213   0.0234608  -0.0132998
    2   0.0021561   0.0518000   0.0078022   0.0000719   0.0185362   0.0174217
    3   0.0191697   0.0966290   0.0004104   0.0282184   0.0072854  -0.0249376
          187         188         189         190         191         192
    1   0.0295061   0.0091467   0.0168936  -0.0227388   0.0304391  -0.0923562
    2  -0.0257733   0.0019622  -0.0183415   0.0084529   0.0124535  -0.0302268
    3   0.0281635  -0.0071260  -0.0203775  -0.0149367   0.0016812  -0.0523811
          193         194         195         196         197         198
    1  -0.0002937  -0.0025974  -0.0316916   0.0148562  -0.0005724   0.0019060
    2  -0.0032403  -0.0335039   0.0026109  -0.0095131  -0.0011797   0.0059228
    3  -0.0046552  -0.0028658   0.0045845  -0.0300899   0.0515167  -0.0035684
          199         200         201         202         203         204
    1  -0.0317315   0.0171714   0.0233304   0.1010013  -0.0037712  -0.0090458
    2   0.0023069   0.0162957  -0.0149172  -0.0102106  -0.0022724  -0.0061166
    3  -0.0001389   0.0250818  -0.0285855  -0.0721401   0.0007193   0.0347979
          205         206         207         208         209         210
    1  -0.0298086   0.0117473   0.0499373  -0.0020178  -0.0292645   0.0077336
    2  -0.0022173  -0.0277295   0.0064195   0.0055900  -0.0070116   0.0221177
    3  -0.0137795   0.0001547   0.0373770   0.0021497  -0.0054320   0.0207177
          211         212         213         214         215         216
    1   0.0090252   0.0139027  -0.0000294  -0.0150190   0.0256878  -0.0268948
    2   0.0141404  -0.0247633   0.0072461   0.0254445   0.0136457  -0.0094085
    3  -0.0229353  -0.1058668   0.0013872   0.0221068  -0.0056731  -0.0203786
          217         218         219         220         221         222
    1  -0.0453387   0.0068004   0.0216507  -0.0140607   0.0130357   0.0647035
    2  -0.0343536   0.0040688   0.0206358   0.0138983  -0.0293650  -0.0229340
    3   0.0143973   0.0056956  -0.0106174   0.0275433  -0.0013992  -0.0861452
          223         224         225         226         227         228
    1  -0.0011818  -0.0283274   0.0014776   0.0097028  -0.0194021   0.0042379
    2   0.0029751   0.0181564  -0.0125021   0.0326712  -0.0576990   0.0070304
    3   0.0026444   0.0046994   0.0328179   0.0044484   0.0075788  -0.0019863
          229         230         231         232         233         234
    1   0.0173303   0.0102223   0.0171515  -0.0461013  -0.0054581  -0.0036888
    2  -0.0110144   0.0336724  -0.0140786   0.0658448  -0.0013360   0.0300191
    3  -0.0230973  -0.0164593   0.0206130  -0.0766063  -0.0043814  -0.0080346
          235         236         237         238         239         240
    1   0.0077972  -0.0291917  -0.0006703  -0.0011716   0.0243493   0.0034601
    2  -0.0146491  -0.0108954  -0.0418265   0.0076076  -0.0053099   0.0192173
    3  -0.0271609   0.0142895   0.0353192  -0.0009200   0.0212736  -0.0253283
          241         242         243         244         245         246
    1  -0.0289030   0.0814995   0.0032642   0.0132390   0.0266510  -0.0156240
    2   0.0160055   0.0039186  -0.0016134  -0.0266266   0.0115192  -0.0018852
    3   0.0191362  -0.0762600   0.0054729   0.0055425  -0.0095775   0.0337669
          247         248         249         250         251         252
    1  -0.0357021  -0.0061661  -0.0246380   0.0154179  -0.0165295   0.0410562
    2   0.0385938  -0.0077356  -0.0115950  -0.0247441  -0.0112862  -0.0042754
    3   0.0182583  -0.0032984  -0.0212028  -0.0122048   0.0275728  -0.1005739
          253         254         255         256         257         258
    1  -0.0025627   0.0140995   0.0017129  -0.0256088   0.0230425   0.0044828
    2   0.0118796   0.0164000   0.0116484   0.0051045  -0.0162379  -0.0026938
    3  -0.0028396   0.0246465  -0.0308872   0.0164814   0.0430357  -0.0076101
          259         260         261         262         263         264
    1  -0.0192239   0.0358481   0.0142047  -0.0925282   0.0099726  -0.0056850
    2   0.0142240   0.0060764  -0.0254434  -0.0345486  -0.0059272  -0.0277276
    3  -0.0225474   0.0073315  -0.0085796  -0.0488111   0.0010426   0.0175768
          265         266         267         268         269         270
    1   0.0265849   0.0251412   0.0089806  -0.0041188  -0.0044362   0.0148949
    2  -0.0156050   0.0218110   0.0482947   0.0000488  -0.0294206   0.0132143
    3  -0.0144342   0.0061171  -0.0185602   0.0058609   0.0081013   0.0283987
          271         272         273         274         275         276
    1  -0.0301175  -0.0517606  -0.0112710  -0.0204371  -0.0125636   0.0003043
    2   0.0128421  -0.0820671  -0.0001694  -0.0167036  -0.0152453   0.0284343
    3   0.0006022  -0.0527837  -0.0004358  -0.0216836   0.0249268   0.0198441
          277         278         279         280         281         282
    1   0.0420417  -0.0057489   0.0068051   0.0258900  -0.0216010   0.0048030
    2   0.0022506   0.0075466   0.0295510  -0.0105023   0.0055406  -0.0872335
    3   0.0485471  -0.0034407   0.0177277  -0.0122248  -0.0266251  -0.0672458
          283         284         285         286         287         288
    1  -0.0083289  -0.0276601  -0.0009800  -0.0250226  -0.0084313   0.0022075
    2   0.0041291  -0.0015998   0.0312588  -0.0115807  -0.0527695   0.0039407
    3  -0.0078275   0.0160684  -0.0081443  -0.0274340   0.0135414   0.0056695
          289         290         291         292         293         294
    1  -0.0234276   0.0254672   0.0037075   0.0704842  -0.0061558  -0.0313452
    2   0.0056868  -0.0060780   0.0256529   0.0399868   0.0037756  -0.0007130
    3   0.0218790   0.0216032  -0.0121185  -0.0709885   0.0045545  -0.0059413
          295         296         297         298         299         300
    1  -0.0092614   0.0134270   0.0502276   0.0014708  -0.0029103  -0.0272918
    2  -0.0135593   0.0306626  -0.0163445   0.0041874  -0.0182644   0.0159678
    3   0.0285125   0.0027700   0.0235381  -0.0030191  -0.0146797   0.0014468
          301         302
    1   0.0269525  -0.0714859
    2   0.0200351  -0.0780020
    3   0.0057343  -0.0385985
  --- DONE ESP SUMMARY ---
Archival summary:
1\1\n0081.mhg0\SP\ProcedureUnspecified\6-31+G*\282856h22\ymao\FriMar1216:21:412021FriMar1216:21:412021\0\\#,ProcedureUnspecified,6-31+G*,\\0,1\S\O,1,1.49653\Gh,2,1.76615,1,122.132\Gh,3,1.01338,2,171.266,1,-16.0852,0\Gh,4,1.37849,3,123.224,2,101.552,0\Gh,5,1.10538,4,116.3,3,-11.7301,0\Gh,5,1.21857,4,124.218,3,172.423,0\Gh,4,1.46251,3,113.429,2,-96.9471,0\Gh,8,1.09626,4,114.616,3,-124.707,0\Gh,8,1.53669,4,111.663,3,-5.24355,0\Gh,10,1.09646,8,109.43,4,53.4038,0\Gh,10,1.0972,8,106.202,4,-70.925,0\Gh,10,1.53759,8,114.397,4,177.274,0\Gh,13,1.09652,10,117.575,8,-178.86,0\Gh,13,1.09716,10,110.289,8,58.91,0\Gh,8,1.53776,4,110.297,3,111.562,0\Gh,16,1.09662,8,105.465,4,-61.4813,0\Gh,16,1.09695,8,114.488,4,54.9613,0\Gh,16,1.53758,8,113.838,4,-177.449,0\Gh,19,1.0971,16,112.613,8,-178.904,0\Gh,19,1.09719,16,109.156,8,-66.0072,0\Gh,19,1.53735,16,110.536,8,58.3434,0\Gh,22,1.09614,19,107.727,16,-171.467,0\Gh,22,1.09744,19,110.407,16,62.3605,0\C,1,1.80712,2,103.084,3,9.97018,0\H,25,1.09287,1,115.223,2,-100.249,0\H,25,1.09301,1,116.378,2,21.2855,0\H,25,1.09352,1,108.258,2,139.706,0\C,1,1.80766,2,101.621,3,110.098,0\H,29,1.09261,1,106.389,2,-36.7262,0\H,29,1.09277,1,101.82,2,86.7447,0\H,29,1.09299,1,106.844,2,-154.61,0\H,9,2.14418,8,147.789,4,-92.5789,0\C,33,1.09281,9,156.016,8,-158.353,0\H,34,1.0928,33,106.917,9,120.731,0\H,34,1.09288,33,104.896,9,-113.074,0\S,34,1.8075,33,111.836,9,8.2403,0\O,37,1.49742,34,101.677,33,90.3493,0\C,37,1.80656,34,100.107,33,-166.623,0\H,39,1.09221,37,107.103,34,59.4716,0\H,39,1.09301,37,102.656,34,-57.1427,0\H,39,1.09326,37,111.135,34,-173.499,0\H,20,2.24514,19,125.247,16,171.208,0\C,43,1.09325,20,122.147,19,101.479,0\H,44,1.09277,43,114.508,20,-88.0445,0\H,44,1.09299,43,105.859,20,150.411,0\S,44,1.80655,43,105.506,20,28.8796,0\O,47,1.49764,44,103.959,43,170.594,0\C,47,1.80656,44,91.9433,43,69.0839,0\H,49,1.09242,47,109.513,44,148.149,0\H,49,1.09296,47,108.957,44,-88.7396,0\H,49,1.0931,47,113.867,44,30.5685,0\H,45,2.09061,44,160.82,43,-66.986,0\C,53,1.09308,45,93.3056,44,1.99325,0\H,54,1.0931,53,111.615,45,-75.0454,0\H,54,1.09332,53,115.415,45,57.5193,0\S,54,1.80642,53,104.649,45,164.465,0\O,57,1.49671,54,105.098,53,-174.475,0\C,57,1.80734,54,91.3348,53,74.4348,0\H,59,1.09295,57,100.005,54,173.715,0\H,59,1.09319,57,104.29,54,-69.8162,0\H,59,1.09365,57,111.218,54,51.944,0\H,51,2.12561,49,132.255,47,135.479,0\C,63,1.09353,51,150.097,49,1.843,0\H,64,1.09286,63,110.796,51,162.252,0\H,64,1.09304,63,111.428,51,-75.9354,0\S,64,1.80719,63,108.834,51,44.3122,0\O,67,1.4967,64,98.631,63,-72.3978,0\C,67,1.80689,64,99.5926,63,178.848,0\H,69,1.09237,67,107.495,64,169.494,0\H,69,1.09257,67,114.065,64,-70.491,0\H,69,1.09334,67,103.501,64,48.1511,0\H,33,2.25337,9,86.2642,8,17.3593,0\C,73,1.09219,33,113.55,9,-126.536,0\H,74,1.09321,73,103.859,33,144.383,0\H,74,1.09336,73,112.149,33,23.4732,0\S,74,1.80699,73,116.924,33,-105.589,0\O,77,1.49747,74,104.99,73,57.9806,0\C,77,1.80682,74,98.2429,73,-53.7528,0\H,79,1.09263,77,105.868,74,157.409,0\H,79,1.09284,77,108.224,74,-86.5373,0\H,79,1.09324,77,109.534,74,41.2701,0\H,81,1.95948,79,133.835,77,-84.4236,0\C,83,1.09283,81,122.561,79,94.893,0\H,84,1.0932,83,118.458,81,-34.3037,0\H,84,1.09324,83,103.248,81,-159.348,0\S,84,1.80703,83,113.951,81,91.9961,0\O,87,1.49667,84,104.909,83,157.768,0\C,87,1.80702,84,99.7367,83,52.811,0\H,89,1.09263,87,100.503,84,158.84,0\H,89,1.09287,87,107.318,84,35.8371,0\H,89,1.09302,87,105.943,84,-84.6596,0\H,82,2.20392,79,120.334,77,105.26,0\C,93,1.0935,82,124.153,79,-22.3657,0\H,94,1.09279,93,111.217,82,-137.793,0\H,94,1.09327,93,108.216,82,-16.5471,0\S,94,1.80638,93,115.182,82,100.923,0\O,97,1.49747,94,101.572,93,163.954,0\C,97,1.80729,94,99.1306,93,58.3915,0\H,99,1.09241,97,113.532,94,-41.2513,0\H,99,1.09334,97,105.84,94,-166.488,0\H,99,1.09365,97,110.068,94,78.7245,0\H,100,2.22467,99,141.997,97,-48.6725,0\C,103,1.09386,100,156.586,99,147.034,0\H,104,1.09254,103,106.838,100,-43.3143,0\H,104,1.09279,103,107.853,100,-162.969,0\S,104,1.80699,103,110.57,100,69.5262,0\O,107,1.49646,104,99.7799,103,-162.078,0\C,107,1.80668,104,99.3145,103,91.8022,0\H,109,1.09275,107,106.308,104,-169.166,0\H,109,1.09318,107,106.944,104,68.3669,0\H,109,1.0932,107,112.787,104,-53.2344,0\H,106,2.11049,104,123.949,103,127.549,0\C,113,1.0937,106,112.229,104,81.823,0\H,114,1.09231,113,102.804,106,46.084,0\H,114,1.09298,113,113.436,106,-77.2971,0\S,114,1.80695,113,102.877,106,161.934,0\O,117,1.49737,114,106.519,113,54.6601,0\C,117,1.80672,114,93.9405,113,155.933,0\H,119,1.0923,117,108.234,114,-171.71,0\H,119,1.09291,117,108.743,114,64.773,0\H,119,1.0933,117,104.518,114,-51.956,0\O,120,2.34502,119,142.18,117,-179.769,0\S,123,1.49705,120,156.429,119,47.2216,0\C,124,1.80642,123,108.174,120,141.634,0\H,125,1.09217,124,118.991,123,-64.2942,0\H,125,1.09304,124,110.144,123,62.0073,0\H,125,1.0932,124,104.425,123,-176.617,0\C,124,1.8073,123,96.8473,120,43.8865,0\H,129,1.0928,124,110.021,123,-178.399,0\H,129,1.09309,124,108.125,123,-61.1434,0\H,129,1.09373,124,106.426,123,56.0019,0\H,31,2.3605,29,108.071,1,-78.725,0\C,133,1.09358,31,109.847,29,131.8,0\H,134,1.09263,133,112.091,31,-30.0573,0\H,134,1.09326,133,108.769,31,88.8616,0\S,134,1.80684,133,108.233,31,-151.614,0\O,137,1.49726,134,93.9442,133,-64.8654,0\C,137,1.80672,134,94.7457,133,-162.152,0\H,139,1.09255,137,105.235,134,99.5124,0\H,139,1.09293,137,117.454,134,-29.3731,0\H,139,1.09363,137,109.556,134,-139.387,0\H,30,2.36882,29,130.922,1,-101.418,0\C,143,1.09301,30,119.758,29,-68.4972,0\H,144,1.09251,143,111.773,30,-152.317,0\H,144,1.09268,143,106.283,30,83.0437,0\S,144,1.807,143,110.125,30,-30.4306,0\O,147,1.4976,144,105.939,143,-68.1391,0\C,147,1.80662,144,95.4453,143,-175.159,0\H,149,1.09219,147,107.295,144,-63.1645,0\H,149,1.09313,147,108.887,144,55.9644,0\H,149,1.09331,147,109.095,144,-173.71,0\H,151,2.37769,149,134.152,147,62.7541,0\C,153,1.09294,151,138.248,149,-116.17,0\H,154,1.09309,153,109.998,151,-19.3104,0\H,154,1.09325,153,115.26,151,-139.638,0\S,154,1.8072,153,108.39,151,98.8672,0\O,157,1.49684,154,105.252,153,-174.357,0\C,157,1.80798,154,98.6816,153,88.9005,0\H,159,1.09255,157,105.748,154,54.1929,0\H,159,1.09306,157,113.336,154,-66.7714,0\H,159,1.09356,157,106.607,154,165.435,0\H,162,2.20664,159,115.865,157,-117.773,0\C,163,1.09271,162,117.286,159,131.889,0\H,164,1.09273,163,108.16,162,-17.5655,0\H,164,1.09278,163,110.426,162,-142.752,0\S,164,1.80781,163,111.175,162,100.318,0\O,167,1.49685,164,103.55,163,88.8875,0\C,167,1.80716,164,94.4009,163,-20.6921,0\H,169,1.09212,167,106.748,164,42.8643,0\H,169,1.09293,167,113.374,164,164.856,0\H,169,1.09394,167,101.24,164,-73.6067,0\H,172,2.16297,169,146.305,167,-11.5771,0\C,173,1.09376,172,123.273,169,133.701,0\H,174,1.09212,173,113.165,172,-70.0639,0\H,174,1.09341,173,109.602,172,159.577,0\S,174,1.80678,173,106.327,172,46.3517,0\O,177,1.49662,174,103.77,173,44.7989,0\C,177,1.80732,174,96.3845,173,152.293,0\H,179,1.09268,177,117.65,174,-178.682,0\H,179,1.09309,177,106.516,174,59.2966,0\H,179,1.09334,177,107.526,174,-63.6094,0\H,175,2.1701,174,126.692,173,-80.3664,0\C,183,1.09326,175,141.886,174,88.6055,0\H,184,1.09277,183,105.714,175,171.148,0\H,184,1.09338,183,111.224,175,53.4142,0\S,184,1.80687,183,110.54,175,-64.4661,0\O,187,1.49759,184,103.108,183,42.7724,0\C,187,1.8068,184,99.904,183,-66.4688,0\H,189,1.09235,187,107.777,184,-168.528,0\H,189,1.09319,187,111.376,184,65.8746,0\H,189,1.09336,187,106.077,184,-54.0637,0\H,176,2.35001,174,109.96,173,-26.8795,0\C,193,1.09374,176,115.241,174,170.308,0\H,194,1.0925,193,109.52,176,118.069,0\H,194,1.09366,193,104.695,176,-0.597066,0\S,194,1.80687,193,112.029,176,-127.171,0\O,197,1.49692,194,111.767,193,-35.5289,0\C,197,1.80734,194,101.378,193,75.319,0\H,199,1.09278,197,102.249,194,66.2508,0\H,199,1.09306,197,115.285,194,-172.135,0\H,199,1.09382,197,104.627,194,-50.3929,0\H,95,2.41962,94,106.717,93,35.9787,0\C,203,1.09333,95,133.455,94,-171.628,0\H,204,1.09239,203,110.697,95,-54.8924,0\H,204,1.09286,203,115.463,95,-175.236,0\S,204,1.80648,203,101.338,95,66.8569,0\O,207,1.49691,204,106.605,203,-67.8222,0\C,207,1.80695,204,91.3345,203,-175.832,0\H,209,1.09271,207,109.742,204,89.8639,0\H,209,1.09274,207,108.849,204,-31.0569,0\H,209,1.09349,207,102.615,204,-153.939,0\H,211,2.16596,209,136.817,207,-115.361,0\C,213,1.09317,211,134.552,209,57.8244,0\H,214,1.09309,213,104.651,211,107.945,0\H,214,1.09353,213,114.556,211,-17.1715,0\S,214,1.80707,213,102.386,211,-132.12,0\O,217,1.49679,214,98.6225,213,-42.936,0\C,217,1.8077,214,102.077,213,59.7443,0\H,219,1.09259,217,106.957,214,-49.5186,0\H,219,1.09286,217,108.503,214,-164.439,0\H,219,1.09333,217,116.56,214,73.4501,0\H,208,2.30037,207,108.089,204,-163.994,0\C,223,1.09313,208,147.939,207,-26.524,0\H,224,1.09277,223,106.064,208,135.712,0\H,224,1.09286,223,112.966,208,12.5487,0\S,224,1.80718,223,112.015,208,-109.588,0\O,227,1.49635,224,97.8649,223,172.325,0\C,227,1.80724,224,98.7065,223,67.0015,0\H,229,1.09274,227,111.391,224,46.3966,0\H,229,1.09339,227,119.55,224,-88.9628,0\H,229,1.09342,227,110.673,224,154.149,0\H,230,2.42653,229,138.073,227,30.9182,0\C,233,1.09323,230,177.296,229,94.771,0\H,234,1.0928,233,113.215,230,5.99911,0\H,234,1.09291,233,106.043,230,-117.091,0\S,234,1.80713,233,110.391,230,131.674,0\O,237,1.49704,234,101.439,233,31.9485,0\C,237,1.80707,234,94.1479,233,-75.6725,0\H,239,1.09259,237,108.219,234,62.5781,0\H,239,1.09317,237,107.675,234,179.725,0\H,239,1.09334,237,106.193,234,-57.4892,0\H,233,2.47505,230,84.0311,229,54.8826,0\C,243,1.09308,233,153.481,230,84.3355,0\H,244,1.09304,243,113.795,233,109.865,0\H,244,1.09347,243,111.145,233,-131.09,0\S,244,1.80725,243,105.03,233,-11.8458,0\O,247,1.49749,244,106.533,243,53.7207,0\C,247,1.80742,244,91.8189,243,156.953,0\H,249,1.0926,247,108.025,244,171.066,0\H,249,1.09275,247,109.715,244,-68.8557,0\H,249,1.093,247,107.384,244,55.7379,0\H,110,2.49447,109,114.623,107,-67.1988,0\C,253,1.09282,110,152.096,109,-24.2497,0\H,254,1.09284,253,108.045,110,-14.6798,0\H,254,1.09391,253,107.644,110,105.663,0\S,254,1.80624,253,108.434,110,-137.29,0\O,257,1.4969,254,96.7992,253,157.278,0\C,257,1.80743,254,87.3927,253,54.7059,0\H,259,1.09252,257,105.964,254,59.182,0\H,259,1.09305,257,110.835,254,170.295,0\H,259,1.09319,257,112.123,254,-65.494,0\H,31,2.50705,29,98.2782,1,153.189,0\C,263,1.09272,31,102.784,29,-156.196,0\H,264,1.09293,263,108.679,31,20.4081,0\H,264,1.09298,263,110.788,31,140.544,0\S,264,1.80701,263,106.511,31,-109.596,0\O,267,1.49699,264,103.36,263,42.4773,0\C,267,1.80684,264,96.1979,263,-63.3365,0\H,269,1.09268,267,115.04,264,24.9992,0\H,269,1.09311,267,106.406,264,148.123,0\H,269,1.09347,267,106.358,264,-98.2964,0\H,121,2.51545,119,120.294,117,72.78,0\C,273,1.09352,121,113.557,119,-136.441,0\H,274,1.09287,273,114.249,121,104.983,0\H,274,1.09313,273,108.957,121,-128.058,0\S,274,1.80693,273,111.277,121,-19.4428,0\O,277,1.49763,274,97.6182,273,-175.842,0\C,277,1.80676,274,95.6159,273,-74.4382,0\H,279,1.09249,277,106.874,274,62.0218,0\H,279,1.09276,277,105.784,274,-62.1792,0\H,279,1.09363,277,100.425,274,-178.733,0\H,43,2.52176,20,110.821,19,-54.9547,0\C,283,1.09282,43,147.639,20,-57.3435,0\H,284,1.09282,283,108.947,43,57.2892,0\H,284,1.0934,283,114.956,43,-66.3634,0\S,284,1.80694,283,102.588,43,171.305,0\O,287,1.4969,284,104.614,283,-179.178,0\C,287,1.80714,284,96.4352,283,69.6584,0\H,289,1.09263,287,108.991,284,53.8655,0\H,289,1.09295,287,113.963,284,-68.6693,0\H,289,1.0936,287,108.847,284,173.113,0\O,135,2.65337,134,138.071,133,167.801,0\S,293,1.49744,135,135.564,134,-120.823,0\C,294,1.80667,293,100.301,135,-46.4603,0\H,295,1.09297,294,106.314,293,-67.6847,0\H,295,1.09308,294,107.956,293,50.1451,0\H,295,1.09318,294,112.988,293,170.487,0\C,294,1.80727,293,108.5,135,-147.092,0\H,299,1.09276,294,105.471,293,-73.6821,0\H,299,1.09285,294,108.097,293,47.3345,0\H,299,1.09306,294,115.329,293,165.563,0\\\@

 Total job time:  90.84s(wall), 283.98s(cpu) 
 Fri Mar 12 16:21:41 2021

        *************************************************************
        *                                                           *
        *  Thank you very much for using Q-Chem.  Have a nice day.  *
        *                                                           *
        *************************************************************


