                  Welcome to Q-Chem
     A Quantum Leap Into The Future Of Chemistry


 Q-Chem 5.2 (devel), Q-Chem, Inc., Pleasanton, CA (2019)

 Yihan Shao,  Zhengting Gan,  E. Epifanovsky,  A. T. B. Gilbert,  M. Wormit,  
 J. Kussmann,  A. W. Lange,  A. Behn,  Jia Deng,  Xintian Feng,  D. Ghosh,  
 M. Goldey,  P. R. Horn,  L. D. Jacobson,  I. Kaliman,  T. Kus,  A. Landau,  
 Jie Liu,  E. I. Proynov,  R. M. Richard,  R. P. Steele,  E. J. Sundstrom,  
 H. L. Woodcock III,  P. M. Zimmerman,  D. Zuev,  B. Alam,  B. Albrecht,  
 E. Alguire,  S. A. Baeppler,  D. Barton,  Z. Benda,  Y. A. Bernard,  
 E. J. Berquist,  K. B. Bravaya,  H. Burton,  K. Carter-Fenk,  D. Casanova,  
 Chun-Min Chang,  Yunqing Chen,  A. Chien,  K. D. Closser,  M. P. Coons,  
 S. Coriani,  S. Dasgupta,  A. L. Dempwolff,  M. Diedenhofen,  Hainam Do,  
 R. G. Edgar,  Po-Tung Fang,  S. Faraji,  S. Fatehi,  Qingguo Feng,  
 J. Fosso-Tande,  J. Gayvert,  Qinghui Ge,  A. Ghysels,  G. Gidofalvi,  
 J. Gomes,  J. Gonthier,  A. Gunina,  D. Hait,  M. W. D. Hanson-Heine,  
 P. H. P. Harbach,  A. W. Hauser,  M. F. Herbst,  J. E. Herr,  
 E. G. Hohenstein,  Z. C. Holden,  Kerwin Hui,  B. C. Huynh,  T.-C. Jagau,  
 Hyunjun Ji,  B. Kaduk,  K. Khistyaev,  Jaehoon Kim,  P. Klunzinger,  K. Koh,  
 D. Kosenkov,  L. Koulias,  T. Kowalczyk,  C. M. Krauter,  A. Kunitsa,  
 Ka Un Lao,  A. Laurent,  K. V. Lawler,  Joonho Lee,  D. Lefrancois,  
 S. Lehtola,  D. S. Levine,  Yi-Pei Li,  You-Sheng Lin,  Fenglai Liu,  
 Kuan-Yu Liu,  E. Livshits,  M. Loipersberger,  A. Luenser,  P. Manohar,  
 E. Mansoor,  S. F. Manzer,  Shan-Ping Mao,  Yuezhi Mao,  N. Mardirossian,  
 A. V. Marenich,  T. Markovich,  L. A. Martinez-Martinez,  S. A. Maurer,  
 N. J. Mayhall,  S. C. McKenzie,  J.-M. Mewes,  P. Morgante,  A. F. Morrison,  
 J. W. Mullinax,  K. Nanda,  T. S. Nguyen-Beck,  R. Olivares-Amaya,  
 J. A. Parkhill,  S. K. Paul,  F. Pavosevic,  Zheng Pei,  T. M. Perrine,  
 F. Plasser,  P. Pokhilko,  S. Prager,  A. Prociuk,  E. Ramos,  B. Rana,  
 D. R. Rehn,  F. Rob,  M. Scheurer,  M. Schneider,  N. Sergueev,  
 S. M. Sharada,  S. Sharma,  D. W. Small,  T. Stauch,  C. J. Stein,  
 T. Stein,  Yu-Chuan Su,  S. P. Veccham,  Zhen Tao,  A. J. W. Thom,  
 A. Tkatchenko,  T. Tsuchimochi,  N. M. Tubman,  L. Vogt,  M. L. Vidal,  
 O. Vydrov,  M. A. Watson,  J. Wenzel,  M. de Wergifosse,  T. A. Wesolowski,  
 A. White,  J. Witte,  A. Yamada,  Jun Yang,  K. Yao,  S. Yeganeh,  
 S. R. Yost,  Zhi-Qiang You,  A. Zech,  Igor Ying Zhang,  Xing Zhang,  
 Yan Zhao,  Ying Zhu,  B. R. Brooks,  G. K. L. Chan,  C. J. Cramer,  
 M. S. Gordon,  W. J. Hehre,  A. Klamt,  M. W. Schmidt,  C. D. Sherrill,  
 D. G. Truhlar,  A. Aspuru-Guzik,  R. Baer,  A. T. Bell,  N. A. Besley,  
 Jeng-Da Chai,  A. E. DePrince, III,  R. A. DiStasio Jr.,  A. Dreuw,  
 B. D. Dunietz,  T. R. Furlani,  Chao-Ping Hsu,  Yousung Jung,  Jing Kong,  
 D. S. Lambrecht,  WanZhen Liang,  C. Ochsenfeld,  V. A. Rassolov,  
 L. V. Slipchenko,  J. E. Subotnik,  T. Van Voorhis,  J. M. Herbert,  
 A. I. Krylov,  P. M. W. Gill,  M. Head-Gordon

 Contributors to earlier versions of Q-Chem not listed above: 
 R. D. Adamson,  B. Austin,  J. Baker,  G. J. O. Beran,  K. Brandhorst,  
 S. T. Brown,  E. F. C. Byrd,  A. K. Chakraborty,  C.-L. Cheng,  
 Siu Hung Chien,  D. M. Chipman,  D. L. Crittenden,  H. Dachsel,  
 R. J. Doerksen,  A. D. Dutoi,  L. Fusti-Molnar,  W. A. Goddard III,  
 A. Golubeva-Zadorozhnaya,  S. R. Gwaltney,  G. Hawkins,  A. Heyden,  
 S. Hirata,  G. Kedziora,  F. J. Keil,  C. Kelley,  Jihan Kim,  R. A. King,  
 R. Z. Khaliullin,  P. P. Korambath,  W. Kurlancheek,  A. M. Lee,  M. S. Lee,  
 S. V. Levchenko,  Ching Yeh Lin,  D. Liotard,  R. C. Lochan,  I. Lotan,  
 P. E. Maslen,  N. Nair,  D. P. O'Neill,  D. Neuhauser,  E. Neuscamman,  
 C. M. Oana,  R. Olson,  B. Peters,  R. Peverati,  P. A. Pieniazek,  
 Y. M. Rhee,  J. Ritchie,  M. A. Rohrdanz,  E. Rosta,  N. J. Russ,  
 H. F. Schaefer III,  N. E. Schultz,  N. Shenvi,  A. C. Simmonett,  A. Sodt,  
 D. Stuck,  K. S. Thanthiriwatte,  V. Vanovschi,  Tao Wang,  A. Warshel,  
 C. F. Williams,  Q. Wu,  X. Xu,  W. Zhang

 Please cite Q-Chem as follows:
 Y. Shao et al., Mol. Phys. 113, 184-215 (2015)
 DOI: 10.1080/00268976.2014.952696

 Q-Chem 5.2.2 for Intel X86 EM64T Linux

 Parts of Q-Chem use Armadillo 9.800.1 (Horizon Scraper).
 http://arma.sourceforge.net/

 Q-Chem begins on Thu Mar 11 13:37:38 2021  

Host: n0090.mhg0
0

     Scratch files written to /local/scratch/users/ymao/r7.00_frame_0026_almo_B3LYP_dp.in20210311133736//

Checking the input file for inconsistencies... 	...done.

--------------------------------------------------------------
User input:
--------------------------------------------------------------
$molecule
0 1
--
0 1
C    25.23900   15.85400   28.03200  
C    26.46700   16.44500   27.32000  
C    26.39300   17.97700   27.42500  
C    26.30500   18.49800   28.86800  
C    25.10700   17.86000   29.59000  
C    25.14600   16.32600   29.49200  
H    27.30000   18.44800   27.02800  
H    27.33500   16.02200   27.84100  
H    24.33400   15.99300   27.42800  
H    25.30500   14.76000   28.01000  
H    27.26500   18.28700   29.35600  
H    26.07900   19.57000   28.80200  
H    25.15600   18.25300   30.61300  
H    24.19100   18.17500   29.07500  
H    26.10400   16.03300   29.93800  
H    24.28700   15.84300   29.97500  
H    25.56500   18.44600   26.87800  
N    26.54600   15.98200   25.93600  
H    26.53200   16.57500   25.11400  
C    26.77300   14.69700   25.49000  
H    26.74700   14.64000   24.38700  
O    26.86500   13.71300   26.20300  
--
0 1
C    22.31700   20.30400   27.48100  
H    22.49700   20.95000   28.34400  
H    23.26700   20.19400   26.95200  
H    21.68900   20.84900   26.77300  
S    21.36900   18.84600   27.97200  
C    20.41300   18.69900   26.44600  
H    19.94000   19.66500   26.25000  
H    21.07400   18.42400   25.62000  
H    19.60800   17.97600   26.60200  
O    20.32800   19.43700   28.87100  
C    20.49000   19.57000   22.22700  
H    21.35800   19.08200   21.77500  
H    19.93500   18.86700   22.85300  
H    19.77500   19.97900   21.50900  
S    20.96400   20.81700   23.44600  
C    21.92800   21.77900   22.25800  
H    22.01600   22.79900   22.64000  
H    22.92200   21.36700   22.06400  
H    21.31700   21.68600   21.35700  
O    22.01600   20.04200   24.17700  
C    30.22100   20.88700   29.85600  
H    30.20000   21.66500   30.62300  
H    30.72200   21.27800   28.96600  
H    29.25700   20.44000   29.60300  
S    31.45800   19.64800   30.30400  
C    30.57000   19.14900   31.79600  
H    30.34600   19.94400   32.51200  
H    29.74900   18.49500   31.49200  
H    31.32700   18.49600   32.23700  
O    32.58200   20.51300   30.78200  
C    29.18000   9.70800    27.06600  
H    29.80700   9.75500    27.95900  
H    28.20300   9.27400    27.29500  
H    29.62000   8.98800    26.37100  
S    29.09000   11.37900   26.38200  
C    28.58100   11.12000   24.66800  
H    27.61000   10.61800   24.69900  
H    28.64500   12.10400   24.19700  
H    29.26800   10.44400   24.15300  
O    30.52800   11.76800   26.23700  
C    27.85800   22.92200   27.71100  
H    28.18800   22.56700   26.73100  
H    28.05800   22.14100   28.44900  
H    26.77600   23.06600   27.66300  
S    28.62600   24.49500   28.15900  
C    30.17500   24.26300   27.25700  
H    30.80600   25.14100   27.41300  
H    30.67700   23.41800   27.73600  
H    30.00000   24.03700   26.20200  
O    29.06700   24.21600   29.56200  
C    24.78200   19.50300   35.69500  
H    25.28600   20.46900   35.77500  
H    25.29900   18.96000   34.90000  
H    23.73400   19.75900   35.51600  
S    24.90000   18.67700   37.29800  
C    23.57000   17.47900   37.05000  
H    23.76000   16.89000   36.14900  
H    23.68400   16.76400   37.86900  
H    22.56400   17.89700   36.97100  
O    24.14100   19.64300   38.15400  
C    23.52200   14.26500   34.42000  
H    24.47700   14.72000   34.14200  
H    22.70000   14.98500   34.41400  
H    23.51800   13.84100   35.42700  
S    23.12300   13.04200   33.15000  
C    22.82600   14.28400   31.87100  
H    23.74000   14.83500   31.63500  
H    22.46200   13.72300   31.00700  
H    22.03600   14.89700   32.31300  
O    21.78400   12.44100   33.44200  
C    26.66200   5.70600    24.52800  
H    27.19600   5.41300    23.62100  
H    27.06800   5.26700    25.44400  
H    25.59600   5.46500    24.55500  
S    27.09300   7.44100    24.79400  
C    26.73500   8.06400    23.13600  
H    25.65400   7.91500    23.07000  
H    26.99200   9.12400    23.07000  
H    27.19100   7.53300    22.29700  
O    28.58100   7.58800    24.87900  
C    31.75600   13.37700   22.88500  
H    31.18400   12.49100   22.59500  
H    32.01000   13.99500   22.02000  
H    32.61400   12.94400   23.40600  
S    30.74000   14.22600   24.11400  
C    29.54500   14.96300   22.97600  
H    28.72900   15.39800   23.55900  
H    29.97300   15.75600   22.35800  
H    29.17900   14.20000   22.28500  
O    31.61300   15.35300   24.57200  
C    27.69300   22.39700   31.73500  
H    27.39100   22.51800   30.69200  
H    27.48900   23.22800   32.41500  
H    28.76900   22.29300   31.89500  
S    26.83000   20.93400   32.35300  
C    25.15500   21.61100   32.31000  
H    24.59000   20.70000   32.52100  
H    24.98000   22.38900   33.05700  
H    24.92000   21.83700   31.26600  
O    27.09900   20.59400   33.78600  
C    21.65600   20.15100   32.19300  
H    22.01100   20.91700   32.88700  
H    22.21300   20.20800   31.25400  
H    20.60300   20.32900   31.96100  
S    21.72300   18.45300   32.80800  
C    21.03000   18.97100   34.39400  
H    21.64800   19.67800   34.95400  
H    20.06600   19.45000   34.20600  
H    20.87400   18.07700   35.00300  
O    23.16700   18.31900   33.18200  
C    31.92700   15.87500   29.27400  
H    32.15900   16.10200   30.31700  
H    32.03300   14.80400   29.08300  
H    32.45900   16.46800   28.52500  
S    30.13600   16.00500   29.07400  
C    30.12400   15.39900   27.37200  
H    31.04200   15.66700   26.84400  
H    29.98400   14.31500   27.41200  
H    29.33300   15.89300   26.80100  
O    29.78000   17.44500   28.86500  
C    22.49800   14.04900   19.32800  
H    22.43600   12.98800   19.07100  
H    22.51700   14.07000   20.42000  
H    21.68200   14.62600   18.88500  
S    24.03200   14.71000   18.63700  
C    24.05800   14.04600   16.95600  
H    24.42600   14.68200   16.14800  
H    24.52500   13.06000   17.02800  
H    23.02600   13.86400   16.64300  
O    25.23400   14.09200   19.28100  
C    28.37900   12.53800   34.45900  
H    28.66600   11.48500   34.40700  
H    27.60900   12.82600   33.74000  
H    29.24800   13.17900   34.28800  
S    27.77500   12.97200   36.10600  
C    26.03700   12.57000   35.81400  
H    25.46400   12.92600   36.67300  
H    25.74100   13.02500   34.86500  
H    25.98500   11.47900   35.77100  
O    27.64500   14.46000   36.00900  
C    25.04300   26.55300   28.85800  
H    24.66800   27.49000   28.43900  
H    25.68700   26.78500   29.71000  
H    25.60700   25.98200   28.11600  
S    23.68600   25.48900   29.39800  
C    24.68900   23.98600   29.40800  
H    24.92800   23.82900   28.35400  
H    25.51400   24.11600   30.11300  
H    24.02900   23.17400   29.72600  
O    22.93600   25.22600   28.12900  
C    18.39400   13.69000   32.92200  
H    17.54400   14.01800   32.31800  
H    18.75300   12.80800   32.38400  
H    18.22500   13.49200   33.98300  
S    19.50300   15.11300   32.82400  
C    18.39700   16.35700   33.52800  
H    18.12000   16.13600   34.56200  
H    18.80200   17.36100   33.37600  
H    17.44800   16.22800   33.00100  
O    19.43600   15.41100   31.35800  
C    26.33000   17.20600   21.37200  
H    27.22400   16.82300   20.87300  
H    25.81000   16.41100   21.91100  
H    25.63300   17.70800   20.69600  
S    26.99900   18.48800   22.45600  
C    28.52000   18.87100   21.55900  
H    28.31800   19.27700   20.56400  
H    29.13900   19.56000   22.13900  
H    29.01900   17.90400   21.45700  
O    27.59700   17.56900   23.47400  
C    23.84100   23.07600   25.08200  
H    23.81400   23.70000   24.18400  
H    23.06900   22.32200   25.25300  
H    23.81600   23.69600   25.98200  
S    25.47200   22.32400   25.28000  
C    25.48400   21.46200   23.69200  
H    26.42600   20.91200   23.63100  
H    24.62000   20.79500   23.63600  
H    25.53800   22.15800   22.85100  
O    25.53900   21.35700   26.42000  
C    21.49500   15.46100   28.48200  
H    22.52300   15.82900   28.54000  
H    20.87000   16.11200   27.86600  
H    21.02300   15.15000   29.41800  
S    21.64400   13.84400   27.68900  
C    19.90200   13.43600   27.94600  
H    19.34900   13.95800   27.16100  
H    19.80000   12.35200   27.85100  
H    19.54700   13.61500   28.96400  
O    22.31200   12.91300   28.65200  
C    26.30600   17.01000   33.11400  
H    25.80600   16.92600   32.14600  
H    25.61400   17.07100   33.95800  
H    26.87800   17.94100   33.13500  
S    27.33100   15.53700   33.33100  
C    28.43800   15.91400   31.95300  
H    29.14600   16.71400   32.18700  
H    29.13100   15.08400   31.79500  
H    27.93000   16.12900   31.00900  
O    26.34300   14.61400   32.68900  
C    29.89700   19.97800   26.90900  
H    29.10700   19.30900   27.26000  
H    30.87600   19.63700   27.25400  
H    29.77100   21.01800   27.21900  
S    29.73900   19.99500   25.10900  
C    30.90500   18.63600   24.86800  
H    31.06400   18.51700   23.79300  
H    31.85000   18.82600   25.38300  
H    30.39200   17.77900   25.31200  
O    30.37600   21.25400   24.60900  
C    27.37500   12.24200   29.48700  
H    26.93700   12.97000   30.17400  
H    28.25300   12.76500   29.09900  
H    26.59100   12.01400   28.76000  
S    27.96500   10.81900   30.43200  
C    26.43800   10.83200   31.39800  
H    26.48100   9.97900    32.08100  
H    26.43900   11.76900   31.96000  
H    25.55800   10.87300   30.75000  
O    29.04200   11.38000   31.30700  
C    24.19300   10.31600   27.53700  
H    23.18000   9.95800    27.33500  
H    24.65600   9.42400    27.96700  
H    24.09500   11.20900   28.16000  
S    24.92800   10.86100   25.97900  
C    23.96300   12.38000   25.81300  
H    24.10200   12.76500   24.80000  
H    22.90600   12.15100   25.97200  
H    24.48700   13.05900   26.49000  
O    24.31100   10.00300   24.91800  
C    26.08800   11.12700   19.53300  
H    26.45100   12.04900   19.07000  
H    26.24200   10.19900   18.97700  
H    25.00400   11.21200   19.64900  
S    27.00700   10.98800   21.08300  
C    26.19500   12.44300   21.78400  
H    25.10700   12.33700   21.78000  
H    26.56500   12.59100   22.80100  
H    26.18900   13.31500   21.12500  
O    28.34800   11.65300   21.06300  
C    23.80100   17.03500   24.48000  
H    22.99600   17.64800   24.89400  
H    24.16300   16.38900   25.28300  
H    24.57100   17.73800   24.15100  
S    23.40500   15.87500   23.15200  
C    21.96500   15.29100   24.07500  
H    21.12600   15.97200   23.91200  
H    21.62000   14.32800   23.69200  
H    22.16700   15.13100   25.13700  
O    24.42000   14.84100   23.52700  
$end

$rem
JOBTYPE  SP
METHOD  B3LYP
BASIS  6-31+G(D)
SYMMETRY  FALSE
SYM_IGNORE  TRUE
MEM_TOTAL  16000
MEM_STATIC  8000
MAX_SUB_FILE_NUM  16000
BASIS_LIN_DEP_THRESH  6
THRESH  14
SCF_CONVERGENCE  8
GEN_SCFMAN  TRUE
SCF_GUESS  FRAGMO
FD_MAT_VEC_PROD  FALSE
XC_GRID  000075000302
NL_GRID  1
MAX_SCF_CYCLES  200
FRGM_METHOD  STOLL
SCFMI_MODE  1
$end

$development
almo_efield  1
$end

$rem_frgm
SCF_CONVERGENCE  4
$end

--------------------------------------------------------------
 ----------------------------------------------------------------
             Standard Nuclear Orientation (Angstroms)
    I     Atom           X                Y                Z
 ----------------------------------------------------------------
    1      C      25.2390000000    15.8540000000    28.0320000000
    2      C      26.4670000000    16.4450000000    27.3200000000
    3      C      26.3930000000    17.9770000000    27.4250000000
    4      C      26.3050000000    18.4980000000    28.8680000000
    5      C      25.1070000000    17.8600000000    29.5900000000
    6      C      25.1460000000    16.3260000000    29.4920000000
    7      H      27.3000000000    18.4480000000    27.0280000000
    8      H      27.3350000000    16.0220000000    27.8410000000
    9      H      24.3340000000    15.9930000000    27.4280000000
   10      H      25.3050000000    14.7600000000    28.0100000000
   11      H      27.2650000000    18.2870000000    29.3560000000
   12      H      26.0790000000    19.5700000000    28.8020000000
   13      H      25.1560000000    18.2530000000    30.6130000000
   14      H      24.1910000000    18.1750000000    29.0750000000
   15      H      26.1040000000    16.0330000000    29.9380000000
   16      H      24.2870000000    15.8430000000    29.9750000000
   17      H      25.5650000000    18.4460000000    26.8780000000
   18      N      26.5460000000    15.9820000000    25.9360000000
   19      H      26.5320000000    16.5750000000    25.1140000000
   20      C      26.7730000000    14.6970000000    25.4900000000
   21      H      26.7470000000    14.6400000000    24.3870000000
   22      O      26.8650000000    13.7130000000    26.2030000000
   23      C      22.3170000000    20.3040000000    27.4810000000
   24      H      22.4970000000    20.9500000000    28.3440000000
   25      H      23.2670000000    20.1940000000    26.9520000000
   26      H      21.6890000000    20.8490000000    26.7730000000
   27      S      21.3690000000    18.8460000000    27.9720000000
   28      C      20.4130000000    18.6990000000    26.4460000000
   29      H      19.9400000000    19.6650000000    26.2500000000
   30      H      21.0740000000    18.4240000000    25.6200000000
   31      H      19.6080000000    17.9760000000    26.6020000000
   32      O      20.3280000000    19.4370000000    28.8710000000
   33      C      20.4900000000    19.5700000000    22.2270000000
   34      H      21.3580000000    19.0820000000    21.7750000000
   35      H      19.9350000000    18.8670000000    22.8530000000
   36      H      19.7750000000    19.9790000000    21.5090000000
   37      S      20.9640000000    20.8170000000    23.4460000000
   38      C      21.9280000000    21.7790000000    22.2580000000
   39      H      22.0160000000    22.7990000000    22.6400000000
   40      H      22.9220000000    21.3670000000    22.0640000000
   41      H      21.3170000000    21.6860000000    21.3570000000
   42      O      22.0160000000    20.0420000000    24.1770000000
   43      C      30.2210000000    20.8870000000    29.8560000000
   44      H      30.2000000000    21.6650000000    30.6230000000
   45      H      30.7220000000    21.2780000000    28.9660000000
   46      H      29.2570000000    20.4400000000    29.6030000000
   47      S      31.4580000000    19.6480000000    30.3040000000
   48      C      30.5700000000    19.1490000000    31.7960000000
   49      H      30.3460000000    19.9440000000    32.5120000000
   50      H      29.7490000000    18.4950000000    31.4920000000
   51      H      31.3270000000    18.4960000000    32.2370000000
   52      O      32.5820000000    20.5130000000    30.7820000000
   53      C      29.1800000000     9.7080000000    27.0660000000
   54      H      29.8070000000     9.7550000000    27.9590000000
   55      H      28.2030000000     9.2740000000    27.2950000000
   56      H      29.6200000000     8.9880000000    26.3710000000
   57      S      29.0900000000    11.3790000000    26.3820000000
   58      C      28.5810000000    11.1200000000    24.6680000000
   59      H      27.6100000000    10.6180000000    24.6990000000
   60      H      28.6450000000    12.1040000000    24.1970000000
   61      H      29.2680000000    10.4440000000    24.1530000000
   62      O      30.5280000000    11.7680000000    26.2370000000
   63      C      27.8580000000    22.9220000000    27.7110000000
   64      H      28.1880000000    22.5670000000    26.7310000000
   65      H      28.0580000000    22.1410000000    28.4490000000
   66      H      26.7760000000    23.0660000000    27.6630000000
   67      S      28.6260000000    24.4950000000    28.1590000000
   68      C      30.1750000000    24.2630000000    27.2570000000
   69      H      30.8060000000    25.1410000000    27.4130000000
   70      H      30.6770000000    23.4180000000    27.7360000000
   71      H      30.0000000000    24.0370000000    26.2020000000
   72      O      29.0670000000    24.2160000000    29.5620000000
   73      C      24.7820000000    19.5030000000    35.6950000000
   74      H      25.2860000000    20.4690000000    35.7750000000
   75      H      25.2990000000    18.9600000000    34.9000000000
   76      H      23.7340000000    19.7590000000    35.5160000000
   77      S      24.9000000000    18.6770000000    37.2980000000
   78      C      23.5700000000    17.4790000000    37.0500000000
   79      H      23.7600000000    16.8900000000    36.1490000000
   80      H      23.6840000000    16.7640000000    37.8690000000
   81      H      22.5640000000    17.8970000000    36.9710000000
   82      O      24.1410000000    19.6430000000    38.1540000000
   83      C      23.5220000000    14.2650000000    34.4200000000
   84      H      24.4770000000    14.7200000000    34.1420000000
   85      H      22.7000000000    14.9850000000    34.4140000000
   86      H      23.5180000000    13.8410000000    35.4270000000
   87      S      23.1230000000    13.0420000000    33.1500000000
   88      C      22.8260000000    14.2840000000    31.8710000000
   89      H      23.7400000000    14.8350000000    31.6350000000
   90      H      22.4620000000    13.7230000000    31.0070000000
   91      H      22.0360000000    14.8970000000    32.3130000000
   92      O      21.7840000000    12.4410000000    33.4420000000
   93      C      26.6620000000     5.7060000000    24.5280000000
   94      H      27.1960000000     5.4130000000    23.6210000000
   95      H      27.0680000000     5.2670000000    25.4440000000
   96      H      25.5960000000     5.4650000000    24.5550000000
   97      S      27.0930000000     7.4410000000    24.7940000000
   98      C      26.7350000000     8.0640000000    23.1360000000
   99      H      25.6540000000     7.9150000000    23.0700000000
  100      H      26.9920000000     9.1240000000    23.0700000000
  101      H      27.1910000000     7.5330000000    22.2970000000
  102      O      28.5810000000     7.5880000000    24.8790000000
  103      C      31.7560000000    13.3770000000    22.8850000000
  104      H      31.1840000000    12.4910000000    22.5950000000
  105      H      32.0100000000    13.9950000000    22.0200000000
  106      H      32.6140000000    12.9440000000    23.4060000000
  107      S      30.7400000000    14.2260000000    24.1140000000
  108      C      29.5450000000    14.9630000000    22.9760000000
  109      H      28.7290000000    15.3980000000    23.5590000000
  110      H      29.9730000000    15.7560000000    22.3580000000
  111      H      29.1790000000    14.2000000000    22.2850000000
  112      O      31.6130000000    15.3530000000    24.5720000000
  113      C      27.6930000000    22.3970000000    31.7350000000
  114      H      27.3910000000    22.5180000000    30.6920000000
  115      H      27.4890000000    23.2280000000    32.4150000000
  116      H      28.7690000000    22.2930000000    31.8950000000
  117      S      26.8300000000    20.9340000000    32.3530000000
  118      C      25.1550000000    21.6110000000    32.3100000000
  119      H      24.5900000000    20.7000000000    32.5210000000
  120      H      24.9800000000    22.3890000000    33.0570000000
  121      H      24.9200000000    21.8370000000    31.2660000000
  122      O      27.0990000000    20.5940000000    33.7860000000
  123      C      21.6560000000    20.1510000000    32.1930000000
  124      H      22.0110000000    20.9170000000    32.8870000000
  125      H      22.2130000000    20.2080000000    31.2540000000
  126      H      20.6030000000    20.3290000000    31.9610000000
  127      S      21.7230000000    18.4530000000    32.8080000000
  128      C      21.0300000000    18.9710000000    34.3940000000
  129      H      21.6480000000    19.6780000000    34.9540000000
  130      H      20.0660000000    19.4500000000    34.2060000000
  131      H      20.8740000000    18.0770000000    35.0030000000
  132      O      23.1670000000    18.3190000000    33.1820000000
  133      C      31.9270000000    15.8750000000    29.2740000000
  134      H      32.1590000000    16.1020000000    30.3170000000
  135      H      32.0330000000    14.8040000000    29.0830000000
  136      H      32.4590000000    16.4680000000    28.5250000000
  137      S      30.1360000000    16.0050000000    29.0740000000
  138      C      30.1240000000    15.3990000000    27.3720000000
  139      H      31.0420000000    15.6670000000    26.8440000000
  140      H      29.9840000000    14.3150000000    27.4120000000
  141      H      29.3330000000    15.8930000000    26.8010000000
  142      O      29.7800000000    17.4450000000    28.8650000000
  143      C      22.4980000000    14.0490000000    19.3280000000
  144      H      22.4360000000    12.9880000000    19.0710000000
  145      H      22.5170000000    14.0700000000    20.4200000000
  146      H      21.6820000000    14.6260000000    18.8850000000
  147      S      24.0320000000    14.7100000000    18.6370000000
  148      C      24.0580000000    14.0460000000    16.9560000000
  149      H      24.4260000000    14.6820000000    16.1480000000
  150      H      24.5250000000    13.0600000000    17.0280000000
  151      H      23.0260000000    13.8640000000    16.6430000000
  152      O      25.2340000000    14.0920000000    19.2810000000
  153      C      28.3790000000    12.5380000000    34.4590000000
  154      H      28.6660000000    11.4850000000    34.4070000000
  155      H      27.6090000000    12.8260000000    33.7400000000
  156      H      29.2480000000    13.1790000000    34.2880000000
  157      S      27.7750000000    12.9720000000    36.1060000000
  158      C      26.0370000000    12.5700000000    35.8140000000
  159      H      25.4640000000    12.9260000000    36.6730000000
  160      H      25.7410000000    13.0250000000    34.8650000000
  161      H      25.9850000000    11.4790000000    35.7710000000
  162      O      27.6450000000    14.4600000000    36.0090000000
  163      C      25.0430000000    26.5530000000    28.8580000000
  164      H      24.6680000000    27.4900000000    28.4390000000
  165      H      25.6870000000    26.7850000000    29.7100000000
  166      H      25.6070000000    25.9820000000    28.1160000000
  167      S      23.6860000000    25.4890000000    29.3980000000
  168      C      24.6890000000    23.9860000000    29.4080000000
  169      H      24.9280000000    23.8290000000    28.3540000000
  170      H      25.5140000000    24.1160000000    30.1130000000
  171      H      24.0290000000    23.1740000000    29.7260000000
  172      O      22.9360000000    25.2260000000    28.1290000000
  173      C      18.3940000000    13.6900000000    32.9220000000
  174      H      17.5440000000    14.0180000000    32.3180000000
  175      H      18.7530000000    12.8080000000    32.3840000000
  176      H      18.2250000000    13.4920000000    33.9830000000
  177      S      19.5030000000    15.1130000000    32.8240000000
  178      C      18.3970000000    16.3570000000    33.5280000000
  179      H      18.1200000000    16.1360000000    34.5620000000
  180      H      18.8020000000    17.3610000000    33.3760000000
  181      H      17.4480000000    16.2280000000    33.0010000000
  182      O      19.4360000000    15.4110000000    31.3580000000
  183      C      26.3300000000    17.2060000000    21.3720000000
  184      H      27.2240000000    16.8230000000    20.8730000000
  185      H      25.8100000000    16.4110000000    21.9110000000
  186      H      25.6330000000    17.7080000000    20.6960000000
  187      S      26.9990000000    18.4880000000    22.4560000000
  188      C      28.5200000000    18.8710000000    21.5590000000
  189      H      28.3180000000    19.2770000000    20.5640000000
  190      H      29.1390000000    19.5600000000    22.1390000000
  191      H      29.0190000000    17.9040000000    21.4570000000
  192      O      27.5970000000    17.5690000000    23.4740000000
  193      C      23.8410000000    23.0760000000    25.0820000000
  194      H      23.8140000000    23.7000000000    24.1840000000
  195      H      23.0690000000    22.3220000000    25.2530000000
  196      H      23.8160000000    23.6960000000    25.9820000000
  197      S      25.4720000000    22.3240000000    25.2800000000
  198      C      25.4840000000    21.4620000000    23.6920000000
  199      H      26.4260000000    20.9120000000    23.6310000000
  200      H      24.6200000000    20.7950000000    23.6360000000
  201      H      25.5380000000    22.1580000000    22.8510000000
  202      O      25.5390000000    21.3570000000    26.4200000000
  203      C      21.4950000000    15.4610000000    28.4820000000
  204      H      22.5230000000    15.8290000000    28.5400000000
  205      H      20.8700000000    16.1120000000    27.8660000000
  206      H      21.0230000000    15.1500000000    29.4180000000
  207      S      21.6440000000    13.8440000000    27.6890000000
  208      C      19.9020000000    13.4360000000    27.9460000000
  209      H      19.3490000000    13.9580000000    27.1610000000
  210      H      19.8000000000    12.3520000000    27.8510000000
  211      H      19.5470000000    13.6150000000    28.9640000000
  212      O      22.3120000000    12.9130000000    28.6520000000
  213      C      26.3060000000    17.0100000000    33.1140000000
  214      H      25.8060000000    16.9260000000    32.1460000000
  215      H      25.6140000000    17.0710000000    33.9580000000
  216      H      26.8780000000    17.9410000000    33.1350000000
  217      S      27.3310000000    15.5370000000    33.3310000000
  218      C      28.4380000000    15.9140000000    31.9530000000
  219      H      29.1460000000    16.7140000000    32.1870000000
  220      H      29.1310000000    15.0840000000    31.7950000000
  221      H      27.9300000000    16.1290000000    31.0090000000
  222      O      26.3430000000    14.6140000000    32.6890000000
  223      C      29.8970000000    19.9780000000    26.9090000000
  224      H      29.1070000000    19.3090000000    27.2600000000
  225      H      30.8760000000    19.6370000000    27.2540000000
  226      H      29.7710000000    21.0180000000    27.2190000000
  227      S      29.7390000000    19.9950000000    25.1090000000
  228      C      30.9050000000    18.6360000000    24.8680000000
  229      H      31.0640000000    18.5170000000    23.7930000000
  230      H      31.8500000000    18.8260000000    25.3830000000
  231      H      30.3920000000    17.7790000000    25.3120000000
  232      O      30.3760000000    21.2540000000    24.6090000000
  233      C      27.3750000000    12.2420000000    29.4870000000
  234      H      26.9370000000    12.9700000000    30.1740000000
  235      H      28.2530000000    12.7650000000    29.0990000000
  236      H      26.5910000000    12.0140000000    28.7600000000
  237      S      27.9650000000    10.8190000000    30.4320000000
  238      C      26.4380000000    10.8320000000    31.3980000000
  239      H      26.4810000000     9.9790000000    32.0810000000
  240      H      26.4390000000    11.7690000000    31.9600000000
  241      H      25.5580000000    10.8730000000    30.7500000000
  242      O      29.0420000000    11.3800000000    31.3070000000
  243      C      24.1930000000    10.3160000000    27.5370000000
  244      H      23.1800000000     9.9580000000    27.3350000000
  245      H      24.6560000000     9.4240000000    27.9670000000
  246      H      24.0950000000    11.2090000000    28.1600000000
  247      S      24.9280000000    10.8610000000    25.9790000000
  248      C      23.9630000000    12.3800000000    25.8130000000
  249      H      24.1020000000    12.7650000000    24.8000000000
  250      H      22.9060000000    12.1510000000    25.9720000000
  251      H      24.4870000000    13.0590000000    26.4900000000
  252      O      24.3110000000    10.0030000000    24.9180000000
  253      C      26.0880000000    11.1270000000    19.5330000000
  254      H      26.4510000000    12.0490000000    19.0700000000
  255      H      26.2420000000    10.1990000000    18.9770000000
  256      H      25.0040000000    11.2120000000    19.6490000000
  257      S      27.0070000000    10.9880000000    21.0830000000
  258      C      26.1950000000    12.4430000000    21.7840000000
  259      H      25.1070000000    12.3370000000    21.7800000000
  260      H      26.5650000000    12.5910000000    22.8010000000
  261      H      26.1890000000    13.3150000000    21.1250000000
  262      O      28.3480000000    11.6530000000    21.0630000000
  263      C      23.8010000000    17.0350000000    24.4800000000
  264      H      22.9960000000    17.6480000000    24.8940000000
  265      H      24.1630000000    16.3890000000    25.2830000000
  266      H      24.5710000000    17.7380000000    24.1510000000
  267      S      23.4050000000    15.8750000000    23.1520000000
  268      C      21.9650000000    15.2910000000    24.0750000000
  269      H      21.1260000000    15.9720000000    23.9120000000
  270      H      21.6200000000    14.3280000000    23.6920000000
  271      H      22.1670000000    15.1310000000    25.1370000000
  272      O      24.4200000000    14.8410000000    23.5270000000
 ----------------------------------------------------------------
 Nuclear Repulsion Energy =       42841.60408609 hartrees
 There are      560 alpha and      560 beta electrons
 Requested basis set is 6-31+G(d)
 There are 896 shells and 2497 basis functions

 Total QAlloc Memory Limit  16000 MB
 Mega-Array Size      7821 MB
 MEM_STATIC part      8000 MB
 A cutoff of  1.0D-14 yielded 160021 shell pairs
 There are   1382628 function pairs
 Smallest overlap matrix eigenvalue = 5.65E-07
 Linear dependence detected in AO basis
 Tighter screening thresholds may be required for diffuse basis sets
 Use S2THRESH > 14 and THRESH = 14 in case of SCF convergence issues
 Number of orthogonalized atomic orbitals = 2494
 Maximum deviation from orthogonality = 1.420E-10

 Scale SEOQF with 1.000000e-03/1.000000e-03/1.000000e-03

 Standard Electronic Orientation quadrupole field applied
 Nucleus-field energy     =    -0.0000004590 hartrees
Attempting to make child job directory: /local/scratch/users/ymao/r7.00_frame_0026_almo_B3LYP_dp.in20210311133736//Frg1/
Attempting to make child job directory: /local/scratch/users/ymao/r7.00_frame_0026_almo_B3LYP_dp.in20210311133736//Frg2/
Creating input file /local/scratch/users/ymao/r7.00_frame_0026_almo_B3LYP_dp.in20210311133736/Frg1.input
using default PutDataFrgm: nothing
calling putenv with: QCSCRATCH=/local/scratch/users/ymao/r7.00_frame_0026_almo_B3LYP_dp.in20210311133736/ 
Spawning Job For Fragment 0
Done Job For Fragment 0
calling putenv with: QCSCRATCH=/local/scratch/users/ymao 
calling putenv with: QCTHREADS=8 
Creating input file /local/scratch/users/ymao/r7.00_frame_0026_almo_B3LYP_dp.in20210311133736/Frg2.input
using default PutDataFrgm: nothing
calling putenv with: QCSCRATCH=/local/scratch/users/ymao/r7.00_frame_0026_almo_B3LYP_dp.in20210311133736/ 
Spawning Job For Fragment 1
Done Job For Fragment 1
calling putenv with: QCSCRATCH=/local/scratch/users/ymao 
calling putenv with: QCTHREADS=8 
 Time for running child jobs:  CPU 0.71 s  wall 21661.75 s

 -----------------------------------------------------------------------
  General SCF calculation program by
  Eric Jon Sundstrom, Paul Horn, Yuezhi Mao, Dmitri Zuev, Alec White,
  David Stuck, Shaama M.S., Shane Yost, Joonho Lee, David Small,
  Daniel Levine, Susi Lehtola, Hugh Burton, Evgeny Epifanovsky,
  Bang C. Huynh
 -----------------------------------------------------------------------
Performing Restricted Closed Shell SCFMI
Doing General SCFMI
 Exchange:     0.2000 Hartree-Fock + 0.0800 Slater + 0.7200 B88
 Correlation:  0.1900 VWN1RPA + 0.8100 LYP
 Using Euler-Maclaurin-Lebedev (75,302) quadrature formula
performing fock build before subrot guess so that all methods have access
Printing subrot_rss_gen Method Specification:
Occupied Subspace Method is 0
Virtual Subspace Method is 0
Energy prior to optimization (guess energy) = -14234.278207461437
Begin Timing: Total SCF Calculation
begin iterations for algorithm: DIIS         
the SCF tolerance is set to 1.00e-08
    1  -14234.2782074614      4.19e-05     00000 
    2  -14234.2824448191      4.62e-05     00000 
    3  -14234.2873214233      2.05e-05     00000 
    4  -14234.2881168203      8.64e-06     00000 
    5  -14234.2883004158      2.81e-06     00000 
    6  -14234.2883181375      2.07e-06     00000 
    7  -14234.2883274164      1.29e-06     00000 
    8  -14234.2883309899      6.87e-07     00000 
    9  -14234.2883319471      3.69e-07     00000 
   10  -14234.2883321353      2.76e-07     00000 
   11  -14234.2883322564      1.76e-07     00000 
   12  -14234.2883323170      9.48e-08     00000 
   13  -14234.2883323344      5.43e-08     00000 
   14  -14234.2883323405      3.02e-08     00000 
   15  -14234.2883323418      2.42e-08     00000 
   16  -14234.2883323430      1.16e-08     00000 
   17  -14234.2883323432      6.01e-09     00000 Convergence criterion met
write pseudocanon occs and virts to disk
write pseudocanon orbital energies to disk
Timing for Total SCF: 43186.00s (wall), 344705.73s (cpu)
SCFMI Energy  -14234.2883323432
<S^2>            0.00000
 Total energy in the final basis set =   -14234.2883323432
    ==================================================
        The end of Object-Oriented SCFman: SCFMI      
    ==================================================
 
 --------------------------------------------------------------
 
                    Orbital Energies (a.u.)
 --------------------------------------------------------------
 
 Alpha MOs
 -- Occupied --
-89.0535 -89.0370 -89.0338 -89.0247 -89.0182 -89.0142 -89.0116 -89.0096
-89.0049 -89.0023 -89.0009 -88.9897 -88.9890 -88.9865 -88.9827 -88.9798
-88.9793 -88.9777 -88.9769 -88.9745 -88.9719 -88.9708 -88.9704 -88.9700
-88.9570 -19.1621 -19.1511 -19.1506 -19.1406 -19.1275 -19.1246 -19.1244
-19.1200 -19.1182 -19.1158 -19.1148 -19.1147 -19.1100 -19.1050 -19.1041
-19.1035 -19.1017 -19.0973 -19.0952 -19.0945 -19.0936 -19.0875 -19.0859
-19.0826 -19.0764 -19.0717 -14.3520 -10.2770 -10.2688 -10.2663 -10.2632
-10.2553 -10.2462 -10.2394 -10.2393 -10.2392 -10.2388 -10.2352 -10.2343
-10.2307 -10.2306 -10.2291 -10.2258 -10.2230 -10.2212 -10.2193 -10.2187
-10.2186 -10.2173 -10.2166 -10.2145 -10.2123 -10.2108 -10.2102 -10.2099
-10.2049 -10.1992 -10.1968 -10.1967 -10.1958 -10.1952 -10.1939 -10.1935
-10.1925 -10.1920 -10.1900 -10.1899 -10.1898 -10.1896 -10.1880 -10.1879
-10.1869 -10.1862 -10.1858 -10.1843 -10.1835 -10.1818 -10.1818 -10.1817
-10.1813 -10.1779 -10.1773 -10.1768 -10.1710  -8.1000  -8.0827  -8.0801
 -8.0713  -8.0643  -8.0609  -8.0572  -8.0550  -8.0513  -8.0483  -8.0473
 -8.0358  -8.0350  -8.0324  -8.0292  -8.0262  -8.0252  -8.0235  -8.0229
 -8.0214  -8.0180  -8.0164  -8.0159  -8.0158  -8.0028  -6.0642  -6.0630
 -6.0576  -6.0468  -6.0456  -6.0446  -6.0435  -6.0407  -6.0370  -6.0355
 -6.0343  -6.0289  -6.0288  -6.0276  -6.0251  -6.0239  -6.0214  -6.0213
 -6.0205  -6.0193  -6.0185  -6.0180  -6.0156  -6.0147  -6.0142  -6.0127
 -6.0127  -6.0115  -6.0114  -6.0104  -6.0089  -6.0056  -6.0049  -6.0003
 -5.9991  -5.9991  -5.9980  -5.9968  -5.9957  -5.9938  -5.9929  -5.9926
 -5.9920  -5.9907  -5.9897  -5.9897  -5.9891  -5.9882  -5.9878  -5.9872
 -5.9866  -5.9864  -5.9859  -5.9855  -5.9844  -5.9836  -5.9826  -5.9821
 -5.9812  -5.9809  -5.9809  -5.9805  -5.9803  -5.9799  -5.9794  -5.9791
 -5.9790  -5.9789  -5.9756  -5.9737  -5.9734  -5.9730  -5.9673  -5.9662
 -5.9598  -1.0775  -1.0578  -1.0577  -1.0510  -1.0484  -1.0377  -1.0327
 -1.0322  -1.0320  -1.0284  -1.0263  -1.0234  -1.0178  -1.0140  -1.0122
 -1.0106  -1.0102  -1.0091  -1.0035  -1.0028  -0.9994  -0.9986  -0.9956
 -0.9948  -0.9910  -0.9822  -0.9185  -0.8535  -0.8401  -0.8299  -0.8271
 -0.8265  -0.8180  -0.8153  -0.8116  -0.8070  -0.8063  -0.8023  -0.8013
 -0.7953  -0.7916  -0.7896  -0.7888  -0.7876  -0.7824  -0.7810  -0.7791
 -0.7785  -0.7748  -0.7728  -0.7723  -0.7720  -0.7708  -0.7630  -0.7549
 -0.7532  -0.7527  -0.7499  -0.7460  -0.7435  -0.7415  -0.7368  -0.7336
 -0.7314  -0.7298  -0.7276  -0.7257  -0.7196  -0.7114  -0.7087  -0.7073
 -0.7064  -0.7051  -0.7034  -0.7017  -0.7008  -0.6991  -0.6976  -0.6969
 -0.6929  -0.6649  -0.6510  -0.6506  -0.6381  -0.6353  -0.6309  -0.6278
 -0.6265  -0.6227  -0.6174  -0.6144  -0.6142  -0.6136  -0.6051  -0.6019
 -0.5990  -0.5980  -0.5937  -0.5923  -0.5918  -0.5899  -0.5863  -0.5847
 -0.5843  -0.5818  -0.5816  -0.5718  -0.5677  -0.5608  -0.5314  -0.5244
 -0.5214  -0.5185  -0.5171  -0.5156  -0.5088  -0.5069  -0.5045  -0.5030
 -0.5004  -0.4987  -0.4964  -0.4939  -0.4904  -0.4898  -0.4887  -0.4878
 -0.4872  -0.4859  -0.4824  -0.4813  -0.4800  -0.4795  -0.4781  -0.4775
 -0.4769  -0.4766  -0.4764  -0.4759  -0.4754  -0.4736  -0.4731  -0.4729
 -0.4714  -0.4708  -0.4689  -0.4686  -0.4685  -0.4667  -0.4659  -0.4654
 -0.4643  -0.4629  -0.4626  -0.4624  -0.4613  -0.4605  -0.4594  -0.4588
 -0.4582  -0.4573  -0.4566  -0.4556  -0.4551  -0.4541  -0.4537  -0.4532
 -0.4523  -0.4517  -0.4510  -0.4502  -0.4494  -0.4492  -0.4483  -0.4473
 -0.4468  -0.4457  -0.4455  -0.4455  -0.4442  -0.4439  -0.4436  -0.4434
 -0.4428  -0.4415  -0.4406  -0.4395  -0.4392  -0.4388  -0.4386  -0.4385
 -0.4380  -0.4375  -0.4371  -0.4358  -0.4349  -0.4340  -0.4322  -0.4320
 -0.4305  -0.4301  -0.4295  -0.4293  -0.4286  -0.4274  -0.4269  -0.4251
 -0.4246  -0.4237  -0.4227  -0.4209  -0.4195  -0.4180  -0.4175  -0.4169
 -0.4162  -0.4159  -0.4156  -0.4139  -0.4132  -0.4125  -0.4124  -0.4112
 -0.4110  -0.4105  -0.4086  -0.4082  -0.4075  -0.4062  -0.4055  -0.4028
 -0.4025  -0.4017  -0.4012  -0.4000  -0.3997  -0.3991  -0.3981  -0.3980
 -0.3976  -0.3969  -0.3964  -0.3952  -0.3944  -0.3939  -0.3937  -0.3925
 -0.3914  -0.3906  -0.3878  -0.3875  -0.3871  -0.3851  -0.3847  -0.3841
 -0.3835  -0.3823  -0.3821  -0.3800  -0.3778  -0.3764  -0.3747  -0.3745
 -0.3735  -0.3732  -0.3720  -0.3713  -0.3710  -0.3708  -0.3699  -0.3677
 -0.3666  -0.3659  -0.3649  -0.3645  -0.3616  -0.3594  -0.3591  -0.3581
 -0.3567  -0.3542  -0.3525  -0.3523  -0.3494  -0.3479  -0.3472  -0.3440
 -0.3438  -0.3428  -0.3403  -0.3379  -0.3378  -0.3356  -0.3352  -0.3347
 -0.3243  -0.3221  -0.3165  -0.3153  -0.3119  -0.3103  -0.3008  -0.2989
 -0.2957  -0.2898  -0.2840  -0.2825  -0.2814  -0.2790  -0.2777  -0.2768
 -0.2731  -0.2690  -0.2664  -0.2652  -0.2640  -0.2631  -0.2624  -0.2603
 -0.2588  -0.2576  -0.2564  -0.2559  -0.2550  -0.2536  -0.2519  -0.2499
 -0.2493  -0.2487  -0.2468  -0.2467  -0.2453  -0.2448  -0.2425  -0.2397
 -0.2380  -0.2351  -0.2304  -0.2297  -0.2294  -0.2250  -0.2249  -0.2242
 -0.2224  -0.2192  -0.2127  -0.2123  -0.2102  -0.2089  -0.2082  -0.1935
 -- Virtual --
 -0.0591  -0.0511  -0.0467  -0.0442  -0.0384  -0.0342  -0.0288  -0.0280
 -0.0231  -0.0225  -0.0201  -0.0183  -0.0175  -0.0158  -0.0155  -0.0136
 -0.0127  -0.0115  -0.0102  -0.0083  -0.0082  -0.0079  -0.0057  -0.0038
 -0.0020   0.0003   0.0008   0.0025   0.0035   0.0040   0.0045   0.0050
  0.0063   0.0074   0.0081   0.0090   0.0105   0.0108   0.0123   0.0126
  0.0136   0.0139   0.0152   0.0160   0.0172   0.0179   0.0186   0.0190
  0.0198   0.0199   0.0214   0.0222   0.0235   0.0239   0.0246   0.0254
  0.0266   0.0273   0.0275   0.0282   0.0289   0.0296   0.0305   0.0310
  0.0319   0.0323   0.0334   0.0340   0.0343   0.0351   0.0355   0.0356
  0.0373   0.0375   0.0388   0.0391   0.0400   0.0413   0.0420   0.0430
  0.0431   0.0435   0.0438   0.0444   0.0452   0.0453   0.0465   0.0466
  0.0476   0.0483   0.0494   0.0500   0.0505   0.0509   0.0514   0.0519
  0.0531   0.0537   0.0549   0.0556   0.0559   0.0565   0.0576   0.0580
  0.0585   0.0589   0.0599   0.0603   0.0612   0.0625   0.0630   0.0632
  0.0642   0.0653   0.0666   0.0672   0.0676   0.0679   0.0681   0.0694
  0.0696   0.0705   0.0712   0.0719   0.0724   0.0728   0.0744   0.0749
  0.0755   0.0765   0.0768   0.0774   0.0777   0.0787   0.0796   0.0800
  0.0804   0.0807   0.0813   0.0819   0.0826   0.0838   0.0840   0.0850
  0.0858   0.0863   0.0878   0.0884   0.0891   0.0894   0.0896   0.0905
  0.0914   0.0925   0.0929   0.0932   0.0941   0.0944   0.0947   0.0948
  0.0957   0.0964   0.0971   0.0977   0.0980   0.0994   0.1004   0.1011
  0.1018   0.1029   0.1031   0.1037   0.1044   0.1047   0.1056   0.1063
  0.1071   0.1080   0.1090   0.1091   0.1102   0.1106   0.1116   0.1116
  0.1130   0.1137   0.1143   0.1152   0.1152   0.1164   0.1172   0.1174
  0.1182   0.1191   0.1196   0.1205   0.1212   0.1220   0.1224   0.1226
  0.1231   0.1234   0.1246   0.1250   0.1264   0.1267   0.1273   0.1277
  0.1283   0.1284   0.1297   0.1304   0.1312   0.1319   0.1321   0.1324
  0.1334   0.1336   0.1348   0.1350   0.1356   0.1371   0.1373   0.1379
  0.1383   0.1385   0.1391   0.1398   0.1404   0.1408   0.1410   0.1426
  0.1429   0.1436   0.1441   0.1457   0.1462   0.1471   0.1479   0.1482
  0.1490   0.1494   0.1500   0.1515   0.1520   0.1526   0.1537   0.1544
  0.1548   0.1551   0.1560   0.1564   0.1573   0.1579   0.1584   0.1597
  0.1601   0.1605   0.1615   0.1619   0.1626   0.1636   0.1640   0.1647
  0.1653   0.1659   0.1662   0.1669   0.1683   0.1686   0.1692   0.1697
  0.1702   0.1711   0.1721   0.1729   0.1735   0.1739   0.1747   0.1752
  0.1753   0.1764   0.1768   0.1776   0.1782   0.1794   0.1797   0.1802
  0.1807   0.1823   0.1831   0.1834   0.1836   0.1850   0.1858   0.1867
  0.1875   0.1878   0.1882   0.1892   0.1898   0.1905   0.1906   0.1920
  0.1923   0.1932   0.1934   0.1942   0.1945   0.1956   0.1965   0.1972
  0.1979   0.1987   0.1991   0.1993   0.2002   0.2007   0.2012   0.2020
  0.2029   0.2032   0.2039   0.2046   0.2050   0.2055   0.2064   0.2076
  0.2079   0.2092   0.2098   0.2101   0.2109   0.2119   0.2120   0.2123
  0.2131   0.2139   0.2150   0.2157   0.2163   0.2171   0.2178   0.2184
  0.2189   0.2191   0.2197   0.2207   0.2213   0.2216   0.2226   0.2235
  0.2238   0.2244   0.2254   0.2262   0.2267   0.2273   0.2274   0.2286
  0.2290   0.2303   0.2303   0.2311   0.2323   0.2325   0.2330   0.2333
  0.2342   0.2351   0.2363   0.2365   0.2373   0.2387   0.2394   0.2400
  0.2405   0.2409   0.2419   0.2426   0.2433   0.2435   0.2445   0.2449
  0.2460   0.2476   0.2482   0.2485   0.2494   0.2504   0.2513   0.2520
  0.2527   0.2536   0.2539   0.2546   0.2549   0.2556   0.2560   0.2570
  0.2574   0.2585   0.2588   0.2597   0.2602   0.2619   0.2627   0.2639
  0.2642   0.2648   0.2654   0.2664   0.2670   0.2681   0.2689   0.2697
  0.2699   0.2711   0.2716   0.2730   0.2733   0.2737   0.2745   0.2755
  0.2758   0.2768   0.2776   0.2780   0.2791   0.2801   0.2810   0.2815
  0.2826   0.2832   0.2844   0.2853   0.2861   0.2868   0.2875   0.2879
  0.2888   0.2896   0.2901   0.2906   0.2917   0.2922   0.2935   0.2953
  0.2967   0.2972   0.2974   0.2989   0.2992   0.3000   0.3023   0.3027
  0.3034   0.3041   0.3043   0.3054   0.3056   0.3061   0.3075   0.3086
  0.3102   0.3105   0.3111   0.3119   0.3132   0.3153   0.3157   0.3164
  0.3171   0.3175   0.3183   0.3198   0.3208   0.3213   0.3218   0.3237
  0.3243   0.3252   0.3256   0.3261   0.3267   0.3292   0.3296   0.3304
  0.3312   0.3325   0.3336   0.3342   0.3354   0.3371   0.3378   0.3391
  0.3392   0.3409   0.3418   0.3427   0.3430   0.3445   0.3460   0.3465
  0.3476   0.3486   0.3493   0.3505   0.3505   0.3510   0.3520   0.3523
  0.3535   0.3546   0.3548   0.3569   0.3580   0.3584   0.3596   0.3605
  0.3612   0.3614   0.3620   0.3639   0.3641   0.3658   0.3662   0.3666
  0.3677   0.3680   0.3693   0.3707   0.3714   0.3736   0.3741   0.3748
  0.3750   0.3766   0.3776   0.3785   0.3786   0.3801   0.3808   0.3816
  0.3824   0.3826   0.3832   0.3845   0.3847   0.3861   0.3870   0.3886
  0.3897   0.3906   0.3909   0.3926   0.3936   0.3947   0.3953   0.3961
  0.3970   0.3983   0.3987   0.3996   0.4008   0.4010   0.4018   0.4029
  0.4043   0.4045   0.4052   0.4054   0.4079   0.4102   0.4108   0.4113
  0.4115   0.4128   0.4139   0.4141   0.4156   0.4161   0.4169   0.4195
  0.4204   0.4205   0.4211   0.4214   0.4226   0.4235   0.4243   0.4254
  0.4263   0.4268   0.4286   0.4295   0.4306   0.4313   0.4330   0.4340
  0.4349   0.4358   0.4372   0.4380   0.4399   0.4407   0.4427   0.4438
  0.4447   0.4451   0.4465   0.4470   0.4487   0.4501   0.4517   0.4532
  0.4541   0.4550   0.4558   0.4579   0.4592   0.4592   0.4607   0.4616
  0.4627   0.4637   0.4656   0.4673   0.4693   0.4701   0.4719   0.4725
  0.4745   0.4757   0.4761   0.4790   0.4814   0.4820   0.4825   0.4849
  0.4859   0.4867   0.4886   0.4905   0.4920   0.4931   0.4940   0.4958
  0.4962   0.4977   0.4987   0.4992   0.5020   0.5025   0.5038   0.5067
  0.5085   0.5098   0.5121   0.5131   0.5155   0.5164   0.5176   0.5188
  0.5208   0.5223   0.5248   0.5257   0.5270   0.5294   0.5311   0.5325
  0.5341   0.5363   0.5368   0.5388   0.5410   0.5444   0.5454   0.5478
  0.5483   0.5498   0.5515   0.5533   0.5547   0.5558   0.5563   0.5584
  0.5611   0.5626   0.5634   0.5653   0.5685   0.5692   0.5705   0.5712
  0.5744   0.5750   0.5771   0.5808   0.5823   0.5837   0.5840   0.5857
  0.5866   0.5876   0.5886   0.5916   0.5926   0.5939   0.5963   0.5973
  0.5981   0.5991   0.6004   0.6024   0.6043   0.6050   0.6064   0.6091
  0.6100   0.6118   0.6135   0.6147   0.6159   0.6178   0.6194   0.6201
  0.6212   0.6221   0.6239   0.6245   0.6250   0.6263   0.6270   0.6276
  0.6306   0.6319   0.6328   0.6343   0.6348   0.6354   0.6362   0.6375
  0.6389   0.6410   0.6433   0.6442   0.6451   0.6468   0.6476   0.6487
  0.6500   0.6509   0.6515   0.6525   0.6534   0.6538   0.6552   0.6579
  0.6582   0.6591   0.6607   0.6626   0.6629   0.6647   0.6654   0.6664
  0.6669   0.6677   0.6700   0.6718   0.6728   0.6739   0.6750   0.6761
  0.6771   0.6784   0.6802   0.6807   0.6818   0.6832   0.6836   0.6855
  0.6868   0.6879   0.6882   0.6906   0.6906   0.6923   0.6939   0.6954
  0.6957   0.6984   0.6997   0.7008   0.7009   0.7028   0.7041   0.7054
  0.7081   0.7087   0.7094   0.7107   0.7115   0.7121   0.7149   0.7158
  0.7177   0.7181   0.7192   0.7211   0.7213   0.7236   0.7256   0.7261
  0.7265   0.7279   0.7306   0.7322   0.7327   0.7331   0.7342   0.7361
  0.7385   0.7397   0.7407   0.7419   0.7450   0.7459   0.7466   0.7489
  0.7498   0.7513   0.7527   0.7541   0.7561   0.7577   0.7627   0.7645
  0.7659   0.7669   0.7679   0.7680   0.7713   0.7728   0.7733   0.7762
  0.7769   0.7788   0.7811   0.7830   0.7843   0.7863   0.7873   0.7892
  0.7918   0.7920   0.7948   0.7960   0.7985   0.7992   0.8009   0.8018
  0.8042   0.8050   0.8087   0.8090   0.8105   0.8118   0.8136   0.8153
  0.8168   0.8196   0.8219   0.8226   0.8234   0.8242   0.8250   0.8265
  0.8298   0.8304   0.8308   0.8312   0.8341   0.8343   0.8366   0.8377
  0.8390   0.8402   0.8422   0.8429   0.8432   0.8460   0.8478   0.8510
  0.8511   0.8528   0.8545   0.8553   0.8578   0.8593   0.8607   0.8625
  0.8644   0.8665   0.8670   0.8678   0.8697   0.8714   0.8722   0.8727
  0.8740   0.8760   0.8764   0.8777   0.8803   0.8827   0.8833   0.8843
  0.8852   0.8868   0.8877   0.8899   0.8906   0.8918   0.8927   0.8943
  0.8951   0.8969   0.8989   0.9015   0.9022   0.9032   0.9043   0.9053
  0.9057   0.9075   0.9089   0.9095   0.9099   0.9110   0.9125   0.9142
  0.9168   0.9177   0.9202   0.9207   0.9219   0.9233   0.9266   0.9271
  0.9285   0.9295   0.9299   0.9318   0.9324   0.9327   0.9348   0.9353
  0.9375   0.9378   0.9395   0.9405   0.9412   0.9426   0.9444   0.9447
  0.9466   0.9484   0.9495   0.9519   0.9528   0.9540   0.9548   0.9554
  0.9565   0.9569   0.9577   0.9597   0.9605   0.9610   0.9625   0.9640
  0.9646   0.9651   0.9671   0.9691   0.9700   0.9707   0.9713   0.9731
  0.9748   0.9756   0.9766   0.9770   0.9792   0.9804   0.9818   0.9828
  0.9844   0.9849   0.9860   0.9867   0.9874   0.9883   0.9898   0.9916
  0.9935   0.9940   0.9945   0.9962   0.9968   0.9984   0.9994   1.0011
  1.0026   1.0032   1.0042   1.0054   1.0060   1.0074   1.0081   1.0101
  1.0106   1.0121   1.0125   1.0150   1.0155   1.0176   1.0180   1.0190
  1.0202   1.0208   1.0227   1.0244   1.0245   1.0267   1.0282   1.0299
  1.0310   1.0319   1.0324   1.0339   1.0350   1.0371   1.0390   1.0398
  1.0412   1.0415   1.0423   1.0446   1.0457   1.0464   1.0474   1.0490
  1.0494   1.0512   1.0517   1.0528   1.0540   1.0552   1.0573   1.0604
  1.0613   1.0623   1.0626   1.0661   1.0670   1.0680   1.0697   1.0710
  1.0716   1.0728   1.0741   1.0747   1.0753   1.0770   1.0797   1.0821
  1.0824   1.0841   1.0861   1.0874   1.0890   1.0901   1.0910   1.0917
  1.0943   1.0945   1.0966   1.0980   1.0987   1.0993   1.1011   1.1021
  1.1051   1.1066   1.1075   1.1095   1.1106   1.1113   1.1127   1.1146
  1.1160   1.1171   1.1194   1.1210   1.1217   1.1232   1.1249   1.1259
  1.1266   1.1285   1.1308   1.1319   1.1325   1.1346   1.1354   1.1370
  1.1377   1.1388   1.1404   1.1417   1.1430   1.1441   1.1453   1.1474
  1.1493   1.1509   1.1527   1.1536   1.1545   1.1553   1.1572   1.1585
  1.1596   1.1607   1.1616   1.1632   1.1651   1.1656   1.1667   1.1698
  1.1705   1.1715   1.1739   1.1746   1.1770   1.1773   1.1794   1.1803
  1.1810   1.1826   1.1843   1.1869   1.1875   1.1895   1.1906   1.1928
  1.1936   1.1961   1.1975   1.1997   1.2007   1.2029   1.2049   1.2065
  1.2070   1.2094   1.2099   1.2111   1.2134   1.2144   1.2177   1.2204
  1.2229   1.2254   1.2281   1.2290   1.2297   1.2314   1.2342   1.2360
  1.2378   1.2401   1.2422   1.2442   1.2460   1.2482   1.2504   1.2505
  1.2537   1.2580   1.2589   1.2617   1.2633   1.2670   1.2694   1.2720
  1.2729   1.2754   1.2786   1.2806   1.2817   1.2868   1.2884   1.2889
  1.2930   1.2943   1.2966   1.2991   1.3002   1.3010   1.3051   1.3066
  1.3082   1.3096   1.3134   1.3171   1.3195   1.3203   1.3222   1.3234
  1.3263   1.3269   1.3311   1.3335   1.3337   1.3362   1.3374   1.3386
  1.3427   1.3437   1.3472   1.3490   1.3500   1.3514   1.3550   1.3552
  1.3603   1.3606   1.3630   1.3664   1.3682   1.3703   1.3721   1.3736
  1.3773   1.3779   1.3789   1.3797   1.3816   1.3830   1.3840   1.3860
  1.3887   1.3915   1.3923   1.3948   1.3961   1.3979   1.4004   1.4023
  1.4026   1.4036   1.4054   1.4064   1.4077   1.4092   1.4118   1.4121
  1.4148   1.4163   1.4168   1.4171   1.4193   1.4210   1.4232   1.4249
  1.4262   1.4279   1.4296   1.4301   1.4329   1.4334   1.4349   1.4372
  1.4378   1.4406   1.4420   1.4430   1.4439   1.4463   1.4487   1.4496
  1.4505   1.4521   1.4539   1.4570   1.4577   1.4599   1.4619   1.4629
  1.4637   1.4652   1.4673   1.4696   1.4705   1.4721   1.4744   1.4776
  1.4782   1.4811   1.4828   1.4836   1.4862   1.4897   1.4921   1.4941
  1.4987   1.5005   1.5023   1.5042   1.5063   1.5072   1.5102   1.5113
  1.5168   1.5176   1.5187   1.5224   1.5248   1.5267   1.5287   1.5311
  1.5344   1.5374   1.5380   1.5398   1.5421   1.5453   1.5484   1.5496
  1.5529   1.5564   1.5582   1.5628   1.5652   1.5684   1.5757   1.5786
  1.5800   1.5808   1.5846   1.5888   1.5901   1.5961   1.6004   1.6010
  1.6064   1.6095   1.6138   1.6174   1.6209   1.6240   1.6285   1.6301
  1.6333   1.6395   1.6427   1.6464   1.6493   1.6506   1.6514   1.6538
  1.6549   1.6574   1.6589   1.6628   1.6641   1.6695   1.6721   1.6745
  1.6771   1.6794   1.6810   1.6819   1.6836   1.6859   1.6862   1.6875
  1.6883   1.6895   1.6904   1.6921   1.6945   1.6970   1.6972   1.6980
  1.6999   1.7010   1.7024   1.7031   1.7057   1.7069   1.7076   1.7093
  1.7109   1.7116   1.7126   1.7130   1.7141   1.7153   1.7186   1.7197
  1.7211   1.7216   1.7241   1.7254   1.7270   1.7274   1.7296   1.7313
  1.7322   1.7349   1.7358   1.7377   1.7395   1.7404   1.7415   1.7428
  1.7441   1.7466   1.7478   1.7492   1.7505   1.7531   1.7538   1.7550
  1.7570   1.7581   1.7608   1.7621   1.7639   1.7649   1.7680   1.7686
  1.7700   1.7722   1.7723   1.7728   1.7754   1.7772   1.7793   1.7805
  1.7827   1.7838   1.7860   1.7871   1.7893   1.7932   1.7938   1.7960
  1.7981   1.7997   1.8019   1.8035   1.8075   1.8089   1.8104   1.8121
  1.8127   1.8152   1.8171   1.8183   1.8216   1.8242   1.8276   1.8296
  1.8349   1.8371   1.8376   1.8393   1.8424   1.8463   1.8474   1.8486
  1.8525   1.8549   1.8604   1.8610   1.8625   1.8655   1.8681   1.8708
  1.8740   1.8750   1.8766   1.8785   1.8795   1.8813   1.8847   1.8869
  1.8878   1.8915   1.8922   1.8942   1.8955   1.8977   1.8997   1.9007
  1.9020   1.9032   1.9042   1.9057   1.9063   1.9074   1.9081   1.9095
  1.9097   1.9107   1.9128   1.9130   1.9148   1.9163   1.9175   1.9199
  1.9206   1.9224   1.9244   1.9245   1.9289   1.9303   1.9323   1.9358
  1.9384   1.9390   1.9400   1.9407   1.9417   1.9445   1.9455   1.9475
  1.9509   1.9523   1.9555   1.9564   1.9587   1.9598   1.9630   1.9642
  1.9699   1.9715   1.9749   1.9772   1.9815   1.9835   1.9877   1.9915
  1.9965   2.0022   2.0055   2.0114   2.0141   2.0218   2.0289   2.0304
  2.0363   2.0372   2.0420   2.0486   2.0519   2.0547   2.0570   2.0605
  2.0638   2.0644   2.0659   2.0679   2.0684   2.0726   2.0746   2.0759
  2.0789   2.0810   2.0816   2.0830   2.0878   2.0884   2.0901   2.0917
  2.0936   2.0945   2.0947   2.0961   2.0970   2.0981   2.0987   2.0998
  2.1002   2.1044   2.1064   2.1070   2.1080   2.1098   2.1112   2.1125
  2.1135   2.1142   2.1230   2.1245   2.1250   2.1267   2.1288   2.1291
  2.1339   2.1367   2.1390   2.1426   2.1448   2.1466   2.1512   2.1556
  2.1593   2.1653   2.1661   2.1671   2.1692   2.1738   2.1761   2.1795
  2.1879   2.1913   2.1920   2.1934   2.1953   2.1965   2.1985   2.2039
  2.2041   2.2050   2.2065   2.2074   2.2121   2.2131   2.2150   2.2197
  2.2200   2.2239   2.2254   2.2256   2.2261   2.2303   2.2305   2.2317
  2.2344   2.2351   2.2355   2.2373   2.2390   2.2402   2.2415   2.2416
  2.2424   2.2454   2.2467   2.2488   2.2499   2.2509   2.2525   2.2537
  2.2541   2.2552   2.2567   2.2573   2.2577   2.2579   2.2592   2.2596
  2.2607   2.2629   2.2643   2.2652   2.2665   2.2680   2.2685   2.2695
  2.2712   2.2718   2.2734   2.2744   2.2752   2.2761   2.2776   2.2783
  2.2799   2.2803   2.2824   2.2835   2.2840   2.2868   2.2878   2.2888
  2.2907   2.2915   2.2919   2.2928   2.2943   2.2956   2.2960   2.2969
  2.2978   2.2987   2.2997   2.3010   2.3017   2.3021   2.3030   2.3038
  2.3052   2.3071   2.3073   2.3083   2.3094   2.3114   2.3118   2.3128
  2.3146   2.3169   2.3175   2.3201   2.3205   2.3233   2.3246   2.3265
  2.3282   2.3287   2.3298   2.3314   2.3330   2.3335   2.3347   2.3373
  2.3395   2.3421   2.3437   2.3473   2.3484   2.3513   2.3521   2.3528
  2.3551   2.3567   2.3584   2.3609   2.3619   2.3649   2.3653   2.3686
  2.3693   2.3711   2.3723   2.3756   2.3763   2.3800   2.3818   2.3823
  2.3858   2.3863   2.3886   2.3930   2.3977   2.4004   2.4049   2.4083
  2.4101   2.4111   2.4224   2.4280   2.4293   2.4382   2.4489   2.4563
  2.4830   2.5256   2.5511   2.5634   2.6005   2.6924   2.7406   2.7611
  2.7752   2.7977   2.8003   2.8195   2.8251   2.8330   2.8430   2.8444
  2.8509   2.8518   2.8547   2.8559   2.8569   2.8615   2.8632   2.8647
  2.8656   2.8683   2.8720   2.8733   2.8755   2.8790   2.8836   2.8883
  2.8906   2.8959   2.8964   2.8984   2.9017   2.9124   2.9749   3.1084
  3.2902   3.9336   3.9355   3.9405   3.9632   3.9717   3.9761   3.9786
  3.9818   3.9824   3.9862   3.9893   3.9916   3.9928   3.9940   3.9989
  4.0002   4.0062   4.0085   4.0168   4.0180   4.0214   4.0247   4.0328
  4.0376   4.0459   4.1990   4.2011   4.2192   4.2262   4.2280   4.2363
  4.2364   4.2424   4.2492   4.2516   4.2543   4.2562   4.2664   4.2675
  4.2713   4.2746   4.2769   4.2793   4.2829   4.2863   4.2872   4.2937
  4.2940   4.2962   4.2973   4.2994   4.3027   4.3053   4.3093   4.3099
  4.3136   4.3162   4.3173   4.3195   4.3274   4.3285   4.3338   4.3348
  4.3380   4.3400   4.3429   4.3479   4.3523   4.3532   4.3570   4.3608
  4.3625   4.3678   4.3696   4.3719   4.3742   4.3782   4.3833   4.3864
  4.3920   4.3968   4.3977   4.4050   4.4053   4.4126   4.4170   4.4235
  4.4252   4.4293   4.4367   4.4371   4.4480   4.4628   4.4765   4.4887
  4.5041   4.5246   4.5470   4.5523   4.5579   4.5787   4.6024   4.6284
  4.6419   4.6591   4.7297   4.7662   4.7963   4.9996
 --------------------------------------------------------------
 
          Ground-State Mulliken Net Atomic Charges

     Atom                 Charge (a.u.)
  ----------------------------------------
      1 C                    -0.249401
      2 C                    -0.464854
      3 C                    -0.293976
      4 C                    -0.422713
      5 C                    -0.475523
      6 C                    -0.423645
      7 H                     0.193162
      8 H                     0.215179
      9 H                     0.158041
     10 H                     0.239963
     11 H                     0.251862
     12 H                     0.206070
     13 H                     0.213488
     14 H                     0.178998
     15 H                     0.201107
     16 H                     0.188959
     17 H                     0.220908
     18 N                    -0.429930
     19 H                     0.466235
     20 C                     0.396006
     21 H                     0.171981
     22 O                    -0.541919
     23 C                    -1.009413
     24 H                     0.251665
     25 H                     0.296447
     26 H                     0.235493
     27 S                     1.133763
     28 C                    -1.022625
     29 H                     0.252984
     30 H                     0.249186
     31 H                     0.245728
     32 O                    -0.718011
     33 C                    -0.897323
     34 H                     0.268144
     35 H                     0.246492
     36 H                     0.240537
     37 S                     1.097948
     38 C                    -0.883366
     39 H                     0.256130
     40 H                     0.273862
     41 H                     0.231827
     42 O                    -0.793560
     43 C                    -0.865300
     44 H                     0.269469
     45 H                     0.221853
     46 H                     0.254617
     47 S                     1.060381
     48 C                    -0.936934
     49 H                     0.262889
     50 H                     0.251329
     51 H                     0.244134
     52 O                    -0.692800
     53 C                    -1.065212
     54 H                     0.258768
     55 H                     0.235193
     56 H                     0.314996
     57 S                     1.124239
     58 C                    -1.048332
     59 H                     0.224408
     60 H                     0.254610
     61 H                     0.292751
     62 O                    -0.728016
     63 C                    -1.029782
     64 H                     0.258687
     65 H                     0.276982
     66 H                     0.231886
     67 S                     1.156220
     68 C                    -0.934453
     69 H                     0.250792
     70 H                     0.275332
     71 H                     0.264305
     72 O                    -0.699685
     73 C                    -0.821427
     74 H                     0.273406
     75 H                     0.265487
     76 H                     0.214121
     77 S                     1.020317
     78 C                    -0.858273
     79 H                     0.241201
     80 H                     0.239523
     81 H                     0.246196
     82 O                    -0.761476
     83 C                    -0.720478
     84 H                     0.291851
     85 H                     0.228080
     86 H                     0.253018
     87 S                     0.505376
     88 C                    -0.637775
     89 H                     0.260432
     90 H                     0.295705
     91 H                     0.223186
     92 O                    -0.650678
     93 C                    -0.906656
     94 H                     0.240319
     95 H                     0.247447
     96 H                     0.244494
     97 S                     0.971588
     98 C                    -0.853016
     99 H                     0.247076
    100 H                     0.253590
    101 H                     0.239933
    102 O                    -0.656302
    103 C                    -0.879919
    104 H                     0.267698
    105 H                     0.235288
    106 H                     0.264744
    107 S                     0.894547
    108 C                    -0.892899
    109 H                     0.282056
    110 H                     0.235790
    111 H                     0.274144
    112 O                    -0.692384
    113 C                    -0.934996
    114 H                     0.245192
    115 H                     0.250347
    116 H                     0.264931
    117 S                     0.966393
    118 C                    -0.838826
    119 H                     0.289231
    120 H                     0.258572
    121 H                     0.211907
    122 O                    -0.648337
    123 C                    -0.802179
    124 H                     0.257203
    125 H                     0.259852
    126 H                     0.263807
    127 S                     0.567404
    128 C                    -0.855382
    129 H                     0.275826
    130 H                     0.240078
    131 H                     0.256544
    132 O                    -0.550965
    133 C                    -0.699046
    134 H                     0.251714
    135 H                     0.263536
    136 H                     0.279362
    137 S                     0.472699
    138 C                    -0.871977
    139 H                     0.321300
    140 H                     0.277353
    141 H                     0.272104
    142 O                    -0.633637
    143 C                    -0.835004
    144 H                     0.257789
    145 H                     0.272006
    146 H                     0.243716
    147 S                     0.896573
    148 C                    -0.889406
    149 H                     0.260284
    150 H                     0.273748
    151 H                     0.236715
    152 O                    -0.716206
    153 C                    -0.773498
    154 H                     0.249827
    155 H                     0.276437
    156 H                     0.261092
    157 S                     0.885499
    158 C                    -0.859318
    159 H                     0.249608
    160 H                     0.278132
    161 H                     0.226143
    162 O                    -0.702554
    163 C                    -0.787962
    164 H                     0.256467
    165 H                     0.249512
    166 H                     0.243330
    167 S                     0.926910
    168 C                    -0.943013
    169 H                     0.250778
    170 H                     0.247263
    171 H                     0.242517
    172 O                    -0.724801
    173 C                    -0.863146
    174 H                     0.241500
    175 H                     0.288648
    176 H                     0.232078
    177 S                     0.984742
    178 C                    -0.833842
    179 H                     0.241157
    180 H                     0.246386
    181 H                     0.245221
    182 O                    -0.716575
    183 C                    -0.438496
    184 H                     0.255949
    185 H                     0.298038
    186 H                     0.223343
    187 S                     0.356135
    188 C                    -0.829760
    189 H                     0.240015
    190 H                     0.290608
    191 H                     0.264892
    192 O                    -0.610840
    193 C                    -0.853187
    194 H                     0.231325
    195 H                     0.271611
    196 H                     0.297434
    197 S                     0.657262
    198 C                    -0.861572
    199 H                     0.263375
    200 H                     0.273951
    201 H                     0.241017
    202 O                    -0.525683
    203 C                    -0.739910
    204 H                     0.262885
    205 H                     0.220619
    206 H                     0.306685
    207 S                     0.680905
    208 C                    -0.807369
    209 H                     0.220965
    210 H                     0.258573
    211 H                     0.288603
    212 O                    -0.619774
    213 C                    -0.647001
    214 H                     0.279823
    215 H                     0.251195
    216 H                     0.259945
    217 S                     0.091194
    218 C                    -0.554276
    219 H                     0.231753
    220 H                     0.269270
    221 H                     0.258197
    222 O                    -0.666773
    223 C                    -0.893849
    224 H                     0.285286
    225 H                     0.268616
    226 H                     0.230596
    227 S                     0.786175
    228 C                    -0.890598
    229 H                     0.243879
    230 H                     0.258573
    231 H                     0.277304
    232 O                    -0.687210
    233 C                    -0.897705
    234 H                     0.284141
    235 H                     0.265849
    236 H                     0.260852
    237 S                     0.798257
    238 C                    -0.829375
    239 H                     0.235381
    240 H                     0.294616
    241 H                     0.250213
    242 O                    -0.631730
    243 C                    -1.106859
    244 H                     0.269163
    245 H                     0.244125
    246 H                     0.279017
    247 S                     1.424095
    248 C                    -1.155326
    249 H                     0.290974
    250 H                     0.239071
    251 H                     0.270458
    252 O                    -0.721607
    253 C                    -1.058500
    254 H                     0.293681
    255 H                     0.226397
    256 H                     0.239946
    257 S                     1.264819
    258 C                    -1.028511
    259 H                     0.240853
    260 H                     0.263629
    261 H                     0.318162
    262 O                    -0.645797
    263 C                    -0.875301
    264 H                     0.259404
    265 H                     0.310083
    266 H                     0.244769
    267 S                     0.868841
    268 C                    -0.949177
    269 H                     0.236197
    270 H                     0.267630
    271 H                     0.273769
    272 O                    -0.677525
  ----------------------------------------
  Sum of atomic charges =     0.000000

 -----------------------------------------------------------------
                    Cartesian Multipole Moments
 -----------------------------------------------------------------
    Charge (ESU x 10^10)
                -0.0000
    Dipole Moment (Debye)
         X     -28.6199      Y       5.0878      Z     -30.5600
       Tot      42.1769
    Quadrupole Moments (Debye-Ang)
        XX   -2402.2221     XY    -339.2986     YY    -704.6514
        XZ   -1523.2615     YZ    -430.3722     ZZ   -2528.7146
    Octopole Moments (Debye-Ang^2)
       XXX -129859.8267    XXY  -36311.9977    XYY  -26353.7852
       YYY  -38954.4072    XXZ  -84286.2744    XYZ  -23355.6004
       YYZ  -30720.9777    XZZ  -84924.2316    YZZ  -42059.2640
       ZZZ -143505.5755
    Hexadecapole Moments (Debye-Ang^3)
      XXXX ************   XXXY ************   XXYY ************
      XYYY ************   YYYY ************   XXXZ ************
      XXYZ ************   XYYZ ************   YYYZ ************
      XXZZ ************   XYZZ ************   YYZZ ************
      XZZZ ************   YZZZ ************   ZZZZ ************
 -----------------------------------------------------------------
Archival summary:
[...]
    2   0.0276891   0.0041047   0.0100046   0.0249944  -0.0189428   0.0129579
    3   0.0369210  -0.0078844  -0.0106680  -0.0014963  -0.0195017   0.0067072
          103         104         105         106         107         108
    1   0.0034666  -0.0169875   0.0105194   0.0293333  -0.0273664  -0.0078129
    2  -0.0055689  -0.0251362   0.0198992  -0.0029166  -0.0379200   0.0055465
    3  -0.0052336  -0.0194282  -0.0220402   0.0144619   0.0351688  -0.0052193
          109         110         111         112         113         114
    1  -0.0310564   0.0184525  -0.0188784   0.0647656   0.0060059   0.0027486
    2   0.0198771   0.0260415  -0.0230610   0.0819585   0.0071402   0.0138716
    3   0.0139568  -0.0107082  -0.0198687   0.0335773   0.0010649  -0.0287204
          115         116         117         118         119         120
    1  -0.0126732   0.0296805   0.0033840  -0.0060186  -0.0250629  -0.0042652
    2   0.0326956  -0.0063606  -0.0434782  -0.0028538  -0.0221663   0.0232023
    3   0.0112665  -0.0077315  -0.0461764   0.0006319   0.0135618   0.0200008
          121         122         123         124         125         126
    1  -0.0088750   0.0195867  -0.0019206   0.0143988   0.0130689  -0.0296887
    2   0.0140999  -0.0292000   0.0077166   0.0158444   0.0017148   0.0134515
    3  -0.0273341   0.1041704  -0.0057606   0.0233529  -0.0269899  -0.0159409
          127         128         129         130         131         132
    1  -0.0281041  -0.0028048   0.0239266  -0.0320729  -0.0046640   0.1062702
    2  -0.0315919   0.0026997   0.0168048   0.0144044  -0.0230458  -0.0104571
    3  -0.0262166   0.0076543   0.0093693   0.0014284   0.0210116   0.0274249
          133         134         135         136         137         138
    1   0.0062512   0.0153404   0.0230456   0.0158311  -0.0270094   0.0035140
    2   0.0004774   0.0087716  -0.0319682   0.0198143  -0.0339687  -0.0011316
    3  -0.0004485   0.0270041  -0.0028529  -0.0174101   0.0329401  -0.0105150
          139         140         141         142         143         144
    1   0.0283536   0.0019398  -0.0302000  -0.0298309  -0.0050227  -0.0088526
    2   0.0037771  -0.0293008   0.0168126   0.1051014  -0.0068232  -0.0323502
    3  -0.0202174  -0.0114359  -0.0095915  -0.0167240   0.0024196  -0.0082520
          145         146         147         148         149         150
    1   0.0034668  -0.0282047  -0.0029633  -0.0011147   0.0252387   0.0225370
    2   0.0087091   0.0142794   0.0658954  -0.0083838   0.0221425  -0.0242775
    3   0.0307749  -0.0077296  -0.0002456  -0.0077940  -0.0132316  -0.0021163
          151         152         153         154         155         156
    1  -0.0333489   0.0906614   0.0006823   0.0096515  -0.0182852   0.0274173
    2  -0.0099209  -0.0416963  -0.0005901  -0.0298007   0.0042588   0.0141741
    3  -0.0106958   0.0467292  -0.0096230  -0.0104681  -0.0261498  -0.0063561
          157         158         159         160         161         162
    1   0.0212769  -0.0053581  -0.0163767  -0.0074292  -0.0134014  -0.0086576
    2  -0.0263396  -0.0014810   0.0129354   0.0141153  -0.0344631   0.1103063
    3   0.0382877  -0.0038057   0.0223740  -0.0227276  -0.0043543  -0.0058947
          163         164         165         166         167         168
    1   0.0068601  -0.0132534   0.0236843   0.0181701  -0.0206238   0.0035043
    2   0.0033275   0.0241405   0.0085658  -0.0085815   0.0120752  -0.0050121
    3  -0.0032760  -0.0142636   0.0236584  -0.0253090   0.0460909  -0.0016299
          169         170         171         172         173         174
    1   0.0107348   0.0310750  -0.0166741  -0.0579616  -0.0057280  -0.0332300
    2  -0.0081071  -0.0040744  -0.0239775  -0.0188767  -0.0056951   0.0076504
    3  -0.0266755   0.0150795   0.0075553  -0.0922281  -0.0013294  -0.0104159
          175         176         177         178         179         180
    1   0.0257751  -0.0138531   0.0507063  -0.0083228  -0.0002225   0.0092624
    2  -0.0221649  -0.0156546  -0.0076524   0.0027110  -0.0009487   0.0255216
    3  -0.0073018   0.0289027   0.0291671   0.0005354   0.0360214  -0.0046254
          181         182         183         184         185         186
    1  -0.0264916  -0.0039882  -0.0011018   0.0144457  -0.0039850  -0.0195390
    2   0.0066016   0.0228352  -0.0069226  -0.0231656  -0.0228372   0.0049367
    3  -0.0235403  -0.1071259  -0.0022840  -0.0177324   0.0260850  -0.0291093
          187         188         189         190         191         192
    1  -0.0338130   0.0077949  -0.0020628   0.0154550   0.0183314   0.0395039
    2   0.0366918  -0.0016137   0.0145789   0.0191236  -0.0257355  -0.0730418
    3   0.0131625  -0.0035387  -0.0300975   0.0180483   0.0023796   0.0816057
          193         194         195         196         197         198
    1  -0.0073889  -0.0047849  -0.0241096  -0.0149835   0.0432121   0.0020136
    2   0.0014060   0.0164599  -0.0230632   0.0289515   0.0493679  -0.0102448
    3   0.0080080  -0.0236905  -0.0051735   0.0217430  -0.0066224  -0.0041722
          199         200         201         202         203         204
    1   0.0228864  -0.0219818  -0.0024798   0.0111750  -0.0021732   0.0265457
    2  -0.0228410  -0.0248227   0.0240247  -0.0709993   0.0037293   0.0207889
    3   0.0034048  -0.0011922  -0.0220765   0.0852593   0.0102077   0.0139491
          205         206         207         208         209         210
    1  -0.0200164  -0.0109350   0.0088742  -0.0074391  -0.0286896  -0.0017698
    2   0.0216306   0.0165962   0.0057931  -0.0030800   0.0124887  -0.0317010
    3  -0.0111685   0.0395220  -0.0539749   0.0035869  -0.0180335  -0.0105076
          211         212         213         214         215         216
    1  -0.0078667   0.0470673  -0.0038424  -0.0195581  -0.0269436   0.0184777
    2   0.0173418  -0.0698624   0.0107371  -0.0052790   0.0000435   0.0311293
    3   0.0303105   0.0695563  -0.0021822  -0.0249689   0.0150073   0.0014187
          217         218         219         220         221         222
    1   0.0279715   0.0049938   0.0127770   0.0107453  -0.0210633  -0.0719052
    2  -0.0006456   0.0022965   0.0303833  -0.0318020   0.0073020  -0.0640119
    3   0.0505457  -0.0072146   0.0093515  -0.0078408  -0.0273662  -0.0471356
          223         224         225         226         227         228
    1  -0.0005519  -0.0225549   0.0243996  -0.0094956  -0.0539133   0.0035337
    2  -0.0005597  -0.0217647  -0.0145103   0.0232853  -0.0202871  -0.0067208
    3   0.0076760   0.0230134   0.0091615   0.0084831  -0.0138761  -0.0006079
          229         230         231         232         233         234
    1   0.0064365   0.0274957  -0.0065831   0.0443558  -0.0006866  -0.0112495
    2  -0.0123389   0.0052329  -0.0345399   0.0916009   0.0102155   0.0230718
    3  -0.0267906   0.0113275   0.0040545  -0.0379447   0.0027627   0.0297461
          235         236         237         238         239         240
    1   0.0241798  -0.0137047   0.0037720  -0.0045164  -0.0085858   0.0003149
    2   0.0102675  -0.0093701  -0.0469296   0.0038703  -0.0238424   0.0265681
    3  -0.0167828  -0.0213701  -0.0307924   0.0085822   0.0212903   0.0213365
          241         242         243         244         245         246
    1  -0.0284962   0.0821347  -0.0103174  -0.0341649   0.0231500  -0.0096300
    2  -0.0071571   0.0387382  -0.0026415  -0.0052756  -0.0203960   0.0184461
    3  -0.0134597   0.0640255   0.0067739  -0.0118986   0.0157830   0.0317630
          247         248         249         250         251         252
    1   0.0508337  -0.0080302   0.0041829  -0.0301323  -0.0076556  -0.0463186
    2   0.0071942   0.0066641   0.0135759  -0.0042557   0.0327633  -0.0637121
    3   0.0020639  -0.0051108  -0.0345450   0.0088754   0.0216715  -0.0800129
          253         254         255         256         257         258
    1  -0.0001950   0.0080695   0.0110977  -0.0293391  -0.0134548  -0.0073284
    2   0.0049035   0.0239301  -0.0213193   0.0065783  -0.0440414   0.0119994
    3  -0.0091280  -0.0207378  -0.0258175   0.0120984   0.0296865   0.0017378
          259         260         261         262         263         264
    1  -0.0355921   0.0088482   0.0232220   0.0983321   0.0081278  -0.0245153
    2  -0.0095933   0.0145199   0.0271776   0.0490418   0.0084830   0.0221740
    3   0.0170982   0.0224299  -0.0197256   0.0019145   0.0091999   0.0033249
          265         266         267         268         269         270
    1   0.0232390   0.0345972  -0.0072023  -0.0066853  -0.0264587  -0.0046246
    2  -0.0157209   0.0170533   0.0208542  -0.0035954   0.0233746  -0.0302241
    3   0.0162914  -0.0028067  -0.0426934   0.0045801   0.0013101  -0.0135290
          271         272
    1   0.0115010   0.0804645
    2  -0.0017437  -0.0720325
    3   0.0272722   0.0277480
  --- DONE ESP SUMMARY ---
Archival summary:
1\1\n0090.mhg0\SP\ProcedureUnspecified\6-31+G*\252550h22\ymao\FriMar1209:19:332021FriMar1209:19:332021\0\\#,ProcedureUnspecified,6-31+G*,\\0,1\S\O,1,1.498\C,1,1.80671,2,100.919\H,3,1.0924,1,111.559,2,79.0694,0\H,3,1.09351,1,110.193,2,-36.1199,0\H,3,1.09373,1,107.387,2,-158.329,0\C,1,1.80682,2,108.674,3,99.1159,0\H,7,1.09234,1,107.534,2,82.8439,0\H,7,1.09305,1,98.4695,2,-162.447,0\H,7,1.09347,1,111.557,2,-45.3784,0\Gh,5,2.25616,3,115.196,1,-45.5701,0\Gh,11,1.09718,5,120.249,3,-176.195,0\Gh,12,1.46153,11,106.545,5,38.735,0\Gh,13,1.01367,12,125.579,11,-125.781,0\Gh,13,1.37901,12,127.615,11,47.8351,0\Gh,15,1.10478,13,111.537,12,178.155,0\Gh,15,1.21864,13,125.142,12,4.7741,0\Gh,12,1.53738,11,112.944,5,-85.2919,0\Gh,18,1.0964,12,111.317,11,57.6839,0\Gh,18,1.09761,12,115.345,11,177.268,0\Gh,18,1.5367,12,113.875,11,-59.4779,0\Gh,21,1.09739,18,107.595,12,68.0593,0\Gh,21,1.09755,18,106.647,12,-170.139,0\Gh,21,1.53738,18,110.177,12,-55.7096,0\Gh,24,1.09699,21,104.743,18,177.44,0\Gh,24,1.09704,21,108.121,18,-63.1484,0\Gh,12,1.5376,11,105.293,5,156.799,0\Gh,27,1.09621,12,109.039,11,-56.0746,0\Gh,27,1.09689,12,110.808,11,-164.615,0\Gh,27,1.53722,12,111.722,11,64.7407,0\Gh,30,1.0966,27,104.56,12,-56.237,0\Gh,30,1.09748,27,109.282,12,-177.213,0\H,19,2.01504,18,152.093,12,-99.1363,0\C,33,1.0931,19,150.767,18,-154.262,0\H,34,1.09251,33,114.088,19,87.4077,0\H,34,1.09259,33,110.804,19,-150.309,0\S,34,1.807,33,105.214,19,-27.4792,0\O,37,1.49695,34,107.663,33,157.571,0\C,37,1.8068,34,93.9775,33,-91.8268,0\H,39,1.09286,37,111.371,34,-52.2567,0\H,39,1.09305,37,103.454,34,66.4848,0\H,39,1.09319,37,107.873,34,-174.16,0\H,35,2.00599,34,108.41,33,90.8866,0\C,43,1.09361,35,116.438,34,-76.5784,0\H,44,1.0923,43,111.231,35,-1.45728,0\H,44,1.09271,43,108.995,35,-130.473,0\S,44,1.80721,43,97.6598,35,116.227,0\O,47,1.49669,44,101.36,43,70.9578,0\C,47,1.80655,44,93.305,43,177.359,0\H,49,1.09268,47,99.0825,44,-171.454,0\H,49,1.09278,47,107.749,44,78.4437,0\H,49,1.0931,47,116.156,44,-55.9361,0\H,51,2.00464,49,131.395,47,131.994,0\C,53,1.09363,51,140.395,49,-172.585,0\H,54,1.09275,53,100.137,51,118.384,0\H,54,1.09335,53,109.98,51,4.17931,0\S,54,1.80734,53,112.704,51,-124.906,0\O,57,1.49674,54,101.883,53,170.649,0\C,57,1.80761,54,94.9224,53,75.0934,0\H,59,1.09274,57,107.648,54,64.7409,0\H,59,1.09288,57,113.272,54,-55.5668,0\H,59,1.09312,57,108.165,54,-172.262,0\H,46,2.01498,44,132.739,43,136.863,0\C,63,1.09279,46,129.532,44,-37.7236,0\H,64,1.09256,63,114.991,46,-23.5732,0\H,64,1.09297,63,99.4999,46,-149.765,0\S,64,1.8075,63,110.061,46,96.6832,0\O,67,1.49715,64,115.169,63,55.2522,0\C,67,1.80715,64,97.538,63,166.844,0\H,69,1.09255,67,99.3436,64,171.146,0\H,69,1.09267,67,113.511,64,-69.4953,0\H,69,1.09373,67,107.414,64,62.9425,0\H,32,2.01764,30,142.576,27,131.778,0\C,73,1.09302,32,131.01,30,-169.078,0\H,74,1.09257,73,111.512,32,39.1531,0\H,74,1.09327,73,114.135,32,-88.3437,0\S,74,1.80738,73,111.211,32,156.184,0\O,77,1.49646,74,105.488,73,175.99,0\C,77,1.80771,74,93.9289,73,64.6148,0\H,79,1.09263,77,112.59,74,165.543,0\H,79,1.09276,77,106.014,74,51.3302,0\H,79,1.09377,77,107.193,74,-68.9387,0\H,29,2.13147,27,113.828,12,-160.532,0\C,83,1.09342,29,142.848,27,-142.837,0\H,84,1.09265,83,111.541,29,-74.8722,0\H,84,1.09344,83,117.139,29,151.356,0\S,84,1.80714,83,104.295,29,43.155,0\O,87,1.49678,84,108.121,83,69.5903,0\C,87,1.80751,84,93.4467,83,172.809,0\H,89,1.09288,87,114.112,84,-48.2528,0\H,89,1.09292,87,107.546,84,-160.982,0\H,89,1.09294,87,106.123,84,79.7524,0\H,62,2.13422,59,118.922,57,136.293,0\C,93,1.09278,62,146.175,59,-179.087,0\H,94,1.09251,93,105.925,62,165.783,0\H,94,1.09356,93,116.784,62,-78.6307,0\S,94,1.80715,93,112.787,62,47.8471,0\O,97,1.49732,94,100.319,93,179.085,0\C,97,1.8071,94,97.6558,93,-81.6525,0\H,99,1.09225,97,115.727,94,-66.4279,0\H,99,1.09308,97,110.024,94,56.1166,0\H,99,1.09315,97,104.717,94,167.679,0\H,96,2.1619,94,163.43,93,43.9927,0\C,103,1.09333,96,134.65,94,-10.5808,0\H,104,1.09274,103,107.657,96,-169.412,0\H,104,1.09291,103,108.919,96,72.3238,0\S,104,1.80665,103,114.723,96,-48.8657,0\O,107,1.49765,104,100.153,103,39.6165,0\C,107,1.80719,104,90.8669,103,-62.552,0\H,109,1.09285,107,105.13,104,-75.9771,0\H,109,1.09289,107,115.493,104,44.8073,0\H,109,1.09326,107,108.807,104,169.159,0\H,29,2.18794,27,128.848,12,20.0358,0\C,113,1.09232,29,148.61,27,-122.46,0\H,114,1.09325,113,107.292,29,-20.4529,0\H,114,1.09332,113,111.597,29,94.9913,0\S,114,1.80721,113,103.486,29,-146.484,0\O,117,1.49666,114,96.3574,113,-29.2347,0\C,117,1.80737,114,90.3848,113,71.7799,0\H,119,1.09228,117,110.944,114,-162.437,0\H,119,1.09282,117,113.348,114,-43.7405,0\H,119,1.09282,117,109.521,114,82.4154,0\O,14,2.1936,13,149.842,12,102.379,0\S,123,1.49616,14,126.369,13,-176.781,0\C,124,1.80686,123,97.5579,14,178.389,0\H,125,1.09283,124,110.302,123,-74.6648,0\H,125,1.09293,124,104.071,123,43.7649,0\H,125,1.09346,124,112.02,123,161.543,0\C,124,1.80725,123,96.9123,14,-81.0693,0\H,129,1.09222,124,113.364,123,45.364,0\H,129,1.09306,124,106.332,123,165.886,0\H,129,1.09313,124,102.686,123,-74.555,0\H,115,2.19621,114,165.399,113,-82.439,0\C,133,1.09308,115,150.216,114,105.103,0\H,134,1.0932,133,112.752,115,-105.481,0\H,134,1.0933,133,110.392,115,134.984,0\S,134,1.80672,133,109.801,115,16.0639,0\O,137,1.49705,134,99.8684,133,171.001,0\C,137,1.80708,134,96.531,133,67.4749,0\H,139,1.0921,137,106.088,134,28.0133,0\H,139,1.0929,137,120.419,134,-89.0199,0\H,139,1.09292,137,110.411,134,144.975,0\H,72,2.22554,69,150.535,67,-138.595,0\C,143,1.09365,72,113.931,69,83.3752,0\H,144,1.0921,143,107.816,72,115.144,0\H,144,1.09295,143,110.872,72,-15.843,0\S,144,1.80696,143,106.511,72,-134.155,0\O,147,1.49734,144,97.8524,143,-76.2909,0\C,147,1.80697,144,94.2772,143,179.858,0\H,149,1.09277,147,111.209,144,160.965,0\H,149,1.09292,147,109.545,144,-78.9714,0\H,149,1.09302,147,106.425,144,39.4807,0\H,145,2.11536,144,123.938,143,-103.439,0\C,153,1.0926,145,153.939,144,-32.2474,0\H,154,1.09298,153,107.761,145,79.3942,0\H,154,1.09331,153,107.597,145,-163.741,0\S,154,1.80689,153,108.486,145,-42.2309,0\O,157,1.49691,154,101.265,153,108.527,0\C,157,1.80744,154,97.3995,153,-148.611,0\H,159,1.09242,157,108.699,154,-179.656,0\H,159,1.09304,157,111.778,154,54.4712,0\H,159,1.09338,157,105.905,154,-64.9158,0\H,82,2.2346,79,95.5151,77,-78.5092,0\C,163,1.09327,82,138.563,79,-69.6193,0\H,164,1.09222,163,113.891,82,11.4062,0\H,164,1.09308,163,111.615,82,135.827,0\S,164,1.80763,163,107.938,82,-108.19,0\O,167,1.49681,164,97.3025,163,55.6367,0\C,167,1.80715,164,96.9338,163,-47.5162,0\H,169,1.09216,167,107.519,164,36.4035,0\H,169,1.09265,167,111.26,164,-89.1802,0\H,169,1.09329,167,105.51,164,151.058,0\H,16,2.27782,15,108.982,13,78.9427,0\C,173,1.09315,16,135.314,15,117.22,0\H,174,1.09252,173,111.417,16,32.2601,0\H,174,1.09268,173,107.772,16,148.489,0\S,174,1.80727,173,108.665,16,-88.5565,0\O,177,1.49734,174,105.734,173,-82.8051,0\C,177,1.80652,174,97.767,173,170.714,0\H,179,1.09301,177,113.789,174,46.0048,0\H,179,1.0932,177,107.658,174,174.361,0\H,179,1.09375,177,105.483,174,-76.7724,0\O,133,2.3638,115,72.0192,114,-131.196,0\S,183,1.49723,133,111.861,115,148.335,0\C,184,1.80711,183,99.0012,133,-75.8989,0\H,185,1.09272,184,110.89,183,-174.506,0\H,185,1.09275,184,100.995,183,72.8638,0\H,185,1.09356,184,112.244,183,-45.0269,0\C,184,1.80723,183,102.808,133,-171.768,0\H,189,1.0926,184,101.448,183,137.754,0\H,189,1.09273,184,108.061,183,-101.648,0\H,189,1.09335,184,113.64,183,20.6119,0\H,170,2.37793,169,136.259,167,-128.123,0\C,193,1.09262,170,140.056,169,-6.81554,0\H,194,1.09359,193,110.342,170,47.5066,0\H,194,1.09361,193,105.864,170,173.18,0\S,194,1.80695,193,106.283,170,-68.3495,0\O,197,1.49675,194,107.029,193,39.824,0\C,197,1.80722,194,89.8849,193,-65.0157,0\H,199,1.09261,197,109.07,194,44.0708,0\H,199,1.09314,197,107.464,194,155.162,0\H,199,1.09324,197,114.685,194,-74.1485,0\H,192,2.3836,189,128.392,184,-53.178,0\C,203,1.09294,192,116.775,189,-106.596,0\H,204,1.09251,203,111.81,192,-129.824,0\H,204,1.09298,203,112.846,192,-13.5113,0\S,204,1.80691,203,109.325,192,111.686,0\O,207,1.49639,204,111.159,203,60.0472,0\C,207,1.80689,204,96.2135,203,-57.7195,0\H,209,1.09258,207,109.478,204,76.231,0\H,209,1.09317,207,99.5825,204,-174.819,0\H,209,1.09385,207,110.466,204,-58.4719,0\H,28,2.42341,27,133.848,12,-91.9284,0\C,213,1.09268,28,170.626,27,-47.2145,0\H,214,1.09257,213,107.126,28,90.2633,0\H,214,1.09315,213,120.249,28,-35.2912,0\S,214,1.80725,213,102.083,28,-156.075,0\O,217,1.49752,214,101.332,213,-172.914,0\C,217,1.80682,214,96.6335,213,79.5653,0\H,219,1.09313,217,114.395,214,-174.488,0\H,219,1.09322,217,108.445,214,73.155,0\H,219,1.09324,217,106.348,214,-41.4342,0\O,86,2.51998,84,154.342,83,105.846,0\S,223,1.49748,86,134.82,84,-141.371,0\C,224,1.80677,223,100.508,86,-108.231,0\H,225,1.09247,224,106.88,223,-170.14,0\H,225,1.09311,224,102.181,223,-45.477,0\H,225,1.09373,224,114.015,223,64.9262,0\C,224,1.80732,223,102.532,86,150.66,0\H,229,1.09304,224,112.607,223,165.279,0\H,229,1.09315,224,105.203,223,54.7094,0\H,229,1.09323,224,110.565,223,-65.5343,0\H,16,2.59748,15,130.689,13,-165.123,0\C,233,1.09229,16,134.357,15,154.353,0\H,234,1.09302,233,117.073,16,24.5738,0\H,234,1.09316,233,110.713,16,-81.504,0\S,234,1.8077,233,108.539,16,155.722,0\O,237,1.49697,234,92.8667,233,-67.1899,0\C,237,1.80731,234,92.4222,233,178.424,0\H,239,1.09272,237,107.422,234,-167.738,0\H,239,1.0935,237,114.776,234,-51.3389,0\H,239,1.09372,237,105.018,234,67.053,0\O,235,2.21723,234,141.57,233,-158.868,0\S,243,1.49715,235,148.017,234,77.4765,0\C,244,1.80758,243,103.701,235,-148.254,0\H,245,1.09215,244,118.617,243,-101.817,0\H,245,1.09338,244,106.032,243,29.971,0\H,245,1.09367,244,108.283,243,143.099,0\C,244,1.80764,243,111.466,235,-37.5234,0\H,249,1.09237,244,111.122,243,49.1425,0\H,249,1.09318,244,106.591,243,173.991,0\H,249,1.09344,244,108.246,243,-65.3601,0\H,233,2.55194,16,76.0789,15,-57.2046,0\C,253,1.09279,233,111.093,16,126.434,0\H,254,1.09278,253,108.486,233,106.989,0\H,254,1.09353,253,118.528,233,-14.8073,0\S,254,1.80664,253,105.267,233,-134.111,0\O,257,1.49673,254,102.476,253,-65.6121,0\C,257,1.80782,254,103.914,253,-172.86,0\H,259,1.09215,257,107.348,254,160.238,0\H,259,1.09317,257,112.848,254,40.7584,0\H,259,1.09331,257,113.683,254,-76.5636,0\O,261,2.29469,259,129.269,257,-93.9879,0\S,263,1.49766,261,123.138,259,-5.59272,0\C,264,1.807,263,102.42,261,115.991,0\H,265,1.09262,264,117.021,263,61.0522,0\H,265,1.09271,264,110.076,263,-64.1945,0\H,265,1.09321,264,101.789,263,177.832,0\C,264,1.80741,263,109.846,261,-140.043,0\H,269,1.09254,264,105.252,263,-56.4535,0\H,269,1.09324,264,116.136,263,173.795,0\H,269,1.0939,264,99.9911,263,61.9368,0\\\@

 Total job time:  56.64s(wall), 194.39s(cpu) 
 Fri Mar 12 09:19:33 2021

        *************************************************************
        *                                                           *
        *  Thank you very much for using Q-Chem.  Have a nice day.  *
        *                                                           *
        *************************************************************


