                  Welcome to Q-Chem
     A Quantum Leap Into The Future Of Chemistry


 Q-Chem 6.0 (devel), Q-Chem, Inc., Pleasanton, CA (2022)

 E. Epifanovsky,  A. T. B. Gilbert,  Xintian Feng,  Joonho Lee,  Yuezhi Mao,  
 N. Mardirossian,  P. Pokhilko,  A. White,  M. Wormit,  M. P. Coons,  
 A. L. Dempwolff,  Zhengting Gan,  D. Hait,  P. R. Horn,  L. D. Jacobson,  
 I. Kaliman,  J. Kussmann,  A. W. Lange,  Ka Un Lao,  D. S. Levine,  Jie Liu,  
 S. C. McKenzie,  A. F. Morrison,  K. Nanda,  F. Plasser,  D. R. Rehn,  
 M. L. Vidal,  Zhi-Qiang You,  Ying Zhu,  B. Alam,  B. Albrecht,  
 A. Aldossary,  E. Alguire,  J. H. Andersen,  V. Athavale,  D. Barton,  
 K. Begam,  A. Behn,  N. Bellonzi,  Y. A. Bernard,  E. J. Berquist,  
 H. Burton,  A. Carreras,  K. Carter-Fenk,  Romit Chakraborty,  
 Chandrima Chakravarty,  Junhan Chen,  A. D. Chien,  K. D. Closser,  
 V. Cofer-Shabica,  L. Cunha,  S. Dasgupta,  Jia Deng,  M. de Wergifosse,  
 M. Diedenhofen,  Hainam Do,  S. Ehlert,  Po-Tung Fang,  S. Fatehi,  
 Qingguo Feng,  T. Friedhoff,  B. Ganoe,  J. Gayvert,  Qinghui Ge,  
 G. Gidofalvi,  M. Goldey,  J. Gomes,  C. Gonzalez-Espinoza,  S. Gulania,  
 A. Gunina,  J. A. Gyamfi,  M. W. D. Hanson-Heine,  P. H. P. Harbach,  
 A. W. Hauser,  M. F. Herbst,  M. Hernandez Vera,  M. Hodecker,  
 Z. C. Holden,  S. Houck,  Xunkun Huang,  Kerwin Hui,  B. C. Huynh,  
 K. Ikeda,  M. Ivanov,  Hyunjun Ji,  Zuxin Jin,  Hanjie Jiang,  B. Kaduk,  
 S. Kaehler,  R. Kang,  K. Khistyaev,  Jaehoon Kim,  Yongbin Kim,  
 P. Klunzinger,  Z. Koczor-Benda,  Joong Hoon Koh,  D. Kosenkov,  
 Saikiran Kotaru,  L. Koulias,  T. Kowalczyk,  C. M. Krauter,  K. Kue,  
 A. Kunitsa,  T. Kus,  A. Landau,  K. V. Lawler,  D. Lefrancois,  S. Lehtola,  
 Rain Li,  Shaozhi Li,  Yi-Pei Li,  Jiashu Liang,  M. Liebenthal,  
 Hung-Hsuan Lin,  You-Sheng Lin,  Fenglai Liu,  Kuan-Yu Liu,  
 M. Loipersberger,  A. Luenser,  C. Malbon,  A. Manjanath,  P. Manohar,  
 E. Mansoor,  S. F. Manzer,  Shan-Ping Mao,  A. V. Marenich,  T. Markovich,  
 S. Mason,  F. Matz,  S. A. Maurer,  P. F. McLaughlin,  M. F. S. J. Menger,  
 J.-M. Mewes,  S. A. Mewes,  P. Morgante,  Mohammad Mostafanejad,  
 J. W. Mullinax,  K. J. Oosterbaan,  G. Paran,  V. Parravicini,  
 Alexander C. Paul,  Suranjan K. Paul,  F. Pavosevic,  Zheng Pei,  S. Prager,  
 E. I. Proynov,  E. Ramos,  B. Rana,  A. E. Rask,  A. Rettig,  R. M. Richard,  
 F. Rob,  E. Rossomme,  T. Scheele,  M. Scheurer,  M. Schneider,  
 P. E. Schneider,  N. Sergueev,  S. M. Sharada,  Hengyuan Shen,  
 W. Skomorowski,  D. W. Small,  C. J. Stein,  Yingli Su,  Yu-Chuan Su,  
 E. J. Sundstrom,  Zhen Tao,  J. Thirman,  Hung-Yi Tsai,  T. Tsuchimochi,  
 N. M. Tubman,  C. Utku,  S. P. Veccham,  O. Vydrov,  J. Wenzel,  
 Jonathan Wong,  J. Witte,  A. Yamada,  Chou-Hsun Yang,  Kun Yao,  
 S. Yeganeh,  S. R. Yost,  A. Zech,  F. Zeller,  Igor Ying Zhang,  
 Xing Zhang,  Yu Zhang,  D. Zuev,  A. Aspuru-Guzik,  A. T. Bell,  
 N. A. Besley,  K. B. Bravaya,  B. R. Brooks,  D. Casanova,  Jeng-Da Chai,  
 Hsing-Ta Chen,  S. Coriani,  C. J. Cramer,  A. E. DePrince, III,  
 R. A. DiStasio Jr.,  A. Dreuw,  B. D. Dunietz,  T. R. Furlani,  
 W. A. Goddard III,  S. Grimme,  S. Hammes-Schiffer,  T. Head-Gordon,  
 W. J. Hehre,  Chao-Ping Hsu,  T.-C. Jagau,  Yousung Jung,  A. Klamt,  
 Jing Kong,  D. S. Lambrecht,  Xiangyuan Li,  WanZhen Liang,  N. J. Mayhall,  
 C. W. McCurdy,  J. B. Neaton,  T. Neudecker,  C. Ochsenfeld,  
 J. A. Parkhill,  R. Peverati,  V. A. Rassolov,  Haisheng Ren,  Yihan Shao,  
 L. V. Slipchenko,  R. P. Steele,  J. E. Subotnik,  A. J. W. Thom,  
 A. Tkatchenko,  D. G. Truhlar,  T. Van Voorhis,  Fan Wang,  
 T. A. Wesolowski,  K. B. Whaley,  H. L. Woodcock III,  P. M. Zimmerman,  
 S. Faraji,  P. M. W. Gill,  M. Head-Gordon,  J. M. Herbert,  A. I. Krylov

 Contributors to earlier versions of Q-Chem not listed above: 
 R. D. Adamson,  B. Austin,  R. Baer,  J. Baker,  G. J. O. Beran,  
 K. Brandhorst,  S. T. Brown,  E. F. C. Byrd,  Arup K. Chakraborty,  
 G. K. L. Chan,  Chun-Min Chang,  Yunqing Chen,  C.-L. Cheng,  
 Siu Hung Chien,  D. M. Chipman,  D. L. Crittenden,  H. Dachsel,  
 R. J. Doerksen,  A. D. Dutoi,  R. G. Edgar,  J. Fosso-Tande,  
 L. Fusti-Molnar,  D. Ghosh,  A. Ghysels,  A. Golubeva-Zadorozhnaya,  
 J. Gonthier,  M. S. Gordon,  S. R. Gwaltney,  G. Hawkins,  J. E. Herr,  
 A. Heyden,  S. Hirata,  E. G. Hohenstein,  G. Kedziora,  F. J. Keil,  
 C. Kelley,  Jihan Kim,  R. A. King,  R. Z. Khaliullin,  P. P. Korambath,  
 W. Kurlancheek,  A. Laurent,  A. M. Lee,  M. S. Lee,  S. V. Levchenko,  
 Ching Yeh Lin,  D. Liotard,  E. Livshits,  R. C. Lochan,  I. Lotan,  
 L. A. Martinez-Martinez,  P. E. Maslen,  N. Nair,  D. P. O'Neill,  
 D. Neuhauser,  E. Neuscamman,  C. M. Oana,  R. Olivares-Amaya,  R. Olson,  
 T. M. Perrine,  B. Peters,  P. A. Pieniazek,  A. Prociuk,  Y. M. Rhee,  
 J. Ritchie,  M. A. Rohrdanz,  E. Rosta,  N. J. Russ,  H. F. Schaefer III,  
 M. W. Schmidt,  N. E. Schultz,  S. Sharma,  N. Shenvi,  C. D. Sherrill,  
 A. C. Simmonett,  A. Sodt,  T. Stein,  D. Stuck,  K. S. Thanthiriwatte,  
 V. Vanovschi,  L. Vogt,  Tao Wang,  A. Warshel,  M. A. Watson,  
 C. F. Williams,  Q. Wu,  X. Xu,  Jun Yang,  W. Zhang,  Yan Zhao

   Please cite Q-Chem as follows:
  "Software for the frontiers of quantum chemistry:
   An overview of developments in the Q-Chem 5 package"
   J. Chem. Phys. 155, 084801 (2021)
   https://doi.org/10.1063/5.0055522 (open access)

 Q-Chem 6.0.0 for Intel X86 EM64T Linux

 Parts of Q-Chem use Armadillo 9.900.5 (Nocturnal Misbehaviour).
 http://arma.sourceforge.net/

 Q-Chem begins on Thu Jul 21 09:53:43 2022  

 Host: nid00525
0

     Scratch files written to /global/cscratch1/sd/ymao90/r7.00_frame_0023_almo_B3LYP_dp20220721031506//
 Processing $rem in /global/homes/y/ymao90/my_qchem/qchem_embedding_5p4/config/preferences:
 Processing $rem in /global/homes/y/ymao90/.qchemrc:

 Checking the input file for inconsistencies... 	...done.

--------------------------------------------------------------
User input:
--------------------------------------------------------------
$molecule
0 1
--
0 1
C    23.29000   16.68000   27.25500  
C    24.35900   17.13400   26.24700  
C    24.39500   18.64300   25.95100  
C    24.47700   19.35800   27.30900  
C    23.25100   18.96400   28.15000  
C    23.27900   17.48400   28.56500  
H    25.29200   18.97300   25.41300  
H    25.29100   16.83900   26.74400  
H    22.33800   16.78500   26.72100  
H    23.41600   15.62100   27.51000  
H    25.42500   19.00200   27.72900  
H    24.49400   20.45100   27.21900  
H    23.37200   19.48800   29.10700  
H    22.23400   19.20400   27.81800  
H    24.16700   17.24100   29.16200  
H    22.42800   17.25100   29.21600  
H    23.47500   18.98800   25.46400  
N    24.41300   16.42100   24.97200  
H    23.60800   16.35700   24.36000  
C    25.59800   16.06800   24.36200  
H    25.59000   16.07800   23.25700  
O    26.60000   15.79200   24.99800  
--
0 1
C    19.66900   20.51600   28.94200  
H    20.34100   19.75200   28.54400  
H    19.22300   20.03400   29.81500  
H    18.97600   20.79200   28.14300  
S    20.67600   21.88300   29.56000  
C    21.17100   22.49600   27.93400  
H    21.71600   21.74500   27.35600  
H    20.22600   22.73000   27.43700  
H    21.84100   23.33900   28.12300  
O    21.83100   21.21700   30.24100  
C    19.98300   19.00000   25.44600  
H    19.51300   18.73200   26.39600  
H    20.12800   18.08400   24.86700  
H    20.92600   19.46700   25.73900  
S    18.83900   20.16000   24.66400  
C    20.02700   20.63300   23.38800  
H    20.92300   20.95800   23.92200  
H    20.19800   19.79900   22.70200  
H    19.77800   21.53700   22.82500  
O    18.82300   21.27200   25.66600  
C    28.59100   17.25600   31.63000  
H    29.37600   17.92800   31.98500  
H    27.81200   17.38900   32.38600  
H    28.89100   16.21300   31.75600  
S    28.05200   17.84900   30.01000  
C    29.69100   17.50700   29.33100  
H    30.40700   17.92700   30.04300  
H    29.74600   16.42300   29.20200  
H    29.70500   18.03500   28.37500  
O    28.06300   19.32900   30.23900  
C    27.21700   10.42000   25.95100  
H    26.58800   11.24200   25.59700  
H    26.52700   9.64400    26.29200  
H    27.77300   10.81400   26.80600  
S    28.30200   9.92200    24.59500  
C    29.14500   8.60600    25.50100  
H    28.44300   8.09400    26.16500  
H    29.33900   7.83800    24.74800  
H    30.08900   9.03900    25.84000  
O    29.30900   11.00900   24.38200  
C    29.14700   22.48400   28.17400  
H    29.34700   21.41000   28.19200  
H    28.69400   22.90500   27.27300  
H    30.01100   23.11100   28.41100  
S    28.07900   22.78400   29.60100  
C    26.57100   22.11700   28.86200  
H    25.74000   22.17200   29.57000  
H    26.33600   22.73300   27.99000  
H    26.76900   21.09500   28.53100  
O    27.83500   24.25400   29.74200  
C    22.88300   19.78700   32.84800  
H    22.37200   20.75000   32.77000  
H    23.77900   19.76000   33.47300  
H    23.08700   19.62400   31.78700  
S    21.53200   18.73400   33.42300  
C    20.45400   18.85000   31.97800  
H    21.01800   18.45800   31.12800  
H    19.51400   18.32800   32.17400  
H    20.31900   19.91400   31.76600  
O    20.76300   19.55200   34.41300  
C    18.62300   17.10500   28.86900  
H    18.63500   16.11800   29.33800  
H    19.50800   17.36900   28.28400  
H    18.35800   17.96200   29.49400  
S    17.36000   16.90300   27.59200  
C    16.03600   16.12600   28.54500  
H    15.31500   15.95800   27.74100  
H    16.32500   15.21700   29.07800  
H    15.68300   16.86200   29.27200  
O    17.77100   15.73700   26.74800  
C    25.90500   22.95700   32.91800  
H    25.17700   23.55000   33.47600  
H    26.51600   23.47700   32.17500  
H    25.41400   22.13000   32.39900  
S    26.98900   22.28000   34.19500  
C    27.76200   21.11700   33.04900  
H    28.62500   20.57600   33.44700  
H    27.03300   20.38600   32.69000  
H    27.92400   21.63600   32.10100  
O    26.10500   21.33000   34.94300  
C    27.85400   14.03100   21.87600  
H    26.99300   14.13300   21.21000  
H    27.82000   13.19900   22.58400  
H    27.99100   14.99900   22.36500  
S    29.30100   13.64500   20.86600  
C    29.16400   11.85300   21.05600  
H    30.00800   11.39100   20.53900  
H    29.24900   11.64000   22.12500  
H    28.21800   11.48000   20.65300  
O    30.49000   14.07100   21.66900  
C    29.62800   12.21900   28.90900  
H    30.02400   13.15800   29.30300  
H    30.11200   11.37500   29.40600  
H    29.78200   12.16800   27.82800  
S    27.84000   12.35600   29.13700  
C    27.74900   14.15800   29.02300  
H    28.74200   14.60900   28.96300  
H    27.13300   14.38700   28.15000  
H    27.42500   14.65900   29.93900  
O    27.83000   12.15000   30.62000  
C    27.35200   16.93400   17.28100  
H    27.09900   16.85100   18.34100  
H    28.00300   17.80200   17.15100  
H    26.41300   17.09000   16.74200  
S    28.09600   15.38700   16.71800  
C    26.85300   14.36300   17.53700  
H    27.07400   13.32500   17.27500  
H    26.96400   14.59700   18.59900  
H    25.86000   14.65300   17.18400  
O    29.23100   15.33800   17.69200  
C    26.77600   27.38800   27.19000  
H    27.30700   26.92600   28.02600  
H    27.00800   28.45500   27.14500  
H    25.70200   27.28400   27.36600  
S    27.52900   26.69500   25.70100  
C    26.89700   25.07600   26.19800  
H    27.20900   24.34400   25.44900  
H    27.33000   24.80400   27.16400  
H    25.80700   25.05900   26.27500  
O    28.98600   26.57400   26.02600  
C    24.56200   24.79200   30.41000  
H    25.60000   25.00900   30.14700  
H    24.28700   24.99900   31.44700  
H    24.30400   23.73600   30.29300  
S    23.70800   25.74000   29.13000  
C    22.01600   25.49900   29.71600  
H    21.74100   26.34600   30.34900  
H    21.36400   25.43000   28.84100  
H    22.03600   24.49000   30.13600  
O    23.80700   24.77200   27.99100  
C    21.72300   14.82100   31.46200  
H    22.66900   14.30700   31.65200  
H    21.33200   14.77200   30.44200  
H    21.83500   15.86300   31.77100  
S    20.41300   14.13200   32.49900  
C    20.42300   12.42800   31.89900  
H    19.59000   12.02600   32.48200  
H    20.22800   12.29900   30.83100  
H    21.36600   11.95300   32.18000  
O    19.16900   14.62200   31.82500  
C    18.96000   18.75800   19.08000  
H    19.95300   19.16900   19.27800  
H    18.83000   18.50800   18.02400  
H    18.23100   19.50200   19.41200  
S    18.76600   17.25200   20.06000  
C    16.96900   17.29500   19.87700  
H    16.62800   16.30600   20.19600  
H    16.59800   18.06300   20.56000  
H    16.71300   17.47200   18.82900  
O    18.94300   17.74200   21.46300  
C    22.89100   17.99100   20.36800  
H    23.02000   18.31200   21.40400  
H    22.99100   18.84200   19.69000  
H    21.89500   17.54800   20.28600  
S    24.18600   16.82100   19.89800  
C    23.22300   16.16100   18.51800  
H    22.22900   15.97500   18.93100  
H    23.13000   16.89000   17.70900  
H    23.64700   15.20100   18.21000  
O    24.19400   15.86300   21.04800  
C    22.92800   24.24000   24.70000  
H    23.33500   24.14000   25.70900  
H    22.84800   25.29200   24.41300  
H    21.96700   23.72400   24.76200  
S    23.90800   23.24000   23.55800  
C    24.70100   21.97900   24.58100  
H    25.38200   22.49700   25.26100  
H    24.03400   21.24700   25.04200  
H    25.30300   21.49900   23.80500  
O    25.09800   24.01800   23.09300  
C    21.01300   14.30800   27.31100  
H    21.63300   14.55600   28.17700  
H    21.62800   14.37800   26.41000  
H    20.17300   15.00400   27.24300  
S    20.18900   12.70100   27.36900  
C    19.03100   13.24200   28.64700  
H    18.30400   13.91100   28.18000  
H    18.49000   12.35300   28.98000  
H    19.57300   13.71900   29.46700  
O    21.27600   11.86100   27.96200  
C    27.82200   17.69700   20.72600  
H    26.90200   18.21700   20.44700  
H    27.73000   16.61300   20.63000  
H    28.02200   17.88200   21.78500  
S    29.13600   18.37800   19.69000  
C    30.60800   18.00800   20.67200  
H    31.45000   18.28500   20.03200  
H    30.61300   18.62700   21.57200  
H    30.57300   16.95600   20.96700  
O    28.92900   19.84700   19.88800  
C    26.25400   14.10100   33.20100  
H    25.39600   13.42900   33.11700  
H    27.08100   13.70100   32.60700  
H    26.62300   14.13100   34.22900  
S    25.70000   15.71600   32.61100  
C    24.44100   15.88800   33.89600  
H    23.64300   15.15800   33.74000  
H    24.92000   15.90500   34.87900  
H    24.05900   16.88700   33.67300  
O    25.01100   15.40800   31.31800  
C    29.92400   19.67200   24.69200  
H    30.68100   20.40500   24.98100  
H    29.49700   19.07500   25.50200  
H    30.26900   19.00900   23.89400  
S    28.52900   20.63200   24.06200  
C    29.45900   21.53300   22.80200  
H    28.75700   21.87900   22.03900  
H    29.89500   22.49400   23.08600  
H    30.19000   20.82900   22.39500  
O    28.07100   21.63100   25.07800  
C    30.13700   15.62500   24.81900  
H    30.50600   15.44800   23.80500  
H    29.73600   14.65400   25.12200  
H    29.46100   16.48300   24.79000  
S    31.55400   16.04700   25.85800  
C    32.81900   15.02500   25.06900  
H    33.65300   15.05600   25.77500  
H    32.38200   14.02400   25.02700  
H    33.01100   15.47900   24.09300  
O    31.20200   15.25500   27.07800  
C    15.95600   21.80900   31.12900  
H    15.14800   21.70600   30.40000  
H    15.61400   22.52300   31.88200  
H    16.82100   22.14800   30.55300  
S    16.27200   20.21600   31.92000  
C    17.57300   20.96000   32.92900  
H    18.23400   21.59900   32.33700  
H    16.91000   21.55300   33.56400  
H    18.07300   20.11200   33.40300  
O    16.95500   19.52700   30.78000  
C    24.37800   13.13000   29.10900  
H    24.71300   13.57300   28.16800  
H    23.57700   13.67700   29.61300  
H    25.24500   13.20100   29.77100  
S    23.91400   11.38500   29.03400  
C    24.12400   11.26700   30.82500  
H    23.97600   10.22500   31.12100  
H    25.10600   11.62200   31.14800  
H    23.34600   11.82500   31.35100  
O    25.10600   10.75000   28.38800  
C    26.37300   22.25500   20.25300  
H    25.90800   22.50200   21.21100  
H    27.35300   21.82700   20.47600  
H    26.39600   23.16900   19.65400  
S    25.17500   21.13500   19.49400  
C    23.68600   22.14100   19.68200  
H    23.48700   22.17600   20.75600  
H    23.87100   23.06100   19.12200  
H    22.85300   21.70800   19.12300  
O    24.93100   20.16100   20.60400  
C    24.61700   12.69400   22.23000  
H    24.06000   13.60100   22.47800  
H    25.68500   12.77500   22.44800  
H    24.45000   12.58900   21.15500  
S    23.66700   11.47300   23.16300  
C    23.56200   12.45700   24.67500  
H    24.52100   12.97400   24.76300  
H    22.82100   13.23400   24.47200  
H    23.25600   11.89100   25.55800  
O    24.45500   10.21500   23.35500  
C    19.25300   15.21900   23.52100  
H    18.61600   14.79600   22.74100  
H    19.57600   14.39200   24.16000  
H    18.68300   15.83300   24.22300  
S    20.81700   15.83300   22.85700  
C    21.06700   14.50800   21.65300  
H    20.74000   14.69300   20.62600  
H    22.15800   14.43700   21.67200  
H    20.69000   13.57400   22.07500  
O    21.85800   15.64100   23.91500  
$end

$rem
JOBTYPE  SP
METHOD  B3LYP
BASIS  6-31+G(D)
SYMMETRY  FALSE
SYM_IGNORE  TRUE
MEM_TOTAL  12000
MEM_STATIC  4000
BASIS_LIN_DEP_THRESH  6
THRESH  14
SCF_CONVERGENCE  8
FD_MAT_VEC_PROD  FALSE
XC_GRID  000075000302
NL_GRID  1
MAX_SCF_CYCLES  200
FRGM_METHOD  STOLL
SCFMI_MODE  1
ALMO_EFIELD  TRUE
$end

$rem_frgm
SCF_CONVERGENCE  4
$end


--------------------------------------------------------------
 ----------------------------------------------------------------
             Standard Nuclear Orientation (Angstroms)
    I     Atom           X                Y                Z
 ----------------------------------------------------------------
    1      C      23.2900000000    16.6800000000    27.2550000000
    2      C      24.3590000000    17.1340000000    26.2470000000
    3      C      24.3950000000    18.6430000000    25.9510000000
    4      C      24.4770000000    19.3580000000    27.3090000000
    5      C      23.2510000000    18.9640000000    28.1500000000
    6      C      23.2790000000    17.4840000000    28.5650000000
    7      H      25.2920000000    18.9730000000    25.4130000000
    8      H      25.2910000000    16.8390000000    26.7440000000
    9      H      22.3380000000    16.7850000000    26.7210000000
   10      H      23.4160000000    15.6210000000    27.5100000000
   11      H      25.4250000000    19.0020000000    27.7290000000
   12      H      24.4940000000    20.4510000000    27.2190000000
   13      H      23.3720000000    19.4880000000    29.1070000000
   14      H      22.2340000000    19.2040000000    27.8180000000
   15      H      24.1670000000    17.2410000000    29.1620000000
   16      H      22.4280000000    17.2510000000    29.2160000000
   17      H      23.4750000000    18.9880000000    25.4640000000
   18      N      24.4130000000    16.4210000000    24.9720000000
   19      H      23.6080000000    16.3570000000    24.3600000000
   20      C      25.5980000000    16.0680000000    24.3620000000
   21      H      25.5900000000    16.0780000000    23.2570000000
   22      O      26.6000000000    15.7920000000    24.9980000000
   23      C      19.6690000000    20.5160000000    28.9420000000
   24      H      20.3410000000    19.7520000000    28.5440000000
   25      H      19.2230000000    20.0340000000    29.8150000000
   26      H      18.9760000000    20.7920000000    28.1430000000
   27      S      20.6760000000    21.8830000000    29.5600000000
   28      C      21.1710000000    22.4960000000    27.9340000000
   29      H      21.7160000000    21.7450000000    27.3560000000
   30      H      20.2260000000    22.7300000000    27.4370000000
   31      H      21.8410000000    23.3390000000    28.1230000000
   32      O      21.8310000000    21.2170000000    30.2410000000
   33      C      19.9830000000    19.0000000000    25.4460000000
   34      H      19.5130000000    18.7320000000    26.3960000000
   35      H      20.1280000000    18.0840000000    24.8670000000
   36      H      20.9260000000    19.4670000000    25.7390000000
   37      S      18.8390000000    20.1600000000    24.6640000000
   38      C      20.0270000000    20.6330000000    23.3880000000
   39      H      20.9230000000    20.9580000000    23.9220000000
   40      H      20.1980000000    19.7990000000    22.7020000000
   41      H      19.7780000000    21.5370000000    22.8250000000
   42      O      18.8230000000    21.2720000000    25.6660000000
   43      C      28.5910000000    17.2560000000    31.6300000000
   44      H      29.3760000000    17.9280000000    31.9850000000
   45      H      27.8120000000    17.3890000000    32.3860000000
   46      H      28.8910000000    16.2130000000    31.7560000000
   47      S      28.0520000000    17.8490000000    30.0100000000
   48      C      29.6910000000    17.5070000000    29.3310000000
   49      H      30.4070000000    17.9270000000    30.0430000000
   50      H      29.7460000000    16.4230000000    29.2020000000
   51      H      29.7050000000    18.0350000000    28.3750000000
   52      O      28.0630000000    19.3290000000    30.2390000000
   53      C      27.2170000000    10.4200000000    25.9510000000
   54      H      26.5880000000    11.2420000000    25.5970000000
   55      H      26.5270000000     9.6440000000    26.2920000000
   56      H      27.7730000000    10.8140000000    26.8060000000
   57      S      28.3020000000     9.9220000000    24.5950000000
   58      C      29.1450000000     8.6060000000    25.5010000000
   59      H      28.4430000000     8.0940000000    26.1650000000
   60      H      29.3390000000     7.8380000000    24.7480000000
   61      H      30.0890000000     9.0390000000    25.8400000000
   62      O      29.3090000000    11.0090000000    24.3820000000
   63      C      29.1470000000    22.4840000000    28.1740000000
   64      H      29.3470000000    21.4100000000    28.1920000000
   65      H      28.6940000000    22.9050000000    27.2730000000
   66      H      30.0110000000    23.1110000000    28.4110000000
   67      S      28.0790000000    22.7840000000    29.6010000000
   68      C      26.5710000000    22.1170000000    28.8620000000
   69      H      25.7400000000    22.1720000000    29.5700000000
   70      H      26.3360000000    22.7330000000    27.9900000000
   71      H      26.7690000000    21.0950000000    28.5310000000
   72      O      27.8350000000    24.2540000000    29.7420000000
   73      C      22.8830000000    19.7870000000    32.8480000000
   74      H      22.3720000000    20.7500000000    32.7700000000
   75      H      23.7790000000    19.7600000000    33.4730000000
   76      H      23.0870000000    19.6240000000    31.7870000000
   77      S      21.5320000000    18.7340000000    33.4230000000
   78      C      20.4540000000    18.8500000000    31.9780000000
   79      H      21.0180000000    18.4580000000    31.1280000000
   80      H      19.5140000000    18.3280000000    32.1740000000
   81      H      20.3190000000    19.9140000000    31.7660000000
   82      O      20.7630000000    19.5520000000    34.4130000000
   83      C      18.6230000000    17.1050000000    28.8690000000
   84      H      18.6350000000    16.1180000000    29.3380000000
   85      H      19.5080000000    17.3690000000    28.2840000000
   86      H      18.3580000000    17.9620000000    29.4940000000
   87      S      17.3600000000    16.9030000000    27.5920000000
   88      C      16.0360000000    16.1260000000    28.5450000000
   89      H      15.3150000000    15.9580000000    27.7410000000
   90      H      16.3250000000    15.2170000000    29.0780000000
   91      H      15.6830000000    16.8620000000    29.2720000000
   92      O      17.7710000000    15.7370000000    26.7480000000
   93      C      25.9050000000    22.9570000000    32.9180000000
   94      H      25.1770000000    23.5500000000    33.4760000000
   95      H      26.5160000000    23.4770000000    32.1750000000
   96      H      25.4140000000    22.1300000000    32.3990000000
   97      S      26.9890000000    22.2800000000    34.1950000000
   98      C      27.7620000000    21.1170000000    33.0490000000
   99      H      28.6250000000    20.5760000000    33.4470000000
  100      H      27.0330000000    20.3860000000    32.6900000000
  101      H      27.9240000000    21.6360000000    32.1010000000
  102      O      26.1050000000    21.3300000000    34.9430000000
  103      C      27.8540000000    14.0310000000    21.8760000000
  104      H      26.9930000000    14.1330000000    21.2100000000
  105      H      27.8200000000    13.1990000000    22.5840000000
  106      H      27.9910000000    14.9990000000    22.3650000000
  107      S      29.3010000000    13.6450000000    20.8660000000
  108      C      29.1640000000    11.8530000000    21.0560000000
  109      H      30.0080000000    11.3910000000    20.5390000000
  110      H      29.2490000000    11.6400000000    22.1250000000
  111      H      28.2180000000    11.4800000000    20.6530000000
  112      O      30.4900000000    14.0710000000    21.6690000000
  113      C      29.6280000000    12.2190000000    28.9090000000
  114      H      30.0240000000    13.1580000000    29.3030000000
  115      H      30.1120000000    11.3750000000    29.4060000000
  116      H      29.7820000000    12.1680000000    27.8280000000
  117      S      27.8400000000    12.3560000000    29.1370000000
  118      C      27.7490000000    14.1580000000    29.0230000000
  119      H      28.7420000000    14.6090000000    28.9630000000
  120      H      27.1330000000    14.3870000000    28.1500000000
  121      H      27.4250000000    14.6590000000    29.9390000000
  122      O      27.8300000000    12.1500000000    30.6200000000
  123      C      27.3520000000    16.9340000000    17.2810000000
  124      H      27.0990000000    16.8510000000    18.3410000000
  125      H      28.0030000000    17.8020000000    17.1510000000
  126      H      26.4130000000    17.0900000000    16.7420000000
  127      S      28.0960000000    15.3870000000    16.7180000000
  128      C      26.8530000000    14.3630000000    17.5370000000
  129      H      27.0740000000    13.3250000000    17.2750000000
  130      H      26.9640000000    14.5970000000    18.5990000000
  131      H      25.8600000000    14.6530000000    17.1840000000
  132      O      29.2310000000    15.3380000000    17.6920000000
  133      C      26.7760000000    27.3880000000    27.1900000000
  134      H      27.3070000000    26.9260000000    28.0260000000
  135      H      27.0080000000    28.4550000000    27.1450000000
  136      H      25.7020000000    27.2840000000    27.3660000000
  137      S      27.5290000000    26.6950000000    25.7010000000
  138      C      26.8970000000    25.0760000000    26.1980000000
  139      H      27.2090000000    24.3440000000    25.4490000000
  140      H      27.3300000000    24.8040000000    27.1640000000
  141      H      25.8070000000    25.0590000000    26.2750000000
  142      O      28.9860000000    26.5740000000    26.0260000000
  143      C      24.5620000000    24.7920000000    30.4100000000
  144      H      25.6000000000    25.0090000000    30.1470000000
  145      H      24.2870000000    24.9990000000    31.4470000000
  146      H      24.3040000000    23.7360000000    30.2930000000
  147      S      23.7080000000    25.7400000000    29.1300000000
  148      C      22.0160000000    25.4990000000    29.7160000000
  149      H      21.7410000000    26.3460000000    30.3490000000
  150      H      21.3640000000    25.4300000000    28.8410000000
  151      H      22.0360000000    24.4900000000    30.1360000000
  152      O      23.8070000000    24.7720000000    27.9910000000
  153      C      21.7230000000    14.8210000000    31.4620000000
  154      H      22.6690000000    14.3070000000    31.6520000000
  155      H      21.3320000000    14.7720000000    30.4420000000
  156      H      21.8350000000    15.8630000000    31.7710000000
  157      S      20.4130000000    14.1320000000    32.4990000000
  158      C      20.4230000000    12.4280000000    31.8990000000
  159      H      19.5900000000    12.0260000000    32.4820000000
  160      H      20.2280000000    12.2990000000    30.8310000000
  161      H      21.3660000000    11.9530000000    32.1800000000
  162      O      19.1690000000    14.6220000000    31.8250000000
  163      C      18.9600000000    18.7580000000    19.0800000000
  164      H      19.9530000000    19.1690000000    19.2780000000
  165      H      18.8300000000    18.5080000000    18.0240000000
  166      H      18.2310000000    19.5020000000    19.4120000000
  167      S      18.7660000000    17.2520000000    20.0600000000
  168      C      16.9690000000    17.2950000000    19.8770000000
  169      H      16.6280000000    16.3060000000    20.1960000000
  170      H      16.5980000000    18.0630000000    20.5600000000
  171      H      16.7130000000    17.4720000000    18.8290000000
  172      O      18.9430000000    17.7420000000    21.4630000000
  173      C      22.8910000000    17.9910000000    20.3680000000
  174      H      23.0200000000    18.3120000000    21.4040000000
  175      H      22.9910000000    18.8420000000    19.6900000000
  176      H      21.8950000000    17.5480000000    20.2860000000
  177      S      24.1860000000    16.8210000000    19.8980000000
  178      C      23.2230000000    16.1610000000    18.5180000000
  179      H      22.2290000000    15.9750000000    18.9310000000
  180      H      23.1300000000    16.8900000000    17.7090000000
  181      H      23.6470000000    15.2010000000    18.2100000000
  182      O      24.1940000000    15.8630000000    21.0480000000
  183      C      22.9280000000    24.2400000000    24.7000000000
  184      H      23.3350000000    24.1400000000    25.7090000000
  185      H      22.8480000000    25.2920000000    24.4130000000
  186      H      21.9670000000    23.7240000000    24.7620000000
  187      S      23.9080000000    23.2400000000    23.5580000000
  188      C      24.7010000000    21.9790000000    24.5810000000
  189      H      25.3820000000    22.4970000000    25.2610000000
  190      H      24.0340000000    21.2470000000    25.0420000000
  191      H      25.3030000000    21.4990000000    23.8050000000
  192      O      25.0980000000    24.0180000000    23.0930000000
  193      C      21.0130000000    14.3080000000    27.3110000000
  194      H      21.6330000000    14.5560000000    28.1770000000
  195      H      21.6280000000    14.3780000000    26.4100000000
  196      H      20.1730000000    15.0040000000    27.2430000000
  197      S      20.1890000000    12.7010000000    27.3690000000
  198      C      19.0310000000    13.2420000000    28.6470000000
  199      H      18.3040000000    13.9110000000    28.1800000000
  200      H      18.4900000000    12.3530000000    28.9800000000
  201      H      19.5730000000    13.7190000000    29.4670000000
  202      O      21.2760000000    11.8610000000    27.9620000000
  203      C      27.8220000000    17.6970000000    20.7260000000
  204      H      26.9020000000    18.2170000000    20.4470000000
  205      H      27.7300000000    16.6130000000    20.6300000000
  206      H      28.0220000000    17.8820000000    21.7850000000
  207      S      29.1360000000    18.3780000000    19.6900000000
  208      C      30.6080000000    18.0080000000    20.6720000000
  209      H      31.4500000000    18.2850000000    20.0320000000
  210      H      30.6130000000    18.6270000000    21.5720000000
  211      H      30.5730000000    16.9560000000    20.9670000000
  212      O      28.9290000000    19.8470000000    19.8880000000
  213      C      26.2540000000    14.1010000000    33.2010000000
  214      H      25.3960000000    13.4290000000    33.1170000000
  215      H      27.0810000000    13.7010000000    32.6070000000
  216      H      26.6230000000    14.1310000000    34.2290000000
  217      S      25.7000000000    15.7160000000    32.6110000000
  218      C      24.4410000000    15.8880000000    33.8960000000
  219      H      23.6430000000    15.1580000000    33.7400000000
  220      H      24.9200000000    15.9050000000    34.8790000000
  221      H      24.0590000000    16.8870000000    33.6730000000
  222      O      25.0110000000    15.4080000000    31.3180000000
  223      C      29.9240000000    19.6720000000    24.6920000000
  224      H      30.6810000000    20.4050000000    24.9810000000
  225      H      29.4970000000    19.0750000000    25.5020000000
  226      H      30.2690000000    19.0090000000    23.8940000000
  227      S      28.5290000000    20.6320000000    24.0620000000
  228      C      29.4590000000    21.5330000000    22.8020000000
  229      H      28.7570000000    21.8790000000    22.0390000000
  230      H      29.8950000000    22.4940000000    23.0860000000
  231      H      30.1900000000    20.8290000000    22.3950000000
  232      O      28.0710000000    21.6310000000    25.0780000000
  233      C      30.1370000000    15.6250000000    24.8190000000
  234      H      30.5060000000    15.4480000000    23.8050000000
  235      H      29.7360000000    14.6540000000    25.1220000000
  236      H      29.4610000000    16.4830000000    24.7900000000
  237      S      31.5540000000    16.0470000000    25.8580000000
  238      C      32.8190000000    15.0250000000    25.0690000000
  239      H      33.6530000000    15.0560000000    25.7750000000
  240      H      32.3820000000    14.0240000000    25.0270000000
  241      H      33.0110000000    15.4790000000    24.0930000000
  242      O      31.2020000000    15.2550000000    27.0780000000
  243      C      15.9560000000    21.8090000000    31.1290000000
  244      H      15.1480000000    21.7060000000    30.4000000000
  245      H      15.6140000000    22.5230000000    31.8820000000
  246      H      16.8210000000    22.1480000000    30.5530000000
  247      S      16.2720000000    20.2160000000    31.9200000000
  248      C      17.5730000000    20.9600000000    32.9290000000
  249      H      18.2340000000    21.5990000000    32.3370000000
  250      H      16.9100000000    21.5530000000    33.5640000000
  251      H      18.0730000000    20.1120000000    33.4030000000
  252      O      16.9550000000    19.5270000000    30.7800000000
  253      C      24.3780000000    13.1300000000    29.1090000000
  254      H      24.7130000000    13.5730000000    28.1680000000
  255      H      23.5770000000    13.6770000000    29.6130000000
  256      H      25.2450000000    13.2010000000    29.7710000000
  257      S      23.9140000000    11.3850000000    29.0340000000
  258      C      24.1240000000    11.2670000000    30.8250000000
  259      H      23.9760000000    10.2250000000    31.1210000000
  260      H      25.1060000000    11.6220000000    31.1480000000
  261      H      23.3460000000    11.8250000000    31.3510000000
  262      O      25.1060000000    10.7500000000    28.3880000000
  263      C      26.3730000000    22.2550000000    20.2530000000
  264      H      25.9080000000    22.5020000000    21.2110000000
  265      H      27.3530000000    21.8270000000    20.4760000000
  266      H      26.3960000000    23.1690000000    19.6540000000
  267      S      25.1750000000    21.1350000000    19.4940000000
  268      C      23.6860000000    22.1410000000    19.6820000000
  269      H      23.4870000000    22.1760000000    20.7560000000
  270      H      23.8710000000    23.0610000000    19.1220000000
  271      H      22.8530000000    21.7080000000    19.1230000000
  272      O      24.9310000000    20.1610000000    20.6040000000
  273      C      24.6170000000    12.6940000000    22.2300000000
  274      H      24.0600000000    13.6010000000    22.4780000000
  275      H      25.6850000000    12.7750000000    22.4480000000
  276      H      24.4500000000    12.5890000000    21.1550000000
  277      S      23.6670000000    11.4730000000    23.1630000000
  278      C      23.5620000000    12.4570000000    24.6750000000
  279      H      24.5210000000    12.9740000000    24.7630000000
  280      H      22.8210000000    13.2340000000    24.4720000000
  281      H      23.2560000000    11.8910000000    25.5580000000
  282      O      24.4550000000    10.2150000000    23.3550000000
  283      C      19.2530000000    15.2190000000    23.5210000000
  284      H      18.6160000000    14.7960000000    22.7410000000
  285      H      19.5760000000    14.3920000000    24.1600000000
  286      H      18.6830000000    15.8330000000    24.2230000000
  287      S      20.8170000000    15.8330000000    22.8570000000
  288      C      21.0670000000    14.5080000000    21.6530000000
  289      H      20.7400000000    14.6930000000    20.6260000000
  290      H      22.1580000000    14.4370000000    21.6720000000
  291      H      20.6900000000    13.5740000000    22.0750000000
  292      O      21.8580000000    15.6410000000    23.9150000000
 ----------------------------------------------------------------
 Nuclear Repulsion Energy =       47505.71791983 hartrees
 There are      602 alpha and      602 beta electrons
 Requested basis set is 6-31+G(d)
 There are 962 shells and 2681 basis functions

 Total QAlloc Memory Limit  12000 MB
 Mega-Array Size      3911 MB
 MEM_STATIC part      4000 MB

 A cutoff of  1.0D-14 yielded 175365 shell pairs
 There are   1515528 function pairs
 Smallest overlap matrix eigenvalue = 4.72E-07
 Linear dependence detected in AO basis
 Tighter screening thresholds may be required for diffuse basis sets
 Use S2THRESH > 14 and THRESH = 14 in case of SCF convergence issues
 Number of orthogonalized atomic orbitals = 2679
 Maximum deviation from orthogonality = 1.136E-10

 Scale SEOQF with 1.000000e-03/1.000000e-03/1.000000e-03

 Standard Electronic Orientation quadrupole field applied
 Nucleus-field energy     =    -0.0000003706 hartrees
 Attempting to make child job directory: /global/cscratch1/sd/ymao90/r7.00_frame_0023_almo_B3LYP_dp20220721031506//Frg1/
 Attempting to make child job directory: /global/cscratch1/sd/ymao90/r7.00_frame_0023_almo_B3LYP_dp20220721031506//Frg2/
 Creating input file /global/cscratch1/sd/ymao90/r7.00_frame_0023_almo_B3LYP_dp20220721031506/Frg1.input
 using default PutDataFrgm: nothing
 calling putenv with: QCSCRATCH=/global/cscratch1/sd/ymao90/r7.00_frame_0023_almo_B3LYP_dp20220721031506/ 
 Spawning Job For Fragment 0
 Done Job For Fragment 0
 calling putenv with: QCSCRATCH=/global/cscratch1/sd/ymao90 
 calling putenv with: QCTHREADS=16 
 Creating input file /global/cscratch1/sd/ymao90/r7.00_frame_0023_almo_B3LYP_dp20220721031506/Frg2.input
 using default PutDataFrgm: nothing
 calling putenv with: QCSCRATCH=/global/cscratch1/sd/ymao90/r7.00_frame_0023_almo_B3LYP_dp20220721031506/ 
 Spawning Job For Fragment 1
 Done Job For Fragment 1
 calling putenv with: QCSCRATCH=/global/cscratch1/sd/ymao90 
 calling putenv with: QCTHREADS=16 
 Time for running child jobs:  CPU 0.50 s  wall 12753.08 s

 -----------------------------------------------------------------------
  General SCF calculation program by
  Eric Jon Sundstrom, Paul Horn, Yuezhi Mao, Dmitri Zuev, Alec White,
  David Stuck, Shaama M.S., Shane Yost, Joonho Lee, David Small,
  Daniel Levine, Susi Lehtola, Hugh Burton, Evgeny Epifanovsky,
  Bang C. Huynh
 -----------------------------------------------------------------------
Performing Restricted Closed Shell SCFMI
Doing General SCFMI
 Exchange:     0.2000 Hartree-Fock + 0.0800 Slater + 0.7200 B88
 Correlation:  0.1900 VWN1RPA + 0.8100 LYP
 Using Euler-Maclaurin-Lebedev (75,302) quadrature formula
performing fock build before subrot guess so that all methods have access
 using 16 threads for integral computing
 -------------------------------------------------------
 OpenMP Integral computing Module                
 Release: version 1.0, May 2013, Q-Chem Inc. Pittsburgh 
 -------------------------------------------------------
Printing subrot_rss_gen Method Specification:
Occupied Subspace Method is 0
Virtual Subspace Method is 0
Energy prior to optimization (guess energy) = -15340.728131106589
Begin Timing: Total SCF Calculation
begin iterations for algorithm: DIIS         
the SCF tolerance is set to 1.00e-08
    1  -15340.7281311066      2.86e-05     00000 
    2  -15340.7331527782      2.18e-05     00000 
    3  -15340.7340023589      1.75e-05     00000 
    4  -15340.7347280034      5.08e-06     00000 
    5  -15340.7347991811      2.28e-06     00000 
    6  -15340.7348139280      1.28e-06     00000 
    7  -15340.7348177641      9.07e-07     00000 
    8  -15340.7348195360      5.12e-07     00000 
    9  -15340.7348201432      2.54e-07     00000 
   10  -15340.7348202759      1.62e-07     00000 
   11  -15340.7348203255      1.11e-07     00000 
   12  -15340.7348203540      5.89e-08     00000 
   13  -15340.7348203625      3.06e-08     00000 
   14  -15340.7348203651      1.55e-08     00000 
   15  -15340.7348203656      1.13e-08     00000 
   16  -15340.7348203658      6.45e-09     00000 Convergence criterion met
write pseudocanon occs and virts to disk
write pseudocanon orbital energies to disk
Timing for Total SCF: 17086.00s (wall), 233551.88s (cpu)
SCFMI Energy  -15340.7348203658
<S^2>            0.00000
 Total energy in the final basis set =   -15340.7348203658
    ==================================================
        The end of Object-Oriented SCFman: SCFMI      
    ==================================================

 --------------------------------------------------------------

                    Orbital Energies (a.u.)
 --------------------------------------------------------------

 Alpha MOs
 -- Occupied --
-89.0417 -89.0228 -89.0150 -89.0125 -89.0114 -89.0067 -89.0061 -89.0057
-89.0047 -89.0034 -89.0026 -89.0022 -88.9994 -88.9940 -88.9938 -88.9897
-88.9880 -88.9860 -88.9830 -88.9814 -88.9798 -88.9785 -88.9770 -88.9749
-88.9733 -88.9685 -88.9683 -19.1528 -19.1433 -19.1330 -19.1299 -19.1281
-19.1263 -19.1250 -19.1224 -19.1212 -19.1187 -19.1162 -19.1159 -19.1150
-19.1148 -19.1144 -19.1084 -19.1069 -19.1043 -19.1016 -19.1008 -19.1007
-19.1001 -19.0982 -19.0930 -19.0918 -19.0879 -19.0857 -19.0848 -14.3409
-10.2762 -10.2570 -10.2547 -10.2498 -10.2345 -10.2300 -10.2286 -10.2280
-10.2277 -10.2275 -10.2275 -10.2272 -10.2262 -10.2251 -10.2246 -10.2225
-10.2209 -10.2209 -10.2199 -10.2195 -10.2192 -10.2180 -10.2148 -10.2142
-10.2139 -10.2120 -10.2119 -10.2111 -10.2104 -10.2099 -10.2097 -10.2071
-10.2070 -10.2061 -10.2058 -10.2049 -10.2049 -10.2037 -10.2036 -10.2031
-10.1997 -10.1988 -10.1965 -10.1963 -10.1948 -10.1937 -10.1928 -10.1925
-10.1919 -10.1896 -10.1893 -10.1888 -10.1863 -10.1846 -10.1826 -10.1816
-10.1813 -10.1808 -10.1807 -10.1761 -10.1706  -8.0881  -8.0682  -8.0604
 -8.0592  -8.0577  -8.0525  -8.0523  -8.0519  -8.0511  -8.0493  -8.0492
 -8.0488  -8.0453  -8.0402  -8.0398  -8.0361  -8.0339  -8.0317  -8.0294
 -8.0281  -8.0254  -8.0249  -8.0232  -8.0213  -8.0198  -8.0144  -8.0139
 -6.0523  -6.0510  -6.0458  -6.0327  -6.0312  -6.0255  -6.0247  -6.0236
 -6.0235  -6.0219  -6.0217  -6.0208  -6.0178  -6.0168  -6.0168  -6.0168
 -6.0162  -6.0155  -6.0155  -6.0154  -6.0153  -6.0150  -6.0140  -6.0138
 -6.0134  -6.0131  -6.0124  -6.0123  -6.0119  -6.0099  -6.0096  -6.0094
 -6.0093  -6.0085  -6.0082  -6.0067  -6.0066  -6.0061  -6.0045  -6.0043
 -6.0034  -6.0030  -6.0030  -6.0006  -5.9994  -5.9983  -5.9972  -5.9970
 -5.9970  -5.9960  -5.9950  -5.9935  -5.9932  -5.9924  -5.9924  -5.9915
 -5.9912  -5.9900  -5.9893  -5.9892  -5.9886  -5.9880  -5.9875  -5.9870
 -5.9862  -5.9858  -5.9857  -5.9843  -5.9843  -5.9829  -5.9825  -5.9820
 -5.9804  -5.9785  -5.9785  -5.9783  -5.9773  -5.9770  -5.9770  -5.9722
 -5.9711  -1.0654  -1.0493  -1.0400  -1.0383  -1.0377  -1.0346  -1.0333
 -1.0331  -1.0318  -1.0316  -1.0301  -1.0300  -1.0270  -1.0254  -1.0202
 -1.0197  -1.0156  -1.0135  -1.0078  -1.0071  -1.0063  -1.0062  -1.0047
 -1.0034  -1.0020  -1.0004  -0.9944  -0.9920  -0.9094  -0.8431  -0.8305
 -0.8253  -0.8178  -0.8128  -0.8121  -0.8117  -0.8103  -0.8063  -0.8048
 -0.8038  -0.8036  -0.8009  -0.8002  -0.7996  -0.7937  -0.7932  -0.7930
 -0.7904  -0.7892  -0.7863  -0.7837  -0.7815  -0.7801  -0.7793  -0.7788
 -0.7743  -0.7691  -0.7645  -0.7479  -0.7469  -0.7393  -0.7392  -0.7364
 -0.7359  -0.7357  -0.7354  -0.7342  -0.7337  -0.7310  -0.7303  -0.7288
 -0.7268  -0.7260  -0.7246  -0.7195  -0.7139  -0.7138  -0.7128  -0.7101
 -0.7092  -0.7055  -0.7052  -0.7045  -0.7021  -0.6964  -0.6861  -0.6529
 -0.6374  -0.6295  -0.6282  -0.6265  -0.6241  -0.6227  -0.6194  -0.6184
 -0.6147  -0.6143  -0.6133  -0.6120  -0.6114  -0.6093  -0.6087  -0.6055
 -0.6001  -0.5998  -0.5978  -0.5962  -0.5961  -0.5960  -0.5910  -0.5887
 -0.5884  -0.5863  -0.5848  -0.5807  -0.5721  -0.5665  -0.5192  -0.5184
 -0.5100  -0.5061  -0.5027  -0.4998  -0.4962  -0.4959  -0.4933  -0.4924
 -0.4905  -0.4901  -0.4895  -0.4875  -0.4862  -0.4856  -0.4848  -0.4843
 -0.4836  -0.4818  -0.4814  -0.4809  -0.4805  -0.4797  -0.4783  -0.4777
 -0.4770  -0.4751  -0.4750  -0.4746  -0.4734  -0.4727  -0.4718  -0.4715
 -0.4711  -0.4705  -0.4701  -0.4699  -0.4685  -0.4682  -0.4675  -0.4673
 -0.4669  -0.4663  -0.4658  -0.4650  -0.4643  -0.4636  -0.4630  -0.4624
 -0.4621  -0.4620  -0.4615  -0.4611  -0.4604  -0.4593  -0.4585  -0.4580
 -0.4576  -0.4567  -0.4561  -0.4556  -0.4537  -0.4536  -0.4533  -0.4526
 -0.4520  -0.4519  -0.4512  -0.4508  -0.4497  -0.4490  -0.4476  -0.4471
 -0.4452  -0.4448  -0.4443  -0.4440  -0.4434  -0.4427  -0.4425  -0.4418
 -0.4405  -0.4401  -0.4396  -0.4388  -0.4376  -0.4373  -0.4366  -0.4364
 -0.4362  -0.4357  -0.4337  -0.4335  -0.4332  -0.4326  -0.4322  -0.4306
 -0.4304  -0.4280  -0.4267  -0.4258  -0.4255  -0.4253  -0.4239  -0.4230
 -0.4228  -0.4223  -0.4202  -0.4198  -0.4190  -0.4181  -0.4174  -0.4160
 -0.4157  -0.4147  -0.4141  -0.4136  -0.4133  -0.4128  -0.4126  -0.4120
 -0.4115  -0.4105  -0.4090  -0.4085  -0.4068  -0.4062  -0.4053  -0.4047
 -0.4041  -0.4031  -0.4024  -0.4021  -0.4019  -0.4007  -0.4002  -0.3999
 -0.3992  -0.3991  -0.3981  -0.3962  -0.3957  -0.3950  -0.3949  -0.3938
 -0.3933  -0.3927  -0.3925  -0.3914  -0.3911  -0.3909  -0.3898  -0.3892
 -0.3881  -0.3880  -0.3873  -0.3870  -0.3864  -0.3851  -0.3848  -0.3846
 -0.3843  -0.3841  -0.3829  -0.3814  -0.3801  -0.3790  -0.3788  -0.3744
 -0.3741  -0.3725  -0.3709  -0.3703  -0.3693  -0.3689  -0.3684  -0.3674
 -0.3672  -0.3660  -0.3655  -0.3652  -0.3630  -0.3618  -0.3577  -0.3562
 -0.3558  -0.3500  -0.3497  -0.3485  -0.3475  -0.3474  -0.3466  -0.3460
 -0.3444  -0.3421  -0.3419  -0.3391  -0.3355  -0.3318  -0.3309  -0.3191
 -0.3121  -0.3042  -0.3040  -0.2997  -0.2969  -0.2916  -0.2878  -0.2876
 -0.2855  -0.2839  -0.2816  -0.2814  -0.2774  -0.2761  -0.2751  -0.2748
 -0.2744  -0.2709  -0.2703  -0.2660  -0.2643  -0.2638  -0.2617  -0.2610
 -0.2607  -0.2595  -0.2587  -0.2563  -0.2535  -0.2520  -0.2518  -0.2515
 -0.2499  -0.2492  -0.2489  -0.2470  -0.2459  -0.2457  -0.2453  -0.2445
 -0.2431  -0.2429  -0.2418  -0.2386  -0.2355  -0.2307  -0.2304  -0.2252
 -0.2239  -0.2228  -0.2224  -0.2217  -0.2189  -0.2176  -0.2149  -0.2125
 -0.2122  -0.2061
 -- Virtual --
 -0.0469  -0.0394  -0.0340  -0.0299  -0.0221  -0.0206  -0.0189  -0.0149
 -0.0137  -0.0126  -0.0121  -0.0111  -0.0107  -0.0103  -0.0093  -0.0082
 -0.0061  -0.0054  -0.0045  -0.0041  -0.0028  -0.0026  -0.0006  -0.0000
  0.0010   0.0021   0.0023   0.0027   0.0042   0.0043   0.0044   0.0054
  0.0059   0.0076   0.0084   0.0097   0.0106   0.0107   0.0118   0.0120
  0.0125   0.0130   0.0140   0.0147   0.0164   0.0166   0.0171   0.0176
  0.0184   0.0189   0.0197   0.0201   0.0211   0.0215   0.0220   0.0226
  0.0230   0.0237   0.0241   0.0244   0.0247   0.0254   0.0270   0.0279
  0.0285   0.0298   0.0303   0.0313   0.0313   0.0320   0.0327   0.0336
  0.0344   0.0349   0.0353   0.0356   0.0363   0.0365   0.0373   0.0383
  0.0388   0.0389   0.0399   0.0403   0.0409   0.0417   0.0428   0.0434
  0.0441   0.0445   0.0451   0.0460   0.0464   0.0468   0.0476   0.0488
  0.0491   0.0497   0.0500   0.0505   0.0510   0.0518   0.0523   0.0527
  0.0532   0.0542   0.0546   0.0559   0.0563   0.0568   0.0574   0.0584
  0.0589   0.0595   0.0602   0.0609   0.0618   0.0621   0.0628   0.0630
  0.0639   0.0643   0.0648   0.0654   0.0666   0.0672   0.0678   0.0683
  0.0686   0.0692   0.0694   0.0703   0.0711   0.0718   0.0722   0.0728
  0.0732   0.0742   0.0746   0.0752   0.0766   0.0767   0.0774   0.0777
  0.0786   0.0798   0.0802   0.0807   0.0810   0.0816   0.0819   0.0821
  0.0833   0.0837   0.0850   0.0852   0.0855   0.0860   0.0869   0.0875
  0.0877   0.0882   0.0897   0.0902   0.0906   0.0914   0.0918   0.0922
  0.0939   0.0942   0.0947   0.0952   0.0962   0.0967   0.0975   0.0979
  0.0983   0.0992   0.0994   0.1000   0.1006   0.1015   0.1018   0.1035
  0.1037   0.1043   0.1053   0.1056   0.1059   0.1062   0.1070   0.1076
  0.1082   0.1094   0.1102   0.1108   0.1116   0.1119   0.1122   0.1130
  0.1137   0.1142   0.1149   0.1162   0.1164   0.1175   0.1181   0.1185
  0.1193   0.1198   0.1204   0.1207   0.1216   0.1222   0.1227   0.1233
  0.1237   0.1239   0.1247   0.1250   0.1258   0.1259   0.1265   0.1268
  0.1277   0.1287   0.1293   0.1301   0.1306   0.1310   0.1316   0.1323
  0.1326   0.1330   0.1337   0.1342   0.1346   0.1359   0.1361   0.1365
  0.1371   0.1381   0.1389   0.1394   0.1405   0.1413   0.1415   0.1418
  0.1428   0.1433   0.1440   0.1444   0.1446   0.1455   0.1465   0.1472
  0.1473   0.1474   0.1486   0.1493   0.1497   0.1500   0.1507   0.1513
  0.1517   0.1527   0.1533   0.1539   0.1544   0.1545   0.1553   0.1563
  0.1570   0.1573   0.1576   0.1588   0.1592   0.1600   0.1607   0.1609
  0.1613   0.1618   0.1624   0.1627   0.1633   0.1642   0.1648   0.1652
  0.1656   0.1668   0.1672   0.1676   0.1683   0.1690   0.1692   0.1706
  0.1710   0.1712   0.1717   0.1723   0.1733   0.1739   0.1746   0.1749
  0.1753   0.1757   0.1767   0.1772   0.1780   0.1787   0.1790   0.1794
  0.1799   0.1802   0.1813   0.1815   0.1821   0.1830   0.1833   0.1835
  0.1843   0.1846   0.1854   0.1864   0.1871   0.1876   0.1879   0.1887
  0.1889   0.1896   0.1899   0.1903   0.1908   0.1923   0.1925   0.1934
  0.1940   0.1948   0.1954   0.1955   0.1961   0.1967   0.1970   0.1974
  0.1990   0.1994   0.2004   0.2009   0.2015   0.2018   0.2021   0.2033
  0.2041   0.2043   0.2051   0.2054   0.2067   0.2070   0.2076   0.2084
  0.2090   0.2096   0.2097   0.2105   0.2111   0.2114   0.2121   0.2127
  0.2136   0.2137   0.2149   0.2156   0.2165   0.2178   0.2180   0.2186
  0.2195   0.2199   0.2211   0.2212   0.2214   0.2220   0.2231   0.2235
  0.2240   0.2246   0.2252   0.2258   0.2264   0.2275   0.2277   0.2279
  0.2291   0.2293   0.2305   0.2308   0.2317   0.2323   0.2329   0.2334
  0.2344   0.2350   0.2354   0.2365   0.2366   0.2371   0.2382   0.2388
  0.2394   0.2399   0.2400   0.2406   0.2410   0.2414   0.2426   0.2429
  0.2442   0.2445   0.2450   0.2457   0.2467   0.2470   0.2474   0.2477
  0.2487   0.2496   0.2502   0.2509   0.2513   0.2519   0.2531   0.2539
  0.2545   0.2552   0.2556   0.2566   0.2572   0.2580   0.2586   0.2589
  0.2598   0.2605   0.2606   0.2611   0.2623   0.2636   0.2642   0.2647
  0.2651   0.2652   0.2660   0.2672   0.2676   0.2686   0.2695   0.2701
  0.2706   0.2711   0.2718   0.2726   0.2734   0.2737   0.2753   0.2765
  0.2769   0.2777   0.2781   0.2791   0.2795   0.2805   0.2814   0.2816
  0.2832   0.2841   0.2844   0.2850   0.2859   0.2867   0.2872   0.2884
  0.2890   0.2892   0.2907   0.2913   0.2916   0.2918   0.2929   0.2939
  0.2941   0.2960   0.2962   0.2974   0.2987   0.2995   0.2996   0.3001
  0.3017   0.3022   0.3035   0.3040   0.3045   0.3059   0.3070   0.3076
  0.3082   0.3085   0.3091   0.3102   0.3112   0.3125   0.3131   0.3142
  0.3146   0.3151   0.3160   0.3172   0.3183   0.3185   0.3190   0.3195
  0.3202   0.3217   0.3225   0.3232   0.3237   0.3254   0.3258   0.3262
  0.3273   0.3274   0.3280   0.3293   0.3304   0.3312   0.3326   0.3333
  0.3345   0.3355   0.3358   0.3369   0.3383   0.3397   0.3401   0.3408
  0.3413   0.3426   0.3429   0.3445   0.3451   0.3463   0.3468   0.3476
  0.3487   0.3489   0.3503   0.3506   0.3517   0.3524   0.3537   0.3549
  0.3563   0.3564   0.3571   0.3582   0.3593   0.3600   0.3605   0.3616
  0.3632   0.3648   0.3652   0.3661   0.3671   0.3673   0.3694   0.3696
  0.3705   0.3709   0.3719   0.3734   0.3746   0.3754   0.3754   0.3769
  0.3782   0.3782   0.3785   0.3796   0.3803   0.3806   0.3810   0.3834
  0.3836   0.3845   0.3864   0.3869   0.3871   0.3882   0.3889   0.3897
  0.3908   0.3918   0.3926   0.3931   0.3936   0.3945   0.3954   0.3964
  0.3973   0.3978   0.3988   0.3994   0.4005   0.4009   0.4022   0.4025
  0.4036   0.4045   0.4057   0.4060   0.4086   0.4092   0.4098   0.4110
  0.4120   0.4127   0.4138   0.4147   0.4150   0.4164   0.4165   0.4173
  0.4180   0.4197   0.4205   0.4210   0.4228   0.4229   0.4241   0.4256
  0.4261   0.4269   0.4274   0.4291   0.4294   0.4304   0.4310   0.4319
  0.4324   0.4362   0.4365   0.4376   0.4396   0.4399   0.4408   0.4413
  0.4430   0.4440   0.4449   0.4457   0.4470   0.4474   0.4496   0.4502
  0.4514   0.4525   0.4548   0.4556   0.4566   0.4582   0.4590   0.4596
  0.4601   0.4612   0.4632   0.4635   0.4648   0.4657   0.4668   0.4687
  0.4704   0.4716   0.4719   0.4729   0.4740   0.4754   0.4761   0.4771
  0.4784   0.4803   0.4826   0.4834   0.4847   0.4854   0.4867   0.4889
  0.4901   0.4909   0.4928   0.4935   0.4945   0.4947   0.4973   0.4998
  0.4999   0.5008   0.5025   0.5044   0.5067   0.5074   0.5086   0.5089
  0.5110   0.5120   0.5126   0.5170   0.5178   0.5186   0.5205   0.5226
  0.5249   0.5259   0.5276   0.5297   0.5331   0.5344   0.5347   0.5356
  0.5377   0.5387   0.5395   0.5421   0.5437   0.5455   0.5465   0.5490
  0.5493   0.5521   0.5528   0.5542   0.5550   0.5580   0.5590   0.5607
  0.5618   0.5632   0.5640   0.5664   0.5671   0.5702   0.5708   0.5730
  0.5739   0.5745   0.5775   0.5784   0.5795   0.5808   0.5823   0.5833
  0.5853   0.5858   0.5870   0.5882   0.5892   0.5906   0.5916   0.5934
  0.5953   0.5970   0.5974   0.5988   0.6000   0.6006   0.6038   0.6048
  0.6054   0.6078   0.6083   0.6086   0.6103   0.6117   0.6131   0.6136
  0.6157   0.6166   0.6177   0.6196   0.6205   0.6210   0.6227   0.6233
  0.6258   0.6266   0.6284   0.6288   0.6306   0.6313   0.6320   0.6334
  0.6342   0.6358   0.6374   0.6380   0.6392   0.6407   0.6427   0.6437
  0.6443   0.6457   0.6465   0.6467   0.6478   0.6497   0.6506   0.6515
  0.6533   0.6542   0.6548   0.6553   0.6569   0.6577   0.6581   0.6594
  0.6609   0.6615   0.6622   0.6632   0.6645   0.6662   0.6672   0.6681
  0.6692   0.6697   0.6708   0.6717   0.6730   0.6738   0.6743   0.6754
  0.6755   0.6770   0.6784   0.6789   0.6805   0.6806   0.6815   0.6826
  0.6830   0.6844   0.6855   0.6870   0.6886   0.6894   0.6906   0.6918
  0.6919   0.6928   0.6936   0.6951   0.6962   0.6977   0.6989   0.7013
  0.7021   0.7036   0.7054   0.7067   0.7071   0.7080   0.7088   0.7107
  0.7120   0.7137   0.7146   0.7155   0.7176   0.7191   0.7193   0.7200
  0.7220   0.7224   0.7242   0.7253   0.7265   0.7281   0.7304   0.7339
  0.7346   0.7353   0.7376   0.7395   0.7398   0.7412   0.7419   0.7438
  0.7452   0.7464   0.7478   0.7500   0.7515   0.7527   0.7541   0.7551
  0.7566   0.7577   0.7588   0.7598   0.7626   0.7635   0.7650   0.7661
  0.7675   0.7690   0.7711   0.7716   0.7741   0.7753   0.7761   0.7774
  0.7794   0.7811   0.7837   0.7860   0.7874   0.7879   0.7893   0.7904
  0.7910   0.7943   0.7952   0.7974   0.7979   0.7991   0.8011   0.8035
  0.8057   0.8080   0.8102   0.8119   0.8124   0.8148   0.8168   0.8187
  0.8202   0.8213   0.8231   0.8239   0.8249   0.8265   0.8278   0.8289
  0.8314   0.8325   0.8339   0.8357   0.8363   0.8387   0.8396   0.8401
  0.8402   0.8426   0.8437   0.8454   0.8470   0.8476   0.8479   0.8488
  0.8490   0.8509   0.8516   0.8524   0.8538   0.8564   0.8570   0.8587
  0.8590   0.8608   0.8617   0.8623   0.8645   0.8653   0.8669   0.8675
  0.8697   0.8716   0.8728   0.8733   0.8739   0.8740   0.8759   0.8780
  0.8789   0.8807   0.8812   0.8827   0.8846   0.8860   0.8870   0.8877
  0.8899   0.8902   0.8918   0.8932   0.8945   0.8950   0.8975   0.8987
  0.8995   0.9004   0.9010   0.9026   0.9031   0.9045   0.9071   0.9081
  0.9105   0.9109   0.9120   0.9132   0.9139   0.9160   0.9164   0.9175
  0.9199   0.9208   0.9210   0.9215   0.9222   0.9236   0.9255   0.9267
  0.9272   0.9290   0.9304   0.9313   0.9322   0.9336   0.9350   0.9366
  0.9370   0.9378   0.9396   0.9409   0.9416   0.9428   0.9440   0.9451
  0.9476   0.9482   0.9493   0.9503   0.9512   0.9534   0.9544   0.9551
  0.9557   0.9570   0.9576   0.9596   0.9610   0.9617   0.9622   0.9639
  0.9641   0.9650   0.9672   0.9677   0.9682   0.9693   0.9711   0.9735
  0.9741   0.9748   0.9753   0.9754   0.9775   0.9783   0.9793   0.9808
  0.9814   0.9825   0.9827   0.9835   0.9843   0.9849   0.9862   0.9870
  0.9897   0.9900   0.9915   0.9934   0.9949   0.9959   0.9965   0.9971
  0.9985   1.0002   1.0004   1.0009   1.0018   1.0027   1.0044   1.0059
  1.0064   1.0076   1.0081   1.0089   1.0097   1.0101   1.0118   1.0135
  1.0144   1.0146   1.0151   1.0177   1.0194   1.0198   1.0199   1.0222
  1.0232   1.0235   1.0255   1.0268   1.0275   1.0279   1.0294   1.0301
  1.0326   1.0328   1.0348   1.0361   1.0374   1.0392   1.0404   1.0418
  1.0430   1.0440   1.0454   1.0479   1.0492   1.0510   1.0520   1.0543
  1.0545   1.0555   1.0573   1.0577   1.0584   1.0588   1.0618   1.0639
  1.0670   1.0673   1.0681   1.0690   1.0719   1.0724   1.0732   1.0738
  1.0742   1.0759   1.0779   1.0781   1.0811   1.0821   1.0834   1.0851
  1.0869   1.0876   1.0893   1.0897   1.0911   1.0919   1.0934   1.0942
  1.0959   1.0966   1.0981   1.1012   1.1024   1.1030   1.1055   1.1061
  1.1084   1.1093   1.1105   1.1118   1.1124   1.1140   1.1158   1.1163
  1.1167   1.1172   1.1196   1.1202   1.1209   1.1218   1.1238   1.1247
  1.1261   1.1270   1.1277   1.1295   1.1335   1.1340   1.1359   1.1379
  1.1392   1.1406   1.1415   1.1431   1.1447   1.1452   1.1462   1.1475
  1.1487   1.1504   1.1515   1.1533   1.1539   1.1551   1.1563   1.1572
  1.1590   1.1607   1.1612   1.1616   1.1635   1.1647   1.1662   1.1669
  1.1697   1.1700   1.1712   1.1728   1.1734   1.1753   1.1765   1.1771
  1.1789   1.1797   1.1822   1.1831   1.1834   1.1846   1.1859   1.1881
  1.1901   1.1910   1.1934   1.1954   1.1969   1.1987   1.1996   1.2014
  1.2029   1.2038   1.2052   1.2064   1.2069   1.2099   1.2129   1.2136
  1.2166   1.2171   1.2202   1.2220   1.2236   1.2245   1.2260   1.2273
  1.2291   1.2305   1.2339   1.2353   1.2355   1.2371   1.2426   1.2429
  1.2461   1.2485   1.2503   1.2527   1.2541   1.2576   1.2590   1.2616
  1.2651   1.2663   1.2689   1.2695   1.2712   1.2733   1.2741   1.2777
  1.2794   1.2806   1.2842   1.2844   1.2893   1.2914   1.2918   1.2964
  1.2969   1.2981   1.2994   1.3007   1.3024   1.3035   1.3064   1.3101
  1.3128   1.3148   1.3165   1.3186   1.3208   1.3219   1.3246   1.3259
  1.3294   1.3297   1.3321   1.3332   1.3350   1.3364   1.3416   1.3430
  1.3437   1.3461   1.3470   1.3504   1.3512   1.3528   1.3536   1.3576
  1.3584   1.3611   1.3628   1.3640   1.3659   1.3665   1.3689   1.3693
  1.3725   1.3728   1.3738   1.3757   1.3766   1.3778   1.3793   1.3802
  1.3840   1.3858   1.3881   1.3887   1.3900   1.3915   1.3926   1.3944
  1.3955   1.3983   1.3989   1.3992   1.4019   1.4026   1.4055   1.4058
  1.4083   1.4090   1.4093   1.4115   1.4117   1.4132   1.4159   1.4165
  1.4183   1.4202   1.4221   1.4226   1.4233   1.4253   1.4267   1.4288
  1.4297   1.4304   1.4331   1.4345   1.4362   1.4380   1.4389   1.4401
  1.4408   1.4421   1.4438   1.4466   1.4468   1.4482   1.4509   1.4522
  1.4534   1.4555   1.4571   1.4581   1.4604   1.4624   1.4628   1.4630
  1.4668   1.4678   1.4690   1.4706   1.4716   1.4745   1.4754   1.4773
  1.4798   1.4801   1.4820   1.4839   1.4854   1.4860   1.4877   1.4898
  1.4922   1.4933   1.4948   1.4975   1.4982   1.5002   1.5055   1.5073
  1.5090   1.5098   1.5118   1.5149   1.5154   1.5179   1.5219   1.5228
  1.5246   1.5264   1.5270   1.5289   1.5319   1.5366   1.5386   1.5404
  1.5426   1.5469   1.5475   1.5496   1.5543   1.5567   1.5606   1.5617
  1.5656   1.5690   1.5695   1.5727   1.5736   1.5752   1.5807   1.5835
  1.5854   1.5911   1.5947   1.5972   1.6040   1.6050   1.6097   1.6119
  1.6161   1.6221   1.6269   1.6286   1.6306   1.6399   1.6504   1.6524
  1.6549   1.6569   1.6597   1.6621   1.6646   1.6680   1.6697   1.6705
  1.6732   1.6746   1.6770   1.6787   1.6794   1.6811   1.6822   1.6830
  1.6849   1.6880   1.6884   1.6911   1.6930   1.6931   1.6953   1.6955
  1.6977   1.6995   1.6995   1.7006   1.7021   1.7023   1.7039   1.7044
  1.7057   1.7068   1.7074   1.7085   1.7098   1.7102   1.7115   1.7129
  1.7131   1.7139   1.7143   1.7154   1.7170   1.7178   1.7191   1.7198
  1.7210   1.7218   1.7236   1.7244   1.7253   1.7270   1.7277   1.7299
  1.7314   1.7315   1.7333   1.7348   1.7355   1.7367   1.7384   1.7399
  1.7417   1.7431   1.7435   1.7461   1.7468   1.7484   1.7505   1.7513
  1.7522   1.7549   1.7551   1.7577   1.7582   1.7592   1.7598   1.7626
  1.7640   1.7647   1.7660   1.7662   1.7687   1.7698   1.7728   1.7733
  1.7758   1.7769   1.7779   1.7792   1.7800   1.7814   1.7859   1.7863
  1.7880   1.7891   1.7901   1.7954   1.7960   1.7991   1.8004   1.8028
  1.8040   1.8057   1.8063   1.8068   1.8122   1.8155   1.8172   1.8204
  1.8250   1.8271   1.8298   1.8332   1.8352   1.8367   1.8430   1.8464
  1.8479   1.8517   1.8517   1.8535   1.8568   1.8608   1.8610   1.8644
  1.8677   1.8695   1.8726   1.8734   1.8752   1.8763   1.8789   1.8795
  1.8807   1.8830   1.8835   1.8841   1.8872   1.8880   1.8899   1.8920
  1.8931   1.8935   1.8947   1.8958   1.8970   1.8976   1.8993   1.9002
  1.9013   1.9018   1.9025   1.9031   1.9048   1.9058   1.9074   1.9079
  1.9092   1.9101   1.9110   1.9115   1.9140   1.9162   1.9171   1.9188
  1.9195   1.9202   1.9209   1.9223   1.9228   1.9268   1.9270   1.9282
  1.9309   1.9320   1.9324   1.9350   1.9362   1.9376   1.9401   1.9405
  1.9459   1.9466   1.9477   1.9500   1.9522   1.9564   1.9585   1.9602
  1.9631   1.9668   1.9688   1.9716   1.9792   1.9801   1.9842   1.9901
  1.9968   2.0065   2.0124   2.0196   2.0221   2.0240   2.0478   2.0506
  2.0520   2.0535   2.0554   2.0559   2.0564   2.0593   2.0602   2.0608
  2.0636   2.0643   2.0645   2.0653   2.0683   2.0707   2.0720   2.0733
  2.0736   2.0767   2.0775   2.0791   2.0797   2.0802   2.0819   2.0834
  2.0846   2.0851   2.0871   2.0879   2.0902   2.0911   2.0914   2.0932
  2.0954   2.0967   2.0992   2.1006   2.1015   2.1023   2.1032   2.1039
  2.1065   2.1091   2.1105   2.1130   2.1150   2.1161   2.1170   2.1218
  2.1237   2.1275   2.1290   2.1310   2.1361   2.1388   2.1422   2.1450
  2.1579   2.1649   2.1655   2.1698   2.1707   2.1711   2.1755   2.1786
  2.1794   2.1831   2.1859   2.1880   2.1898   2.1955   2.1977   2.1993
  2.2009   2.2035   2.2048   2.2070   2.2081   2.2096   2.2102   2.2111
  2.2132   2.2148   2.2166   2.2196   2.2199   2.2208   2.2210   2.2225
  2.2242   2.2271   2.2283   2.2326   2.2334   2.2343   2.2367   2.2369
  2.2396   2.2407   2.2414   2.2425   2.2432   2.2454   2.2465   2.2474
  2.2490   2.2492   2.2501   2.2509   2.2524   2.2533   2.2541   2.2552
  2.2560   2.2572   2.2581   2.2600   2.2616   2.2629   2.2645   2.2649
  2.2667   2.2672   2.2683   2.2704   2.2708   2.2727   2.2732   2.2739
  2.2747   2.2754   2.2764   2.2772   2.2781   2.2783   2.2804   2.2811
  2.2822   2.2827   2.2835   2.2842   2.2861   2.2866   2.2868   2.2878
  2.2884   2.2907   2.2910   2.2921   2.2932   2.2936   2.2941   2.2950
  2.2955   2.2972   2.2984   2.2986   2.2995   2.3000   2.3019   2.3032
  2.3041   2.3055   2.3063   2.3068   2.3079   2.3093   2.3103   2.3116
  2.3131   2.3142   2.3152   2.3157   2.3171   2.3178   2.3186   2.3198
  2.3211   2.3217   2.3222   2.3239   2.3240   2.3255   2.3270   2.3275
  2.3290   2.3297   2.3314   2.3328   2.3336   2.3353   2.3373   2.3384
  2.3390   2.3396   2.3410   2.3421   2.3434   2.3458   2.3473   2.3474
  2.3483   2.3488   2.3521   2.3529   2.3557   2.3576   2.3613   2.3618
  2.3631   2.3673   2.3697   2.3710   2.3717   2.3732   2.3775   2.3812
  2.3816   2.3859   2.3871   2.3887   2.3900   2.3943   2.3993   2.4041
  2.4055   2.4200   2.4307   2.4365   2.4502   2.4702   2.5094   2.5277
  2.5791   2.5989   2.6628   2.7075   2.7458   2.7913   2.8128   2.8143
  2.8289   2.8330   2.8337   2.8359   2.8384   2.8400   2.8449   2.8481
  2.8499   2.8512   2.8516   2.8538   2.8545   2.8575   2.8591   2.8627
  2.8634   2.8660   2.8673   2.8685   2.8690   2.8714   2.8731   2.8763
  2.8783   2.8895   2.8937   2.8959   2.9002   2.9594   3.0904   3.2082
  3.9406   3.9524   3.9683   3.9721   3.9739   3.9761   3.9781   3.9785
  3.9810   3.9817   3.9840   3.9843   3.9904   3.9912   3.9920   3.9938
  3.9957   3.9959   4.0034   4.0048   4.0073   4.0135   4.0157   4.0176
  4.0207   4.0231   4.0423   4.1922   4.2265   4.2313   4.2337   4.2344
  4.2435   4.2444   4.2506   4.2555   4.2584   4.2607   4.2627   4.2655
  4.2661   4.2678   4.2694   4.2738   4.2744   4.2760   4.2767   4.2807
  4.2865   4.2882   4.2895   4.2917   4.2940   4.2955   4.2984   4.3013
  4.3025   4.3086   4.3106   4.3116   4.3152   4.3164   4.3197   4.3203
  4.3240   4.3260   4.3291   4.3307   4.3355   4.3375   4.3387   4.3404
  4.3446   4.3466   4.3489   4.3502   4.3559   4.3567   4.3580   4.3627
  4.3639   4.3646   4.3676   4.3717   4.3765   4.3770   4.3788   4.3852
  4.3887   4.3923   4.3942   4.3980   4.4036   4.4103   4.4171   4.4227
  4.4293   4.4361   4.4472   4.4513   4.4583   4.4626   4.4715   4.4850
  4.4931   4.5019   4.5196   4.5267   4.5397   4.5496   4.5560   4.5765
  4.6124   4.6970   4.7520   4.7748   4.7970
 --------------------------------------------------------------

          Ground-State Mulliken Net Atomic Charges

     Atom                 Charge (a.u.)
  ----------------------------------------
      1 C                    -0.521589
      2 C                    -0.297081
      3 C                    -0.400930
      4 C                    -0.405653
      5 C                    -0.332385
      6 C                    -0.386376
      7 H                     0.220972
      8 H                     0.227038
      9 H                     0.217134
     10 H                     0.199139
     11 H                     0.210566
     12 H                     0.202247
     13 H                     0.234123
     14 H                     0.159766
     15 H                     0.244707
     16 H                     0.183004
     17 H                     0.189316
     18 N                    -0.385966
     19 H                     0.477438
     20 C                     0.260592
     21 H                     0.188280
     22 O                    -0.484342
     23 C                    -0.961832
     24 H                     0.255201
     25 H                     0.291927
     26 H                     0.292013
     27 S                     0.763527
     28 C                    -0.856919
     29 H                     0.258679
     30 H                     0.270656
     31 H                     0.275543
     32 O                    -0.647223
     33 C                    -1.013725
     34 H                     0.241059
     35 H                     0.266311
     36 H                     0.273122
     37 S                     0.935356
     38 C                    -0.770916
     39 H                     0.237731
     40 H                     0.275056
     41 H                     0.247546
     42 O                    -0.699427
     43 C                    -0.992492
     44 H                     0.263713
     45 H                     0.256302
     46 H                     0.247497
     47 S                     0.937921
     48 C                    -0.751777
     49 H                     0.240461
     50 H                     0.260581
     51 H                     0.235011
     52 O                    -0.706324
     53 C                    -0.816894
     54 H                     0.256577
     55 H                     0.277393
     56 H                     0.236572
     57 S                     0.843717
     58 C                    -0.862838
     59 H                     0.242368
     60 H                     0.240769
     61 H                     0.265060
     62 O                    -0.710207
     63 C                    -0.861361
     64 H                     0.243362
     65 H                     0.294591
     66 H                     0.252186
     67 S                     0.805171
     68 C                    -0.790673
     69 H                     0.242207
     70 H                     0.286491
     71 H                     0.272641
     72 O                    -0.627690
     73 C                    -0.780622
     74 H                     0.281707
     75 H                     0.274222
     76 H                     0.287448
     77 S                     0.713244
     78 C                    -0.929969
     79 H                     0.249803
     80 H                     0.278939
     81 H                     0.260322
     82 O                    -0.692440
     83 C                    -0.736216
     84 H                     0.287792
     85 H                     0.237959
     86 H                     0.301759
     87 S                     0.789287
     88 C                    -0.892962
     89 H                     0.244192
     90 H                     0.263630
     91 H                     0.257215
     92 O                    -0.701084
     93 C                    -0.932240
     94 H                     0.238703
     95 H                     0.273014
     96 H                     0.270211
     97 S                     0.957761
     98 C                    -0.837033
     99 H                     0.231847
    100 H                     0.286994
    101 H                     0.254618
    102 O                    -0.726079
    103 C                    -1.030417
    104 H                     0.244972
    105 H                     0.252214
    106 H                     0.284082
    107 S                     1.153418
    108 C                    -1.022451
    109 H                     0.246398
    110 H                     0.319255
    111 H                     0.234923
    112 O                    -0.678128
    113 C                    -1.034669
    114 H                     0.242584
    115 H                     0.259389
    116 H                     0.250181
    117 S                     1.251831
    118 C                    -0.899866
    119 H                     0.237120
    120 H                     0.260046
    121 H                     0.273873
    122 O                    -0.779955
    123 C                    -0.915766
    124 H                     0.258487
    125 H                     0.279382
    126 H                     0.220862
    127 S                     0.948455
    128 C                    -0.817944
    129 H                     0.252291
    130 H                     0.254080
    131 H                     0.219039
    132 O                    -0.706230
    133 C                    -0.846998
    134 H                     0.279596
    135 H                     0.225139
    136 H                     0.230655
    137 S                     0.936182
    138 C                    -0.994146
    139 H                     0.280424
    140 H                     0.267140
    141 H                     0.258659
    142 O                    -0.701672
    143 C                    -0.675153
    144 H                     0.313327
    145 H                     0.240557
    146 H                     0.274406
    147 S                     0.618605
    148 C                    -0.813070
    149 H                     0.236160
    150 H                     0.264392
    151 H                     0.256005
    152 O                    -0.756892
    153 C                    -0.905926
    154 H                     0.254276
    155 H                     0.245699
    156 H                     0.267985
    157 S                     0.975197
    158 C                    -0.838027
    159 H                     0.250298
    160 H                     0.280517
    161 H                     0.220999
    162 O                    -0.714678
    163 C                    -0.869947
    164 H                     0.257248
    165 H                     0.238845
    166 H                     0.263811
    167 S                     1.016452
    168 C                    -0.905789
    169 H                     0.246860
    170 H                     0.282389
    171 H                     0.233998
    172 O                    -0.683307
    173 C                    -1.074586
    174 H                     0.305682
    175 H                     0.251763
    176 H                     0.224322
    177 S                     0.793314
    178 C                    -0.797696
    179 H                     0.234827
    180 H                     0.250399
    181 H                     0.251311
    182 O                    -0.610031
    183 C                    -0.898955
    184 H                     0.311731
    185 H                     0.260798
    186 H                     0.237914
    187 S                     0.628855
    188 C                    -0.753403
    189 H                     0.315525
    190 H                     0.218997
    191 H                     0.269048
    192 O                    -0.615383
    193 C                    -0.980552
    194 H                     0.258932
    195 H                     0.297175
    196 H                     0.269594
    197 S                     1.004870
    198 C                    -0.928811
    199 H                     0.283837
    200 H                     0.246132
    201 H                     0.250085
    202 O                    -0.674195
    203 C                    -0.943457
    204 H                     0.308133
    205 H                     0.243805
    206 H                     0.254339
    207 S                     0.883074
    208 C                    -0.823740
    209 H                     0.252230
    210 H                     0.223809
    211 H                     0.285599
    212 O                    -0.688241
    213 C                    -0.663817
    214 H                     0.246137
    215 H                     0.310358
    216 H                     0.237015
    217 S                     0.305140
    218 C                    -0.659686
    219 H                     0.251261
    220 H                     0.245563
    221 H                     0.254153
    222 O                    -0.560234
    223 C                    -0.856340
    224 H                     0.265057
    225 H                     0.247276
    226 H                     0.227380
    227 S                     0.817121
    228 C                    -0.820371
    229 H                     0.257673
    230 H                     0.274617
    231 H                     0.222697
    232 O                    -0.616994
    233 C                    -0.853364
    234 H                     0.278602
    235 H                     0.296829
    236 H                     0.240906
    237 S                     0.914114
    238 C                    -0.846187
    239 H                     0.245198
    240 H                     0.278563
    241 H                     0.233334
    242 O                    -0.760431
    243 C                    -0.844652
    244 H                     0.247658
    245 H                     0.221894
    246 H                     0.263839
    247 S                     0.942051
    248 C                    -0.771990
    249 H                     0.255352
    250 H                     0.221187
    251 H                     0.285666
    252 O                    -0.777185
    253 C                    -0.954557
    254 H                     0.255904
    255 H                     0.252641
    256 H                     0.269352
    257 S                     1.016866
    258 C                    -0.957433
    259 H                     0.246478
    260 H                     0.290844
    261 H                     0.201576
    262 O                    -0.600270
    263 C                    -0.788440
    264 H                     0.282591
    265 H                     0.299232
    266 H                     0.227141
    267 S                     0.886343
    268 C                    -0.794213
    269 H                     0.280500
    270 H                     0.229389
    271 H                     0.228429
    272 O                    -0.763063
    273 C                    -0.664968
    274 H                     0.256886
    275 H                     0.243051
    276 H                     0.239116
    277 S                     0.474831
    278 C                    -0.786953
    279 H                     0.266048
    280 H                     0.265818
    281 H                     0.294115
    282 O                    -0.611653
    283 C                    -0.809630
    284 H                     0.238989
    285 H                     0.269918
    286 H                     0.310057
    287 S                     0.734959
    288 C                    -0.874892
    289 H                     0.231326
    290 H                     0.294943
    291 H                     0.265916
    292 O                    -0.723348
  ----------------------------------------
  Sum of atomic charges =     0.000000

 -----------------------------------------------------------------
                    Cartesian Multipole Moments
 -----------------------------------------------------------------
    Charge (ESU x 10^10)
                -0.0000
    Dipole Moment (Debye)
         X     -20.5893      Y       1.8830      Z     -15.3787
       Tot      25.7676
    Quadrupole Moments (Debye-Ang)
        XX   -1909.9282     XY    -391.3429     YY    -989.1359
        XZ    -837.8750     YZ    -235.5047     ZZ   -1671.5261
    Octopole Moments (Debye-Ang^2)
       XXX -103919.5451    XXY  -36275.7412    XYY  -33971.3564
       YYY  -54261.0554    XXZ  -55572.2416    XYZ  -16038.8429
       YYZ  -31072.2502    XZZ  -51633.2060    YZZ  -29324.6087
       ZZZ -101901.5474
    Hexadecapole Moments (Debye-Ang^3)
      XXXX ************   XXXY ************   XXYY ************
      XYYY ************   YYYY ************   XXXZ ************
      XXYZ ************   XYYZ -997054.8201   YYYZ ************
      XXZZ ************   XYZZ -967307.6564   YYZZ ************
      XZZZ ************   YZZZ ************   ZZZZ ************
 -----------------------------------------------------------------
 Total job time:  31883.65s(wall), 261885.91s(cpu) 
 Thu Jul 21 18:45:07 2022

        *************************************************************
        *                                                           *
        *  Thank you very much for using Q-Chem.  Have a nice day.  *
        *                                                           *
        *************************************************************


 
User input: 2 of 2 
 
                  Welcome to Q-Chem
     A Quantum Leap Into The Future Of Chemistry


 Q-Chem 6.0 (devel), Q-Chem, Inc., Pleasanton, CA (2022)

 E. Epifanovsky,  A. T. B. Gilbert,  Xintian Feng,  Joonho Lee,  Yuezhi Mao,  
 N. Mardirossian,  P. Pokhilko,  A. White,  M. Wormit,  M. P. Coons,  
 A. L. Dempwolff,  Zhengting Gan,  D. Hait,  P. R. Horn,  L. D. Jacobson,  
 I. Kaliman,  J. Kussmann,  A. W. Lange,  Ka Un Lao,  D. S. Levine,  Jie Liu,  
 S. C. McKenzie,  A. F. Morrison,  K. Nanda,  F. Plasser,  D. R. Rehn,  
 M. L. Vidal,  Zhi-Qiang You,  Ying Zhu,  B. Alam,  B. Albrecht,  
 A. Aldossary,  E. Alguire,  J. H. Andersen,  V. Athavale,  D. Barton,  
[...]
          205         206         207         208         209         210
    1   0.4196696   0.8896673   1.7517435   3.3190842   4.1905786   2.8635280
    2  -1.8117359   0.1456409   0.0555775   0.0629126   0.7505065   1.2558209
    3  -0.9579700   1.2352971  -2.2594970  -0.6613099  -2.1358639   0.6278066
          211         212         213         214         215         216
    1   2.7036180   1.3705370   1.3151663  -0.6559508   2.5940600   1.7087373
    2  -1.5497626   3.0468077  -2.1506032  -3.0261382  -2.1332844  -1.4086777
    3  -0.4400633  -1.6928459   2.8454509   2.5448921   1.7029253   4.2572701
          217         218         219         220         221         222
    1   1.1569169  -0.5467337  -1.5742694   0.7789075  -0.6548706  -0.5859429
    2   0.0484355  -0.3479241  -1.8675855  -0.3742885   1.3597129  -0.6545903
    3   2.3995890   3.4893456   2.8304593   4.6429149   2.5343400  -0.3533626
          223         224         225         226         227         228
    1   2.8719781   4.0580204   1.3445879   2.9754201   1.0653569   2.4904954
    2  -0.0651427   1.6885380  -0.7728955  -0.7315190   0.2178068   2.0031798
    3   0.2973427   0.6002832   1.4808377  -1.3215303  -0.7880081  -1.6691816
          229         230         231         232         233         234
    1   0.8236168   2.9538784   3.6234671   0.6624140   0.6837145   2.1073624
    2   2.4446998   3.3186709   0.5225845   2.1845037  -0.4963087  -0.5983215
    3  -2.5412857  -0.7492164  -1.8011638   1.0108074  -0.7691199  -2.0308727
          235         236         237         238         239         240
    1   0.3890468  -0.0832516   2.5620437   3.5178119   4.3633424   2.2636706
    2  -2.2518678   1.0573744   0.6852609  -1.1319362  -0.6823796  -2.9170573
    3   0.1281052  -0.3725632  -0.0745643  -0.6729066   0.9929334  -0.4451996
          241         242         243         244         245         246
    1   3.3401721   1.8413712  -2.4474452  -3.6778159  -2.6098991  -0.8346266
    2   0.1597713  -1.4677461   2.3350090   1.3565855   2.9125557   2.6371258
    3  -2.1676625   2.2403771   0.2270582  -0.9660757   1.8825529  -0.5576987
          247         248         249         250         251         252
    1  -2.8359139  -0.8145109  -0.1395698  -2.2115197  -0.6637124  -1.4901406
    2   0.3095293   1.4376373   2.6581349   2.2433246  -0.4851846  -0.6411744
    3   1.8567211   2.5980216   1.1206126   3.2967373   3.1874805  -0.5067182
          253         254         255         256         257         258
    1   0.1024276   0.5873806  -1.2658610   1.3637674  -1.0484270  -0.0867048
    2   0.0048740   0.3664982   0.2985373  -0.5340428  -2.3488260  -2.5107382
    3   0.4639007  -1.3591813   1.3519214   1.8359700   0.6515509   2.7606765
          259         260         261         262         263         264
    1  -0.3820888   1.6314237  -1.3788775   1.4319000   1.4762322   0.2913663
    2  -4.2259266  -1.8305794  -1.4572314  -3.4747554   2.5246169   2.4993667
    3   2.4924561   2.8846137   3.0070404  -0.4052092  -1.5424955  -0.0705582
          265         266         267         268         269         270
    1   2.6215451   1.0229769   0.1863398  -1.7179145  -1.7373801  -0.6885534
    2   1.4827933   3.7133058   1.3842960   2.3165085   1.9889968   3.5602183
    3  -1.3504103  -2.7761008  -3.0676154  -2.0507327  -0.2035445  -2.9807168
          271         272         273         274         275         276
    1  -2.6276050  -0.3817959   0.4234801  -0.6755084   1.7918567  -0.3794493
    2   1.0498028  -0.3425618  -0.9901635   0.3041604  -1.1812186  -1.8407197
    3  -3.0258633  -0.0933800  -1.9002703  -0.9400888  -0.8907427  -3.5982868
          277         278         279         280         281         282
    1  -1.2738150  -0.4972228   1.5166559  -1.6188629  -0.9858540   0.5341865
    2  -1.9960119  -1.0593210  -0.0386245  -0.1557113  -2.5863205  -4.2019803
    3  -1.2991127   0.4792151   0.3103214  -0.3848070   1.0891019  -0.7531149
          283         284         285         286         287         288
    1  -3.0135329  -3.6338356  -1.9052987  -3.2986094  -1.3901309  -1.2297828
    2  -1.4417056  -2.2202055  -2.9528135  -0.0248549  -0.1652368  -2.3311636
    3  -0.4442356  -1.9935289   0.3545002   0.2789085  -1.2448144  -2.3543500
          289         290         291         292
    1  -1.8186077   0.6446030  -2.0684324   0.8492695
    2  -1.6205722  -1.9913019  -3.6816553  -0.6046464
    3  -3.6653297  -1.8642291  -1.1645708   1.0026143
 EField
            1           2           3           4           5           6
    1   0.0009378  -0.0039004   0.0004200   0.0013782   0.0029334   0.0045440
    2  -0.0005039  -0.0018924  -0.0039932  -0.0008394   0.0013911  -0.0005328
    3  -0.0039966  -0.0039086  -0.0011026   0.0027119   0.0045806   0.0012986
            7           8           9          10          11          12
    1   0.0000166  -0.0041663   0.0022537   0.0016819  -0.0012681   0.0030196
    2  -0.0009147   0.0009951  -0.0039333   0.0026302   0.0000512   0.0000680
    3  -0.0013244  -0.0003461  -0.0102423  -0.0027977   0.0023187   0.0042937
           13          14          15          16          17          18
    1  -0.0037214   0.0084282   0.0045477   0.0068311   0.0028385  -0.0125773
    2   0.0090837  -0.0006657  -0.0044083   0.0000634  -0.0090068  -0.0016046
    3   0.0057906   0.0057902   0.0056932  -0.0005304  -0.0019000  -0.0080859
           19          20          21          22          23          24
    1  -0.0284920  -0.0104434  -0.0158466  -0.0067133  -0.0057336   0.0283205
    2  -0.0093985   0.0018834   0.0011366   0.0011241  -0.0092944  -0.0198883
    3  -0.0131437  -0.0044604  -0.0089057  -0.0009389  -0.0025487  -0.0140973
           25          26          27          28          29          30
    1  -0.0270314  -0.0246901  -0.0343459   0.0047563   0.0158321  -0.0224833
    2  -0.0094238   0.0090802   0.0395646   0.0039660  -0.0235988   0.0117173
    3   0.0195487  -0.0211093   0.0218365  -0.0072994  -0.0147300  -0.0256225
           31          32          33          34          35          36
    1   0.0208694   0.0840620   0.0063258  -0.0142876   0.0109121   0.0299114
    2   0.0244999  -0.0481119  -0.0083730  -0.0109633  -0.0274299   0.0151436
    3  -0.0083028   0.0519631   0.0034832   0.0241885  -0.0168929   0.0010816
           37          38          39          40          41          42
    1  -0.0457381   0.0088497   0.0319059   0.0070142  -0.0201084  -0.0044671
    2  -0.0274041   0.0013013   0.0014324  -0.0266982   0.0224704   0.0808424
    3  -0.0215280  -0.0050530   0.0137158  -0.0194685  -0.0161465   0.0726626
           43          44          45          46          47          48
    1   0.0012449   0.0255669  -0.0277407   0.0132228  -0.0389786   0.0062778
    2   0.0006527   0.0200811   0.0073688  -0.0313393  -0.0297034  -0.0010552
    3   0.0125290   0.0049904   0.0148939  -0.0045993  -0.0239694  -0.0015832
           49          50          51          52          53          54
    1   0.0260247   0.0192189   0.0114537  -0.0017533  -0.0076223  -0.0211739
    2   0.0110148  -0.0273394   0.0117746   0.1082610   0.0031850   0.0182559
    3   0.0135881  -0.0107560  -0.0279820   0.0169164   0.0094222  -0.0090076
           55          56          57          58          59          60
    1  -0.0222982   0.0152711  -0.0362320   0.0036620  -0.0124529   0.0159521
    2  -0.0224622   0.0060966  -0.0257212  -0.0048733  -0.0082794  -0.0228440
    3   0.0105117   0.0249298  -0.0444939   0.0009321   0.0328780  -0.0228252
           61          62          63          64          65          66
    1   0.0252505   0.0743654   0.0024869   0.0098975  -0.0102159   0.0324504
    2   0.0081348   0.0772677   0.0031498  -0.0290669   0.0008477   0.0123720
    3   0.0199616  -0.0183726  -0.0081697  -0.0085153  -0.0322701   0.0002693
           67          68          69          70          71          72
    1   0.0177117  -0.0071084  -0.0231497  -0.0113533   0.0005554  -0.0151567
    2  -0.0369956  -0.0022696  -0.0035476   0.0178316  -0.0332205   0.1071257
    3   0.0451355  -0.0069215   0.0176539  -0.0241101  -0.0045952   0.0136634
           73          74          75          76          77          78
    1   0.0030716  -0.0033706   0.0220172   0.0122531   0.0156545  -0.0021307
    2   0.0103391   0.0364130   0.0050002  -0.0093980  -0.0537937   0.0041423
    3  -0.0062193   0.0066543   0.0212164  -0.0334895   0.0090312  -0.0073095
           79          80          81          82          83          84
    1   0.0094296  -0.0246666  -0.0046304  -0.0558864   0.0035609   0.0156124
    2  -0.0150306  -0.0157734   0.0281880   0.0587412   0.0004550  -0.0202989
    3  -0.0315001   0.0024385  -0.0015671   0.0745499   0.0073622   0.0269313
           85          86          87          88          89          90
    1   0.0344400  -0.0114285  -0.0173221  -0.0055686  -0.0287604   0.0116616
    2  -0.0003833   0.0180762   0.0515916  -0.0011054  -0.0127857  -0.0277717
    3  -0.0080079   0.0272924  -0.0187405   0.0050266  -0.0136447   0.0097257
           91          92          93          94          95          96
    1  -0.0175386   0.0273934  -0.0031219  -0.0236922   0.0125223  -0.0192136
    2   0.0203698  -0.0840237   0.0005946   0.0212896   0.0271964  -0.0256748
    3   0.0225834  -0.0641985  -0.0055249   0.0075904  -0.0194181  -0.0087816
           97          98          99         100         101         102
    1   0.0321991   0.0007700   0.0256364  -0.0259437   0.0268460  -0.0637246
    2   0.0329684  -0.0051079  -0.0092810  -0.0244723   0.0111466  -0.0701748
    3   0.0194338  -0.0105334   0.0098097   0.0030782  -0.0278156   0.0565982
          103         104         105         106         107         108
    1  -0.0051560  -0.0337177  -0.0116830   0.0043547  -0.0094192   0.0019442
    2  -0.0004431  -0.0011049  -0.0161535   0.0220744   0.0170564  -0.0089169
    3   0.0020011  -0.0149099   0.0258229   0.0131558  -0.0616597   0.0070155
          109         110         111         112         113         114
    1   0.0241969   0.0059242  -0.0276915   0.0896879   0.0090514   0.0229421
    2  -0.0149954  -0.0129767  -0.0142522   0.0304687   0.0026555   0.0193953
    3  -0.0154773   0.0333261  -0.0118404   0.0541731  -0.0019941   0.0097933
          115         116         117         118         119         120
    1   0.0025856   0.0201423  -0.0304972   0.0002693   0.0315299  -0.0166610
    2  -0.0275193   0.0010870  -0.0292686   0.0084111   0.0059785   0.0181091
    3   0.0182617  -0.0315156  -0.0359169   0.0021737  -0.0189382  -0.0169801
          121         122         123         124         125         126
    1  -0.0325136   0.0003912  -0.0044762  -0.0036722   0.0217327  -0.0289979
    2  -0.0020451  -0.0176318   0.0073433  -0.0032226   0.0191635   0.0124434
    3   0.0286346   0.1088391   0.0034083   0.0286965  -0.0066015  -0.0171256
          127         128         129         130         131         132
    1   0.0038711  -0.0028081   0.0030412   0.0045452  -0.0325618   0.0856258
    2  -0.0044622  -0.0020631  -0.0315345  -0.0020068   0.0029901  -0.0034743
    3  -0.0498492   0.0044477   0.0003757   0.0304918  -0.0095903   0.0707365
          133         134         135         136         137         138
    1   0.0011604   0.0190675   0.0072611  -0.0322606  -0.0231297  -0.0021591
    2   0.0034010  -0.0102449   0.0328213  -0.0077116   0.0156425  -0.0109294
    3   0.0087043   0.0249299   0.0081504  -0.0041971  -0.0460795   0.0021753
          139         140         141         142         143         144
    1   0.0080743   0.0150251  -0.0329563   0.1074489   0.0077997   0.0390066
    2  -0.0234478  -0.0015368  -0.0010777  -0.0088431  -0.0064658  -0.0078166
    3  -0.0212767   0.0281650   0.0039168   0.0212071   0.0042060   0.0060778
          145         146         147         148         149         150
    1  -0.0022984  -0.0047548   0.0154520  -0.0053481  -0.0145489  -0.0180400
    2   0.0176215  -0.0301794   0.0527150  -0.0034333   0.0173841   0.0054004
    3   0.0310245  -0.0150975   0.0006176   0.0002548   0.0253317  -0.0258810
          151         152         153         154         155         156
    1  -0.0093050   0.0092930   0.0046967   0.0322513  -0.0034287   0.0061413
    2  -0.0230560  -0.0698342   0.0034064  -0.0088978   0.0006996   0.0312182
    3   0.0250517  -0.0832941  -0.0051056  -0.0063279  -0.0295375   0.0029716
          157         158         159         160         161         162
    1   0.0119250  -0.0003725  -0.0227231  -0.0037987   0.0235835  -0.0931811
    2   0.0024727  -0.0074066  -0.0236557   0.0004148  -0.0229482   0.0361022
    3   0.0510683  -0.0035726   0.0111737  -0.0278158   0.0082009  -0.0472252
          163         164         165         166         167         168
    1   0.0016580   0.0294446  -0.0014739  -0.0204062   0.0221912  -0.0075378
    2   0.0071729   0.0115090  -0.0004084   0.0212438  -0.0406770  -0.0002187
    3  -0.0018107   0.0033078  -0.0337015   0.0099401  -0.0209167   0.0019768
          169         170         171         172         173         174
    1  -0.0200274  -0.0096755  -0.0161110   0.0151362  -0.0057631   0.0126812
    2  -0.0251587   0.0216091   0.0046872   0.0338432   0.0072482   0.0097109
    3   0.0090462   0.0201667  -0.0284907   0.1044221   0.0063645   0.0282107
          175         176         177         178         179         180
    1   0.0029921  -0.0269855   0.0486076  -0.0064573  -0.0304855   0.0008756
    2   0.0305348  -0.0149889   0.0314878  -0.0048236  -0.0117848   0.0190781
    3  -0.0081850   0.0038780  -0.0158856   0.0000153   0.0069563  -0.0252254
          181         182         183         184         185         186
    1   0.0110789   0.0034468  -0.0015963   0.0151017  -0.0003739  -0.0358933
    2  -0.0250311  -0.0656788   0.0023348   0.0098270   0.0266810  -0.0066498
    3  -0.0123088   0.0917478   0.0117903   0.0330122  -0.0118734  -0.0004244
          187         188         189         190         191         192
    1  -0.0375691   0.0090460   0.0222071  -0.0196160   0.0226699   0.0877988
    2  -0.0269563  -0.0035182   0.0080720  -0.0229255  -0.0223799   0.0574206
    3  -0.0395660   0.0050534   0.0214944   0.0177360  -0.0138998  -0.0360876
          193         194         195         196         197         198
    1   0.0013552   0.0178480   0.0168446  -0.0181990  -0.0251586  -0.0054234
    2   0.0107579  -0.0017578   0.0082593   0.0326398  -0.0086367   0.0039148
    3  -0.0047591   0.0264835  -0.0287556  -0.0102661  -0.0479957   0.0057692
          199         200         201         202         203         204
    1  -0.0189276  -0.0163593   0.0050992   0.0812507  -0.0091630  -0.0292897
    2   0.0232759  -0.0240238   0.0150887  -0.0629919  -0.0015485   0.0157082
    3  -0.0164136   0.0157855   0.0255761   0.0401118   0.0052104  -0.0041942
          205         206         207         208         209         210
    1  -0.0071597   0.0010236   0.0021790   0.0049710   0.0284674  -0.0008507
    2  -0.0310213   0.0135291  -0.0259905  -0.0024988   0.0014149   0.0219468
    3  -0.0078315   0.0281145  -0.0540910   0.0043109  -0.0146352   0.0218453
          211         212         213         214         215         216
    1   0.0115408  -0.0152493   0.0041451  -0.0211221   0.0183702   0.0078872
    2  -0.0344183   0.1083573  -0.0107095  -0.0236311  -0.0148694   0.0011253
    3   0.0036105   0.0121037   0.0000924  -0.0030740  -0.0247746   0.0330940
          217         218         219         220         221         222
    1   0.0412324  -0.0064519  -0.0222032   0.0068032  -0.0221675  -0.0483225
    2   0.0404483   0.0035810  -0.0209696  -0.0016895   0.0285995  -0.0197456
    3   0.0086022   0.0023317   0.0025229   0.0310078   0.0043987  -0.0972662
          223         224         225         226         227         228
    1   0.0048402   0.0270202  -0.0013795   0.0147951  -0.0402491   0.0033575
    2   0.0013853   0.0146470  -0.0132198  -0.0185149  -0.0362033   0.0067764
    3   0.0032037   0.0170373   0.0284328  -0.0198903  -0.0301982  -0.0084462
          229         230         231         232         233         234
    1  -0.0185584   0.0183469   0.0202478  -0.0376890   0.0016385   0.0091365
    2  -0.0028362   0.0230994  -0.0088324   0.0738433  -0.0056948  -0.0083006
    3  -0.0273123   0.0257304  -0.0247902   0.0726430  -0.0083885  -0.0390563
          235         236         237         238         239         240
    1  -0.0096601  -0.0223423   0.0129919   0.0032096   0.0302147  -0.0049554
    2  -0.0238550   0.0171177   0.0512475  -0.0059635  -0.0035498  -0.0321762
    3   0.0185005   0.0025730  -0.0015811  -0.0021039   0.0137913  -0.0061963
          241         242         243         244         245         246
    1   0.0166871  -0.0241941  -0.0023357  -0.0242432  -0.0080453   0.0281557
    2   0.0028398  -0.0588298   0.0064221  -0.0056974   0.0290876   0.0060303
    3  -0.0321532   0.0904929  -0.0051678  -0.0212749   0.0177677  -0.0116568
          247         248         249         250         251         252
    1  -0.0362954   0.0061228   0.0219123   0.0013553   0.0242518   0.0479819
    2  -0.0157139  -0.0001708   0.0143231   0.0220959  -0.0114609  -0.0506793
    3   0.0293958   0.0041507  -0.0140176   0.0394443   0.0260457  -0.0840247
          253         254         255         256         257         258
    1   0.0030724  -0.0049459  -0.0200432   0.0202503  -0.0607440   0.0050195
    2   0.0079075   0.0097548   0.0248419   0.0067976  -0.0096217  -0.0015321
    3   0.0049572  -0.0303577   0.0076980   0.0209951  -0.0184885   0.0066546
          259         260         261         262         263         264
    1   0.0011037   0.0324633  -0.0228327   0.0838310   0.0041212  -0.0087843
    2  -0.0318500   0.0042427   0.0193104  -0.0478197   0.0078793   0.0153696
    3   0.0079437   0.0058981   0.0126904  -0.0489582   0.0099691   0.0315498
          265         266         267         268         269         270
    1   0.0253524   0.0116352   0.0120988  -0.0034439  -0.0069212   0.0007905
    2  -0.0218409   0.0306820  -0.0137365   0.0045275   0.0088976   0.0403886
    3  -0.0089867  -0.0135433  -0.0509360   0.0036056   0.0298191  -0.0019244
          271         272         273         274         275         276
    1  -0.0248288  -0.0181287   0.0019368  -0.0027304   0.0227976  -0.0027765
    2  -0.0215686  -0.0712105   0.0088296   0.0443606  -0.0000079  -0.0088180
    3  -0.0104189   0.0825359  -0.0027359   0.0036740   0.0105512  -0.0306643
          277         278         279         280         281         282
    1  -0.0579135  -0.0020435   0.0233088  -0.0243030  -0.0054623   0.0535823
    2  -0.0025135   0.0073954   0.0138608   0.0301929  -0.0201169  -0.0954746
    3  -0.0259465   0.0063577   0.0152291  -0.0044931   0.0236266   0.0119192
          283         284         285         286         287         288
    1  -0.0066913  -0.0202054   0.0075722  -0.0121232  -0.0053154   0.0084262
    2  -0.0055647  -0.0079525  -0.0273228   0.0272934   0.0630880  -0.0069603
    3   0.0089953  -0.0215881   0.0196731   0.0155348  -0.0313406   0.0005890
          289         290         291         292
    1  -0.0133952   0.0340888  -0.0111686   0.0897779
    2   0.0073833   0.0010563  -0.0295531  -0.0027103
    3  -0.0248126  -0.0057261   0.0073624   0.0784800
  --- DONE ESP SUMMARY ---
 Total job time:  30.68s(wall), 80.13s(cpu) 
 Thu Jul 21 18:45:38 2022

        *************************************************************
        *                                                           *
        *  Thank you very much for using Q-Chem.  Have a nice day.  *
        *                                                           *
        *************************************************************


