                  Welcome to Q-Chem
     A Quantum Leap Into The Future Of Chemistry


 Q-Chem 6.0 (devel), Q-Chem, Inc., Pleasanton, CA (2022)

 E. Epifanovsky,  A. T. B. Gilbert,  Xintian Feng,  Joonho Lee,  Yuezhi Mao,  
 N. Mardirossian,  P. Pokhilko,  A. White,  M. Wormit,  M. P. Coons,  
 A. L. Dempwolff,  Zhengting Gan,  D. Hait,  P. R. Horn,  L. D. Jacobson,  
 I. Kaliman,  J. Kussmann,  A. W. Lange,  Ka Un Lao,  D. S. Levine,  Jie Liu,  
 S. C. McKenzie,  A. F. Morrison,  K. Nanda,  F. Plasser,  D. R. Rehn,  
 M. L. Vidal,  Zhi-Qiang You,  Ying Zhu,  B. Alam,  B. Albrecht,  
 A. Aldossary,  E. Alguire,  J. H. Andersen,  V. Athavale,  D. Barton,  
 K. Begam,  A. Behn,  N. Bellonzi,  Y. A. Bernard,  E. J. Berquist,  
 H. Burton,  A. Carreras,  K. Carter-Fenk,  Romit Chakraborty,  
 Chandrima Chakravarty,  Junhan Chen,  A. D. Chien,  K. D. Closser,  
 V. Cofer-Shabica,  L. Cunha,  S. Dasgupta,  Jia Deng,  M. de Wergifosse,  
 M. Diedenhofen,  Hainam Do,  S. Ehlert,  Po-Tung Fang,  S. Fatehi,  
 Qingguo Feng,  T. Friedhoff,  B. Ganoe,  J. Gayvert,  Qinghui Ge,  
 G. Gidofalvi,  M. Goldey,  J. Gomes,  C. Gonzalez-Espinoza,  S. Gulania,  
 A. Gunina,  J. A. Gyamfi,  M. W. D. Hanson-Heine,  P. H. P. Harbach,  
 A. W. Hauser,  M. F. Herbst,  M. Hernandez Vera,  M. Hodecker,  
 Z. C. Holden,  S. Houck,  Xunkun Huang,  Kerwin Hui,  B. C. Huynh,  
 K. Ikeda,  M. Ivanov,  Hyunjun Ji,  Zuxin Jin,  Hanjie Jiang,  B. Kaduk,  
 S. Kaehler,  R. Kang,  K. Khistyaev,  Jaehoon Kim,  Yongbin Kim,  
 P. Klunzinger,  Z. Koczor-Benda,  Joong Hoon Koh,  D. Kosenkov,  
 Saikiran Kotaru,  L. Koulias,  T. Kowalczyk,  C. M. Krauter,  K. Kue,  
 A. Kunitsa,  T. Kus,  A. Landau,  K. V. Lawler,  D. Lefrancois,  S. Lehtola,  
 Rain Li,  Shaozhi Li,  Yi-Pei Li,  Jiashu Liang,  M. Liebenthal,  
 Hung-Hsuan Lin,  You-Sheng Lin,  Fenglai Liu,  Kuan-Yu Liu,  
 M. Loipersberger,  A. Luenser,  C. Malbon,  A. Manjanath,  P. Manohar,  
 E. Mansoor,  S. F. Manzer,  Shan-Ping Mao,  A. V. Marenich,  T. Markovich,  
 S. Mason,  F. Matz,  S. A. Maurer,  P. F. McLaughlin,  M. F. S. J. Menger,  
 J.-M. Mewes,  S. A. Mewes,  P. Morgante,  Mohammad Mostafanejad,  
 J. W. Mullinax,  K. J. Oosterbaan,  G. Paran,  V. Parravicini,  
 Alexander C. Paul,  Suranjan K. Paul,  F. Pavosevic,  Zheng Pei,  S. Prager,  
 E. I. Proynov,  E. Ramos,  B. Rana,  A. E. Rask,  A. Rettig,  R. M. Richard,  
 F. Rob,  E. Rossomme,  T. Scheele,  M. Scheurer,  M. Schneider,  
 P. E. Schneider,  N. Sergueev,  S. M. Sharada,  Hengyuan Shen,  
 W. Skomorowski,  D. W. Small,  C. J. Stein,  Yingli Su,  Yu-Chuan Su,  
 E. J. Sundstrom,  Zhen Tao,  J. Thirman,  Hung-Yi Tsai,  T. Tsuchimochi,  
 N. M. Tubman,  C. Utku,  S. P. Veccham,  O. Vydrov,  J. Wenzel,  
 Jonathan Wong,  J. Witte,  A. Yamada,  Chou-Hsun Yang,  Kun Yao,  
 S. Yeganeh,  S. R. Yost,  A. Zech,  F. Zeller,  Igor Ying Zhang,  
 Xing Zhang,  Yu Zhang,  D. Zuev,  A. Aspuru-Guzik,  A. T. Bell,  
 N. A. Besley,  K. B. Bravaya,  B. R. Brooks,  D. Casanova,  Jeng-Da Chai,  
 Hsing-Ta Chen,  S. Coriani,  C. J. Cramer,  A. E. DePrince, III,  
 R. A. DiStasio Jr.,  A. Dreuw,  B. D. Dunietz,  T. R. Furlani,  
 W. A. Goddard III,  S. Grimme,  S. Hammes-Schiffer,  T. Head-Gordon,  
 W. J. Hehre,  Chao-Ping Hsu,  T.-C. Jagau,  Yousung Jung,  A. Klamt,  
 Jing Kong,  D. S. Lambrecht,  Xiangyuan Li,  WanZhen Liang,  N. J. Mayhall,  
 C. W. McCurdy,  J. B. Neaton,  T. Neudecker,  C. Ochsenfeld,  
 J. A. Parkhill,  R. Peverati,  V. A. Rassolov,  Haisheng Ren,  Yihan Shao,  
 L. V. Slipchenko,  R. P. Steele,  J. E. Subotnik,  A. J. W. Thom,  
 A. Tkatchenko,  D. G. Truhlar,  T. Van Voorhis,  Fan Wang,  
 T. A. Wesolowski,  K. B. Whaley,  H. L. Woodcock III,  P. M. Zimmerman,  
 S. Faraji,  P. M. W. Gill,  M. Head-Gordon,  J. M. Herbert,  A. I. Krylov

 Contributors to earlier versions of Q-Chem not listed above: 
 R. D. Adamson,  B. Austin,  R. Baer,  J. Baker,  G. J. O. Beran,  
 K. Brandhorst,  S. T. Brown,  E. F. C. Byrd,  Arup K. Chakraborty,  
 G. K. L. Chan,  Chun-Min Chang,  Yunqing Chen,  C.-L. Cheng,  
 Siu Hung Chien,  D. M. Chipman,  D. L. Crittenden,  H. Dachsel,  
 R. J. Doerksen,  A. D. Dutoi,  R. G. Edgar,  J. Fosso-Tande,  
 L. Fusti-Molnar,  D. Ghosh,  A. Ghysels,  A. Golubeva-Zadorozhnaya,  
 J. Gonthier,  M. S. Gordon,  S. R. Gwaltney,  G. Hawkins,  J. E. Herr,  
 A. Heyden,  S. Hirata,  E. G. Hohenstein,  G. Kedziora,  F. J. Keil,  
 C. Kelley,  Jihan Kim,  R. A. King,  R. Z. Khaliullin,  P. P. Korambath,  
 W. Kurlancheek,  A. Laurent,  A. M. Lee,  M. S. Lee,  S. V. Levchenko,  
 Ching Yeh Lin,  D. Liotard,  E. Livshits,  R. C. Lochan,  I. Lotan,  
 L. A. Martinez-Martinez,  P. E. Maslen,  N. Nair,  D. P. O'Neill,  
 D. Neuhauser,  E. Neuscamman,  C. M. Oana,  R. Olivares-Amaya,  R. Olson,  
 T. M. Perrine,  B. Peters,  P. A. Pieniazek,  A. Prociuk,  Y. M. Rhee,  
 J. Ritchie,  M. A. Rohrdanz,  E. Rosta,  N. J. Russ,  H. F. Schaefer III,  
 M. W. Schmidt,  N. E. Schultz,  S. Sharma,  N. Shenvi,  C. D. Sherrill,  
 A. C. Simmonett,  A. Sodt,  T. Stein,  D. Stuck,  K. S. Thanthiriwatte,  
 V. Vanovschi,  L. Vogt,  Tao Wang,  A. Warshel,  M. A. Watson,  
 C. F. Williams,  Q. Wu,  X. Xu,  Jun Yang,  W. Zhang,  Yan Zhao

   Please cite Q-Chem as follows:
  "Software for the frontiers of quantum chemistry:
   An overview of developments in the Q-Chem 5 package"
   J. Chem. Phys. 155, 084801 (2021)
   https://doi.org/10.1063/5.0055522 (open access)

 Q-Chem 6.0.0 for Intel X86 EM64T Linux

 Parts of Q-Chem use Armadillo 9.900.5 (Nocturnal Misbehaviour).
 http://arma.sourceforge.net/

 Q-Chem begins on Thu Jul 21 08:58:35 2022  

 Host: nid00543
0

     Scratch files written to /global/cscratch1/sd/ymao90/r7.00_frame_0048_almo_B3LYP_dp20220721031502//
 Processing $rem in /global/homes/y/ymao90/my_qchem/qchem_embedding_5p4/config/preferences:
 Processing $rem in /global/homes/y/ymao90/.qchemrc:

 Checking the input file for inconsistencies... 	...done.

--------------------------------------------------------------
User input:
--------------------------------------------------------------
$molecule
0 1
--
0 1
C    27.23900   19.62100   24.73300  
C    27.88700   20.59200   25.73300  
C    29.15300   20.00600   26.38000  
C    30.17100   19.52200   25.33500  
C    29.50900   18.76600   24.17200  
C    28.28600   19.51100   23.61200  
H    29.51300   20.67800   27.16900  
H    28.20700   21.51200   25.23000  
H    26.99400   18.63600   25.14700  
H    26.40300   20.18200   24.29500  
H    30.63100   20.43000   24.92500  
H    31.01800   18.95700   25.74300  
H    30.13000   18.62000   23.27900  
H    29.21200   17.80100   24.60100  
H    28.48300   20.53500   23.27100  
H    27.89700   18.92200   22.77300  
H    28.88000   19.08400   26.90800  
N    27.00400   20.95900   26.83900  
H    26.70200   20.17100   27.39900  
C    26.75800   22.26100   27.22200  
H    26.05300   22.37400   28.06500  
O    27.30100   23.23700   26.73500  
--
0 1
C    25.23900   16.66400   22.40500  
H    24.66500   15.74500   22.25800  
H    26.24400   16.60000   21.98100  
H    25.35100   16.98600   23.44300  
S    24.28500   17.91500   21.51500  
C    23.27200   18.28500   22.96500  
H    22.99600   17.42000   23.57400  
H    23.88900   18.94600   23.57800  
H    22.39800   18.80600   22.56400  
O    23.38500   17.08900   20.65000  
C    31.09000   21.11600   30.53400  
H    32.03000   20.61200   30.29600  
H    30.30300   20.83000   29.83100  
H    31.11300   22.20900   30.53800  
S    30.55000   20.55100   32.16300  
C    31.85100   21.43800   33.05000  
H    32.58100   20.81100   33.56800  
H    32.43600   22.03900   32.34900  
H    31.36000   22.09300   33.77500  
O    30.95400   19.11400   32.05200  
C    34.66200   21.33900   27.68600  
H    35.47500   20.64500   27.46000  
H    34.81000   21.79000   28.67100  
H    33.77600   20.71900   27.84700  
S    34.54000   22.53300   26.33500  
C    34.24700   21.38000   24.97500  
H    33.42100   21.78800   24.38800  
H    35.20200   21.30300   24.44900  
H    33.90400   20.44800   25.43200  
O    35.94700   22.96900   26.07300  
C    28.33100   14.59900   24.12200  
H    27.86700   15.09700   23.26600  
H    27.56600   14.02300   24.64900  
H    28.83500   15.35900   24.72500  
S    29.47300   13.48800   23.26900  
C    30.17900   12.80300   24.78400  
H    29.44300   12.20500   25.32700  
H    31.10300   12.25000   24.59600  
H    30.57500   13.69300   25.28000  
O    30.52000   14.37500   22.67100  
C    24.75200   22.47600   22.63600  
H    24.66700   22.39500   21.54900  
H    25.57200   23.18600   22.76900  
H    25.05600   21.51400   23.05500  
S    23.15200   23.06300   23.23700  
C    23.64600   23.04300   24.97500  
H    22.80600   23.21800   25.65100  
H    24.06900   22.04100   25.08400  
H    24.48200   23.74000   25.07400  
O    22.46700   21.73300   23.18000  
C    24.71200   11.65100   25.64600  
H    24.29600   11.70700   26.65500  
H    24.17600   11.01100   24.94100  
H    25.76800   11.39900   25.77800  
S    24.67100   13.27300   24.85000  
C    22.89000   13.34100   24.55200  
H    22.66300   12.53600   23.84900  
H    22.40500   13.25900   25.52800  
H    22.61400   14.30600   24.11900  
O    25.41700   13.04000   23.57300  
C    28.96500   13.73500   28.33600  
H    28.21600   12.95000   28.20700  
H    29.36700   13.91900   27.33700  
H    29.82400   13.48400   28.96300  
S    28.22600   15.27400   28.93000  
C    29.67200   16.35000   28.80100  
H    29.42700   17.22500   29.40900  
H    30.49300   15.85500   29.32700  
H    30.01300   16.58300   27.78900  
O    28.17700   15.05300   30.40900  
C    28.90400   25.61000   22.12100  
H    29.61800   25.82800   22.92000  
H    29.41500   25.63000   21.15500  
H    28.17500   26.42300   22.08900  
S    28.06600   24.01500   22.26600  
C    29.52800   22.97500   22.48000  
H    29.46700   21.99200   22.00600  
H    30.46900   23.45000   22.19100  
H    29.68000   22.91500   23.56100  
O    27.69000   23.66700   20.86000  
C    30.40200   23.36500   26.77900  
H    29.64700   23.03800   26.05900  
H    31.22700   22.65000   26.82500  
H    29.99500   23.69600   27.73800  
S    31.27600   24.67400   25.89200  
C    29.96500   25.91800   25.85600  
H    30.30400   26.83400   25.36400  
H    29.08200   25.54900   25.32800  
H    29.76700   26.15300   26.90500  
O    31.59500   24.15600   24.52500  
C    24.83000   18.29200   31.04100  
H    24.55000   19.32600   31.25500  
H    24.02700   17.77400   30.51000  
H    24.97300   17.81700   32.01500  
S    26.32400   18.02500   30.06000  
C    27.49100   18.75700   31.23100  
H    26.99900   19.57200   31.76700  
H    27.82600   18.00000   31.94500  
H    28.29400   19.21900   30.65200  
O    26.31700   19.02900   28.95000  
C    36.66300   17.44200   21.34900  
H    37.37700   17.92700   20.67900  
H    37.00400   16.54100   21.86700  
H    35.76200   17.30700   20.74500  
S    36.00300   18.62300   22.54700  
C    34.48700   17.72100   22.94000  
H    34.66700   16.73000   23.36300  
H    33.86800   18.24800   23.67100  
H    33.90300   17.56100   22.03000  
O    35.55800   19.77600   21.70200  
C    29.77100   20.31300   19.84800  
H    29.73000   19.97500   20.88600  
H    29.18300   21.18900   19.56400  
H    29.55100   19.54300   19.10400  
S    31.50500   20.69000   19.50400  
C    32.25100   19.26500   20.32600  
H    31.75800   19.11000   21.28900  
H    32.10600   18.43000   19.63500  
H    33.29800   19.54100   20.47800  
O    31.95500   21.81500   20.38300  
C    34.69300   16.34100   28.12400  
H    35.15000   17.04000   28.83000  
H    34.29600   15.49100   28.68400  
H    35.36300   15.90300   27.38000  
S    33.25900   17.21200   27.45100  
C    33.03600   16.12400   26.02500  
H    32.21700   16.38800   25.35100  
H    33.99900   16.13000   25.51000  
H    32.92900   15.10300   26.40000  
O    33.79400   18.50300   26.91600  
C    24.03600   25.75300   27.21400  
H    23.19900   25.87700   26.52200  
H    24.02500   24.70600   27.52500  
H    23.81700   26.46600   28.01300  
S    25.46300   26.11900   26.16700  
C    26.56200   26.66500   27.49400  
H    27.30700   27.38400   27.14500  
H    26.05600   27.11200   28.35400  
H    27.15400   25.80400   27.81700  
O    25.05200   27.36600   25.44800  
C    26.50800   12.24700   20.39800  
H    25.91600   11.63900   19.70800  
H    27.49400   11.78200   20.47700  
H    26.03500   12.16800   21.38000  
S    26.60600   14.00000   19.97400  
C    24.82100   14.28000   19.92600  
H    24.77700   15.27300   19.47000  
H    24.38200   13.49300   19.30800  
H    24.46300   14.24300   20.95800  
O    27.00900   14.11100   18.53600  
C    22.79500   20.27100   27.09100  
H    21.83700   20.79700   27.09500  
H    23.36300   20.64700   26.23600  
H    22.56100   19.20300   27.07200  
S    23.63100   20.88600   28.57000  
C    22.30100   20.75300   29.78600  
H    22.47900   21.44500   30.61400  
H    21.30800   20.91400   29.35700  
H    22.30900   19.71500   30.12600  
O    23.59400   22.37200   28.39600  
C    18.87800   24.11400   31.43400  
H    18.90600   25.09800   30.96000  
H    18.52600   23.32500   30.76400  
H    18.25000   24.11100   32.32900  
S    20.59500   23.83900   31.92400  
C    21.06000   23.95500   30.18200  
H    20.63500   23.03200   29.77900  
H    20.63100   24.82200   29.67500  
H    22.14900   23.90500   30.09600  
O    20.70700   22.39200   32.29100  
C    33.97800   23.41400   21.82700  
H    33.20000   23.08200   22.52000  
H    33.44300   23.80500   20.95700  
H    34.52500   22.50900   21.55200  
S    35.10900   24.63200   22.53600  
C    33.86700   25.91700   22.80800  
H    33.08400   25.88400   22.04600  
H    33.36300   25.49000   23.67900  
H    34.20400   26.95400   22.87500  
O    35.78400   24.93900   21.23600  
C    26.38500   23.74400   30.31100  
H    26.34000   24.61600   30.96900  
H    26.21700   24.11300   29.29600  
H    25.60400   23.06100   30.65500  
S    27.91400   22.82500   30.60000  
C    27.59500   22.85600   32.37800  
H    26.78600   22.13100   32.49900  
H    28.52900   22.62800   32.89900  
H    27.26600   23.82000   32.77400  
O    28.92700   23.91900   30.46700  
C    24.75500   15.45000   28.42900  
H    25.26500   14.63700   27.90600  
H    25.37900   15.78800   29.26100  
H    23.89400   15.00700   28.93500  
S    24.29800   16.79400   27.31000  
C    22.59100   16.27100   27.02900  
H    21.90400   16.66500   27.78200  
H    22.32800   16.57500   26.01200  
H    22.62300   15.18000   27.06900  
O    25.07200   16.50300   26.06200  
C    25.77500   17.31000   17.73100  
H    26.68100   16.77600   18.02800  
H    24.83300   16.88900   18.09300  
H    25.80500   17.52600   16.66000  
S    25.78800   18.93200   18.52800  
C    24.17500   19.51500   17.95800  
H    23.39300   18.95600   18.47700  
H    24.02500   20.59700   17.94200  
H    24.12100   19.21700   16.90700  
O    26.83200   19.79500   17.89200  
C    31.85600   28.31900   27.45100  
H    31.90400   28.41600   26.36400  
H    32.49500   29.04200   27.96500  
H    32.14000   27.29100   27.69400  
S    30.22900   28.92800   27.94800  
C    30.36100   30.61000   27.30000  
H    31.31000   31.08300   27.56700  
H    30.37200   30.65700   26.20800  
H    29.51100   31.18000   27.68300  
O    30.33900   29.25800   29.40400  
$end

$rem
JOBTYPE  SP
METHOD  B3LYP
BASIS  6-31+G(D)
SYMMETRY  FALSE
SYM_IGNORE  TRUE
MEM_TOTAL  12000
MEM_STATIC  4000
BASIS_LIN_DEP_THRESH  6
THRESH  14
SCF_CONVERGENCE  8
FD_MAT_VEC_PROD  FALSE
XC_GRID  000075000302
NL_GRID  1
MAX_SCF_CYCLES  200
FRGM_METHOD  STOLL
SCFMI_MODE  1
ALMO_EFIELD  TRUE
$end

$rem_frgm
SCF_CONVERGENCE  4
$end


--------------------------------------------------------------
 ----------------------------------------------------------------
             Standard Nuclear Orientation (Angstroms)
    I     Atom           X                Y                Z
 ----------------------------------------------------------------
    1      C      27.2390000000    19.6210000000    24.7330000000
    2      C      27.8870000000    20.5920000000    25.7330000000
    3      C      29.1530000000    20.0060000000    26.3800000000
    4      C      30.1710000000    19.5220000000    25.3350000000
    5      C      29.5090000000    18.7660000000    24.1720000000
    6      C      28.2860000000    19.5110000000    23.6120000000
    7      H      29.5130000000    20.6780000000    27.1690000000
    8      H      28.2070000000    21.5120000000    25.2300000000
    9      H      26.9940000000    18.6360000000    25.1470000000
   10      H      26.4030000000    20.1820000000    24.2950000000
   11      H      30.6310000000    20.4300000000    24.9250000000
   12      H      31.0180000000    18.9570000000    25.7430000000
   13      H      30.1300000000    18.6200000000    23.2790000000
   14      H      29.2120000000    17.8010000000    24.6010000000
   15      H      28.4830000000    20.5350000000    23.2710000000
   16      H      27.8970000000    18.9220000000    22.7730000000
   17      H      28.8800000000    19.0840000000    26.9080000000
   18      N      27.0040000000    20.9590000000    26.8390000000
   19      H      26.7020000000    20.1710000000    27.3990000000
   20      C      26.7580000000    22.2610000000    27.2220000000
   21      H      26.0530000000    22.3740000000    28.0650000000
   22      O      27.3010000000    23.2370000000    26.7350000000
   23      C      25.2390000000    16.6640000000    22.4050000000
   24      H      24.6650000000    15.7450000000    22.2580000000
   25      H      26.2440000000    16.6000000000    21.9810000000
   26      H      25.3510000000    16.9860000000    23.4430000000
   27      S      24.2850000000    17.9150000000    21.5150000000
   28      C      23.2720000000    18.2850000000    22.9650000000
   29      H      22.9960000000    17.4200000000    23.5740000000
   30      H      23.8890000000    18.9460000000    23.5780000000
   31      H      22.3980000000    18.8060000000    22.5640000000
   32      O      23.3850000000    17.0890000000    20.6500000000
   33      C      31.0900000000    21.1160000000    30.5340000000
   34      H      32.0300000000    20.6120000000    30.2960000000
   35      H      30.3030000000    20.8300000000    29.8310000000
   36      H      31.1130000000    22.2090000000    30.5380000000
   37      S      30.5500000000    20.5510000000    32.1630000000
   38      C      31.8510000000    21.4380000000    33.0500000000
   39      H      32.5810000000    20.8110000000    33.5680000000
   40      H      32.4360000000    22.0390000000    32.3490000000
   41      H      31.3600000000    22.0930000000    33.7750000000
   42      O      30.9540000000    19.1140000000    32.0520000000
   43      C      34.6620000000    21.3390000000    27.6860000000
   44      H      35.4750000000    20.6450000000    27.4600000000
   45      H      34.8100000000    21.7900000000    28.6710000000
   46      H      33.7760000000    20.7190000000    27.8470000000
   47      S      34.5400000000    22.5330000000    26.3350000000
   48      C      34.2470000000    21.3800000000    24.9750000000
   49      H      33.4210000000    21.7880000000    24.3880000000
   50      H      35.2020000000    21.3030000000    24.4490000000
   51      H      33.9040000000    20.4480000000    25.4320000000
   52      O      35.9470000000    22.9690000000    26.0730000000
   53      C      28.3310000000    14.5990000000    24.1220000000
   54      H      27.8670000000    15.0970000000    23.2660000000
   55      H      27.5660000000    14.0230000000    24.6490000000
   56      H      28.8350000000    15.3590000000    24.7250000000
   57      S      29.4730000000    13.4880000000    23.2690000000
   58      C      30.1790000000    12.8030000000    24.7840000000
   59      H      29.4430000000    12.2050000000    25.3270000000
   60      H      31.1030000000    12.2500000000    24.5960000000
   61      H      30.5750000000    13.6930000000    25.2800000000
   62      O      30.5200000000    14.3750000000    22.6710000000
   63      C      24.7520000000    22.4760000000    22.6360000000
   64      H      24.6670000000    22.3950000000    21.5490000000
   65      H      25.5720000000    23.1860000000    22.7690000000
   66      H      25.0560000000    21.5140000000    23.0550000000
   67      S      23.1520000000    23.0630000000    23.2370000000
   68      C      23.6460000000    23.0430000000    24.9750000000
   69      H      22.8060000000    23.2180000000    25.6510000000
   70      H      24.0690000000    22.0410000000    25.0840000000
   71      H      24.4820000000    23.7400000000    25.0740000000
   72      O      22.4670000000    21.7330000000    23.1800000000
   73      C      24.7120000000    11.6510000000    25.6460000000
   74      H      24.2960000000    11.7070000000    26.6550000000
   75      H      24.1760000000    11.0110000000    24.9410000000
   76      H      25.7680000000    11.3990000000    25.7780000000
   77      S      24.6710000000    13.2730000000    24.8500000000
   78      C      22.8900000000    13.3410000000    24.5520000000
   79      H      22.6630000000    12.5360000000    23.8490000000
   80      H      22.4050000000    13.2590000000    25.5280000000
   81      H      22.6140000000    14.3060000000    24.1190000000
   82      O      25.4170000000    13.0400000000    23.5730000000
   83      C      28.9650000000    13.7350000000    28.3360000000
   84      H      28.2160000000    12.9500000000    28.2070000000
   85      H      29.3670000000    13.9190000000    27.3370000000
   86      H      29.8240000000    13.4840000000    28.9630000000
   87      S      28.2260000000    15.2740000000    28.9300000000
   88      C      29.6720000000    16.3500000000    28.8010000000
   89      H      29.4270000000    17.2250000000    29.4090000000
   90      H      30.4930000000    15.8550000000    29.3270000000
   91      H      30.0130000000    16.5830000000    27.7890000000
   92      O      28.1770000000    15.0530000000    30.4090000000
   93      C      28.9040000000    25.6100000000    22.1210000000
   94      H      29.6180000000    25.8280000000    22.9200000000
   95      H      29.4150000000    25.6300000000    21.1550000000
   96      H      28.1750000000    26.4230000000    22.0890000000
   97      S      28.0660000000    24.0150000000    22.2660000000
   98      C      29.5280000000    22.9750000000    22.4800000000
   99      H      29.4670000000    21.9920000000    22.0060000000
  100      H      30.4690000000    23.4500000000    22.1910000000
  101      H      29.6800000000    22.9150000000    23.5610000000
  102      O      27.6900000000    23.6670000000    20.8600000000
  103      C      30.4020000000    23.3650000000    26.7790000000
  104      H      29.6470000000    23.0380000000    26.0590000000
  105      H      31.2270000000    22.6500000000    26.8250000000
  106      H      29.9950000000    23.6960000000    27.7380000000
  107      S      31.2760000000    24.6740000000    25.8920000000
  108      C      29.9650000000    25.9180000000    25.8560000000
  109      H      30.3040000000    26.8340000000    25.3640000000
  110      H      29.0820000000    25.5490000000    25.3280000000
  111      H      29.7670000000    26.1530000000    26.9050000000
  112      O      31.5950000000    24.1560000000    24.5250000000
  113      C      24.8300000000    18.2920000000    31.0410000000
  114      H      24.5500000000    19.3260000000    31.2550000000
  115      H      24.0270000000    17.7740000000    30.5100000000
  116      H      24.9730000000    17.8170000000    32.0150000000
  117      S      26.3240000000    18.0250000000    30.0600000000
  118      C      27.4910000000    18.7570000000    31.2310000000
  119      H      26.9990000000    19.5720000000    31.7670000000
  120      H      27.8260000000    18.0000000000    31.9450000000
  121      H      28.2940000000    19.2190000000    30.6520000000
  122      O      26.3170000000    19.0290000000    28.9500000000
  123      C      36.6630000000    17.4420000000    21.3490000000
  124      H      37.3770000000    17.9270000000    20.6790000000
  125      H      37.0040000000    16.5410000000    21.8670000000
  126      H      35.7620000000    17.3070000000    20.7450000000
  127      S      36.0030000000    18.6230000000    22.5470000000
  128      C      34.4870000000    17.7210000000    22.9400000000
  129      H      34.6670000000    16.7300000000    23.3630000000
  130      H      33.8680000000    18.2480000000    23.6710000000
  131      H      33.9030000000    17.5610000000    22.0300000000
  132      O      35.5580000000    19.7760000000    21.7020000000
  133      C      29.7710000000    20.3130000000    19.8480000000
  134      H      29.7300000000    19.9750000000    20.8860000000
  135      H      29.1830000000    21.1890000000    19.5640000000
  136      H      29.5510000000    19.5430000000    19.1040000000
  137      S      31.5050000000    20.6900000000    19.5040000000
  138      C      32.2510000000    19.2650000000    20.3260000000
  139      H      31.7580000000    19.1100000000    21.2890000000
  140      H      32.1060000000    18.4300000000    19.6350000000
  141      H      33.2980000000    19.5410000000    20.4780000000
  142      O      31.9550000000    21.8150000000    20.3830000000
  143      C      34.6930000000    16.3410000000    28.1240000000
  144      H      35.1500000000    17.0400000000    28.8300000000
  145      H      34.2960000000    15.4910000000    28.6840000000
  146      H      35.3630000000    15.9030000000    27.3800000000
  147      S      33.2590000000    17.2120000000    27.4510000000
  148      C      33.0360000000    16.1240000000    26.0250000000
  149      H      32.2170000000    16.3880000000    25.3510000000
  150      H      33.9990000000    16.1300000000    25.5100000000
  151      H      32.9290000000    15.1030000000    26.4000000000
  152      O      33.7940000000    18.5030000000    26.9160000000
  153      C      24.0360000000    25.7530000000    27.2140000000
  154      H      23.1990000000    25.8770000000    26.5220000000
  155      H      24.0250000000    24.7060000000    27.5250000000
  156      H      23.8170000000    26.4660000000    28.0130000000
  157      S      25.4630000000    26.1190000000    26.1670000000
  158      C      26.5620000000    26.6650000000    27.4940000000
  159      H      27.3070000000    27.3840000000    27.1450000000
  160      H      26.0560000000    27.1120000000    28.3540000000
  161      H      27.1540000000    25.8040000000    27.8170000000
  162      O      25.0520000000    27.3660000000    25.4480000000
  163      C      26.5080000000    12.2470000000    20.3980000000
  164      H      25.9160000000    11.6390000000    19.7080000000
  165      H      27.4940000000    11.7820000000    20.4770000000
  166      H      26.0350000000    12.1680000000    21.3800000000
  167      S      26.6060000000    14.0000000000    19.9740000000
  168      C      24.8210000000    14.2800000000    19.9260000000
  169      H      24.7770000000    15.2730000000    19.4700000000
  170      H      24.3820000000    13.4930000000    19.3080000000
  171      H      24.4630000000    14.2430000000    20.9580000000
  172      O      27.0090000000    14.1110000000    18.5360000000
  173      C      22.7950000000    20.2710000000    27.0910000000
  174      H      21.8370000000    20.7970000000    27.0950000000
  175      H      23.3630000000    20.6470000000    26.2360000000
  176      H      22.5610000000    19.2030000000    27.0720000000
  177      S      23.6310000000    20.8860000000    28.5700000000
  178      C      22.3010000000    20.7530000000    29.7860000000
  179      H      22.4790000000    21.4450000000    30.6140000000
  180      H      21.3080000000    20.9140000000    29.3570000000
  181      H      22.3090000000    19.7150000000    30.1260000000
  182      O      23.5940000000    22.3720000000    28.3960000000
  183      C      18.8780000000    24.1140000000    31.4340000000
  184      H      18.9060000000    25.0980000000    30.9600000000
  185      H      18.5260000000    23.3250000000    30.7640000000
  186      H      18.2500000000    24.1110000000    32.3290000000
  187      S      20.5950000000    23.8390000000    31.9240000000
  188      C      21.0600000000    23.9550000000    30.1820000000
  189      H      20.6350000000    23.0320000000    29.7790000000
  190      H      20.6310000000    24.8220000000    29.6750000000
  191      H      22.1490000000    23.9050000000    30.0960000000
  192      O      20.7070000000    22.3920000000    32.2910000000
  193      C      33.9780000000    23.4140000000    21.8270000000
  194      H      33.2000000000    23.0820000000    22.5200000000
  195      H      33.4430000000    23.8050000000    20.9570000000
  196      H      34.5250000000    22.5090000000    21.5520000000
  197      S      35.1090000000    24.6320000000    22.5360000000
  198      C      33.8670000000    25.9170000000    22.8080000000
  199      H      33.0840000000    25.8840000000    22.0460000000
  200      H      33.3630000000    25.4900000000    23.6790000000
  201      H      34.2040000000    26.9540000000    22.8750000000
  202      O      35.7840000000    24.9390000000    21.2360000000
  203      C      26.3850000000    23.7440000000    30.3110000000
  204      H      26.3400000000    24.6160000000    30.9690000000
  205      H      26.2170000000    24.1130000000    29.2960000000
  206      H      25.6040000000    23.0610000000    30.6550000000
  207      S      27.9140000000    22.8250000000    30.6000000000
  208      C      27.5950000000    22.8560000000    32.3780000000
  209      H      26.7860000000    22.1310000000    32.4990000000
  210      H      28.5290000000    22.6280000000    32.8990000000
  211      H      27.2660000000    23.8200000000    32.7740000000
  212      O      28.9270000000    23.9190000000    30.4670000000
  213      C      24.7550000000    15.4500000000    28.4290000000
  214      H      25.2650000000    14.6370000000    27.9060000000
  215      H      25.3790000000    15.7880000000    29.2610000000
  216      H      23.8940000000    15.0070000000    28.9350000000
  217      S      24.2980000000    16.7940000000    27.3100000000
  218      C      22.5910000000    16.2710000000    27.0290000000
  219      H      21.9040000000    16.6650000000    27.7820000000
  220      H      22.3280000000    16.5750000000    26.0120000000
  221      H      22.6230000000    15.1800000000    27.0690000000
  222      O      25.0720000000    16.5030000000    26.0620000000
  223      C      25.7750000000    17.3100000000    17.7310000000
  224      H      26.6810000000    16.7760000000    18.0280000000
  225      H      24.8330000000    16.8890000000    18.0930000000
  226      H      25.8050000000    17.5260000000    16.6600000000
  227      S      25.7880000000    18.9320000000    18.5280000000
  228      C      24.1750000000    19.5150000000    17.9580000000
  229      H      23.3930000000    18.9560000000    18.4770000000
  230      H      24.0250000000    20.5970000000    17.9420000000
  231      H      24.1210000000    19.2170000000    16.9070000000
  232      O      26.8320000000    19.7950000000    17.8920000000
  233      C      31.8560000000    28.3190000000    27.4510000000
  234      H      31.9040000000    28.4160000000    26.3640000000
  235      H      32.4950000000    29.0420000000    27.9650000000
  236      H      32.1400000000    27.2910000000    27.6940000000
  237      S      30.2290000000    28.9280000000    27.9480000000
  238      C      30.3610000000    30.6100000000    27.3000000000
  239      H      31.3100000000    31.0830000000    27.5670000000
  240      H      30.3720000000    30.6570000000    26.2080000000
  241      H      29.5110000000    31.1800000000    27.6830000000
  242      O      30.3390000000    29.2580000000    29.4040000000
 ----------------------------------------------------------------
 Nuclear Repulsion Energy =       34181.90161386 hartrees
 There are      497 alpha and      497 beta electrons
 Requested basis set is 6-31+G(d)
 There are 797 shells and 2221 basis functions

 Total QAlloc Memory Limit  12000 MB
 Mega-Array Size      3911 MB
 MEM_STATIC part      4000 MB

 A cutoff of  1.0D-14 yielded 128993 shell pairs
 There are   1113083 function pairs
 Smallest overlap matrix eigenvalue = 7.48E-07
 Linear dependence detected in AO basis
 Tighter screening thresholds may be required for diffuse basis sets
 Use S2THRESH > 14 and THRESH = 14 in case of SCF convergence issues
 Number of orthogonalized atomic orbitals = 2220
 Maximum deviation from orthogonality = 1.222E-10

 Scale SEOQF with 1.000000e-03/1.000000e-03/1.000000e-03

 Standard Electronic Orientation quadrupole field applied
 Nucleus-field energy     =    -0.0000001181 hartrees
 Attempting to make child job directory: /global/cscratch1/sd/ymao90/r7.00_frame_0048_almo_B3LYP_dp20220721031502//Frg1/
 Attempting to make child job directory: /global/cscratch1/sd/ymao90/r7.00_frame_0048_almo_B3LYP_dp20220721031502//Frg2/
 Creating input file /global/cscratch1/sd/ymao90/r7.00_frame_0048_almo_B3LYP_dp20220721031502/Frg1.input
 using default PutDataFrgm: nothing
 calling putenv with: QCSCRATCH=/global/cscratch1/sd/ymao90/r7.00_frame_0048_almo_B3LYP_dp20220721031502/ 
 Spawning Job For Fragment 0
 Done Job For Fragment 0
 calling putenv with: QCSCRATCH=/global/cscratch1/sd/ymao90 
 calling putenv with: QCTHREADS=16 
 Creating input file /global/cscratch1/sd/ymao90/r7.00_frame_0048_almo_B3LYP_dp20220721031502/Frg2.input
 using default PutDataFrgm: nothing
 calling putenv with: QCSCRATCH=/global/cscratch1/sd/ymao90/r7.00_frame_0048_almo_B3LYP_dp20220721031502/ 
 Spawning Job For Fragment 1
 Done Job For Fragment 1
 calling putenv with: QCSCRATCH=/global/cscratch1/sd/ymao90 
 calling putenv with: QCTHREADS=16 
 Time for running child jobs:  CPU 0.33 s  wall 7966.92 s

 -----------------------------------------------------------------------
  General SCF calculation program by
  Eric Jon Sundstrom, Paul Horn, Yuezhi Mao, Dmitri Zuev, Alec White,
  David Stuck, Shaama M.S., Shane Yost, Joonho Lee, David Small,
  Daniel Levine, Susi Lehtola, Hugh Burton, Evgeny Epifanovsky,
  Bang C. Huynh
 -----------------------------------------------------------------------
Performing Restricted Closed Shell SCFMI
Doing General SCFMI
 Exchange:     0.2000 Hartree-Fock + 0.0800 Slater + 0.7200 B88
 Correlation:  0.1900 VWN1RPA + 0.8100 LYP
 Using Euler-Maclaurin-Lebedev (75,302) quadrature formula
performing fock build before subrot guess so that all methods have access
 using 16 threads for integral computing
 -------------------------------------------------------
 OpenMP Integral computing Module                
 Release: version 1.0, May 2013, Q-Chem Inc. Pittsburgh 
 -------------------------------------------------------
Printing subrot_rss_gen Method Specification:
Occupied Subspace Method is 0
Virtual Subspace Method is 0
Energy prior to optimization (guess energy) = -12574.736686642551
Begin Timing: Total SCF Calculation
begin iterations for algorithm: DIIS         
the SCF tolerance is set to 1.00e-08
    1  -12574.7366866426      3.58e-05     00000 
    2  -12574.7420494093      2.78e-05     00000 
    3  -12574.7429534202      2.19e-05     00000 
    4  -12574.7437265672      6.60e-06     00000 
    5  -12574.7438068123      2.96e-06     00000 
    6  -12574.7438238156      1.71e-06     00000 
    7  -12574.7438286222      1.26e-06     00000 
    8  -12574.7438313786      5.67e-07     00000 
    9  -12574.7438318682      3.08e-07     00000 
   10  -12574.7438319931      1.83e-07     00000 
   11  -12574.7438320350      1.20e-07     00000 
   12  -12574.7438320567      6.61e-08     00000 
   13  -12574.7438320649      3.00e-08     00000 
   14  -12574.7438320669      1.52e-08     00000 
   15  -12574.7438320674      1.00e-08     00000 
   16  -12574.7438320675      6.19e-09     00000 Convergence criterion met
write pseudocanon occs and virts to disk
write pseudocanon orbital energies to disk
Timing for Total SCF: 9907.00s (wall), 138104.96s (cpu)
SCFMI Energy  -12574.7438320675
<S^2>            0.00000
 Total energy in the final basis set =   -12574.7438320675
    ==================================================
        The end of Object-Oriented SCFman: SCFMI      
    ==================================================

 --------------------------------------------------------------

                    Orbital Energies (a.u.)
 --------------------------------------------------------------

 Alpha MOs
 -- Occupied --
-89.0415 -89.0411 -89.0340 -89.0324 -89.0292 -89.0267 -89.0245 -89.0200
-89.0193 -89.0151 -88.9994 -88.9966 -88.9960 -88.9933 -88.9929 -88.9924
-88.9877 -88.9791 -88.9715 -88.9692 -88.9631 -88.9401 -19.1574 -19.1573
-19.1558 -19.1430 -19.1424 -19.1418 -19.1406 -19.1369 -19.1334 -19.1310
-19.1309 -19.1208 -19.1150 -19.1067 -19.1061 -19.1031 -19.1031 -19.0999
-19.0918 -19.0866 -19.0808 -19.0789 -19.0444 -14.3700 -10.3003 -10.2655
-10.2623 -10.2618 -10.2606 -10.2542 -10.2541 -10.2490 -10.2485 -10.2471
-10.2467 -10.2438 -10.2438 -10.2420 -10.2412 -10.2386 -10.2382 -10.2342
-10.2336 -10.2332 -10.2311 -10.2304 -10.2205 -10.2190 -10.2161 -10.2160
-10.2154 -10.2141 -10.2138 -10.2126 -10.2124 -10.2085 -10.2068 -10.2046
-10.2046 -10.2010 -10.2001 -10.1993 -10.1985 -10.1964 -10.1964 -10.1953
-10.1947 -10.1946 -10.1895 -10.1881 -10.1869 -10.1801 -10.1794 -10.1636
-10.1429  -8.0870  -8.0869  -8.0802  -8.0784  -8.0751  -8.0725  -8.0708
 -8.0664  -8.0662  -8.0611  -8.0458  -8.0429  -8.0422  -8.0394  -8.0387
 -8.0385  -8.0337  -8.0249  -8.0177  -8.0151  -8.0096  -7.9860  -6.0514
 -6.0514  -6.0504  -6.0500  -6.0446  -6.0442  -6.0442  -6.0434  -6.0426
 -6.0416  -6.0394  -6.0383  -6.0372  -6.0368  -6.0358  -6.0354  -6.0351
 -6.0340  -6.0324  -6.0307  -6.0304  -6.0303  -6.0294  -6.0290  -6.0279
 -6.0253  -6.0243  -6.0240  -6.0237  -6.0184  -6.0099  -6.0090  -6.0072
 -6.0063  -6.0058  -6.0052  -6.0036  -6.0032  -6.0032  -6.0027  -6.0026
 -6.0019  -6.0018  -6.0004  -6.0000  -5.9980  -5.9968  -5.9966  -5.9959
 -5.9956  -5.9912  -5.9892  -5.9881  -5.9824  -5.9823  -5.9809  -5.9794
 -5.9784  -5.9748  -5.9740  -5.9727  -5.9726  -5.9669  -5.9503  -5.9490
 -5.9434  -1.0670  -1.0643  -1.0630  -1.0555  -1.0545  -1.0520  -1.0517
 -1.0473  -1.0449  -1.0418  -1.0388  -1.0253  -1.0251  -1.0181  -1.0173
 -1.0149  -1.0121  -1.0099  -0.9982  -0.9963  -0.9904  -0.9882  -0.9584
 -0.9363  -0.8471  -0.8453  -0.8438  -0.8414  -0.8344  -0.8308  -0.8297
 -0.8266  -0.8228  -0.8221  -0.8198  -0.8048  -0.8020  -0.7981  -0.7974
 -0.7910  -0.7909  -0.7880  -0.7832  -0.7742  -0.7734  -0.7716  -0.7716
 -0.7683  -0.7674  -0.7635  -0.7625  -0.7583  -0.7579  -0.7539  -0.7488
 -0.7440  -0.7432  -0.7413  -0.7376  -0.7329  -0.7279  -0.7272  -0.7243
 -0.7233  -0.7172  -0.7160  -0.7068  -0.7030  -0.7001  -0.6996  -0.6626
 -0.6594  -0.6560  -0.6479  -0.6477  -0.6465  -0.6424  -0.6412  -0.6394
 -0.6324  -0.6315  -0.6294  -0.6291  -0.6132  -0.6108  -0.6095  -0.6090
 -0.6080  -0.6054  -0.6043  -0.5991  -0.5909  -0.5843  -0.5827  -0.5815
 -0.5745  -0.5546  -0.5445  -0.5329  -0.5274  -0.5179  -0.5167  -0.5120
 -0.5114  -0.5098  -0.5092  -0.5072  -0.5044  -0.5041  -0.5034  -0.5028
 -0.5023  -0.5016  -0.5007  -0.5002  -0.4995  -0.4978  -0.4964  -0.4954
 -0.4933  -0.4923  -0.4896  -0.4886  -0.4881  -0.4871  -0.4843  -0.4817
 -0.4812  -0.4805  -0.4801  -0.4796  -0.4791  -0.4781  -0.4775  -0.4763
 -0.4757  -0.4745  -0.4741  -0.4734  -0.4721  -0.4701  -0.4691  -0.4688
 -0.4661  -0.4657  -0.4635  -0.4621  -0.4612  -0.4603  -0.4601  -0.4597
 -0.4590  -0.4589  -0.4580  -0.4576  -0.4569  -0.4559  -0.4552  -0.4551
 -0.4541  -0.4531  -0.4524  -0.4518  -0.4516  -0.4510  -0.4504  -0.4492
 -0.4468  -0.4452  -0.4445  -0.4438  -0.4430  -0.4429  -0.4423  -0.4411
 -0.4388  -0.4381  -0.4370  -0.4367  -0.4358  -0.4352  -0.4347  -0.4345
 -0.4342  -0.4342  -0.4334  -0.4332  -0.4329  -0.4325  -0.4309  -0.4274
 -0.4270  -0.4267  -0.4263  -0.4246  -0.4242  -0.4222  -0.4207  -0.4182
 -0.4168  -0.4154  -0.4131  -0.4126  -0.4118  -0.4113  -0.4105  -0.4101
 -0.4097  -0.4089  -0.4084  -0.4079  -0.4070  -0.4051  -0.4044  -0.4038
 -0.4033  -0.4026  -0.4020  -0.4015  -0.4011  -0.4009  -0.3992  -0.3989
 -0.3985  -0.3977  -0.3954  -0.3924  -0.3915  -0.3911  -0.3886  -0.3880
 -0.3876  -0.3868  -0.3856  -0.3852  -0.3831  -0.3824  -0.3820  -0.3801
 -0.3798  -0.3786  -0.3755  -0.3739  -0.3733  -0.3686  -0.3668  -0.3655
 -0.3640  -0.3611  -0.3594  -0.3575  -0.3572  -0.3551  -0.3550  -0.3530
 -0.3525  -0.3472  -0.3369  -0.3360  -0.3334  -0.3328  -0.3306  -0.3298
 -0.3291  -0.3209  -0.3202  -0.3199  -0.3167  -0.3053  -0.3048  -0.3024
 -0.2984  -0.2976  -0.2934  -0.2903  -0.2881  -0.2850  -0.2842  -0.2817
 -0.2787  -0.2737  -0.2718  -0.2689  -0.2685  -0.2676  -0.2675  -0.2666
 -0.2661  -0.2648  -0.2637  -0.2631  -0.2606  -0.2598  -0.2584  -0.2554
 -0.2531  -0.2475  -0.2444  -0.2416  -0.2402  -0.2359  -0.2342  -0.2319
 -0.2294  -0.2290  -0.2279  -0.2152  -0.2066  -0.2054  -0.2047  -0.2024
 -0.1754
 -- Virtual --
 -0.0587  -0.0492  -0.0449  -0.0408  -0.0363  -0.0345  -0.0332  -0.0303
 -0.0284  -0.0266  -0.0257  -0.0242  -0.0222  -0.0205  -0.0196  -0.0180
 -0.0169  -0.0166  -0.0151  -0.0140  -0.0125  -0.0102  -0.0095  -0.0077
 -0.0070  -0.0055  -0.0047  -0.0044  -0.0037  -0.0026  -0.0021  -0.0007
  0.0014   0.0020   0.0028   0.0035   0.0039   0.0051   0.0065   0.0083
  0.0086   0.0095   0.0098   0.0105   0.0113   0.0126   0.0138   0.0143
  0.0148   0.0154   0.0164   0.0175   0.0188   0.0201   0.0203   0.0204
  0.0215   0.0220   0.0225   0.0247   0.0251   0.0257   0.0271   0.0281
  0.0289   0.0290   0.0296   0.0305   0.0313   0.0315   0.0319   0.0326
  0.0338   0.0345   0.0352   0.0358   0.0362   0.0372   0.0385   0.0392
  0.0396   0.0400   0.0405   0.0412   0.0416   0.0426   0.0439   0.0449
  0.0462   0.0471   0.0476   0.0482   0.0490   0.0500   0.0505   0.0511
  0.0521   0.0524   0.0536   0.0548   0.0555   0.0565   0.0571   0.0579
  0.0585   0.0594   0.0599   0.0606   0.0612   0.0618   0.0628   0.0632
  0.0638   0.0644   0.0656   0.0664   0.0667   0.0674   0.0682   0.0686
  0.0688   0.0694   0.0706   0.0713   0.0716   0.0721   0.0731   0.0736
  0.0753   0.0760   0.0763   0.0776   0.0777   0.0792   0.0797   0.0803
  0.0806   0.0819   0.0825   0.0829   0.0836   0.0839   0.0850   0.0862
  0.0864   0.0869   0.0881   0.0898   0.0899   0.0911   0.0913   0.0918
  0.0922   0.0939   0.0945   0.0949   0.0956   0.0960   0.0970   0.0975
  0.0985   0.0992   0.1002   0.1008   0.1018   0.1021   0.1031   0.1036
  0.1044   0.1052   0.1053   0.1063   0.1070   0.1081   0.1089   0.1099
  0.1111   0.1115   0.1122   0.1131   0.1135   0.1140   0.1148   0.1152
  0.1159   0.1173   0.1182   0.1185   0.1191   0.1202   0.1210   0.1215
  0.1223   0.1234   0.1240   0.1247   0.1249   0.1255   0.1257   0.1271
  0.1275   0.1286   0.1293   0.1300   0.1316   0.1320   0.1330   0.1336
  0.1338   0.1344   0.1347   0.1357   0.1366   0.1373   0.1378   0.1387
  0.1399   0.1403   0.1408   0.1414   0.1417   0.1425   0.1428   0.1433
  0.1449   0.1458   0.1464   0.1473   0.1480   0.1484   0.1494   0.1498
  0.1510   0.1516   0.1523   0.1527   0.1534   0.1538   0.1544   0.1549
  0.1558   0.1564   0.1572   0.1576   0.1586   0.1593   0.1596   0.1601
  0.1615   0.1616   0.1632   0.1635   0.1644   0.1646   0.1658   0.1662
  0.1671   0.1674   0.1683   0.1695   0.1696   0.1707   0.1710   0.1717
  0.1730   0.1735   0.1740   0.1745   0.1753   0.1765   0.1772   0.1784
  0.1787   0.1794   0.1801   0.1805   0.1815   0.1822   0.1828   0.1831
  0.1835   0.1847   0.1856   0.1865   0.1870   0.1878   0.1890   0.1894
  0.1899   0.1905   0.1918   0.1926   0.1932   0.1936   0.1945   0.1951
  0.1958   0.1967   0.1973   0.1982   0.1988   0.1996   0.1998   0.2004
  0.2018   0.2033   0.2035   0.2043   0.2050   0.2053   0.2069   0.2078
  0.2078   0.2085   0.2089   0.2101   0.2112   0.2114   0.2132   0.2137
  0.2144   0.2151   0.2155   0.2162   0.2171   0.2177   0.2189   0.2194
  0.2201   0.2210   0.2212   0.2220   0.2228   0.2239   0.2243   0.2246
  0.2251   0.2263   0.2270   0.2276   0.2287   0.2297   0.2305   0.2306
  0.2317   0.2318   0.2328   0.2346   0.2351   0.2362   0.2369   0.2375
  0.2380   0.2384   0.2396   0.2398   0.2412   0.2421   0.2426   0.2426
  0.2445   0.2459   0.2465   0.2466   0.2474   0.2486   0.2491   0.2495
  0.2512   0.2514   0.2521   0.2526   0.2538   0.2551   0.2562   0.2565
  0.2575   0.2577   0.2587   0.2594   0.2599   0.2608   0.2618   0.2632
  0.2636   0.2640   0.2650   0.2660   0.2667   0.2683   0.2693   0.2711
  0.2715   0.2722   0.2731   0.2742   0.2752   0.2759   0.2761   0.2778
  0.2782   0.2800   0.2810   0.2813   0.2821   0.2825   0.2836   0.2848
  0.2856   0.2862   0.2871   0.2888   0.2895   0.2908   0.2909   0.2914
  0.2930   0.2943   0.2959   0.2963   0.2979   0.2984   0.2997   0.3003
  0.3019   0.3036   0.3040   0.3052   0.3063   0.3071   0.3079   0.3083
  0.3098   0.3100   0.3112   0.3126   0.3136   0.3140   0.3155   0.3161
  0.3174   0.3182   0.3197   0.3206   0.3217   0.3220   0.3233   0.3242
  0.3259   0.3270   0.3272   0.3276   0.3291   0.3301   0.3311   0.3314
  0.3325   0.3333   0.3339   0.3347   0.3363   0.3364   0.3372   0.3380
  0.3399   0.3405   0.3413   0.3426   0.3433   0.3440   0.3455   0.3465
  0.3475   0.3487   0.3493   0.3506   0.3523   0.3526   0.3536   0.3542
  0.3556   0.3565   0.3578   0.3587   0.3597   0.3606   0.3625   0.3637
  0.3647   0.3649   0.3660   0.3666   0.3685   0.3700   0.3709   0.3718
  0.3733   0.3742   0.3746   0.3757   0.3767   0.3777   0.3798   0.3803
  0.3810   0.3829   0.3829   0.3847   0.3859   0.3870   0.3873   0.3876
  0.3894   0.3900   0.3915   0.3927   0.3935   0.3947   0.3961   0.3968
  0.3973   0.3979   0.3998   0.4004   0.4024   0.4031   0.4050   0.4059
  0.4063   0.4071   0.4094   0.4111   0.4118   0.4133   0.4138   0.4156
  0.4164   0.4170   0.4171   0.4184   0.4195   0.4206   0.4218   0.4231
  0.4247   0.4253   0.4269   0.4290   0.4292   0.4308   0.4323   0.4332
  0.4344   0.4358   0.4365   0.4389   0.4402   0.4420   0.4435   0.4454
  0.4468   0.4475   0.4478   0.4502   0.4522   0.4528   0.4551   0.4556
  0.4569   0.4599   0.4614   0.4622   0.4634   0.4651   0.4667   0.4700
  0.4718   0.4736   0.4756   0.4775   0.4784   0.4805   0.4823   0.4832
  0.4857   0.4867   0.4877   0.4903   0.4923   0.4937   0.4943   0.4961
  0.4983   0.5016   0.5022   0.5052   0.5082   0.5088   0.5108   0.5168
  0.5182   0.5190   0.5235   0.5250   0.5254   0.5281   0.5306   0.5318
  0.5340   0.5346   0.5354   0.5359   0.5385   0.5415   0.5435   0.5440
  0.5487   0.5504   0.5520   0.5537   0.5545   0.5557   0.5577   0.5591
  0.5612   0.5632   0.5635   0.5671   0.5676   0.5702   0.5707   0.5719
  0.5724   0.5746   0.5762   0.5766   0.5778   0.5784   0.5814   0.5826
  0.5836   0.5850   0.5864   0.5882   0.5910   0.5919   0.5936   0.5959
  0.5983   0.5990   0.6007   0.6028   0.6030   0.6051   0.6074   0.6083
  0.6104   0.6113   0.6124   0.6136   0.6147   0.6158   0.6181   0.6196
  0.6218   0.6222   0.6255   0.6258   0.6269   0.6299   0.6308   0.6323
  0.6330   0.6347   0.6368   0.6384   0.6389   0.6395   0.6422   0.6434
  0.6440   0.6448   0.6474   0.6485   0.6489   0.6508   0.6524   0.6528
  0.6540   0.6555   0.6565   0.6577   0.6598   0.6601   0.6625   0.6635
  0.6651   0.6666   0.6668   0.6684   0.6695   0.6706   0.6725   0.6734
  0.6744   0.6755   0.6770   0.6773   0.6796   0.6806   0.6813   0.6824
  0.6845   0.6870   0.6881   0.6901   0.6907   0.6923   0.6935   0.6945
  0.6975   0.6984   0.7005   0.7015   0.7022   0.7045   0.7050   0.7060
  0.7090   0.7099   0.7113   0.7116   0.7126   0.7149   0.7168   0.7171
  0.7195   0.7201   0.7208   0.7220   0.7239   0.7259   0.7281   0.7313
  0.7325   0.7336   0.7360   0.7369   0.7391   0.7418   0.7427   0.7435
  0.7458   0.7473   0.7484   0.7505   0.7521   0.7541   0.7551   0.7565
  0.7578   0.7584   0.7591   0.7599   0.7629   0.7640   0.7671   0.7696
  0.7707   0.7736   0.7751   0.7773   0.7783   0.7800   0.7822   0.7840
  0.7855   0.7877   0.7901   0.7917   0.7945   0.7973   0.7978   0.7994
  0.8021   0.8044   0.8052   0.8071   0.8084   0.8098   0.8130   0.8138
  0.8156   0.8161   0.8169   0.8202   0.8210   0.8227   0.8244   0.8278
  0.8290   0.8308   0.8334   0.8353   0.8375   0.8380   0.8396   0.8426
  0.8431   0.8449   0.8459   0.8492   0.8505   0.8530   0.8545   0.8568
  0.8589   0.8592   0.8601   0.8623   0.8639   0.8653   0.8664   0.8672
  0.8686   0.8692   0.8706   0.8718   0.8722   0.8735   0.8755   0.8764
  0.8785   0.8806   0.8810   0.8812   0.8835   0.8848   0.8860   0.8875
  0.8886   0.8894   0.8915   0.8919   0.8936   0.8951   0.8956   0.8971
  0.9008   0.9023   0.9039   0.9045   0.9068   0.9081   0.9086   0.9100
  0.9114   0.9144   0.9150   0.9152   0.9171   0.9184   0.9211   0.9217
  0.9227   0.9244   0.9256   0.9262   0.9276   0.9288   0.9296   0.9313
  0.9327   0.9347   0.9353   0.9379   0.9397   0.9409   0.9429   0.9434
  0.9450   0.9466   0.9484   0.9495   0.9501   0.9514   0.9525   0.9544
  0.9544   0.9563   0.9573   0.9583   0.9612   0.9617   0.9627   0.9636
  0.9646   0.9654   0.9665   0.9671   0.9696   0.9704   0.9718   0.9732
  0.9747   0.9764   0.9777   0.9786   0.9800   0.9808   0.9821   0.9829
  0.9844   0.9860   0.9876   0.9877   0.9885   0.9896   0.9926   0.9935
  0.9944   0.9949   0.9983   1.0003   1.0019   1.0030   1.0046   1.0050
  1.0064   1.0073   1.0095   1.0110   1.0121   1.0137   1.0151   1.0164
  1.0169   1.0177   1.0198   1.0204   1.0216   1.0224   1.0237   1.0260
  1.0268   1.0291   1.0314   1.0320   1.0341   1.0343   1.0353   1.0369
  1.0396   1.0406   1.0420   1.0424   1.0435   1.0455   1.0475   1.0493
  1.0498   1.0510   1.0537   1.0545   1.0568   1.0588   1.0590   1.0602
  1.0627   1.0636   1.0652   1.0676   1.0694   1.0702   1.0728   1.0742
  1.0758   1.0778   1.0802   1.0808   1.0821   1.0847   1.0872   1.0874
  1.0884   1.0893   1.0927   1.0943   1.0956   1.0972   1.1002   1.1022
  1.1033   1.1054   1.1071   1.1084   1.1094   1.1110   1.1133   1.1141
  1.1147   1.1161   1.1170   1.1216   1.1224   1.1231   1.1246   1.1269
  1.1272   1.1290   1.1303   1.1317   1.1346   1.1365   1.1378   1.1393
  1.1398   1.1424   1.1428   1.1445   1.1454   1.1465   1.1486   1.1495
  1.1514   1.1525   1.1532   1.1553   1.1574   1.1590   1.1613   1.1624
  1.1643   1.1652   1.1677   1.1692   1.1700   1.1717   1.1734   1.1751
  1.1762   1.1782   1.1794   1.1814   1.1838   1.1851   1.1897   1.1917
  1.1930   1.1952   1.1972   1.1987   1.2007   1.2023   1.2029   1.2055
  1.2091   1.2113   1.2141   1.2162   1.2190   1.2199   1.2216   1.2250
  1.2263   1.2299   1.2313   1.2337   1.2356   1.2369   1.2395   1.2417
  1.2451   1.2480   1.2506   1.2521   1.2552   1.2606   1.2635   1.2654
  1.2677   1.2680   1.2715   1.2727   1.2780   1.2799   1.2832   1.2872
  1.2893   1.2904   1.2927   1.2964   1.2988   1.3043   1.3056   1.3070
  1.3131   1.3135   1.3168   1.3217   1.3256   1.3263   1.3280   1.3305
  1.3333   1.3341   1.3347   1.3391   1.3401   1.3429   1.3439   1.3467
  1.3493   1.3504   1.3526   1.3565   1.3578   1.3591   1.3607   1.3621
  1.3642   1.3660   1.3678   1.3698   1.3703   1.3711   1.3725   1.3746
  1.3763   1.3771   1.3790   1.3801   1.3818   1.3840   1.3857   1.3888
  1.3892   1.3908   1.3926   1.3945   1.3954   1.3959   1.3966   1.3994
  1.4010   1.4028   1.4042   1.4059   1.4072   1.4099   1.4106   1.4131
  1.4138   1.4161   1.4179   1.4190   1.4202   1.4237   1.4253   1.4275
  1.4296   1.4316   1.4327   1.4341   1.4346   1.4383   1.4397   1.4430
  1.4436   1.4475   1.4491   1.4495   1.4511   1.4516   1.4553   1.4581
  1.4586   1.4622   1.4634   1.4644   1.4671   1.4693   1.4710   1.4729
  1.4741   1.4748   1.4788   1.4811   1.4849   1.4862   1.4883   1.4925
  1.4967   1.4974   1.5018   1.5045   1.5061   1.5097   1.5124   1.5144
  1.5181   1.5231   1.5260   1.5279   1.5295   1.5330   1.5381   1.5419
  1.5442   1.5493   1.5503   1.5555   1.5611   1.5629   1.5656   1.5723
  1.5758   1.5843   1.5942   1.5970   1.5977   1.6101   1.6147   1.6229
  1.6250   1.6257   1.6290   1.6329   1.6342   1.6383   1.6416   1.6426
  1.6449   1.6491   1.6526   1.6567   1.6575   1.6586   1.6604   1.6615
  1.6625   1.6630   1.6653   1.6671   1.6681   1.6707   1.6717   1.6725
  1.6750   1.6782   1.6813   1.6826   1.6872   1.6887   1.6894   1.6912
  1.6930   1.6938   1.6947   1.6968   1.6979   1.7007   1.7021   1.7036
  1.7056   1.7063   1.7077   1.7104   1.7111   1.7133   1.7141   1.7144
  1.7160   1.7170   1.7177   1.7192   1.7198   1.7223   1.7239   1.7252
  1.7276   1.7284   1.7299   1.7316   1.7325   1.7336   1.7350   1.7381
  1.7403   1.7407   1.7435   1.7453   1.7469   1.7480   1.7488   1.7523
  1.7531   1.7555   1.7578   1.7598   1.7629   1.7636   1.7667   1.7683
  1.7710   1.7728   1.7736   1.7740   1.7796   1.7811   1.7852   1.7880
  1.7892   1.7934   1.7972   1.7973   1.8014   1.8033   1.8074   1.8092
  1.8117   1.8120   1.8194   1.8228   1.8265   1.8277   1.8330   1.8365
  1.8404   1.8416   1.8428   1.8454   1.8474   1.8503   1.8516   1.8539
  1.8567   1.8592   1.8608   1.8628   1.8641   1.8646   1.8666   1.8699
  1.8713   1.8726   1.8736   1.8765   1.8772   1.8775   1.8805   1.8819
  1.8835   1.8844   1.8860   1.8888   1.8900   1.8918   1.8946   1.8951
  1.8966   1.8980   1.8990   1.9005   1.9019   1.9030   1.9037   1.9088
  1.9100   1.9104   1.9127   1.9142   1.9154   1.9168   1.9172   1.9184
  1.9207   1.9225   1.9255   1.9269   1.9296   1.9310   1.9358   1.9376
  1.9433   1.9460   1.9489   1.9583   1.9636   1.9681   1.9740   1.9816
  1.9863   1.9900   1.9947   2.0014   2.0310   2.0325   2.0328   2.0353
  2.0391   2.0417   2.0475   2.0477   2.0520   2.0538   2.0564   2.0630
  2.0652   2.0659   2.0684   2.0697   2.0705   2.0717   2.0729   2.0742
  2.0749   2.0782   2.0796   2.0806   2.0809   2.0819   2.0830   2.0875
  2.0877   2.0892   2.0892   2.0912   2.0931   2.0935   2.0960   2.0981
  2.1003   2.1025   2.1039   2.1062   2.1084   2.1154   2.1162   2.1188
  2.1204   2.1237   2.1328   2.1354   2.1362   2.1443   2.1450   2.1461
  2.1475   2.1503   2.1541   2.1556   2.1639   2.1656   2.1675   2.1695
  2.1714   2.1728   2.1810   2.1821   2.1866   2.1879   2.1912   2.1921
  2.2003   2.2011   2.2029   2.2049   2.2083   2.2092   2.2109   2.2119
  2.2131   2.2151   2.2168   2.2181   2.2201   2.2213   2.2225   2.2245
  2.2268   2.2275   2.2292   2.2308   2.2325   2.2332   2.2352   2.2363
  2.2369   2.2380   2.2390   2.2403   2.2412   2.2436   2.2446   2.2469
  2.2481   2.2485   2.2493   2.2498   2.2510   2.2516   2.2521   2.2552
  2.2556   2.2573   2.2582   2.2597   2.2601   2.2616   2.2633   2.2637
  2.2646   2.2653   2.2669   2.2680   2.2687   2.2689   2.2706   2.2729
  2.2736   2.2761   2.2769   2.2787   2.2808   2.2824   2.2840   2.2851
  2.2862   2.2873   2.2891   2.2914   2.2923   2.2929   2.2936   2.2951
  2.2964   2.2979   2.2993   2.3003   2.3023   2.3038   2.3053   2.3060
  2.3087   2.3100   2.3111   2.3122   2.3133   2.3144   2.3163   2.3170
  2.3174   2.3196   2.3210   2.3223   2.3253   2.3265   2.3269   2.3293
  2.3313   2.3334   2.3338   2.3369   2.3395   2.3421   2.3457   2.3464
  2.3471   2.3479   2.3498   2.3502   2.3542   2.3561   2.3598   2.3622
  2.3651   2.3718   2.3738   2.3779   2.3803   2.3827   2.3954   2.3964
  2.4011   2.4061   2.4099   2.4248   2.4511   2.4633   2.5005   2.5502
  2.5810   2.6684   2.7011   2.7196   2.7510   2.7739   2.8074   2.8118
  2.8151   2.8201   2.8275   2.8308   2.8326   2.8347   2.8375   2.8422
  2.8466   2.8473   2.8498   2.8527   2.8546   2.8573   2.8596   2.8653
  2.8727   2.8757   2.8802   2.8854   2.8895   2.8957   2.9083   2.9367
  3.0799   3.2328   3.9332   3.9387   3.9460   3.9472   3.9502   3.9548
  3.9610   3.9632   3.9652   3.9698   3.9763   3.9823   3.9833   3.9870
  3.9926   3.9947   3.9970   4.0021   4.0081   4.0181   4.0223   4.0281
  4.1732   4.2009   4.2023   4.2076   4.2133   4.2167   4.2237   4.2241
  4.2272   4.2303   4.2331   4.2424   4.2468   4.2492   4.2524   4.2547
  4.2563   4.2599   4.2623   4.2656   4.2668   4.2704   4.2746   4.2759
  4.2799   4.2837   4.2858   4.2873   4.2916   4.2921   4.2928   4.2956
  4.3015   4.3026   4.3062   4.3076   4.3095   4.3137   4.3162   4.3184
  4.3212   4.3227   4.3269   4.3293   4.3357   4.3360   4.3426   4.3462
  4.3477   4.3514   4.3566   4.3586   4.3643   4.3673   4.3751   4.3814
  4.3857   4.3949   4.3962   4.4062   4.4169   4.4257   4.4433   4.4596
  4.4648   4.4756   4.5058   4.5357   4.5614   4.5788   4.6099   4.6850
  4.7058   4.7561   4.8785
 --------------------------------------------------------------

          Ground-State Mulliken Net Atomic Charges

     Atom                 Charge (a.u.)
  ----------------------------------------
      1 C                    -0.270690
      2 C                    -0.686719
      3 C                    -0.226188
      4 C                    -0.420520
      5 C                    -0.407486
      6 C                    -0.337014
      7 H                     0.209297
      8 H                     0.226710
      9 H                     0.236249
     10 H                     0.187248
     11 H                     0.220484
     12 H                     0.205615
     13 H                     0.202391
     14 H                     0.177285
     15 H                     0.210472
     16 H                     0.204253
     17 H                     0.198106
     18 N                    -0.370780
     19 H                     0.487535
     20 C                     0.306652
     21 H                     0.169763
     22 O                    -0.522664
     23 C                    -0.973257
     24 H                     0.250566
     25 H                     0.255540
     26 H                     0.286105
     27 S                     1.121847
     28 C                    -1.050316
     29 H                     0.226962
     30 H                     0.249889
     31 H                     0.282293
     32 O                    -0.754208
     33 C                    -1.019709
     34 H                     0.273580
     35 H                     0.254910
     36 H                     0.286629
     37 S                     1.173219
     38 C                    -1.092807
     39 H                     0.278997
     40 H                     0.263094
     41 H                     0.237856
     42 O                    -0.728654
     43 C                    -0.996251
     44 H                     0.269649
     45 H                     0.229410
     46 H                     0.257750
     47 S                     1.078401
     48 C                    -1.002153
     49 H                     0.265630
     50 H                     0.293659
     51 H                     0.270136
     52 O                    -0.717566
     53 C                    -0.800341
     54 H                     0.269785
     55 H                     0.243185
     56 H                     0.237885
     57 S                     0.911287
     58 C                    -0.880831
     59 H                     0.227697
     60 H                     0.262057
     61 H                     0.226501
     62 O                    -0.664095
     63 C                    -0.915672
     64 H                     0.277808
     65 H                     0.245639
     66 H                     0.235811
     67 S                     0.995117
     68 C                    -0.792565
     69 H                     0.258332
     70 H                     0.219268
     71 H                     0.241379
     72 O                    -0.747568
     73 C                    -0.740648
     74 H                     0.235239
     75 H                     0.246489
     76 H                     0.251299
     77 S                     0.763210
     78 C                    -0.822422
     79 H                     0.257091
     80 H                     0.232883
     81 H                     0.274038
     82 O                    -0.650661
     83 C                    -1.002022
     84 H                     0.241796
     85 H                     0.234467
     86 H                     0.266859
     87 S                     1.155621
     88 C                    -0.872849
     89 H                     0.273279
     90 H                     0.259050
     91 H                     0.236761
     92 O                    -0.707964
     93 C                    -1.047964
     94 H                     0.251971
     95 H                     0.281234
     96 H                     0.250358
     97 S                     1.128470
     98 C                    -0.917814
     99 H                     0.250260
    100 H                     0.309507
    101 H                     0.242542
    102 O                    -0.715774
    103 C                    -0.420588
    104 H                     0.273478
    105 H                     0.243488
    106 H                     0.275906
    107 S                     0.279394
    108 C                    -1.008454
    109 H                     0.255816
    110 H                     0.278814
    111 H                     0.252576
    112 O                    -0.529525
    113 C                    -0.700406
    114 H                     0.275419
    115 H                     0.244155
    116 H                     0.264736
    117 S                     0.305179
    118 C                    -0.826861
    119 H                     0.248160
    120 H                     0.293208
    121 H                     0.270227
    122 O                    -0.564045
    123 C                    -0.811265
    124 H                     0.271958
    125 H                     0.221293
    126 H                     0.240856
    127 S                     0.857629
    128 C                    -0.734902
    129 H                     0.214372
    130 H                     0.267670
    131 H                     0.256590
    132 O                    -0.707971
    133 C                    -0.779625
    134 H                     0.213671
    135 H                     0.308796
    136 H                     0.258071
    137 S                     0.724909
    138 C                    -0.746431
    139 H                     0.223170
    140 H                     0.227536
    141 H                     0.305380
    142 O                    -0.693543
    143 C                    -0.814420
    144 H                     0.263880
    145 H                     0.241325
    146 H                     0.245972
    147 S                     0.844513
    148 C                    -0.878810
    149 H                     0.281040
    150 H                     0.255741
    151 H                     0.232867
    152 O                    -0.685442
    153 C                    -1.119281
    154 H                     0.261845
    155 H                     0.299458
    156 H                     0.239504
    157 S                     1.315499
    158 C                    -1.048529
    159 H                     0.266273
    160 H                     0.244094
    161 H                     0.275143
    162 O                    -0.737568
    163 C                    -0.921488
    164 H                     0.243742
    165 H                     0.248183
    166 H                     0.284793
    167 S                     0.858303
    168 C                    -0.723757
    169 H                     0.261710
    170 H                     0.241674
    171 H                     0.227552
    172 O                    -0.688510
    173 C                    -0.577736
    174 H                     0.257388
    175 H                     0.272058
    176 H                     0.220000
    177 S                     0.613202
    178 C                    -0.853564
    179 H                     0.294434
    180 H                     0.246712
    181 H                     0.225788
    182 O                    -0.673646
    183 C                    -0.804349
    184 H                     0.223331
    185 H                     0.250227
    186 H                     0.247099
    187 S                     0.938782
    188 C                    -0.852678
    189 H                     0.238983
    190 H                     0.229385
    191 H                     0.276728
    192 O                    -0.723326
    193 C                    -0.942401
    194 H                     0.241720
    195 H                     0.282670
    196 H                     0.294020
    197 S                     0.980312
    198 C                    -0.848387
    199 H                     0.243693
    200 H                     0.255585
    201 H                     0.230400
    202 O                    -0.752544
    203 C                    -1.110925
    204 H                     0.262598
    205 H                     0.282325
    206 H                     0.227725
    207 S                     1.334986
    208 C                    -0.919783
    209 H                     0.216975
    210 H                     0.253251
    211 H                     0.262688
    212 O                    -0.735016
    213 C                    -0.824845
    214 H                     0.273113
    215 H                     0.269539
    216 H                     0.246265
    217 S                     0.572371
    218 C                    -0.786652
    219 H                     0.252563
    220 H                     0.279526
    221 H                     0.242404
    222 O                    -0.536634
    223 C                    -0.776540
    224 H                     0.288599
    225 H                     0.235921
    226 H                     0.251669
    227 S                     0.856643
    228 C                    -0.885485
    229 H                     0.266059
    230 H                     0.263351
    231 H                     0.238837
    232 O                    -0.689866
    233 C                    -0.761274
    234 H                     0.232644
    235 H                     0.251578
    236 H                     0.270639
    237 S                     0.825489
    238 C                    -0.819932
    239 H                     0.250280
    240 H                     0.228678
    241 H                     0.258359
    242 O                    -0.712342
  ----------------------------------------
  Sum of atomic charges =     0.000000

 -----------------------------------------------------------------
                    Cartesian Multipole Moments
 -----------------------------------------------------------------
    Charge (ESU x 10^10)
                -0.0000
    Dipole Moment (Debye)
         X     -19.4017      Y     -24.0202      Z      27.0786
       Tot      41.0688
    Quadrupole Moments (Debye-Ang)
        XX   -1909.0696     XY   -1133.8755     YY   -1693.8811
        XZ     276.4334     YZ     -55.6750     ZZ     474.0785
    Octopole Moments (Debye-Ang^2)
       XXX -116606.9274    XXY  -62369.1591    XYY  -58636.8400
       YYY  -74230.8964    XXZ  -25966.6673    XYZ  -12930.8392
       YYZ  -31541.8436    XZZ     869.7407    YZZ   -5512.7891
       ZZZ  -15742.1844
    Hexadecapole Moments (Debye-Ang^3)
      XXXX ************   XXXY ************   XXYY ************
      XYYY ************   YYYY ************   XXXZ ************
      XXYZ ************   XYYZ ************   YYYZ ************
      XXZZ -845779.8857   XYZZ -447214.7105   YYZZ -906941.8717
      XZZZ -763733.6139   YZZZ -702630.8018   ZZZZ ************
 -----------------------------------------------------------------
 Total job time:  19016.01s(wall), 153947.63s(cpu) 
 Thu Jul 21 14:15:31 2022

        *************************************************************
        *                                                           *
        *  Thank you very much for using Q-Chem.  Have a nice day.  *
        *                                                           *
        *************************************************************


 
User input: 2 of 2 
 
                  Welcome to Q-Chem
     A Quantum Leap Into The Future Of Chemistry


 Q-Chem 6.0 (devel), Q-Chem, Inc., Pleasanton, CA (2022)

 E. Epifanovsky,  A. T. B. Gilbert,  Xintian Feng,  Joonho Lee,  Yuezhi Mao,  
 N. Mardirossian,  P. Pokhilko,  A. White,  M. Wormit,  M. P. Coons,  
 A. L. Dempwolff,  Zhengting Gan,  D. Hait,  P. R. Horn,  L. D. Jacobson,  
 I. Kaliman,  J. Kussmann,  A. W. Lange,  Ka Un Lao,  D. S. Levine,  Jie Liu,  
 S. C. McKenzie,  A. F. Morrison,  K. Nanda,  F. Plasser,  D. R. Rehn,  
 M. L. Vidal,  Zhi-Qiang You,  Ying Zhu,  B. Alam,  B. Albrecht,  
 A. Aldossary,  E. Alguire,  J. H. Andersen,  V. Athavale,  D. Barton,  
 K. Begam,  A. Behn,  N. Bellonzi,  Y. A. Bernard,  E. J. Berquist,  
 H. Burton,  A. Carreras,  K. Carter-Fenk,  Romit Chakraborty,  
 Chandrima Chakravarty,  Junhan Chen,  A. D. Chien,  K. D. Closser,  
 V. Cofer-Shabica,  L. Cunha,  S. Dasgupta,  Jia Deng,  M. de Wergifosse,  
 M. Diedenhofen,  Hainam Do,  S. Ehlert,  Po-Tung Fang,  S. Fatehi,  
 Qingguo Feng,  T. Friedhoff,  B. Ganoe,  J. Gayvert,  Qinghui Ge,  
 G. Gidofalvi,  M. Goldey,  J. Gomes,  C. Gonzalez-Espinoza,  S. Gulania,  
 A. Gunina,  J. A. Gyamfi,  M. W. D. Hanson-Heine,  P. H. P. Harbach,  
 A. W. Hauser,  M. F. Herbst,  M. Hernandez Vera,  M. Hodecker,  
 Z. C. Holden,  S. Houck,  Xunkun Huang,  Kerwin Hui,  B. C. Huynh,  
 K. Ikeda,  M. Ivanov,  Hyunjun Ji,  Zuxin Jin,  Hanjie Jiang,  B. Kaduk,  
 S. Kaehler,  R. Kang,  K. Khistyaev,  Jaehoon Kim,  Yongbin Kim,  
 P. Klunzinger,  Z. Koczor-Benda,  Joong Hoon Koh,  D. Kosenkov,  
 Saikiran Kotaru,  L. Koulias,  T. Kowalczyk,  C. M. Krauter,  K. Kue,  
 A. Kunitsa,  T. Kus,  A. Landau,  K. V. Lawler,  D. Lefrancois,  S. Lehtola,  
 Rain Li,  Shaozhi Li,  Yi-Pei Li,  Jiashu Liang,  M. Liebenthal,  
 Hung-Hsuan Lin,  You-Sheng Lin,  Fenglai Liu,  Kuan-Yu Liu,  
 M. Loipersberger,  A. Luenser,  C. Malbon,  A. Manjanath,  P. Manohar,  
 E. Mansoor,  S. F. Manzer,  Shan-Ping Mao,  A. V. Marenich,  T. Markovich,  
 S. Mason,  F. Matz,  S. A. Maurer,  P. F. McLaughlin,  M. F. S. J. Menger,  
 J.-M. Mewes,  S. A. Mewes,  P. Morgante,  Mohammad Mostafanejad,  
 J. W. Mullinax,  K. J. Oosterbaan,  G. Paran,  V. Parravicini,  
 Alexander C. Paul,  Suranjan K. Paul,  F. Pavosevic,  Zheng Pei,  S. Prager,  
 E. I. Proynov,  E. Ramos,  B. Rana,  A. E. Rask,  A. Rettig,  R. M. Richard,  
 F. Rob,  E. Rossomme,  T. Scheele,  M. Scheurer,  M. Schneider,  
 P. E. Schneider,  N. Sergueev,  S. M. Sharada,  Hengyuan Shen,  
 W. Skomorowski,  D. W. Small,  C. J. Stein,  Yingli Su,  Yu-Chuan Su,  
 E. J. Sundstrom,  Zhen Tao,  J. Thirman,  Hung-Yi Tsai,  T. Tsuchimochi,  
 N. M. Tubman,  C. Utku,  S. P. Veccham,  O. Vydrov,  J. Wenzel,  
 Jonathan Wong,  J. Witte,  A. Yamada,  Chou-Hsun Yang,  Kun Yao,  
 S. Yeganeh,  S. R. Yost,  A. Zech,  F. Zeller,  Igor Ying Zhang,  
 Xing Zhang,  Yu Zhang,  D. Zuev,  A. Aspuru-Guzik,  A. T. Bell,  
 N. A. Besley,  K. B. Bravaya,  B. R. Brooks,  D. Casanova,  Jeng-Da Chai,  
 Hsing-Ta Chen,  S. Coriani,  C. J. Cramer,  A. E. DePrince, III,  
 R. A. DiStasio Jr.,  A. Dreuw,  B. D. Dunietz,  T. R. Furlani,  
 W. A. Goddard III,  S. Grimme,  S. Hammes-Schiffer,  T. Head-Gordon,  
 W. J. Hehre,  Chao-Ping Hsu,  T.-C. Jagau,  Yousung Jung,  A. Klamt,  
 Jing Kong,  D. S. Lambrecht,  Xiangyuan Li,  WanZhen Liang,  N. J. Mayhall,  
 C. W. McCurdy,  J. B. Neaton,  T. Neudecker,  C. Ochsenfeld,  
 J. A. Parkhill,  R. Peverati,  V. A. Rassolov,  Haisheng Ren,  Yihan Shao,  
 L. V. Slipchenko,  R. P. Steele,  J. E. Subotnik,  A. J. W. Thom,  
 A. Tkatchenko,  D. G. Truhlar,  T. Van Voorhis,  Fan Wang,  
 T. A. Wesolowski,  K. B. Whaley,  H. L. Woodcock III,  P. M. Zimmerman,  
 S. Faraji,  P. M. W. Gill,  M. Head-Gordon,  J. M. Herbert,  A. I. Krylov

 Contributors to earlier versions of Q-Chem not listed above: 
 R. D. Adamson,  B. Austin,  R. Baer,  J. Baker,  G. J. O. Beran,  
 K. Brandhorst,  S. T. Brown,  E. F. C. Byrd,  Arup K. Chakraborty,  
 G. K. L. Chan,  Chun-Min Chang,  Yunqing Chen,  C.-L. Cheng,  
 Siu Hung Chien,  D. M. Chipman,  D. L. Crittenden,  H. Dachsel,  
 R. J. Doerksen,  A. D. Dutoi,  R. G. Edgar,  J. Fosso-Tande,  
 L. Fusti-Molnar,  D. Ghosh,  A. Ghysels,  A. Golubeva-Zadorozhnaya,  
 J. Gonthier,  M. S. Gordon,  S. R. Gwaltney,  G. Hawkins,  J. E. Herr,  
 A. Heyden,  S. Hirata,  E. G. Hohenstein,  G. Kedziora,  F. J. Keil,  
 C. Kelley,  Jihan Kim,  R. A. King,  R. Z. Khaliullin,  P. P. Korambath,  
 W. Kurlancheek,  A. Laurent,  A. M. Lee,  M. S. Lee,  S. V. Levchenko,  
 Ching Yeh Lin,  D. Liotard,  E. Livshits,  R. C. Lochan,  I. Lotan,  
 L. A. Martinez-Martinez,  P. E. Maslen,  N. Nair,  D. P. O'Neill,  
 D. Neuhauser,  E. Neuscamman,  C. M. Oana,  R. Olivares-Amaya,  R. Olson,  
 T. M. Perrine,  B. Peters,  P. A. Pieniazek,  A. Prociuk,  Y. M. Rhee,  
 J. Ritchie,  M. A. Rohrdanz,  E. Rosta,  N. J. Russ,  H. F. Schaefer III,  
 M. W. Schmidt,  N. E. Schultz,  S. Sharma,  N. Shenvi,  C. D. Sherrill,  
 A. C. Simmonett,  A. Sodt,  T. Stein,  D. Stuck,  K. S. Thanthiriwatte,  
 V. Vanovschi,  L. Vogt,  Tao Wang,  A. Warshel,  M. A. Watson,  
 C. F. Williams,  Q. Wu,  X. Xu,  Jun Yang,  W. Zhang,  Yan Zhao

   Please cite Q-Chem as follows:
  "Software for the frontiers of quantum chemistry:
   An overview of developments in the Q-Chem 5 package"
   J. Chem. Phys. 155, 084801 (2021)
   https://doi.org/10.1063/5.0055522 (open access)

 Q-Chem 6.0.0 for Intel X86 EM64T Linux

 Parts of Q-Chem use Armadillo 9.900.5 (Nocturnal Misbehaviour).
 http://arma.sourceforge.net/

 Q-Chem begins on Thu Jul 21 14:15:31 2022  

 Host: nid00543
0

     Scratch files written to /global/cscratch1/sd/ymao90/r7.00_frame_0048_almo_B3LYP_dp20220721031502//
 Processing $rem in /global/homes/y/ymao90/my_qchem/qchem_embedding_5p4/config/preferences:
 Processing $rem in /global/homes/y/ymao90/.qchemrc:

 Checking the input file for inconsistencies... 	...done.

--------------------------------------------------------------
User input:
--------------------------------------------------------------

$molecule
0 1
@C    27.23900   19.62100   24.73300  
@C    27.88700   20.59200   25.73300  
@C    29.15300   20.00600   26.38000  
@C    30.17100   19.52200   25.33500  
@C    29.50900   18.76600   24.17200  
@C    28.28600   19.51100   23.61200  
@H    29.51300   20.67800   27.16900  
@H    28.20700   21.51200   25.23000  
@H    26.99400   18.63600   25.14700  
@H    26.40300   20.18200   24.29500  
@H    30.63100   20.43000   24.92500  
@H    31.01800   18.95700   25.74300  
@H    30.13000   18.62000   23.27900  
@H    29.21200   17.80100   24.60100  
@H    28.48300   20.53500   23.27100  
@H    27.89700   18.92200   22.77300  
@H    28.88000   19.08400   26.90800  
@N    27.00400   20.95900   26.83900  
@H    26.70200   20.17100   27.39900  
@C    26.75800   22.26100   27.22200  
@H    26.05300   22.37400   28.06500  
@O    27.30100   23.23700   26.73500  
C    25.23900   16.66400   22.40500  
H    24.66500   15.74500   22.25800  
H    26.24400   16.60000   21.98100  
H    25.35100   16.98600   23.44300  
S    24.28500   17.91500   21.51500  
C    23.27200   18.28500   22.96500  
H    22.99600   17.42000   23.57400  
H    23.88900   18.94600   23.57800  
H    22.39800   18.80600   22.56400  
O    23.38500   17.08900   20.65000  
C    31.09000   21.11600   30.53400  
H    32.03000   20.61200   30.29600  
H    30.30300   20.83000   29.83100  
H    31.11300   22.20900   30.53800  
S    30.55000   20.55100   32.16300  
C    31.85100   21.43800   33.05000  
H    32.58100   20.81100   33.56800  
H    32.43600   22.03900   32.34900  
H    31.36000   22.09300   33.77500  
O    30.95400   19.11400   32.05200  
C    34.66200   21.33900   27.68600  
H    35.47500   20.64500   27.46000  
H    34.81000   21.79000   28.67100  
H    33.77600   20.71900   27.84700  
S    34.54000   22.53300   26.33500  
C    34.24700   21.38000   24.97500  
H    33.42100   21.78800   24.38800  
H    35.20200   21.30300   24.44900  
H    33.90400   20.44800   25.43200  
O    35.94700   22.96900   26.07300  
C    28.33100   14.59900   24.12200  
H    27.86700   15.09700   23.26600  
H    27.56600   14.02300   24.64900  
H    28.83500   15.35900   24.72500  
S    29.47300   13.48800   23.26900  
C    30.17900   12.80300   24.78400  
H    29.44300   12.20500   25.32700  
H    31.10300   12.25000   24.59600  
H    30.57500   13.69300   25.28000  
O    30.52000   14.37500   22.67100  
C    24.75200   22.47600   22.63600  
H    24.66700   22.39500   21.54900  
H    25.57200   23.18600   22.76900  
H    25.05600   21.51400   23.05500  
S    23.15200   23.06300   23.23700  
C    23.64600   23.04300   24.97500  
H    22.80600   23.21800   25.65100  
H    24.06900   22.04100   25.08400  
H    24.48200   23.74000   25.07400  
O    22.46700   21.73300   23.18000  
C    24.71200   11.65100   25.64600  
H    24.29600   11.70700   26.65500  
H    24.17600   11.01100   24.94100  
H    25.76800   11.39900   25.77800  
S    24.67100   13.27300   24.85000  
C    22.89000   13.34100   24.55200  
H    22.66300   12.53600   23.84900  
H    22.40500   13.25900   25.52800  
H    22.61400   14.30600   24.11900  
O    25.41700   13.04000   23.57300  
C    28.96500   13.73500   28.33600  
H    28.21600   12.95000   28.20700  
H    29.36700   13.91900   27.33700  
H    29.82400   13.48400   28.96300  
S    28.22600   15.27400   28.93000  
C    29.67200   16.35000   28.80100  
H    29.42700   17.22500   29.40900  
H    30.49300   15.85500   29.32700  
H    30.01300   16.58300   27.78900  
O    28.17700   15.05300   30.40900  
C    28.90400   25.61000   22.12100  
H    29.61800   25.82800   22.92000  
H    29.41500   25.63000   21.15500  
H    28.17500   26.42300   22.08900  
S    28.06600   24.01500   22.26600  
C    29.52800   22.97500   22.48000  
H    29.46700   21.99200   22.00600  
H    30.46900   23.45000   22.19100  
H    29.68000   22.91500   23.56100  
O    27.69000   23.66700   20.86000  
C    30.40200   23.36500   26.77900  
H    29.64700   23.03800   26.05900  
H    31.22700   22.65000   26.82500  
H    29.99500   23.69600   27.73800  
S    31.27600   24.67400   25.89200  
C    29.96500   25.91800   25.85600  
H    30.30400   26.83400   25.36400  
H    29.08200   25.54900   25.32800  
H    29.76700   26.15300   26.90500  
O    31.59500   24.15600   24.52500  
C    24.83000   18.29200   31.04100  
H    24.55000   19.32600   31.25500  
H    24.02700   17.77400   30.51000  
H    24.97300   17.81700   32.01500  
S    26.32400   18.02500   30.06000  
C    27.49100   18.75700   31.23100  
H    26.99900   19.57200   31.76700  
H    27.82600   18.00000   31.94500  
H    28.29400   19.21900   30.65200  
O    26.31700   19.02900   28.95000  
C    36.66300   17.44200   21.34900  
H    37.37700   17.92700   20.67900  
H    37.00400   16.54100   21.86700  
H    35.76200   17.30700   20.74500  
S    36.00300   18.62300   22.54700  
C    34.48700   17.72100   22.94000  
H    34.66700   16.73000   23.36300  
H    33.86800   18.24800   23.67100  
H    33.90300   17.56100   22.03000  
O    35.55800   19.77600   21.70200  
C    29.77100   20.31300   19.84800  
H    29.73000   19.97500   20.88600  
H    29.18300   21.18900   19.56400  
H    29.55100   19.54300   19.10400  
S    31.50500   20.69000   19.50400  
C    32.25100   19.26500   20.32600  
H    31.75800   19.11000   21.28900  
H    32.10600   18.43000   19.63500  
H    33.29800   19.54100   20.47800  
O    31.95500   21.81500   20.38300  
C    34.69300   16.34100   28.12400  
H    35.15000   17.04000   28.83000  
H    34.29600   15.49100   28.68400  
H    35.36300   15.90300   27.38000  
S    33.25900   17.21200   27.45100  
C    33.03600   16.12400   26.02500  
H    32.21700   16.38800   25.35100  
H    33.99900   16.13000   25.51000  
H    32.92900   15.10300   26.40000  
O    33.79400   18.50300   26.91600  
C    24.03600   25.75300   27.21400  
[...]
    2  -0.3182671  -0.6845610  -1.2750355   0.9543502   1.5372907   2.3997347
    3   1.1974977  -0.5523860   1.0495022   2.3020670   0.8934891  -0.0293894
          109         110         111         112         113         114
    1   0.6146610  -1.6361530  -0.3346987   1.1762498  -2.0656321  -1.8500951
    2   3.6018964   1.3562297   2.0494989   0.4257226  -0.6560192   1.1484527
    3  -1.2489704  -0.9334973   2.0024643  -1.9581010   2.8571545   2.9293574
          115         116         117         118         119         120
    1  -3.1605015  -1.2053606  -0.3116367   0.6677639  -0.8059698   0.7677561
    2  -1.7330073  -1.6076635  -1.3444968  -0.2093788   1.0526939  -1.8926995
    3   1.5664662   4.1851172   1.8231491   2.8428662   3.5216912   3.8199514
          121         122         123         124         125         126
    1   1.6631716  -0.0299288   2.3862084   3.2042899   2.5494363   0.3612511
    2   0.3458922   1.1307272  -1.7470021  -0.1992811  -2.8506687  -1.7723163
    3   0.8953875  -0.7380081  -1.7126018  -2.4494259  -0.1748473  -2.8178768
          127         128         129         130         131         132
    1   2.4522427   0.4636946   1.4821175  -0.0838368  -0.1942306   1.3771025
    2  -0.7637899  -1.6504954  -3.1016619  -0.2590040  -1.7405649   1.3880320
    3   0.0670765  -0.3091745   0.1762512   0.6500230  -2.2190810  -2.1620607
          133         134         135         136         137         138
    1  -0.8289008  -0.3906915  -1.1847441  -0.3213332   0.7177246   1.3286822
    2  -0.3399216  -1.0271349   1.5813538  -1.5995491  -0.1573371  -1.6306186
    3  -1.5386803   0.5425686  -2.3577368  -2.9888879  -2.8145291  -1.1628129
          139         140         141         142         143         144
    1   0.0672777   0.8642356   2.7608848   1.3791845   2.7099956   3.0113314
    2  -1.3975853  -2.5985379  -0.4773849   1.9279985  -1.7680489  -0.0636081
    3   0.6264666  -2.7061242  -1.3860371  -0.7787625   1.4941215   2.5746146
          145         146         147         148         149         150
    1   1.3234358   3.3717629   0.7389239   1.0111925  -0.3067639   2.9586181
    2  -3.0009317  -2.2110330  -1.2030793  -2.0597860  -0.9227586  -1.8531918
    3   2.2290483  -0.2860563   1.2399024  -0.7749900  -1.4378207  -1.2558591
          151         152         153         154         155         156
    1   1.1013096   2.0492700  -2.2357487  -3.5026900  -1.5740459  -2.0423888
    2  -3.5646256   1.0230922   1.4429301   1.8184720  -0.0119814   2.8794525
    3   0.4922953  -0.0264669   1.0357707  -0.7532002   1.1054072   2.1368488
          157         158         159         160         161         162
    1  -0.5161396   0.1752700   0.8608481  -1.1426458   0.8121293  -1.5136091
    2   1.0402032   2.1826874   3.2307088   2.8599458   0.4151477   3.7698221
    3  -0.2779976   1.3743979   0.1270329   2.5928626   1.4508526  -1.5361181
          163         164         165         166         167         168
    1  -0.1150884  -1.3025096   1.8009885  -1.0498753   0.2868850  -2.2493626
    2  -3.2014219  -3.4718465  -3.2860010  -2.9123464  -1.1558640  -1.3065411
    3  -0.9736280  -2.2557326  -0.9800179   0.4639984  -0.8527387  -1.5603211
          169         170         171         172         173         174
    1  -1.6642455  -2.4994866  -2.3648032   0.8884446  -2.4048892  -4.1674228
    2   0.2114493  -2.6925269  -1.6192868  -1.1146449  -0.4678052   0.6694337
    3  -2.5230060  -2.5916987   0.2201192  -3.8367527  -0.8651946  -0.4761422
          175         176         177         178         179         180
    1  -0.8693971  -2.7815393  -0.8586325  -2.6098551  -1.2841278  -4.0571476
    2   0.3556731  -1.7532926  -0.3668900  -0.3505556   0.8342598  -0.1039957
    3  -1.7416699  -0.2211417   0.8255900   1.9538681   3.0265092   0.3509183
          181         182         183         184         185         186
    1  -2.3239501  -1.1949222  -2.9159295  -2.1672585  -3.0746548  -3.0655572
    2  -2.1446302   2.6886576   0.9430329   2.7771823  -0.7899293   0.6615557
    3   2.2731724   0.3643575   0.5522249  -0.2581044  -0.6458196   2.2706451
          187         188         189         190         191         192
    1  -1.0275611  -1.1872926  -2.5494995  -2.0779155   0.3944816  -1.1776011
    2   1.5324643   1.3212349  -0.6849818   2.7480243   1.4227749  -1.7995281
    3   1.7063128  -0.3917609  -0.7880982  -0.8454665   0.5512643   2.2394951
          193         194         195         196         197         198
    1   0.7451151  -0.1717407   0.0517467   2.2750206   2.0224140   0.5641824
    2   0.0387384  -0.1008640   1.4539943  -1.1096386   1.0743531   2.7919635
    3  -1.6719086  -0.1769594  -3.2298132  -1.9094729  -0.0064206  -0.5826439
          199         200         201         202         203         204
    1  -0.6402227   0.3785672   1.4990989   2.7852198  -1.4863869  -1.0925838
    2   2.2874685   1.7485065   3.8685270   1.5899852   1.7584110   3.1934404
    3  -2.3881796   0.8120633  -0.4800917  -2.9271453   1.1764811   2.6220561
          205         206         207         208         209         210
    1  -1.0031498  -2.3127688  -0.1543802  -0.4301889  -1.8607801   1.2848450
    2   1.9208008   0.2185783   0.0797561   0.7915987  -0.6369436   0.5408660
    3  -0.4174366   2.1344332   1.1221958   3.4907278   3.1534731   3.7793001
          211         212         213         214         215         216
    1  -0.8271485   1.8499434  -1.0171799  -0.0869924  -0.3424139  -2.7414837
    2   2.6186720   2.7471723  -2.4936804  -3.4857357  -1.7378329  -2.7730682
    3   3.4301142   1.2063408   1.8946815   0.6147820   2.8556678   2.5480898
          217         218         219         220         221         222
    1  -1.5204004  -3.3694655  -3.8273696  -3.2829322  -2.7184247   0.3280136
    2  -0.3120477  -1.2282015  -0.4672335  -0.3957727  -3.1236766  -0.9087287
    3   0.8977694   0.3792866   1.8136394  -1.5099692   0.7282746  -1.5772863
          223         224         225         226         227         228
    1  -0.3373898   1.5686053  -2.3774332  -0.2836580  -0.5532603  -2.2960849
    2  -1.5141371  -1.6399758  -1.7200299  -0.6055435   0.0146068   0.8966774
    3  -2.7731947  -1.9802662  -2.0113130  -4.3571736  -1.3048151  -2.2910499
          229         230         231         232         233         234
    1  -3.3073538  -1.8417092  -1.7520007   1.3338349   2.1712960   1.6326568
    2  -0.3608881   2.5841208   0.0041403   1.5650583   1.2915088   1.9717619
    3  -1.3128339  -2.0148964  -4.0114019  -2.9206727   0.1583951  -1.8970377
          235         236         237         238         239         240
    1   2.9676958   2.1329936  -0.1970631   0.2537339   2.1160270   0.2470719
    2   2.5770227   0.0025010   1.4414598   3.1879035   3.2759387   2.5655240
    3   1.2373261   1.1801390   0.0860948  -0.3909463   0.4309494  -2.1994398
          241         242
    1  -1.4337147   0.4015055
    2   3.4594367   2.0529859
    3   0.6209616   3.2191493
 EField
            1           2           3           4           5           6
    1   0.0002722  -0.0022858  -0.0038777   0.0000842  -0.0009711   0.0000589
    2  -0.0028462  -0.0052935  -0.0018797   0.0018846   0.0015557   0.0002787
    3   0.0033983   0.0027240   0.0004601  -0.0015014  -0.0015839  -0.0006046
            7           8           9          10          11          12
    1  -0.0031912  -0.0019483  -0.0039838   0.0047541   0.0019129   0.0031073
    2  -0.0033453  -0.0070720  -0.0046681  -0.0032292   0.0008772   0.0060101
    3  -0.0016949  -0.0021718   0.0074891   0.0025064  -0.0032148  -0.0008700
           13          14          15          16          17          18
    1  -0.0006334  -0.0026808   0.0005009   0.0006671  -0.0091816  -0.0029897
    2  -0.0003534   0.0037827   0.0007952   0.0013566   0.0018102  -0.0110549
    3  -0.0010190  -0.0030631  -0.0012163  -0.0019632   0.0016027   0.0081692
           19          20          21          22          23          24
    1  -0.0044982  -0.0052851  -0.0142168  -0.0044892   0.0042643  -0.0110478
    2  -0.0200991  -0.0095525  -0.0084022  -0.0080511  -0.0051112  -0.0247181
    3   0.0219234   0.0022259   0.0005037  -0.0008916   0.0051531   0.0027527
           25          26          27          28          29          30
    1   0.0286578   0.0032932   0.0307759  -0.0046654  -0.0076946   0.0088760
    2  -0.0079047  -0.0009638   0.0454288   0.0042571  -0.0291570   0.0260921
    3  -0.0145064   0.0363379  -0.0130436   0.0037583   0.0105394   0.0223121
           31          32          33          34          35          36
    1  -0.0252041  -0.0662014   0.0015739   0.0260633  -0.0182307   0.0047576
    2   0.0198354  -0.0594994   0.0033771  -0.0148883  -0.0116741   0.0326573
    3  -0.0018591  -0.0632587  -0.0066798  -0.0060411  -0.0264269  -0.0081963
           37          38          39          40          41          42
    1  -0.0488755   0.0081755   0.0128291   0.0161014  -0.0080713   0.0284796
    2   0.0161911   0.0042439  -0.0285660   0.0196619   0.0215069  -0.1070538
    3   0.0107939   0.0043854   0.0144833  -0.0169049   0.0236250  -0.0082858
           43          44          45          46          47          48
    1   0.0017292   0.0255195   0.0147390  -0.0273555  -0.0427536  -0.0007774
    2  -0.0099333  -0.0187798   0.0225623  -0.0235413   0.0360862  -0.0066747
    3   0.0037118  -0.0060653   0.0230267  -0.0080797   0.0047794  -0.0059976
           49          50          51          52          53          54
    1  -0.0178039   0.0244145  -0.0046267   0.1036928  -0.0070599  -0.0224794
    2   0.0108096  -0.0017309  -0.0350565   0.0337156   0.0061708   0.0195937
    3  -0.0261302  -0.0181799   0.0063874  -0.0214220   0.0005827  -0.0164250
           55          56          57          58          59          60
    1  -0.0267556   0.0154617  -0.0315980   0.0053714  -0.0184092   0.0207738
    2  -0.0097894   0.0226719  -0.0392703   0.0009447  -0.0156922  -0.0239831
    3   0.0129744   0.0181244  -0.0313752   0.0031361   0.0200376  -0.0139102
           61          62          63          64          65          66
    1   0.0061668   0.0758212   0.0107019  -0.0002392   0.0238295  -0.0002110
    2   0.0250568   0.0640338  -0.0011549  -0.0090171   0.0203732  -0.0325060
    3   0.0251854  -0.0490156  -0.0066324  -0.0320316   0.0030879   0.0134336
           67          68          69          70          71          72
    1  -0.0150865   0.0034118  -0.0215129   0.0071074   0.0183276  -0.0511579
    2   0.0416430  -0.0026131   0.0035709  -0.0288223   0.0197002  -0.0987843
    3  -0.0182117   0.0051988   0.0210492   0.0080419   0.0131363  -0.0056825
           73          74          75          76          77          78
    1   0.0001062  -0.0193921  -0.0095492   0.0285102   0.0180378  -0.0061870
    2  -0.0055011  -0.0042166  -0.0320185  -0.0135203   0.0466880  -0.0003649
    3   0.0007139   0.0283815  -0.0124858  -0.0043201   0.0427177  -0.0045754
           79          80          81          82          83          84
    1  -0.0156088  -0.0219387  -0.0055134   0.0578010   0.0057689  -0.0200232
    2  -0.0225805  -0.0080484   0.0264755  -0.0142940  -0.0035025  -0.0237991
    3  -0.0200680   0.0246329  -0.0155046  -0.0919027  -0.0025824   0.0072553
           85          86          87          88          89          90
    1   0.0124722   0.0166705  -0.0446873   0.0071292  -0.0029658   0.0227624
    2   0.0043629  -0.0126833   0.0185754   0.0050425   0.0288316  -0.0118371
    3  -0.0325791   0.0259604  -0.0316208   0.0019786   0.0114486   0.0191989
           91          92          93          94          95          96
    1   0.0035440  -0.0040773   0.0065150   0.0244898   0.0158718  -0.0253307
    2   0.0143771  -0.0160339   0.0074962   0.0018090  -0.0053669   0.0221977
    3  -0.0302483   0.1091344  -0.0063768   0.0197117  -0.0300470  -0.0021617
           97          98          99         100         101         102
    1  -0.0328062   0.0134729  -0.0092183   0.0254426   0.0117040  -0.0277179
    2  -0.0073390  -0.0062263  -0.0254030   0.0098289  -0.0169499  -0.0284903
    3   0.0386947   0.0019720  -0.0157213  -0.0209113   0.0309875  -0.1048732
          103         104         105         106         107         108
    1   0.0024793  -0.0191637   0.0181859  -0.0052844   0.0501073  -0.0033883
    2  -0.0099211  -0.0251216  -0.0360021   0.0029339   0.0239279   0.0060662
    3   0.0013748  -0.0150388   0.0123118   0.0346931   0.0394641  -0.0030159
          109         110         111         112         113         114
    1   0.0136284  -0.0242249  -0.0102374   0.0298542  -0.0056898  -0.0021651
    2   0.0249674  -0.0056718   0.0113534  -0.0382924   0.0027261   0.0329799
    3  -0.0170725  -0.0142592   0.0292949  -0.1009255   0.0030872  -0.0043494
          115         116         117         118         119         120
    1  -0.0261659   0.0015530   0.0116740   0.0063805  -0.0134621   0.0193501
    2  -0.0109034  -0.0180547  -0.0555664   0.0038890   0.0237582  -0.0198525
    3  -0.0116143   0.0282348  -0.0095266   0.0044344   0.0144880   0.0171824
          121         122         123         124         125         126
    1   0.0236727   0.0020040  -0.0015168   0.0256448   0.0131642  -0.0196550
    2   0.0049393   0.0811810  -0.0025921   0.0146643  -0.0289255  -0.0181831
    3  -0.0178001  -0.0953418  -0.0071275  -0.0119733   0.0067062  -0.0277648
          127         128         129         130         131         132
    1   0.0355166  -0.0089276   0.0096495  -0.0132329  -0.0190640  -0.0301889
    2   0.0086739  -0.0035903  -0.0312004   0.0225359   0.0000347   0.0879902
    3   0.0476518  -0.0010755   0.0112542   0.0186742  -0.0270346  -0.0605272
          133         134         135         136         137         138
    1  -0.0063605  -0.0148732  -0.0239553  -0.0217582   0.0093475   0.0046140
    2  -0.0000140  -0.0094472   0.0233868  -0.0267429  -0.0015071  -0.0025535
    3  -0.0013768   0.0308822   0.0004362  -0.0159927  -0.0559437   0.0026327
          139         140         141         142         143         144
    1  -0.0122802   0.0019955   0.0315082   0.0359380   0.0057601   0.0205750
    2  -0.0066559  -0.0330050   0.0056553   0.0829178  -0.0038094   0.0171376
    3   0.0304389  -0.0132979   0.0059090   0.0614484   0.0035458   0.0162486
          145         146         147         148         149         150
    1  -0.0087212   0.0256186  -0.0452477   0.0024441  -0.0221623   0.0234785
    2  -0.0257363  -0.0010446  -0.0023655  -0.0041963   0.0106397   0.0043294
    3   0.0239943  -0.0231722   0.0367346  -0.0074873  -0.0181627  -0.0235261
          151         152         153         154         155         156
    1  -0.0092078   0.0379826  -0.0111320  -0.0278853  -0.0038854   0.0006492
    2  -0.0332378   0.0962096  -0.0032303   0.0030382  -0.0339007   0.0220293
    3   0.0070372  -0.0369825   0.0041689  -0.0208298   0.0182657   0.0255304
          157         158         159         160         161         162
    1   0.0147201   0.0044938   0.0153211  -0.0188994   0.0141512  -0.0314877
    2  -0.0413714   0.0082889   0.0282189   0.0167512  -0.0179671   0.0931091
    3  -0.0276200   0.0090784  -0.0166464   0.0239860   0.0185718  -0.0562781
          163         164         165         166         167         168
    1  -0.0019563  -0.0159202   0.0310363  -0.0127411   0.0228398  -0.0058598
    2  -0.0087626  -0.0113073  -0.0080800  -0.0012027   0.0297682   0.0029886
    3   0.0035679  -0.0275475   0.0000749   0.0335563   0.0420360  -0.0010783
          169         170         171         172         173         174
    1  -0.0205900  -0.0166397  -0.0190597   0.0317067  -0.0047674  -0.0273505
    2   0.0249614  -0.0166694   0.0017456   0.0095815   0.0003439   0.0170016
    3  -0.0074948  -0.0213645   0.0246844  -0.1052894  -0.0070184  -0.0080532
          175         176         177         178         179         180
    1   0.0138262   0.0030159   0.0528506  -0.0049911   0.0030855  -0.0251605
    2  -0.0004326  -0.0308310  -0.0324258  -0.0018923   0.0154099   0.0101503
    3  -0.0233909  -0.0026578   0.0169545   0.0053773   0.0229326  -0.0124888
          181         182         183         184         185         186
    1  -0.0043381   0.0015555  -0.0070562  -0.0153902  -0.0089727  -0.0207264
    2  -0.0299321   0.1062944  -0.0004136   0.0293743  -0.0228595   0.0023125
    3   0.0214484  -0.0102971   0.0003282  -0.0135543  -0.0198610   0.0239521
          187         188         189         190         191         192
    1   0.0183553   0.0046202  -0.0071521  -0.0068621   0.0299160   0.0085567
    2   0.0436780  -0.0044289  -0.0243632   0.0253825  -0.0019276  -0.1056546
    3   0.0298944  -0.0079742  -0.0201743  -0.0165476  -0.0125108   0.0313893
          193         194         195         196         197         198
    1  -0.0090223  -0.0255523  -0.0055750   0.0186288   0.0255243  -0.0074392
    2  -0.0089575  -0.0103155   0.0105169  -0.0225952  -0.0168932  -0.0001612
    3  -0.0052447   0.0192490  -0.0281369  -0.0121904   0.0425737  -0.0003594
          199         200         201         202         203         204
    1  -0.0160529  -0.0209645   0.0196746   0.0504909  -0.0113353   0.0060171
    2  -0.0026637   0.0013522   0.0250526   0.0201671   0.0012081   0.0248524
    3  -0.0308057   0.0329914   0.0073491  -0.0967550  -0.0002631   0.0185807
          205         206         207         208         209         210
    1  -0.0072261  -0.0382355  -0.0004132  -0.0008380  -0.0206717   0.0211289
    2  -0.0064813  -0.0174019  -0.0468374   0.0000237  -0.0262763  -0.0158401
    3  -0.0275320  -0.0045280  -0.0185843   0.0076148   0.0219773   0.0161487
          211         212         213         214         215         216
    1  -0.0079242   0.0741862   0.0052838   0.0173898   0.0250712  -0.0287789
    2   0.0306738   0.0803772  -0.0068717  -0.0138804   0.0100665  -0.0127995
    3   0.0031578  -0.0068944   0.0069364  -0.0228705   0.0146994   0.0130894
          217         218         219         220         221         222
    1   0.0049834  -0.0037339  -0.0209477  -0.0102919  -0.0085041   0.0613620
    2   0.0575925  -0.0039700   0.0118895   0.0113114  -0.0308316  -0.0176285
    3   0.0289110  -0.0035872   0.0202071  -0.0263725  -0.0017902  -0.0895698
          223         224         225         226         227         228
    1   0.0017690   0.0214296  -0.0248121  -0.0003779   0.0006188  -0.0077982
    2  -0.0041286  -0.0234812  -0.0255959  -0.0032108  -0.0085411   0.0001587
    3  -0.0047991   0.0068279   0.0021277  -0.0340160   0.0624588  -0.0056275
          229         230         231         232         233         234
    1  -0.0256904   0.0032911  -0.0053235   0.0779039   0.0104128   0.0137209
    2  -0.0119825   0.0309274  -0.0059661   0.0652403   0.0020434   0.0064128
    3   0.0200434   0.0107736  -0.0341715  -0.0435713  -0.0002516  -0.0335617
          235         236         237         238         239         240
    1   0.0312097   0.0027222  -0.0429500   0.0027909   0.0254348  -0.0073895
    2   0.0139542  -0.0273080  -0.0272658   0.0093585   0.0132082   0.0013386
    3   0.0124266   0.0151391  -0.0195782  -0.0040164   0.0214883  -0.0360711
          241         242
    1  -0.0216061   0.0065005
    2   0.0163940   0.0254944
    3   0.0139580   0.1091545
  --- DONE ESP SUMMARY ---
 Total job time:  21.02s(wall), 54.57s(cpu) 
 Thu Jul 21 14:15:52 2022

        *************************************************************
        *                                                           *
        *  Thank you very much for using Q-Chem.  Have a nice day.  *
        *                                                           *
        *************************************************************


