                  Welcome to Q-Chem
     A Quantum Leap Into The Future Of Chemistry


 Q-Chem 5.2 (devel), Q-Chem, Inc., Pleasanton, CA (2019)

 Yihan Shao,  Zhengting Gan,  E. Epifanovsky,  A. T. B. Gilbert,  M. Wormit,  
 J. Kussmann,  A. W. Lange,  A. Behn,  Jia Deng,  Xintian Feng,  D. Ghosh,  
 M. Goldey,  P. R. Horn,  L. D. Jacobson,  I. Kaliman,  T. Kus,  A. Landau,  
 Jie Liu,  E. I. Proynov,  R. M. Richard,  R. P. Steele,  E. J. Sundstrom,  
 H. L. Woodcock III,  P. M. Zimmerman,  D. Zuev,  B. Alam,  B. Albrecht,  
 E. Alguire,  S. A. Baeppler,  D. Barton,  Z. Benda,  Y. A. Bernard,  
 E. J. Berquist,  K. B. Bravaya,  H. Burton,  K. Carter-Fenk,  D. Casanova,  
 Chun-Min Chang,  Yunqing Chen,  A. Chien,  K. D. Closser,  M. P. Coons,  
 S. Coriani,  S. Dasgupta,  A. L. Dempwolff,  M. Diedenhofen,  Hainam Do,  
 R. G. Edgar,  Po-Tung Fang,  S. Faraji,  S. Fatehi,  Qingguo Feng,  
 J. Fosso-Tande,  J. Gayvert,  Qinghui Ge,  A. Ghysels,  G. Gidofalvi,  
 J. Gomes,  J. Gonthier,  A. Gunina,  D. Hait,  M. W. D. Hanson-Heine,  
 P. H. P. Harbach,  A. W. Hauser,  M. F. Herbst,  J. E. Herr,  
 E. G. Hohenstein,  Z. C. Holden,  Kerwin Hui,  B. C. Huynh,  T.-C. Jagau,  
 Hyunjun Ji,  B. Kaduk,  K. Khistyaev,  Jaehoon Kim,  P. Klunzinger,  K. Koh,  
 D. Kosenkov,  L. Koulias,  T. Kowalczyk,  C. M. Krauter,  A. Kunitsa,  
 Ka Un Lao,  A. Laurent,  K. V. Lawler,  Joonho Lee,  D. Lefrancois,  
 S. Lehtola,  D. S. Levine,  Yi-Pei Li,  You-Sheng Lin,  Fenglai Liu,  
 Kuan-Yu Liu,  E. Livshits,  M. Loipersberger,  A. Luenser,  P. Manohar,  
 E. Mansoor,  S. F. Manzer,  Shan-Ping Mao,  Yuezhi Mao,  N. Mardirossian,  
 A. V. Marenich,  T. Markovich,  L. A. Martinez-Martinez,  S. A. Maurer,  
 N. J. Mayhall,  S. C. McKenzie,  J.-M. Mewes,  P. Morgante,  A. F. Morrison,  
 J. W. Mullinax,  K. Nanda,  T. S. Nguyen-Beck,  R. Olivares-Amaya,  
 J. A. Parkhill,  S. K. Paul,  F. Pavosevic,  Zheng Pei,  T. M. Perrine,  
 F. Plasser,  P. Pokhilko,  S. Prager,  A. Prociuk,  E. Ramos,  B. Rana,  
 D. R. Rehn,  F. Rob,  M. Scheurer,  M. Schneider,  N. Sergueev,  
 S. M. Sharada,  S. Sharma,  D. W. Small,  T. Stauch,  C. J. Stein,  
 T. Stein,  Yu-Chuan Su,  S. P. Veccham,  Zhen Tao,  A. J. W. Thom,  
 A. Tkatchenko,  T. Tsuchimochi,  N. M. Tubman,  L. Vogt,  M. L. Vidal,  
 O. Vydrov,  M. A. Watson,  J. Wenzel,  M. de Wergifosse,  T. A. Wesolowski,  
 A. White,  J. Witte,  A. Yamada,  Jun Yang,  K. Yao,  S. Yeganeh,  
 S. R. Yost,  Zhi-Qiang You,  A. Zech,  Igor Ying Zhang,  Xing Zhang,  
 Yan Zhao,  Ying Zhu,  B. R. Brooks,  G. K. L. Chan,  C. J. Cramer,  
 M. S. Gordon,  W. J. Hehre,  A. Klamt,  M. W. Schmidt,  C. D. Sherrill,  
 D. G. Truhlar,  A. Aspuru-Guzik,  R. Baer,  A. T. Bell,  N. A. Besley,  
 Jeng-Da Chai,  A. E. DePrince, III,  R. A. DiStasio Jr.,  A. Dreuw,  
 B. D. Dunietz,  T. R. Furlani,  Chao-Ping Hsu,  Yousung Jung,  Jing Kong,  
 D. S. Lambrecht,  WanZhen Liang,  C. Ochsenfeld,  V. A. Rassolov,  
 L. V. Slipchenko,  J. E. Subotnik,  T. Van Voorhis,  J. M. Herbert,  
 A. I. Krylov,  P. M. W. Gill,  M. Head-Gordon

 Contributors to earlier versions of Q-Chem not listed above: 
 R. D. Adamson,  B. Austin,  J. Baker,  G. J. O. Beran,  K. Brandhorst,  
 S. T. Brown,  E. F. C. Byrd,  A. K. Chakraborty,  C.-L. Cheng,  
 Siu Hung Chien,  D. M. Chipman,  D. L. Crittenden,  H. Dachsel,  
 R. J. Doerksen,  A. D. Dutoi,  L. Fusti-Molnar,  W. A. Goddard III,  
 A. Golubeva-Zadorozhnaya,  S. R. Gwaltney,  G. Hawkins,  A. Heyden,  
 S. Hirata,  G. Kedziora,  F. J. Keil,  C. Kelley,  Jihan Kim,  R. A. King,  
 R. Z. Khaliullin,  P. P. Korambath,  W. Kurlancheek,  A. M. Lee,  M. S. Lee,  
 S. V. Levchenko,  Ching Yeh Lin,  D. Liotard,  R. C. Lochan,  I. Lotan,  
 P. E. Maslen,  N. Nair,  D. P. O'Neill,  D. Neuhauser,  E. Neuscamman,  
 C. M. Oana,  R. Olson,  B. Peters,  R. Peverati,  P. A. Pieniazek,  
 Y. M. Rhee,  J. Ritchie,  M. A. Rohrdanz,  E. Rosta,  N. J. Russ,  
 H. F. Schaefer III,  N. E. Schultz,  N. Shenvi,  A. C. Simmonett,  A. Sodt,  
 D. Stuck,  K. S. Thanthiriwatte,  V. Vanovschi,  Tao Wang,  A. Warshel,  
 C. F. Williams,  Q. Wu,  X. Xu,  W. Zhang

 Please cite Q-Chem as follows:
 Y. Shao et al., Mol. Phys. 113, 184-215 (2015)
 DOI: 10.1080/00268976.2014.952696

 Q-Chem 5.2.2 for Intel X86 EM64T Linux

 Parts of Q-Chem use Armadillo 9.800.1 (Horizon Scraper).
 http://arma.sourceforge.net/

 Q-Chem begins on Thu Mar 11 13:37:32 2021  

Host: n0072.mhg0
0

     Scratch files written to /local/scratch/users/ymao/r7.00_frame_0020_almo_B3LYP_dp.in20210311133730//

Checking the input file for inconsistencies... 	...done.

--------------------------------------------------------------
User input:
--------------------------------------------------------------
$molecule
0 1
--
0 1
C    23.76900   14.87700   28.78400  
C    23.54800   15.94000   27.69600  
C    22.62400   17.07900   28.15700  
C    22.87200   17.61200   29.57800  
C    22.79900   16.36500   30.47300  
C    23.96500   15.39500   30.21800  
H    22.72800   17.84300   27.37700  
H    24.49900   16.47000   27.56300  
H    22.88400   14.22900   28.77800  
H    24.58200   14.20400   28.48400  
H    23.82400   18.12700   29.75600  
H    22.07900   18.30300   29.88900  
H    22.74600   16.57100   31.54900  
H    21.85500   15.83300   30.30200  
H    24.90700   15.93000   30.38800  
H    23.98500   14.59700   30.97000  
H    21.63100   16.62300   28.06000  
N    23.08600   15.48800   26.38500  
H    22.20600   15.69600   25.92800  
C    23.82100   14.61300   25.61300  
H    23.32800   14.28800   24.67900  
O    24.94800   14.22300   25.86200  
--
0 1
C    21.37400   21.63100   29.06500  
H    20.96200   21.92900   28.09800  
H    22.29600   21.05200   28.96400  
H    20.65200   21.01200   29.60300  
S    21.79600   23.04300   30.11000  
C    23.22700   23.62300   29.17000  
H    23.94500   22.83400   28.93400  
H    22.73200   23.88900   28.23200  
H    23.54800   24.48600   29.76000  
O    22.27400   22.47000   31.40800  
C    18.31500   20.81800   24.37600  
H    17.97000   20.15900   23.57500  
H    17.63700   20.63800   25.21400  
H    18.34700   21.87600   24.10300  
S    20.02500   20.41200   24.79700  
C    19.78700   18.68800   25.28500  
H    20.71500   18.46600   25.81800  
H    18.88600   18.71000   25.90400  
H    19.64800   18.09100   24.38000  
O    20.20900   21.18300   26.06700  
C    29.51300   14.05500   32.48200  
H    29.49600   13.26500   33.23700  
H    30.29500   13.96900   31.72200  
H    29.73200   15.00700   32.97200  
S    27.90400   14.15800   31.66600  
C    28.33900   15.32100   30.35400  
H    28.29200   16.35800   30.69800  
H    29.33200   15.09200   29.95900  
H    27.60900   15.16500   29.55600  
O    27.07100   15.07200   32.50900  
C    25.47400   20.68200   28.01000  
H    25.51400   21.68700   27.58300  
H    24.74300   20.02800   27.52800  
H    25.15100   20.66100   29.05400  
S    27.08100   19.86000   27.92600  
C    26.60100   18.28200   28.66500  
H    26.05300   18.60400   29.55400  
H    25.98400   17.69800   27.97800  
H    27.51600   17.71300   28.84700  
O    27.75900   20.39900   29.14700  
C    19.83800   20.99000   33.21700  
H    18.95300   21.34600   33.75100  
H    20.60300   21.75100   33.39500  
H    19.64200   20.89000   32.14700  
S    20.24400   19.44100   34.05400  
C    21.45600   18.84500   32.85300  
H    21.50600   17.77800   33.08800  
H    20.91300   18.98600   31.91500  
H    22.40400   19.32400   33.11100  
O    19.02500   18.67600   33.64200  
C    17.22500   20.53400   28.02000  
H    17.52000   21.06100   28.93100  
H    18.03800   20.52200   27.28900  
H    16.37300   21.04600   27.56600  
S    16.63500   18.85600   28.34000  
C    18.18400   18.37300   29.13400  
H    18.09000   17.30000   29.32300  
H    19.06300   18.32500   28.48600  
H    18.24700   18.89200   30.09400  
O    16.70200   18.02200   27.09900  
C    25.67800   23.87100   33.37400  
H    25.91600   24.58000   32.57700  
H    24.62300   23.59800   33.29400  
H    25.85200   24.30500   34.36200  
S    26.64200   22.38000   33.03900  
C    25.72300   22.08400   31.51100  
H    26.25400   21.26800   31.01400  
H    24.70400   21.72200   31.66900  
H    25.73800   23.01300   30.93500  
O    26.05300   21.45800   34.06000  
C    27.47200   11.81800   24.29100  
H    28.55900   11.87800   24.39000  
H    27.01400   12.59800   24.90500  
H    27.35200   10.77900   24.60700  
S    26.91000   11.92700   22.57700  
C    27.77100   10.42700   22.05200  
H    27.29600   9.55400    22.50700  
H    27.70100   10.26700   20.97300  
H    28.80200   10.47200   22.41500  
O    27.56800   13.18600   22.10300  
C    25.09800   10.92500   28.06000  
H    24.62800   9.95300    28.22700  
H    24.36400   11.68800   28.33200  
H    25.42300   10.91600   27.01600  
S    26.54400   11.34200   29.06100  
C    25.71500   11.73300   30.61800  
H    26.37900   11.88100   31.47300  
H    25.18200   12.66300   30.40500  
H    24.97800   10.93400   30.73300  
O    26.94900   12.73900   28.70600  
C    23.88200   12.62400   33.84600  
H    22.89000   13.07600   33.93200  
H    24.17000   12.55700   32.79400  
H    23.91400   11.67700   34.39200  
S    24.92800   13.62600   34.92500  
C    26.29900   12.44900   34.89700  
H    27.21000   12.92200   35.27100  
H    26.01400   11.68900   35.62800  
H    26.46500   12.02300   33.90400  
O    24.22700   13.39300   36.22700  
C    29.73000   19.79000   32.25100  
H    30.81300   19.86900   32.37700  
H    29.51300   20.09600   31.22500  
H    29.16700   20.36900   32.98900  
S    29.27600   18.06800   32.55600  
C    27.52800   18.47300   32.77000  
H    27.46500   19.17900   33.60200  
H    27.21200   18.96300   31.84500  
H    26.97400   17.55200   32.96800  
O    29.77900   17.86900   33.95200  
C    20.07800   15.34300   33.23000  
H    20.20700   14.50400   33.91800  
H    21.06300   15.44800   32.76700  
H    19.71900   16.16900   33.85000  
S    18.88700   14.88000   31.95300  
C    19.80200   13.35300   31.64100  
H    19.64300   12.61400   32.43100  
H    19.38100   13.05000   30.67900  
H    20.87800   13.42200   31.46700  
O    19.14100   15.83500   30.82900  
C    23.19400   15.26100   18.56300  
H    22.87500   14.28900   18.18100  
H    22.33500   15.71800   19.06100  
H    23.54900   15.89300   17.74500  
S    24.45700   15.03200   19.83500  
C    23.97200   13.61200   20.84100  
H    22.98700   13.86400   21.24300  
H    23.98300   12.73900   20.18300  
H    24.80400   13.59300   21.54900  
O    24.29700   16.27500   20.65400  
C    19.93900   10.98300   19.87500  
H    19.86900   10.87100   18.79000  
H    19.55600   10.07000   20.33800  
H    19.25100   11.80400   20.09000  
S    21.57700   11.36300   20.53700  
C    22.32000   9.75200    20.19300  
H    22.43900   9.50000    19.13600  
H    23.34800   9.73400    20.56200  
H    21.73700   9.02200    20.76000  
O    21.32800   11.18800   22.00200  
C    19.94200   14.07900   27.99700  
H    19.52100   14.76800   28.73300  
H    19.96100   13.10200   28.48700  
H    20.92500   14.47600   27.73100  
S    18.91100   13.95500   26.51800  
C    17.72000   15.25800   26.90700  
H    17.24800   15.00000   27.85800  
H    18.21600   16.22800   26.99100  
H    17.02500   15.27800   26.06500  
O    18.07200   12.75800   26.84100  
C    24.16900   16.99500   37.39600  
H    24.04400   17.77500   38.15100  
H    23.45200   16.18900   37.57400  
H    25.12500   16.47700   37.50500  
S    23.87800   17.49300   35.68300  
C    25.20700   18.69600   35.45500  
H    25.21400   19.35500   36.32700  
H    26.08400   18.04400   35.42500  
H    25.12500   19.24700   34.51500  
O    22.60500   18.27900   35.66200  
C    24.73000   19.08800   22.75800  
H    25.34100   19.97300   22.56600  
H    25.35300   18.19400   22.67300  
H    24.01300   18.92700   21.94900  
S    23.79700   19.04100   24.30500  
C    23.50300   20.81500   24.48600  
H    24.30600   21.39600   24.94600  
H    23.07000   21.21500   23.56600  
H    22.65300   20.86000   25.17300  
O    24.82600   18.78000   25.36100  
C    28.19000   17.09500   23.72300  
H    28.72400   17.90000   24.23500  
H    28.29400   17.14100   22.63600  
H    27.13400   17.31500   23.89800  
S    28.62500   15.46500   24.36900  
C    28.05100   15.66700   26.07100  
H    26.97700   15.80600   25.92300  
H    28.20300   14.69700   26.55200  
H    28.44600   16.54300   26.59100  
O    30.10900   15.58200   24.52800  
C    21.72200   10.35400   31.73700  
H    22.53300   11.05600   31.94300  
H    20.90600   10.39500   32.46400  
H    22.09800   9.33100    31.66100  
S    21.15200   10.91800   30.11800  
C    19.92500   9.65200    29.72000  
H    19.07200   9.73900    30.39700  
H    19.59400   9.79900    28.68800  
H    20.46100   8.70100    29.78700  
O    22.33300   10.69200   29.22600  
C    23.36500   10.39000   24.69300  
H    23.62800   11.41300   24.41500  
H    23.78600   10.25000   25.69200  
H    23.73000   9.65800    23.96800  
S    21.56500   10.25900   24.78800  
C    21.40000   11.40300   26.17700  
H    20.45200   11.29800   26.71200  
H    22.25300   11.24100   26.84000  
H    21.44400   12.39500   25.71900  
O    21.30700   8.91600    25.39700  
C    31.04900   13.56800   26.76400  
H    29.97900   13.52500   26.54500  
H    31.20400   14.33500   27.52700  
H    31.55200   13.91400   25.85800  
S    31.48800   11.95900   27.46000  
C    30.06200   11.85100   28.56500  
H    30.29600   11.01300   29.22600  
H    29.94500   12.81800   29.06100  
H    29.20400   11.59600   27.93800  
O    32.53400   12.22400   28.49700  
C    21.96300   16.68000   22.50100  
H    21.97800   16.81800   21.41700  
H    21.47800   17.54500   22.96100  
H    22.92800   16.51400   22.98700  
S    21.07100   15.26200   23.17900  
C    19.39200   15.65300   22.63800  
H    18.69400   15.11900   23.28700  
H    19.23500   16.71700   22.83200  
H    19.34200   15.36600   21.58400  
O    20.98700   15.56500   24.64200  
$end

$rem
JOBTYPE  SP
METHOD  B3LYP
BASIS  6-31+G(D)
SYMMETRY  FALSE
SYM_IGNORE  TRUE
MEM_TOTAL  16000
MEM_STATIC  8000
MAX_SUB_FILE_NUM  16000
BASIS_LIN_DEP_THRESH  6
THRESH  14
SCF_CONVERGENCE  8
GEN_SCFMAN  TRUE
SCF_GUESS  FRAGMO
FD_MAT_VEC_PROD  FALSE
XC_GRID  000075000302
NL_GRID  1
MAX_SCF_CYCLES  200
FRGM_METHOD  STOLL
SCFMI_MODE  1
$end

$development
almo_efield  1
$end

$rem_frgm
SCF_CONVERGENCE  4
$end

--------------------------------------------------------------
 ----------------------------------------------------------------
             Standard Nuclear Orientation (Angstroms)
    I     Atom           X                Y                Z
 ----------------------------------------------------------------
    1      C      23.7690000000    14.8770000000    28.7840000000
    2      C      23.5480000000    15.9400000000    27.6960000000
    3      C      22.6240000000    17.0790000000    28.1570000000
    4      C      22.8720000000    17.6120000000    29.5780000000
    5      C      22.7990000000    16.3650000000    30.4730000000
    6      C      23.9650000000    15.3950000000    30.2180000000
    7      H      22.7280000000    17.8430000000    27.3770000000
    8      H      24.4990000000    16.4700000000    27.5630000000
    9      H      22.8840000000    14.2290000000    28.7780000000
   10      H      24.5820000000    14.2040000000    28.4840000000
   11      H      23.8240000000    18.1270000000    29.7560000000
   12      H      22.0790000000    18.3030000000    29.8890000000
   13      H      22.7460000000    16.5710000000    31.5490000000
   14      H      21.8550000000    15.8330000000    30.3020000000
   15      H      24.9070000000    15.9300000000    30.3880000000
   16      H      23.9850000000    14.5970000000    30.9700000000
   17      H      21.6310000000    16.6230000000    28.0600000000
   18      N      23.0860000000    15.4880000000    26.3850000000
   19      H      22.2060000000    15.6960000000    25.9280000000
   20      C      23.8210000000    14.6130000000    25.6130000000
   21      H      23.3280000000    14.2880000000    24.6790000000
   22      O      24.9480000000    14.2230000000    25.8620000000
   23      C      21.3740000000    21.6310000000    29.0650000000
   24      H      20.9620000000    21.9290000000    28.0980000000
   25      H      22.2960000000    21.0520000000    28.9640000000
   26      H      20.6520000000    21.0120000000    29.6030000000
   27      S      21.7960000000    23.0430000000    30.1100000000
   28      C      23.2270000000    23.6230000000    29.1700000000
   29      H      23.9450000000    22.8340000000    28.9340000000
   30      H      22.7320000000    23.8890000000    28.2320000000
   31      H      23.5480000000    24.4860000000    29.7600000000
   32      O      22.2740000000    22.4700000000    31.4080000000
   33      C      18.3150000000    20.8180000000    24.3760000000
   34      H      17.9700000000    20.1590000000    23.5750000000
   35      H      17.6370000000    20.6380000000    25.2140000000
   36      H      18.3470000000    21.8760000000    24.1030000000
   37      S      20.0250000000    20.4120000000    24.7970000000
   38      C      19.7870000000    18.6880000000    25.2850000000
   39      H      20.7150000000    18.4660000000    25.8180000000
   40      H      18.8860000000    18.7100000000    25.9040000000
   41      H      19.6480000000    18.0910000000    24.3800000000
   42      O      20.2090000000    21.1830000000    26.0670000000
   43      C      29.5130000000    14.0550000000    32.4820000000
   44      H      29.4960000000    13.2650000000    33.2370000000
   45      H      30.2950000000    13.9690000000    31.7220000000
   46      H      29.7320000000    15.0070000000    32.9720000000
   47      S      27.9040000000    14.1580000000    31.6660000000
   48      C      28.3390000000    15.3210000000    30.3540000000
   49      H      28.2920000000    16.3580000000    30.6980000000
   50      H      29.3320000000    15.0920000000    29.9590000000
   51      H      27.6090000000    15.1650000000    29.5560000000
   52      O      27.0710000000    15.0720000000    32.5090000000
   53      C      25.4740000000    20.6820000000    28.0100000000
   54      H      25.5140000000    21.6870000000    27.5830000000
   55      H      24.7430000000    20.0280000000    27.5280000000
   56      H      25.1510000000    20.6610000000    29.0540000000
   57      S      27.0810000000    19.8600000000    27.9260000000
   58      C      26.6010000000    18.2820000000    28.6650000000
   59      H      26.0530000000    18.6040000000    29.5540000000
   60      H      25.9840000000    17.6980000000    27.9780000000
   61      H      27.5160000000    17.7130000000    28.8470000000
   62      O      27.7590000000    20.3990000000    29.1470000000
   63      C      19.8380000000    20.9900000000    33.2170000000
   64      H      18.9530000000    21.3460000000    33.7510000000
   65      H      20.6030000000    21.7510000000    33.3950000000
   66      H      19.6420000000    20.8900000000    32.1470000000
   67      S      20.2440000000    19.4410000000    34.0540000000
   68      C      21.4560000000    18.8450000000    32.8530000000
   69      H      21.5060000000    17.7780000000    33.0880000000
   70      H      20.9130000000    18.9860000000    31.9150000000
   71      H      22.4040000000    19.3240000000    33.1110000000
   72      O      19.0250000000    18.6760000000    33.6420000000
   73      C      17.2250000000    20.5340000000    28.0200000000
   74      H      17.5200000000    21.0610000000    28.9310000000
   75      H      18.0380000000    20.5220000000    27.2890000000
   76      H      16.3730000000    21.0460000000    27.5660000000
   77      S      16.6350000000    18.8560000000    28.3400000000
   78      C      18.1840000000    18.3730000000    29.1340000000
   79      H      18.0900000000    17.3000000000    29.3230000000
   80      H      19.0630000000    18.3250000000    28.4860000000
   81      H      18.2470000000    18.8920000000    30.0940000000
   82      O      16.7020000000    18.0220000000    27.0990000000
   83      C      25.6780000000    23.8710000000    33.3740000000
   84      H      25.9160000000    24.5800000000    32.5770000000
   85      H      24.6230000000    23.5980000000    33.2940000000
   86      H      25.8520000000    24.3050000000    34.3620000000
   87      S      26.6420000000    22.3800000000    33.0390000000
   88      C      25.7230000000    22.0840000000    31.5110000000
   89      H      26.2540000000    21.2680000000    31.0140000000
   90      H      24.7040000000    21.7220000000    31.6690000000
   91      H      25.7380000000    23.0130000000    30.9350000000
   92      O      26.0530000000    21.4580000000    34.0600000000
   93      C      27.4720000000    11.8180000000    24.2910000000
   94      H      28.5590000000    11.8780000000    24.3900000000
   95      H      27.0140000000    12.5980000000    24.9050000000
   96      H      27.3520000000    10.7790000000    24.6070000000
   97      S      26.9100000000    11.9270000000    22.5770000000
   98      C      27.7710000000    10.4270000000    22.0520000000
   99      H      27.2960000000     9.5540000000    22.5070000000
  100      H      27.7010000000    10.2670000000    20.9730000000
  101      H      28.8020000000    10.4720000000    22.4150000000
  102      O      27.5680000000    13.1860000000    22.1030000000
  103      C      25.0980000000    10.9250000000    28.0600000000
  104      H      24.6280000000     9.9530000000    28.2270000000
  105      H      24.3640000000    11.6880000000    28.3320000000
  106      H      25.4230000000    10.9160000000    27.0160000000
  107      S      26.5440000000    11.3420000000    29.0610000000
  108      C      25.7150000000    11.7330000000    30.6180000000
  109      H      26.3790000000    11.8810000000    31.4730000000
  110      H      25.1820000000    12.6630000000    30.4050000000
  111      H      24.9780000000    10.9340000000    30.7330000000
  112      O      26.9490000000    12.7390000000    28.7060000000
  113      C      23.8820000000    12.6240000000    33.8460000000
  114      H      22.8900000000    13.0760000000    33.9320000000
  115      H      24.1700000000    12.5570000000    32.7940000000
  116      H      23.9140000000    11.6770000000    34.3920000000
  117      S      24.9280000000    13.6260000000    34.9250000000
  118      C      26.2990000000    12.4490000000    34.8970000000
  119      H      27.2100000000    12.9220000000    35.2710000000
  120      H      26.0140000000    11.6890000000    35.6280000000
  121      H      26.4650000000    12.0230000000    33.9040000000
  122      O      24.2270000000    13.3930000000    36.2270000000
  123      C      29.7300000000    19.7900000000    32.2510000000
  124      H      30.8130000000    19.8690000000    32.3770000000
  125      H      29.5130000000    20.0960000000    31.2250000000
  126      H      29.1670000000    20.3690000000    32.9890000000
  127      S      29.2760000000    18.0680000000    32.5560000000
  128      C      27.5280000000    18.4730000000    32.7700000000
  129      H      27.4650000000    19.1790000000    33.6020000000
  130      H      27.2120000000    18.9630000000    31.8450000000
  131      H      26.9740000000    17.5520000000    32.9680000000
  132      O      29.7790000000    17.8690000000    33.9520000000
  133      C      20.0780000000    15.3430000000    33.2300000000
  134      H      20.2070000000    14.5040000000    33.9180000000
  135      H      21.0630000000    15.4480000000    32.7670000000
  136      H      19.7190000000    16.1690000000    33.8500000000
  137      S      18.8870000000    14.8800000000    31.9530000000
  138      C      19.8020000000    13.3530000000    31.6410000000
  139      H      19.6430000000    12.6140000000    32.4310000000
  140      H      19.3810000000    13.0500000000    30.6790000000
  141      H      20.8780000000    13.4220000000    31.4670000000
  142      O      19.1410000000    15.8350000000    30.8290000000
  143      C      23.1940000000    15.2610000000    18.5630000000
  144      H      22.8750000000    14.2890000000    18.1810000000
  145      H      22.3350000000    15.7180000000    19.0610000000
  146      H      23.5490000000    15.8930000000    17.7450000000
  147      S      24.4570000000    15.0320000000    19.8350000000
  148      C      23.9720000000    13.6120000000    20.8410000000
  149      H      22.9870000000    13.8640000000    21.2430000000
  150      H      23.9830000000    12.7390000000    20.1830000000
  151      H      24.8040000000    13.5930000000    21.5490000000
  152      O      24.2970000000    16.2750000000    20.6540000000
  153      C      19.9390000000    10.9830000000    19.8750000000
  154      H      19.8690000000    10.8710000000    18.7900000000
  155      H      19.5560000000    10.0700000000    20.3380000000
  156      H      19.2510000000    11.8040000000    20.0900000000
  157      S      21.5770000000    11.3630000000    20.5370000000
  158      C      22.3200000000     9.7520000000    20.1930000000
  159      H      22.4390000000     9.5000000000    19.1360000000
  160      H      23.3480000000     9.7340000000    20.5620000000
  161      H      21.7370000000     9.0220000000    20.7600000000
  162      O      21.3280000000    11.1880000000    22.0020000000
  163      C      19.9420000000    14.0790000000    27.9970000000
  164      H      19.5210000000    14.7680000000    28.7330000000
  165      H      19.9610000000    13.1020000000    28.4870000000
  166      H      20.9250000000    14.4760000000    27.7310000000
  167      S      18.9110000000    13.9550000000    26.5180000000
  168      C      17.7200000000    15.2580000000    26.9070000000
  169      H      17.2480000000    15.0000000000    27.8580000000
  170      H      18.2160000000    16.2280000000    26.9910000000
  171      H      17.0250000000    15.2780000000    26.0650000000
  172      O      18.0720000000    12.7580000000    26.8410000000
  173      C      24.1690000000    16.9950000000    37.3960000000
  174      H      24.0440000000    17.7750000000    38.1510000000
  175      H      23.4520000000    16.1890000000    37.5740000000
  176      H      25.1250000000    16.4770000000    37.5050000000
  177      S      23.8780000000    17.4930000000    35.6830000000
  178      C      25.2070000000    18.6960000000    35.4550000000
  179      H      25.2140000000    19.3550000000    36.3270000000
  180      H      26.0840000000    18.0440000000    35.4250000000
  181      H      25.1250000000    19.2470000000    34.5150000000
  182      O      22.6050000000    18.2790000000    35.6620000000
  183      C      24.7300000000    19.0880000000    22.7580000000
  184      H      25.3410000000    19.9730000000    22.5660000000
  185      H      25.3530000000    18.1940000000    22.6730000000
  186      H      24.0130000000    18.9270000000    21.9490000000
  187      S      23.7970000000    19.0410000000    24.3050000000
  188      C      23.5030000000    20.8150000000    24.4860000000
  189      H      24.3060000000    21.3960000000    24.9460000000
  190      H      23.0700000000    21.2150000000    23.5660000000
  191      H      22.6530000000    20.8600000000    25.1730000000
  192      O      24.8260000000    18.7800000000    25.3610000000
  193      C      28.1900000000    17.0950000000    23.7230000000
  194      H      28.7240000000    17.9000000000    24.2350000000
  195      H      28.2940000000    17.1410000000    22.6360000000
  196      H      27.1340000000    17.3150000000    23.8980000000
  197      S      28.6250000000    15.4650000000    24.3690000000
  198      C      28.0510000000    15.6670000000    26.0710000000
  199      H      26.9770000000    15.8060000000    25.9230000000
  200      H      28.2030000000    14.6970000000    26.5520000000
  201      H      28.4460000000    16.5430000000    26.5910000000
  202      O      30.1090000000    15.5820000000    24.5280000000
  203      C      21.7220000000    10.3540000000    31.7370000000
  204      H      22.5330000000    11.0560000000    31.9430000000
  205      H      20.9060000000    10.3950000000    32.4640000000
  206      H      22.0980000000     9.3310000000    31.6610000000
  207      S      21.1520000000    10.9180000000    30.1180000000
  208      C      19.9250000000     9.6520000000    29.7200000000
  209      H      19.0720000000     9.7390000000    30.3970000000
  210      H      19.5940000000     9.7990000000    28.6880000000
  211      H      20.4610000000     8.7010000000    29.7870000000
  212      O      22.3330000000    10.6920000000    29.2260000000
  213      C      23.3650000000    10.3900000000    24.6930000000
  214      H      23.6280000000    11.4130000000    24.4150000000
  215      H      23.7860000000    10.2500000000    25.6920000000
  216      H      23.7300000000     9.6580000000    23.9680000000
  217      S      21.5650000000    10.2590000000    24.7880000000
  218      C      21.4000000000    11.4030000000    26.1770000000
  219      H      20.4520000000    11.2980000000    26.7120000000
  220      H      22.2530000000    11.2410000000    26.8400000000
  221      H      21.4440000000    12.3950000000    25.7190000000
  222      O      21.3070000000     8.9160000000    25.3970000000
  223      C      31.0490000000    13.5680000000    26.7640000000
  224      H      29.9790000000    13.5250000000    26.5450000000
  225      H      31.2040000000    14.3350000000    27.5270000000
  226      H      31.5520000000    13.9140000000    25.8580000000
  227      S      31.4880000000    11.9590000000    27.4600000000
  228      C      30.0620000000    11.8510000000    28.5650000000
  229      H      30.2960000000    11.0130000000    29.2260000000
  230      H      29.9450000000    12.8180000000    29.0610000000
  231      H      29.2040000000    11.5960000000    27.9380000000
  232      O      32.5340000000    12.2240000000    28.4970000000
  233      C      21.9630000000    16.6800000000    22.5010000000
  234      H      21.9780000000    16.8180000000    21.4170000000
  235      H      21.4780000000    17.5450000000    22.9610000000
  236      H      22.9280000000    16.5140000000    22.9870000000
  237      S      21.0710000000    15.2620000000    23.1790000000
  238      C      19.3920000000    15.6530000000    22.6380000000
  239      H      18.6940000000    15.1190000000    23.2870000000
  240      H      19.2350000000    16.7170000000    22.8320000000
  241      H      19.3420000000    15.3660000000    21.5840000000
  242      O      20.9870000000    15.5650000000    24.6420000000
 ----------------------------------------------------------------
 Nuclear Repulsion Energy =       34887.29920495 hartrees
 There are      497 alpha and      497 beta electrons
 Requested basis set is 6-31+G(d)
 There are 797 shells and 2221 basis functions

 Total QAlloc Memory Limit  16000 MB
 Mega-Array Size      7821 MB
 MEM_STATIC part      8000 MB
 A cutoff of  1.0D-14 yielded 135220 shell pairs
 There are   1155238 function pairs
 Smallest overlap matrix eigenvalue = 4.83E-07
 Linear dependence detected in AO basis
 Tighter screening thresholds may be required for diffuse basis sets
 Use S2THRESH > 14 and THRESH = 14 in case of SCF convergence issues
 Number of orthogonalized atomic orbitals = 2219
 Maximum deviation from orthogonality = 1.445E-10

 Scale SEOQF with 1.000000e-03/1.000000e-03/1.000000e-03

 Standard Electronic Orientation quadrupole field applied
 Nucleus-field energy     =    -0.0000004717 hartrees
Attempting to make child job directory: /local/scratch/users/ymao/r7.00_frame_0020_almo_B3LYP_dp.in20210311133730//Frg1/
Attempting to make child job directory: /local/scratch/users/ymao/r7.00_frame_0020_almo_B3LYP_dp.in20210311133730//Frg2/
Creating input file /local/scratch/users/ymao/r7.00_frame_0020_almo_B3LYP_dp.in20210311133730/Frg1.input
using default PutDataFrgm: nothing
calling putenv with: QCSCRATCH=/local/scratch/users/ymao/r7.00_frame_0020_almo_B3LYP_dp.in20210311133730/ 
Spawning Job For Fragment 0
Done Job For Fragment 0
calling putenv with: QCSCRATCH=/local/scratch/users/ymao 
calling putenv with: QCTHREADS=8 
Creating input file /local/scratch/users/ymao/r7.00_frame_0020_almo_B3LYP_dp.in20210311133730/Frg2.input
using default PutDataFrgm: nothing
calling putenv with: QCSCRATCH=/local/scratch/users/ymao/r7.00_frame_0020_almo_B3LYP_dp.in20210311133730/ 
Spawning Job For Fragment 1
Done Job For Fragment 1
calling putenv with: QCSCRATCH=/local/scratch/users/ymao 
calling putenv with: QCTHREADS=8 
 Time for running child jobs:  CPU 0.37 s  wall 13368.07 s

 -----------------------------------------------------------------------
  General SCF calculation program by
  Eric Jon Sundstrom, Paul Horn, Yuezhi Mao, Dmitri Zuev, Alec White,
  David Stuck, Shaama M.S., Shane Yost, Joonho Lee, David Small,
  Daniel Levine, Susi Lehtola, Hugh Burton, Evgeny Epifanovsky,
  Bang C. Huynh
 -----------------------------------------------------------------------
Performing Restricted Closed Shell SCFMI
Doing General SCFMI
 Exchange:     0.2000 Hartree-Fock + 0.0800 Slater + 0.7200 B88
 Correlation:  0.1900 VWN1RPA + 0.8100 LYP
 Using Euler-Maclaurin-Lebedev (75,302) quadrature formula
performing fock build before subrot guess so that all methods have access
Printing subrot_rss_gen Method Specification:
Occupied Subspace Method is 0
Virtual Subspace Method is 0
Energy prior to optimization (guess energy) = -12574.749539176686
Begin Timing: Total SCF Calculation
begin iterations for algorithm: DIIS         
the SCF tolerance is set to 1.00e-08
    1  -12574.7495391767      4.40e-05     00000 
    2  -12574.7549030061      4.20e-05     00000 
    3  -12574.7573333842      2.50e-05     00000 
    4  -12574.7583013114      8.26e-06     00000 
    5  -12574.7584326137      3.38e-06     00000 
    6  -12574.7584572275      1.78e-06     00000 
    7  -12574.7584637088      1.25e-06     00000 
    8  -12574.7584664071      6.73e-07     00000 
    9  -12574.7584671774      3.41e-07     00000 
   10  -12574.7584673442      2.05e-07     00000 
   11  -12574.7584674009      1.30e-07     00000 
   12  -12574.7584674233      8.55e-08     00000 
   13  -12574.7584674356      4.27e-08     00000 
   14  -12574.7584674390      2.28e-08     00000 
   15  -12574.7584674398      1.49e-08     00000 
   16  -12574.7584674401      8.84e-09     00000 Convergence criterion met
write pseudocanon occs and virts to disk
write pseudocanon orbital energies to disk
Timing for Total SCF: 30340.00s (wall), 242309.87s (cpu)
SCFMI Energy  -12574.7584674401
<S^2>            0.00000
 Total energy in the final basis set =   -12574.7584674401
    ==================================================
        The end of Object-Oriented SCFman: SCFMI      
    ==================================================
 
 --------------------------------------------------------------
 
                    Orbital Energies (a.u.)
 --------------------------------------------------------------
 
 Alpha MOs
 -- Occupied --
-89.0305 -89.0295 -89.0251 -89.0233 -89.0149 -89.0108 -89.0100 -89.0046
-89.0034 -89.0023 -89.0019 -89.0008 -88.9944 -88.9924 -88.9916 -88.9798
-88.9789 -88.9783 -88.9737 -88.9712 -88.9709 -88.9623 -19.1468 -19.1455
-19.1359 -19.1359 -19.1338 -19.1302 -19.1294 -19.1266 -19.1243 -19.1239
-19.1224 -19.1133 -19.1096 -19.1096 -19.1080 -19.1036 -19.0893 -19.0892
-19.0881 -19.0875 -19.0874 -19.0870 -19.0760 -14.3604 -10.2899 -10.2516
-10.2477 -10.2446 -10.2439 -10.2430 -10.2429 -10.2413 -10.2399 -10.2389
-10.2355 -10.2352 -10.2334 -10.2298 -10.2285 -10.2275 -10.2233 -10.2225
-10.2220 -10.2204 -10.2202 -10.2201 -10.2198 -10.2193 -10.2145 -10.2113
-10.2070 -10.2053 -10.2052 -10.2050 -10.2037 -10.2037 -10.2007 -10.1999
-10.1991 -10.1965 -10.1963 -10.1947 -10.1945 -10.1941 -10.1923 -10.1899
-10.1885 -10.1883 -10.1861 -10.1856 -10.1853 -10.1848 -10.1827 -10.1793
-10.1777  -8.0766  -8.0757  -8.0719  -8.0690  -8.0619  -8.0565  -8.0563
 -8.0509  -8.0494  -8.0486  -8.0473  -8.0468  -8.0406  -8.0384  -8.0377
 -8.0256  -8.0255  -8.0249  -8.0200  -8.0172  -8.0168  -8.0089  -6.0410
 -6.0397  -6.0397  -6.0389  -6.0362  -6.0349  -6.0338  -6.0334  -6.0333
 -6.0322  -6.0292  -6.0264  -6.0263  -6.0253  -6.0209  -6.0206  -6.0197
 -6.0195  -6.0186  -6.0153  -6.0141  -6.0137  -6.0136  -6.0136  -6.0130
 -6.0125  -6.0116  -6.0115  -6.0111  -6.0103  -6.0099  -6.0081  -6.0069
 -6.0061  -6.0049  -6.0049  -6.0042  -6.0037  -6.0025  -6.0020  -6.0015
 -6.0007  -5.9980  -5.9957  -5.9953  -5.9899  -5.9898  -5.9891  -5.9889
 -5.9886  -5.9880  -5.9843  -5.9830  -5.9829  -5.9829  -5.9825  -5.9817
 -5.9812  -5.9804  -5.9799  -5.9778  -5.9743  -5.9739  -5.9731  -5.9719
 -5.9662  -1.0622  -1.0550  -1.0502  -1.0446  -1.0440  -1.0428  -1.0384
 -1.0315  -1.0311  -1.0301  -1.0278  -1.0262  -1.0257  -1.0199  -1.0194
 -1.0143  -1.0036  -1.0001  -0.9997  -0.9973  -0.9967  -0.9951  -0.9901
 -0.9262  -0.8332  -0.8300  -0.8282  -0.8237  -0.8203  -0.8172  -0.8167
 -0.8158  -0.8151  -0.8071  -0.8040  -0.8000  -0.7999  -0.7983  -0.7931
 -0.7906  -0.7809  -0.7790  -0.7782  -0.7768  -0.7764  -0.7734  -0.7634
 -0.7623  -0.7621  -0.7559  -0.7551  -0.7507  -0.7483  -0.7471  -0.7446
 -0.7398  -0.7351  -0.7350  -0.7303  -0.7275  -0.7246  -0.7234  -0.7203
 -0.7125  -0.7122  -0.7120  -0.7061  -0.7052  -0.7033  -0.6980  -0.6965
 -0.6455  -0.6444  -0.6352  -0.6346  -0.6334  -0.6291  -0.6256  -0.6250
 -0.6249  -0.6198  -0.6177  -0.6146  -0.6141  -0.6125  -0.6088  -0.6066
 -0.6034  -0.5948  -0.5945  -0.5897  -0.5889  -0.5861  -0.5808  -0.5808
 -0.5753  -0.5717  -0.5350  -0.5154  -0.5125  -0.5082  -0.5075  -0.5042
 -0.4997  -0.4991  -0.4983  -0.4974  -0.4966  -0.4951  -0.4928  -0.4915
 -0.4912  -0.4907  -0.4903  -0.4895  -0.4882  -0.4873  -0.4853  -0.4835
 -0.4816  -0.4806  -0.4795  -0.4788  -0.4785  -0.4780  -0.4773  -0.4770
 -0.4738  -0.4728  -0.4725  -0.4718  -0.4706  -0.4697  -0.4688  -0.4671
 -0.4666  -0.4664  -0.4662  -0.4652  -0.4644  -0.4635  -0.4634  -0.4632
 -0.4629  -0.4622  -0.4616  -0.4607  -0.4596  -0.4591  -0.4577  -0.4575
 -0.4539  -0.4536  -0.4530  -0.4516  -0.4511  -0.4498  -0.4489  -0.4486
 -0.4484  -0.4480  -0.4469  -0.4463  -0.4450  -0.4439  -0.4427  -0.4413
 -0.4404  -0.4388  -0.4377  -0.4370  -0.4357  -0.4356  -0.4348  -0.4335
 -0.4332  -0.4329  -0.4314  -0.4306  -0.4302  -0.4298  -0.4289  -0.4283
 -0.4268  -0.4267  -0.4252  -0.4247  -0.4241  -0.4232  -0.4225  -0.4213
 -0.4211  -0.4210  -0.4207  -0.4189  -0.4179  -0.4178  -0.4149  -0.4144
 -0.4141  -0.4130  -0.4129  -0.4116  -0.4100  -0.4094  -0.4091  -0.4080
 -0.4077  -0.4069  -0.4062  -0.4061  -0.4054  -0.4052  -0.4045  -0.4022
 -0.4016  -0.4000  -0.3963  -0.3955  -0.3950  -0.3928  -0.3913  -0.3908
 -0.3906  -0.3900  -0.3881  -0.3873  -0.3865  -0.3850  -0.3848  -0.3846
 -0.3827  -0.3825  -0.3815  -0.3812  -0.3803  -0.3787  -0.3769  -0.3742
 -0.3740  -0.3726  -0.3720  -0.3716  -0.3711  -0.3698  -0.3683  -0.3667
 -0.3646  -0.3601  -0.3576  -0.3573  -0.3567  -0.3545  -0.3539  -0.3530
 -0.3469  -0.3435  -0.3429  -0.3403  -0.3401  -0.3372  -0.3355  -0.3296
 -0.3277  -0.3159  -0.3119  -0.3060  -0.3009  -0.3009  -0.2974  -0.2941
 -0.2935  -0.2860  -0.2847  -0.2833  -0.2814  -0.2772  -0.2762  -0.2714
 -0.2713  -0.2704  -0.2684  -0.2680  -0.2623  -0.2619  -0.2615  -0.2579
 -0.2524  -0.2518  -0.2517  -0.2509  -0.2500  -0.2497  -0.2475  -0.2470
 -0.2463  -0.2456  -0.2443  -0.2436  -0.2407  -0.2390  -0.2370  -0.2353
 -0.2337  -0.2322  -0.2176  -0.2168  -0.2167  -0.2158  -0.2098  -0.2089
 -0.2055
 -- Virtual --
 -0.0471  -0.0383  -0.0325  -0.0289  -0.0262  -0.0225  -0.0218  -0.0205
 -0.0186  -0.0173  -0.0162  -0.0142  -0.0133  -0.0124  -0.0116  -0.0092
 -0.0070  -0.0054  -0.0046  -0.0036  -0.0029  -0.0019  -0.0009   0.0000
  0.0008   0.0028   0.0032   0.0037   0.0043   0.0049   0.0062   0.0076
  0.0080   0.0098   0.0105   0.0110   0.0116   0.0126   0.0130   0.0131
  0.0144   0.0150   0.0164   0.0173   0.0185   0.0190   0.0198   0.0215
  0.0223   0.0233   0.0238   0.0239   0.0245   0.0254   0.0264   0.0271
  0.0275   0.0281   0.0288   0.0295   0.0302   0.0315   0.0318   0.0332
  0.0340   0.0346   0.0356   0.0364   0.0374   0.0383   0.0393   0.0400
  0.0411   0.0425   0.0425   0.0429   0.0438   0.0443   0.0448   0.0458
  0.0460   0.0464   0.0476   0.0481   0.0487   0.0495   0.0502   0.0512
  0.0518   0.0527   0.0536   0.0537   0.0560   0.0563   0.0571   0.0580
  0.0587   0.0588   0.0596   0.0610   0.0614   0.0616   0.0626   0.0632
  0.0644   0.0648   0.0656   0.0658   0.0674   0.0677   0.0685   0.0689
  0.0702   0.0705   0.0712   0.0716   0.0725   0.0729   0.0739   0.0751
  0.0752   0.0769   0.0779   0.0784   0.0796   0.0802   0.0806   0.0815
  0.0822   0.0824   0.0829   0.0841   0.0847   0.0859   0.0862   0.0869
  0.0877   0.0884   0.0891   0.0896   0.0906   0.0913   0.0923   0.0928
  0.0934   0.0943   0.0954   0.0959   0.0964   0.0974   0.0988   0.0992
  0.0998   0.1002   0.1016   0.1021   0.1026   0.1029   0.1037   0.1042
  0.1052   0.1061   0.1064   0.1068   0.1077   0.1094   0.1101   0.1106
  0.1110   0.1112   0.1124   0.1127   0.1140   0.1144   0.1150   0.1161
  0.1163   0.1169   0.1183   0.1186   0.1197   0.1206   0.1208   0.1214
  0.1230   0.1231   0.1237   0.1239   0.1254   0.1261   0.1274   0.1282
  0.1285   0.1292   0.1298   0.1312   0.1314   0.1321   0.1327   0.1333
  0.1345   0.1350   0.1353   0.1367   0.1372   0.1378   0.1384   0.1392
  0.1393   0.1401   0.1408   0.1417   0.1420   0.1428   0.1436   0.1441
  0.1443   0.1459   0.1461   0.1465   0.1478   0.1490   0.1492   0.1502
  0.1514   0.1516   0.1524   0.1527   0.1530   0.1538   0.1560   0.1571
  0.1576   0.1580   0.1583   0.1590   0.1599   0.1613   0.1622   0.1626
  0.1630   0.1637   0.1649   0.1657   0.1665   0.1668   0.1673   0.1681
  0.1695   0.1697   0.1705   0.1717   0.1719   0.1729   0.1731   0.1743
  0.1754   0.1757   0.1765   0.1770   0.1776   0.1780   0.1793   0.1793
  0.1798   0.1812   0.1820   0.1821   0.1833   0.1840   0.1849   0.1859
  0.1861   0.1873   0.1878   0.1886   0.1891   0.1895   0.1900   0.1908
  0.1918   0.1924   0.1931   0.1943   0.1951   0.1958   0.1966   0.1972
  0.1980   0.1984   0.1990   0.2002   0.2014   0.2025   0.2040   0.2044
  0.2048   0.2051   0.2054   0.2062   0.2065   0.2071   0.2076   0.2082
  0.2099   0.2099   0.2105   0.2119   0.2124   0.2134   0.2135   0.2141
  0.2148   0.2156   0.2162   0.2178   0.2180   0.2190   0.2196   0.2204
  0.2211   0.2215   0.2224   0.2232   0.2238   0.2250   0.2259   0.2262
  0.2270   0.2270   0.2284   0.2287   0.2296   0.2305   0.2314   0.2326
  0.2333   0.2347   0.2351   0.2359   0.2369   0.2373   0.2385   0.2393
  0.2395   0.2399   0.2417   0.2426   0.2430   0.2436   0.2452   0.2458
  0.2460   0.2471   0.2480   0.2480   0.2496   0.2506   0.2510   0.2522
  0.2525   0.2534   0.2550   0.2555   0.2567   0.2569   0.2589   0.2596
  0.2602   0.2608   0.2623   0.2626   0.2638   0.2649   0.2651   0.2661
  0.2669   0.2677   0.2682   0.2691   0.2698   0.2708   0.2722   0.2727
  0.2744   0.2747   0.2757   0.2767   0.2775   0.2784   0.2796   0.2804
  0.2808   0.2815   0.2831   0.2841   0.2855   0.2860   0.2868   0.2879
  0.2884   0.2894   0.2900   0.2907   0.2918   0.2926   0.2937   0.2945
  0.2952   0.2963   0.2975   0.2994   0.2996   0.3002   0.3020   0.3038
  0.3043   0.3053   0.3062   0.3071   0.3078   0.3084   0.3097   0.3107
  0.3123   0.3132   0.3137   0.3144   0.3156   0.3165   0.3177   0.3185
  0.3197   0.3202   0.3211   0.3220   0.3231   0.3246   0.3256   0.3261
  0.3269   0.3279   0.3288   0.3305   0.3308   0.3320   0.3327   0.3331
  0.3343   0.3363   0.3372   0.3386   0.3396   0.3409   0.3411   0.3428
  0.3438   0.3444   0.3450   0.3457   0.3493   0.3500   0.3506   0.3519
  0.3526   0.3542   0.3554   0.3558   0.3569   0.3580   0.3592   0.3600
  0.3617   0.3621   0.3626   0.3638   0.3648   0.3652   0.3662   0.3676
  0.3680   0.3689   0.3702   0.3714   0.3732   0.3746   0.3747   0.3759
  0.3775   0.3783   0.3788   0.3792   0.3810   0.3813   0.3827   0.3834
  0.3840   0.3864   0.3868   0.3886   0.3889   0.3892   0.3903   0.3939
  0.3944   0.3946   0.3955   0.3963   0.3970   0.3981   0.3994   0.4000
  0.4005   0.4027   0.4034   0.4037   0.4049   0.4059   0.4064   0.4086
  0.4089   0.4100   0.4107   0.4115   0.4138   0.4149   0.4157   0.4174
  0.4180   0.4189   0.4199   0.4215   0.4219   0.4235   0.4244   0.4263
  0.4276   0.4283   0.4292   0.4313   0.4326   0.4333   0.4340   0.4349
  0.4370   0.4372   0.4387   0.4392   0.4411   0.4419   0.4439   0.4442
  0.4455   0.4463   0.4480   0.4494   0.4504   0.4507   0.4532   0.4551
  0.4562   0.4565   0.4592   0.4598   0.4608   0.4622   0.4662   0.4666
  0.4679   0.4701   0.4709   0.4720   0.4725   0.4753   0.4762   0.4770
  0.4773   0.4811   0.4837   0.4856   0.4874   0.4885   0.4896   0.4913
  0.4923   0.4931   0.4968   0.4987   0.4999   0.5039   0.5050   0.5078
  0.5089   0.5107   0.5117   0.5157   0.5166   0.5180   0.5194   0.5219
  0.5259   0.5280   0.5297   0.5341   0.5350   0.5356   0.5369   0.5400
  0.5419   0.5433   0.5451   0.5472   0.5508   0.5526   0.5558   0.5577
  0.5594   0.5603   0.5640   0.5656   0.5669   0.5686   0.5705   0.5713
  0.5721   0.5727   0.5754   0.5770   0.5778   0.5785   0.5787   0.5821
  0.5823   0.5838   0.5871   0.5884   0.5901   0.5921   0.5930   0.5939
  0.5959   0.5986   0.5992   0.5996   0.6035   0.6037   0.6045   0.6056
  0.6075   0.6077   0.6088   0.6117   0.6132   0.6145   0.6153   0.6162
  0.6186   0.6198   0.6200   0.6219   0.6240   0.6242   0.6256   0.6272
  0.6290   0.6295   0.6321   0.6331   0.6351   0.6365   0.6372   0.6383
  0.6401   0.6412   0.6429   0.6447   0.6463   0.6469   0.6485   0.6505
  0.6506   0.6522   0.6534   0.6543   0.6559   0.6585   0.6589   0.6599
  0.6616   0.6624   0.6641   0.6662   0.6670   0.6689   0.6692   0.6711
  0.6720   0.6730   0.6743   0.6756   0.6780   0.6781   0.6796   0.6832
  0.6851   0.6860   0.6876   0.6891   0.6902   0.6913   0.6933   0.6942
  0.6954   0.6962   0.6989   0.6999   0.7033   0.7043   0.7056   0.7058
  0.7077   0.7092   0.7093   0.7117   0.7143   0.7154   0.7168   0.7174
  0.7198   0.7225   0.7237   0.7243   0.7267   0.7298   0.7316   0.7318
  0.7327   0.7346   0.7350   0.7386   0.7396   0.7426   0.7442   0.7474
  0.7493   0.7509   0.7518   0.7529   0.7540   0.7563   0.7580   0.7589
  0.7618   0.7632   0.7643   0.7655   0.7688   0.7690   0.7696   0.7731
  0.7743   0.7768   0.7781   0.7811   0.7817   0.7826   0.7845   0.7871
  0.7903   0.7919   0.7943   0.7964   0.7977   0.7998   0.8020   0.8045
  0.8055   0.8074   0.8090   0.8103   0.8106   0.8135   0.8156   0.8169
  0.8175   0.8188   0.8216   0.8240   0.8249   0.8280   0.8297   0.8310
  0.8328   0.8354   0.8375   0.8397   0.8416   0.8423   0.8439   0.8448
  0.8468   0.8492   0.8511   0.8529   0.8557   0.8561   0.8563   0.8570
  0.8597   0.8612   0.8620   0.8631   0.8653   0.8655   0.8670   0.8680
  0.8694   0.8704   0.8714   0.8742   0.8769   0.8777   0.8780   0.8805
  0.8817   0.8826   0.8853   0.8862   0.8871   0.8891   0.8899   0.8914
  0.8926   0.8928   0.8946   0.8965   0.8982   0.8988   0.8999   0.9001
  0.9018   0.9032   0.9048   0.9059   0.9089   0.9094   0.9106   0.9129
  0.9138   0.9154   0.9163   0.9169   0.9193   0.9203   0.9224   0.9232
  0.9237   0.9264   0.9279   0.9293   0.9325   0.9343   0.9345   0.9359
  0.9371   0.9380   0.9399   0.9413   0.9419   0.9431   0.9447   0.9449
  0.9459   0.9476   0.9494   0.9505   0.9509   0.9533   0.9548   0.9564
  0.9580   0.9582   0.9592   0.9607   0.9620   0.9634   0.9639   0.9648
  0.9674   0.9688   0.9700   0.9718   0.9727   0.9746   0.9771   0.9777
  0.9789   0.9817   0.9832   0.9839   0.9855   0.9866   0.9880   0.9890
  0.9893   0.9913   0.9934   0.9942   0.9955   0.9970   0.9980   0.9991
  1.0007   1.0023   1.0026   1.0045   1.0051   1.0072   1.0076   1.0087
  1.0100   1.0117   1.0127   1.0135   1.0142   1.0173   1.0188   1.0200
  1.0211   1.0246   1.0254   1.0268   1.0278   1.0281   1.0300   1.0316
  1.0327   1.0335   1.0351   1.0372   1.0377   1.0385   1.0402   1.0429
  1.0437   1.0442   1.0454   1.0481   1.0496   1.0507   1.0521   1.0533
  1.0557   1.0562   1.0581   1.0591   1.0592   1.0609   1.0625   1.0652
  1.0665   1.0687   1.0697   1.0713   1.0725   1.0743   1.0760   1.0770
  1.0783   1.0809   1.0820   1.0837   1.0863   1.0870   1.0889   1.0904
  1.0918   1.0957   1.0964   1.0980   1.0999   1.1009   1.1021   1.1036
  1.1041   1.1050   1.1071   1.1093   1.1113   1.1138   1.1146   1.1162
  1.1182   1.1203   1.1216   1.1232   1.1252   1.1285   1.1307   1.1324
  1.1342   1.1361   1.1372   1.1374   1.1390   1.1401   1.1417   1.1435
  1.1452   1.1456   1.1479   1.1492   1.1512   1.1523   1.1539   1.1549
  1.1562   1.1584   1.1588   1.1604   1.1619   1.1635   1.1650   1.1666
  1.1683   1.1705   1.1713   1.1729   1.1744   1.1763   1.1779   1.1784
  1.1814   1.1851   1.1867   1.1876   1.1876   1.1899   1.1920   1.1953
  1.1969   1.1989   1.2015   1.2020   1.2032   1.2054   1.2079   1.2086
  1.2117   1.2134   1.2168   1.2196   1.2213   1.2227   1.2230   1.2253
  1.2292   1.2298   1.2302   1.2342   1.2361   1.2383   1.2422   1.2435
  1.2465   1.2513   1.2532   1.2570   1.2586   1.2593   1.2622   1.2667
  1.2677   1.2735   1.2787   1.2793   1.2800   1.2812   1.2851   1.2901
  1.2907   1.2935   1.2956   1.2971   1.3004   1.3025   1.3046   1.3073
  1.3128   1.3149   1.3176   1.3205   1.3230   1.3265   1.3282   1.3319
  1.3331   1.3345   1.3365   1.3380   1.3404   1.3449   1.3481   1.3487
  1.3526   1.3544   1.3556   1.3571   1.3586   1.3604   1.3632   1.3653
  1.3660   1.3682   1.3705   1.3714   1.3729   1.3758   1.3779   1.3792
  1.3806   1.3816   1.3821   1.3843   1.3874   1.3882   1.3887   1.3923
  1.3945   1.3956   1.3968   1.3990   1.4000   1.4025   1.4044   1.4055
  1.4083   1.4107   1.4117   1.4126   1.4141   1.4156   1.4163   1.4181
  1.4212   1.4216   1.4238   1.4254   1.4266   1.4291   1.4309   1.4321
  1.4337   1.4356   1.4361   1.4386   1.4407   1.4427   1.4454   1.4464
  1.4491   1.4504   1.4516   1.4520   1.4556   1.4565   1.4572   1.4584
  1.4613   1.4631   1.4659   1.4682   1.4707   1.4714   1.4728   1.4741
  1.4762   1.4791   1.4794   1.4828   1.4868   1.4876   1.4890   1.4944
  1.4945   1.4972   1.5000   1.5014   1.5055   1.5062   1.5084   1.5102
  1.5132   1.5165   1.5194   1.5215   1.5241   1.5301   1.5326   1.5396
  1.5403   1.5420   1.5454   1.5489   1.5515   1.5535   1.5585   1.5610
  1.5649   1.5686   1.5728   1.5799   1.5813   1.5907   1.5941   1.5986
  1.5996   1.6045   1.6079   1.6123   1.6209   1.6231   1.6271   1.6324
  1.6390   1.6468   1.6493   1.6517   1.6587   1.6592   1.6610   1.6624
  1.6626   1.6656   1.6674   1.6677   1.6693   1.6699   1.6739   1.6743
  1.6756   1.6775   1.6789   1.6808   1.6818   1.6854   1.6867   1.6877
  1.6898   1.6925   1.6931   1.6944   1.6963   1.6985   1.6998   1.7010
  1.7020   1.7055   1.7068   1.7078   1.7088   1.7100   1.7126   1.7132
  1.7168   1.7177   1.7194   1.7206   1.7216   1.7232   1.7246   1.7256
  1.7279   1.7289   1.7311   1.7314   1.7338   1.7344   1.7379   1.7394
  1.7413   1.7416   1.7427   1.7451   1.7468   1.7473   1.7491   1.7498
  1.7540   1.7547   1.7578   1.7595   1.7604   1.7621   1.7632   1.7643
  1.7669   1.7684   1.7697   1.7720   1.7733   1.7768   1.7783   1.7814
  1.7828   1.7850   1.7881   1.7905   1.7925   1.7948   1.7963   1.7996
  1.8054   1.8071   1.8120   1.8168   1.8198   1.8226   1.8251   1.8304
  1.8327   1.8328   1.8355   1.8393   1.8438   1.8492   1.8536   1.8563
  1.8574   1.8605   1.8635   1.8660   1.8679   1.8694   1.8696   1.8738
  1.8747   1.8760   1.8785   1.8814   1.8823   1.8839   1.8847   1.8854
  1.8882   1.8886   1.8889   1.8899   1.8924   1.8930   1.8968   1.8979
  1.9002   1.9009   1.9027   1.9043   1.9062   1.9083   1.9112   1.9122
  1.9135   1.9166   1.9180   1.9190   1.9206   1.9226   1.9239   1.9247
  1.9261   1.9277   1.9299   1.9307   1.9342   1.9351   1.9367   1.9392
  1.9403   1.9420   1.9428   1.9456   1.9480   1.9526   1.9568   1.9591
  1.9656   1.9674   1.9701   1.9778   1.9799   1.9896   1.9932   2.0024
  2.0161   2.0321   2.0339   2.0356   2.0367   2.0407   2.0446   2.0497
  2.0518   2.0554   2.0561   2.0566   2.0581   2.0605   2.0626   2.0640
  2.0667   2.0704   2.0713   2.0776   2.0780   2.0791   2.0808   2.0855
  2.0862   2.0880   2.0893   2.0924   2.0934   2.0938   2.0953   2.0965
  2.0977   2.0988   2.0991   2.1014   2.1039   2.1048   2.1065   2.1071
  2.1077   2.1096   2.1148   2.1175   2.1192   2.1234   2.1248   2.1258
  2.1271   2.1321   2.1380   2.1436   2.1488   2.1531   2.1569   2.1651
  2.1684   2.1697   2.1748   2.1775   2.1839   2.1870   2.1917   2.1941
  2.1953   2.1976   2.2005   2.2029   2.2044   2.2055   2.2096   2.2104
  2.2119   2.2162   2.2167   2.2185   2.2199   2.2216   2.2224   2.2233
  2.2238   2.2262   2.2273   2.2285   2.2317   2.2331   2.2343   2.2353
  2.2364   2.2387   2.2397   2.2411   2.2424   2.2429   2.2464   2.2472
  2.2481   2.2498   2.2507   2.2520   2.2540   2.2549   2.2567   2.2583
  2.2587   2.2629   2.2642   2.2653   2.2669   2.2678   2.2696   2.2705
  2.2707   2.2716   2.2722   2.2736   2.2747   2.2759   2.2765   2.2778
  2.2792   2.2797   2.2810   2.2818   2.2825   2.2842   2.2858   2.2863
  2.2878   2.2881   2.2888   2.2905   2.2918   2.2922   2.2933   2.2946
  2.2957   2.2962   2.2980   2.2982   2.2989   2.3004   2.3013   2.3030
  2.3035   2.3056   2.3064   2.3085   2.3091   2.3116   2.3134   2.3152
  2.3158   2.3172   2.3194   2.3204   2.3211   2.3216   2.3229   2.3255
  2.3270   2.3275   2.3290   2.3305   2.3323   2.3336   2.3366   2.3380
  2.3399   2.3421   2.3431   2.3444   2.3469   2.3484   2.3496   2.3498
  2.3532   2.3565   2.3597   2.3625   2.3680   2.3700   2.3718   2.3760
  2.3764   2.3790   2.3836   2.3862   2.3906   2.3961   2.4026   2.4122
  2.4181   2.4394   2.4735   2.4853   2.5115   2.5230   2.5486   2.5941
  2.6626   2.7328   2.7430   2.7665   2.7974   2.8165   2.8203   2.8305
  2.8321   2.8349   2.8358   2.8367   2.8421   2.8446   2.8516   2.8524
  2.8537   2.8551   2.8588   2.8632   2.8645   2.8648   2.8693   2.8714
  2.8727   2.8782   2.8873   2.8916   2.8986   2.9046   2.9531   3.0879
  3.2466   3.9519   3.9530   3.9588   3.9620   3.9650   3.9694   3.9754
  3.9789   3.9809   3.9842   3.9850   3.9860   3.9902   3.9957   3.9977
  3.9992   4.0028   4.0057   4.0087   4.0098   4.0168   4.0179   4.2202
  4.2252   4.2311   4.2340   4.2382   4.2401   4.2461   4.2470   4.2485
  4.2504   4.2523   4.2553   4.2608   4.2641   4.2673   4.2742   4.2749
  4.2753   4.2777   4.2850   4.2866   4.2880   4.2905   4.2920   4.2964
  4.2987   4.3011   4.3054   4.3075   4.3107   4.3128   4.3165   4.3183
  4.3208   4.3255   4.3257   4.3266   4.3330   4.3352   4.3387   4.3393
  4.3448   4.3501   4.3512   4.3562   4.3582   4.3595   4.3647   4.3684
  4.3710   4.3739   4.3819   4.3857   4.3876   4.3940   4.3978   4.4025
  4.4055   4.4109   4.4259   4.4386   4.4433   4.4733   4.4895   4.5090
  4.5221   4.5317   4.5462   4.5789   4.5985   4.6074   4.6947   4.7156
  4.7745   4.8808
 --------------------------------------------------------------
 
          Ground-State Mulliken Net Atomic Charges

     Atom                 Charge (a.u.)
  ----------------------------------------
      1 C                    -0.235504
      2 C                    -0.292279
      3 C                    -0.383599
      4 C                    -0.494481
      5 C                    -0.487591
      6 C                    -0.360448
      7 H                     0.208592
      8 H                     0.189725
      9 H                     0.206457
     10 H                     0.259053
     11 H                     0.183840
     12 H                     0.205642
     13 H                     0.185963
     14 H                     0.237574
     15 H                     0.222379
     16 H                     0.183689
     17 H                     0.207478
     18 N                    -0.442420
     19 H                     0.508602
     20 C                     0.270896
     21 H                     0.128969
     22 O                    -0.502538
     23 C                    -0.861554
     24 H                     0.297278
     25 H                     0.241001
     26 H                     0.254221
     27 S                     0.839766
     28 C                    -0.806941
     29 H                     0.247270
     30 H                     0.240308
     31 H                     0.250808
     32 O                    -0.650990
     33 C                    -0.860691
     34 H                     0.233052
     35 H                     0.269482
     36 H                     0.251629
     37 S                     0.670155
     38 C                    -0.713585
     39 H                     0.269205
     40 H                     0.291736
     41 H                     0.218739
     42 O                    -0.652015
     43 C                    -0.873648
     44 H                     0.237646
     45 H                     0.252214
     46 H                     0.303150
     47 S                     0.916498
     48 C                    -0.955266
     49 H                     0.256640
     50 H                     0.230351
     51 H                     0.290791
     52 O                    -0.667518
     53 C                    -0.747883
     54 H                     0.234188
     55 H                     0.291504
     56 H                     0.252056
     57 S                     0.803009
     58 C                    -0.867652
     59 H                     0.241184
     60 H                     0.253836
     61 H                     0.255283
     62 O                    -0.747326
     63 C                    -0.853811
     64 H                     0.239070
     65 H                     0.263367
     66 H                     0.213042
     67 S                     0.980791
     68 C                    -0.900438
     69 H                     0.266650
     70 H                     0.229496
     71 H                     0.262577
     72 O                    -0.749102
     73 C                    -0.851684
     74 H                     0.243369
     75 H                     0.264194
     76 H                     0.238125
     77 S                     0.994763
     78 C                    -1.000173
     79 H                     0.311401
     80 H                     0.265139
     81 H                     0.252543
     82 O                    -0.694678
     83 C                    -0.917291
     84 H                     0.212401
     85 H                     0.289526
     86 H                     0.250500
     87 S                     0.932674
     88 C                    -0.828028
     89 H                     0.271155
     90 H                     0.316253
     91 H                     0.214374
     92 O                    -0.715229
     93 C                    -0.936755
     94 H                     0.273087
     95 H                     0.313809
     96 H                     0.221267
     97 S                     0.894918
     98 C                    -0.870082
     99 H                     0.245115
    100 H                     0.246690
    101 H                     0.259034
    102 O                    -0.661100
    103 C                    -0.696689
    104 H                     0.283458
    105 H                     0.279051
    106 H                     0.238410
    107 S                     0.728305
    108 C                    -0.975738
    109 H                     0.246710
    110 H                     0.299542
    111 H                     0.248861
    112 O                    -0.701091
    113 C                    -0.889732
    114 H                     0.243848
    115 H                     0.229119
    116 H                     0.247669
    117 S                     1.112524
    118 C                    -0.950970
    119 H                     0.261807
    120 H                     0.269560
    121 H                     0.231481
    122 O                    -0.740646
    123 C                    -0.976184
    124 H                     0.247495
    125 H                     0.279673
    126 H                     0.238542
    127 S                     1.023867
    128 C                    -0.938696
    129 H                     0.289710
    130 H                     0.233045
    131 H                     0.298906
    132 O                    -0.724483
    133 C                    -0.859901
    134 H                     0.238177
    135 H                     0.260125
    136 H                     0.308345
    137 S                     0.907937
    138 C                    -0.889651
    139 H                     0.240199
    140 H                     0.245462
    141 H                     0.271139
    142 O                    -0.707766
    143 C                    -0.807939
    144 H                     0.229554
    145 H                     0.237557
    146 H                     0.260772
    147 S                     0.818673
    148 C                    -0.734468
    149 H                     0.240600
    150 H                     0.226059
    151 H                     0.289945
    152 O                    -0.686402
    153 C                    -0.840324
    154 H                     0.237534
    155 H                     0.263502
    156 H                     0.246801
    157 S                     0.711299
    158 C                    -0.769306
    159 H                     0.234066
    160 H                     0.251155
    161 H                     0.274802
    162 O                    -0.635456
    163 C                    -1.086854
    164 H                     0.310570
    165 H                     0.249915
    166 H                     0.252955
    167 S                     1.356355
    168 C                    -1.104620
    169 H                     0.265767
    170 H                     0.258806
    171 H                     0.243053
    172 O                    -0.756846
    173 C                    -0.870382
    174 H                     0.246854
    175 H                     0.274356
    176 H                     0.251264
    177 S                     0.905078
    178 C                    -0.794211
    179 H                     0.246950
    180 H                     0.234163
    181 H                     0.285991
    182 O                    -0.702621
    183 C                    -0.958992
    184 H                     0.255077
    185 H                     0.293567
    186 H                     0.263097
    187 S                     0.940716
    188 C                    -0.879814
    189 H                     0.266479
    190 H                     0.248191
    191 H                     0.266576
    192 O                    -0.680467
    193 C                    -0.932162
    194 H                     0.258492
    195 H                     0.251595
    196 H                     0.237985
    197 S                     1.012969
    198 C                    -0.838967
    199 H                     0.267853
    200 H                     0.254615
    201 H                     0.240582
    202 O                    -0.721512
    203 C                    -0.875376
    204 H                     0.246526
    205 H                     0.240177
    206 H                     0.260152
    207 S                     0.842834
    208 C                    -0.790006
    209 H                     0.241585
    210 H                     0.299545
    211 H                     0.248621
    212 O                    -0.633416
    213 C                    -0.780715
    214 H                     0.257048
    215 H                     0.237170
    216 H                     0.234812
    217 S                     0.785648
    218 C                    -0.889841
    219 H                     0.268408
    220 H                     0.270709
    221 H                     0.224859
    222 O                    -0.661957
    223 C                    -0.841483
    224 H                     0.206411
    225 H                     0.260564
    226 H                     0.293615
    227 S                     0.957432
    228 C                    -0.859364
    229 H                     0.244173
    230 H                     0.244953
    231 H                     0.223222
    232 O                    -0.728560
    233 C                    -0.747624
    234 H                     0.270609
    235 H                     0.244416
    236 H                     0.290351
    237 S                     0.522057
    238 C                    -0.730164
    239 H                     0.288233
    240 H                     0.228626
    241 H                     0.231403
    242 O                    -0.712815
  ----------------------------------------
  Sum of atomic charges =     0.000000

 -----------------------------------------------------------------
                    Cartesian Multipole Moments
 -----------------------------------------------------------------
    Charge (ESU x 10^10)
                 0.0000
    Dipole Moment (Debye)
         X     -12.1627      Y       1.1727      Z     -23.4428
       Tot      26.4362
    Quadrupole Moments (Debye-Ang)
        XX   -1534.1085     XY    -187.1291     YY    -663.9028
        XZ    -850.3585     YZ    -367.0192     ZZ   -2037.2031
    Octopole Moments (Debye-Ang^2)
       XXX  -89784.8211    XXY  -24459.2910    XYY  -19461.5179
       YYY  -32092.9529    XXZ  -54355.2838    XYZ  -13790.4807
       YYZ  -25716.9899    XZZ  -55786.2289    YZZ  -33728.1310
       ZZZ -118535.7591
    Hexadecapole Moments (Debye-Ang^3)
      XXXX ************   XXXY ************   XXYY -804696.9663
      XYYY -822337.6891   YYYY ************   XXXZ ************
      XXYZ -876592.0455   XYYZ -697716.9858   YYYZ ************
      XXZZ ************   XYZZ -923050.0319   YYZZ ************
      XZZZ ************   YZZZ ************   ZZZZ ************
 -----------------------------------------------------------------
Archival summary:
1\1\n0072.mhg0\SP\ProcedureUnspecified\6-31+G*\2223151\ymao\FriMar1202:58:292021FriMar1202:58:292021\0\\#,ProcedureUnspecified,6-31+G*,\\0,1\S\O,1,1.49641\H,2,1.77677,1,133.16\N,3,1.01317,2,155.126,1,-28.3907,0\C,4,1.37907,3,109.918,2,1.31739,0\H,5,1.105,4,114.961,3,-1.30058,0\O,5,1.21829,4,125.572,3,176.388,0\C,4,1.46167,3,127.996,2,-175.226,0\H,8,1.09681,4,108.344,3,-122.823,0\C,8,1.53706,4,117.805,3,115.399,0\H,10,1.09689,8,106.779,4,-47.0278,0\H,10,1.09722,8,109.706,4,64.5386,0\C,10,1.53724,8,116.462,4,-167.579,0\H,13,1.09658,10,114.743,8,-69.0533,0\H,13,1.09668,10,113.377,8,172.343,0\C,8,1.53741,4,107.944,3,-13.6584,0\H,16,1.09677,8,104.231,4,-59.4863,0\H,16,1.09699,8,102.097,4,53.1003,0\C,16,1.5378,8,115.909,4,174.89,0\H,19,1.09684,16,111.332,8,-170.907,0\H,19,1.09691,16,116.913,8,66.2605,0\C,19,1.53667,16,104.434,8,-54.4136,0\H,22,1.09682,19,114.914,16,-167.9,0\H,22,1.097,19,110.098,16,-53.8447,0\C,1,1.80682,2,101.347,3,-169.724,0\H,25,1.0925,1,108.063,2,-51.6242,0\H,25,1.09288,1,106.919,2,62.3012,0\H,25,1.09352,1,105.92,2,-174.788,0\C,1,1.80723,2,103.628,3,-66.1965,0\H,29,1.09285,1,118.553,2,-167.172,0\H,29,1.09315,1,98.6137,2,66.0769,0\H,29,1.09318,1,104.123,2,-46.0577,0\H,9,1.97115,8,158.237,4,158.444,0\C,33,1.09257,9,152.977,8,22.4954,0\H,34,1.09275,33,107.413,9,99.9495,0\H,34,1.09284,33,112.695,9,-28.9909,0\S,34,1.80738,33,111.073,9,-142.781,0\O,37,1.49701,34,95.8051,33,174.932,0\C,37,1.80698,34,98.1622,33,72.2959,0\H,39,1.09268,37,111.572,34,-178.802,0\H,39,1.09289,37,107.585,34,-53.3949,0\H,39,1.09303,37,107.366,34,56.0093,0\H,27,2.11063,25,137.381,1,-42.8775,0\C,43,1.09305,27,171.002,25,-51.198,0\H,44,1.09296,43,113.628,27,88.2861,0\H,44,1.09336,43,112.021,27,-44.5961,0\S,44,1.80747,43,108.31,27,-158.738,0\O,47,1.49706,44,106.163,43,179.967,0\C,47,1.80726,44,98.7764,43,75.2784,0\H,49,1.09285,47,111.801,44,56.7974,0\H,49,1.09312,47,109.505,44,-59.7229,0\H,49,1.09312,47,104.354,44,177.639,0\H,50,2.11657,49,130.033,47,22.0683,0\C,53,1.09338,50,120.928,49,167.632,0\H,54,1.09278,53,107.885,50,-25.2215,0\H,54,1.09301,53,111.213,50,-145.097,0\S,54,1.80726,53,110.545,50,88.734,0\O,57,1.49671,54,110.851,53,-34.7888,0\C,57,1.80641,54,92.6448,53,67.1742,0\H,59,1.09309,57,116.15,54,-67.2296,0\H,59,1.09313,57,107.968,54,70.424,0\H,59,1.09357,57,105.344,54,-173.678,0\H,11,2.23493,10,130.127,8,-10.3637,0\C,63,1.093,11,129.358,10,-153.735,0\H,64,1.09255,63,106.346,11,83.2963,0\H,64,1.09316,63,114.713,11,-32.9895,0\S,64,1.80715,63,109.806,11,-155.322,0\O,67,1.49702,64,101.421,63,147.743,0\C,67,1.80765,64,98.6449,63,-110.924,0\H,69,1.09197,67,105.463,64,-179.88,0\H,69,1.09259,67,107.561,64,-58.3174,0\H,69,1.09269,67,110.938,64,61.7874,0\H,66,2.26803,64,116.696,63,110.612,0\C,73,1.09293,66,138.231,64,-72.2317,0\H,74,1.09216,73,104.88,66,-21.5267,0\H,74,1.09339,73,113.115,66,-138.407,0\S,74,1.80729,73,101.021,66,101.859,0\O,77,1.49664,74,108.878,73,-58.8357,0\C,77,1.80654,74,90.2748,73,-164.596,0\H,79,1.09266,77,109.034,74,-50.4915,0\H,79,1.09342,77,112.208,74,-166.593,0\H,79,1.09344,77,108.614,74,61.6806,0\H,48,2.29096,47,163.774,44,55.3059,0\C,83,1.09254,48,145.064,47,-35.4157,0\H,84,1.09265,83,109.947,48,-62.9486,0\H,84,1.0934,83,112.375,48,56.8938,0\S,84,1.80661,83,112.76,48,176.217,0\O,87,1.4972,84,106.077,83,177.161,0\C,87,1.80769,84,97.7526,83,-70.7374,0\H,89,1.09258,87,113.631,84,-49.4699,0\H,89,1.09345,87,99.5417,84,63.6198,0\H,89,1.09358,87,101.831,84,-179.413,0\H,23,2.31581,22,140.869,19,53.9011,0\C,93,1.09372,23,112.964,22,-55.6349,0\H,94,1.09297,93,109.449,23,64.9949,0\H,94,1.09303,93,109.704,23,-75.9338,0\S,94,1.80736,93,102.098,23,171.658,0\O,97,1.49697,94,101.225,93,-62.4913,0\C,97,1.80688,94,97.2131,93,-161.482,0\H,99,1.09239,97,114.555,94,47.2147,0\H,99,1.09321,97,103.58,94,168.611,0\H,99,1.09363,97,111.344,94,-78.9466,0\H,42,2.32952,39,131.202,37,50.1606,0\C,103,1.09308,42,110.308,39,118.332,0\H,104,1.09287,103,105.748,42,56.3364,0\H,104,1.09318,103,112.84,42,-66.1044,0\S,104,1.80747,103,105.048,42,177.183,0\O,107,1.49648,104,106.007,103,-88.1405,0\C,107,1.80682,104,91.1808,103,171.209,0\H,109,1.09268,107,107.181,104,51.1006,0\H,109,1.09295,107,106.495,104,-64.9851,0\H,109,1.09306,107,114.224,104,171.454,0\H,15,2.34358,13,116.39,10,41.67,0\C,113,1.09287,15,154.738,13,160.238,0\H,114,1.09262,113,109.489,15,-43.513,0\H,114,1.09307,113,108.283,15,82.8804,0\S,114,1.80676,113,103.885,15,-166.996,0\O,117,1.49722,114,97.2686,113,39.9094,0\C,117,1.80743,114,99.2136,113,-69.2044,0\H,119,1.09251,117,117.696,114,-76.0297,0\H,119,1.09312,117,103.789,114,42.0598,0\H,119,1.09345,117,107.031,114,165.574,0\H,122,2.20823,119,110.769,117,175.185,0\C,123,1.09309,122,142.641,119,146.883,0\H,124,1.09224,123,105.06,122,-28.5094,0\H,124,1.09301,123,113.068,122,94.1796,0\S,124,1.80726,123,109.043,122,-144.91,0\O,127,1.49703,124,104.955,123,-56.4661,0\C,127,1.80701,124,94.9025,123,49.3014,0\H,129,1.09244,127,107.537,124,-36.7934,0\H,129,1.09351,127,104.401,124,81.1119,0\H,129,1.0936,127,113.229,124,-160.368,0\H,35,2.42165,34,133.391,33,-103.079,0\C,133,1.09358,35,107.693,34,112.826,0\H,134,1.09272,133,109.657,35,-27.6629,0\H,134,1.09294,133,110.574,35,91.6273,0\S,134,1.80642,133,111.82,35,-145.087,0\O,137,1.49664,134,98.6238,133,24.3909,0\C,137,1.80703,134,98.6417,133,-83.3946,0\H,139,1.09287,137,109.344,134,69.0715,0\H,139,1.09289,137,109.835,134,-171.548,0\H,139,1.09386,137,109.105,134,-43.7047,0\O,121,2.43233,119,111.489,117,-121.46,0\S,143,1.49716,121,144.671,119,154.198,0\C,144,1.8067,143,103.763,121,-89.9657,0\H,145,1.09223,144,101.691,143,63.4907,0\H,145,1.09256,144,109.788,143,-54.1858,0\H,145,1.09365,144,110.401,143,-175.33,0\C,144,1.8074,143,107.372,121,163.495,0\H,149,1.09248,144,109.744,143,176.172,0\H,149,1.0937,144,105.24,143,52.557,0\H,149,1.09371,144,108.608,143,-63.8638,0\H,146,2.37844,145,169.784,144,144.474,0\C,153,1.09277,146,101.639,145,-4.06635,0\H,154,1.09351,153,109.885,146,-63.983,0\H,154,1.09359,153,114.825,146,60.893,0\S,154,1.8062,153,117.161,146,177.118,0\O,157,1.49696,154,99.3258,153,-177.625,0\C,157,1.80714,154,93.9439,153,-71.1904,0\H,159,1.09233,157,104.173,154,-80.8307,0\H,159,1.09249,157,110.202,154,164.882,0\H,159,1.0932,157,112.524,154,40.8353,0\H,108,2.44064,107,146.615,104,38.4319,0\C,163,1.09267,108,126.062,107,147.838,0\H,164,1.09303,163,112.505,108,33.1572,0\H,164,1.09322,163,109.715,108,-92.3771,0\S,164,1.80705,163,112.896,108,155.424,0\O,167,1.49625,164,105.916,163,-59.6585,0\C,167,1.8075,164,100.637,163,-171.109,0\H,169,1.09273,167,116.086,164,64.1361,0\H,169,1.09277,167,111.468,164,-65.2578,0\H,169,1.09335,167,104.585,164,-174.727,0\O,30,2.50096,29,106.734,1,-108.301,0\S,173,1.49713,30,116.503,29,111.26,0\C,174,1.80656,173,108.619,30,-62.5725,0\H,175,1.09263,174,99.792,173,-70.4199,0\H,175,1.09326,174,106.846,173,173.29,0\H,175,1.09331,174,105.394,173,51.1162,0\C,174,1.8071,173,101.839,30,50.9008,0\H,179,1.092,174,109.731,173,-154.267,0\H,179,1.09297,174,111.905,173,82.8838,0\H,179,1.09304,174,106.352,173,-38.1912,0\O,41,2.50206,39,131.168,37,-46.3264,0\S,183,1.49736,41,120.07,39,-121.104,0\C,184,1.80718,183,104.682,41,137.636,0\H,185,1.09243,184,117.405,183,-74.0596,0\H,185,1.09293,184,106.925,183,160.692,0\H,185,1.09297,184,109.851,183,51.5722,0\C,184,1.80728,183,102.255,41,35.5464,0\H,189,1.09265,184,109.845,183,158.958,0\H,189,1.09269,184,116.394,183,23.3622,0\H,189,1.09384,184,103.279,183,-92.9831,0\H,188,2.3335,185,134.614,184,-63.0316,0\C,193,1.09278,188,136.829,185,-116.292,0\H,194,1.09293,193,104.049,188,-14.5659,0\H,194,1.09331,193,104.404,188,103.958,0\S,194,1.8065,193,110.921,188,-134.883,0\O,197,1.49707,194,101.897,193,-158.696,0\C,197,1.80751,194,99.1731,193,-54.3768,0\H,199,1.09261,197,115.02,194,-53.3814,0\H,199,1.09302,197,101.464,194,63.5164,0\H,199,1.09333,197,105.722,194,176.137,0\H,202,2.12786,199,127.103,197,50.0312,0\C,203,1.09303,202,142.63,199,53.1858,0\H,204,1.0925,203,107.278,202,-87.6786,0\H,204,1.09292,203,107.838,202,27.1982,0\S,204,1.80721,203,106.256,202,143.662,0\O,207,1.49657,204,106.2,203,-144.648,0\C,207,1.80725,204,95.5669,203,-44.678,0\H,209,1.09267,207,104.284,204,-168.127,0\H,209,1.09285,207,106.417,204,75.9764,0\H,209,1.09307,207,108.001,204,-45.0394,0\H,163,2.51273,108,66.5897,107,58.2113,0\C,213,1.09299,163,110.349,108,-130.562,0\H,214,1.09287,213,112.162,163,-41.9026,0\H,214,1.09343,213,109.745,163,84.0575,0\S,214,1.80702,213,106.898,163,-161.123,0\O,217,1.49714,214,104.144,213,43.2675,0\C,217,1.80677,214,92.8345,213,-59.3615,0\H,219,1.09243,217,112.061,214,-79.903,0\H,219,1.09316,217,107.359,214,163.44,0\H,219,1.09401,217,105.143,214,42.6379,0\S,177,2.7942,175,107.958,174,-131.178,0\O,223,1.49628,177,108.961,175,-48.3623,0\C,223,1.80712,177,146.89,175,103.468,0\H,225,1.09252,223,109.919,177,-80.1046,0\H,225,1.09299,223,109.761,177,160.159,0\H,225,1.09301,223,116.311,177,36.9273,0\C,223,1.80713,177,93.4891,175,-148.756,0\H,229,1.09237,223,109.713,177,33.8968,0\H,229,1.09283,223,106.105,177,150.806,0\H,229,1.09312,223,115.743,177,-81.741,0\H,7,2.79729,5,143.06,4,-179.243,0\C,233,1.09323,7,156.353,5,-16.5973,0\H,234,1.0926,233,118.036,7,-80.5366,0\H,234,1.09315,233,109.06,7,169.217,0\S,234,1.80708,233,111.062,7,43.9555,0\O,237,1.49757,234,102.373,233,69.7838,0\C,237,1.80747,234,94.4332,233,-175.122,0\H,239,1.09304,237,112.191,234,-174.061,0\H,239,1.09306,237,109.566,234,69.1911,0\H,239,1.09396,237,108.567,234,-48.1989,0\\\@

 Total job time:  48056.87s(wall), 276391.34s(cpu) 
 Fri Mar 12 02:58:29 2021

        *************************************************************
        *                                                           *
        *  Thank you very much for using Q-Chem.  Have a nice day.  *
        *                                                           *
        *************************************************************


 
User input: 2 of 2 
 
                  Welcome to Q-Chem
     A Quantum Leap Into The Future Of Chemistry


 Q-Chem 5.2 (devel), Q-Chem, Inc., Pleasanton, CA (2019)

 Yihan Shao,  Zhengting Gan,  E. Epifanovsky,  A. T. B. Gilbert,  M. Wormit,  
 J. Kussmann,  A. W. Lange,  A. Behn,  Jia Deng,  Xintian Feng,  D. Ghosh,  
 M. Goldey,  P. R. Horn,  L. D. Jacobson,  I. Kaliman,  T. Kus,  A. Landau,  
 Jie Liu,  E. I. Proynov,  R. M. Richard,  R. P. Steele,  E. J. Sundstrom,  
 H. L. Woodcock III,  P. M. Zimmerman,  D. Zuev,  B. Alam,  B. Albrecht,  
 E. Alguire,  S. A. Baeppler,  D. Barton,  Z. Benda,  Y. A. Bernard,  
 E. J. Berquist,  K. B. Bravaya,  H. Burton,  K. Carter-Fenk,  D. Casanova,  
 Chun-Min Chang,  Yunqing Chen,  A. Chien,  K. D. Closser,  M. P. Coons,  
 S. Coriani,  S. Dasgupta,  A. L. Dempwolff,  M. Diedenhofen,  Hainam Do,  
 R. G. Edgar,  Po-Tung Fang,  S. Faraji,  S. Fatehi,  Qingguo Feng,  
 J. Fosso-Tande,  J. Gayvert,  Qinghui Ge,  A. Ghysels,  G. Gidofalvi,  
 J. Gomes,  J. Gonthier,  A. Gunina,  D. Hait,  M. W. D. Hanson-Heine,  
 P. H. P. Harbach,  A. W. Hauser,  M. F. Herbst,  J. E. Herr,  
 E. G. Hohenstein,  Z. C. Holden,  Kerwin Hui,  B. C. Huynh,  T.-C. Jagau,  
 Hyunjun Ji,  B. Kaduk,  K. Khistyaev,  Jaehoon Kim,  P. Klunzinger,  K. Koh,  
 D. Kosenkov,  L. Koulias,  T. Kowalczyk,  C. M. Krauter,  A. Kunitsa,  
 Ka Un Lao,  A. Laurent,  K. V. Lawler,  Joonho Lee,  D. Lefrancois,  
 S. Lehtola,  D. S. Levine,  Yi-Pei Li,  You-Sheng Lin,  Fenglai Liu,  
 Kuan-Yu Liu,  E. Livshits,  M. Loipersberger,  A. Luenser,  P. Manohar,  
 E. Mansoor,  S. F. Manzer,  Shan-Ping Mao,  Yuezhi Mao,  N. Mardirossian,  
 A. V. Marenich,  T. Markovich,  L. A. Martinez-Martinez,  S. A. Maurer,  
 N. J. Mayhall,  S. C. McKenzie,  J.-M. Mewes,  P. Morgante,  A. F. Morrison,  
 J. W. Mullinax,  K. Nanda,  T. S. Nguyen-Beck,  R. Olivares-Amaya,  
 J. A. Parkhill,  S. K. Paul,  F. Pavosevic,  Zheng Pei,  T. M. Perrine,  
 F. Plasser,  P. Pokhilko,  S. Prager,  A. Prociuk,  E. Ramos,  B. Rana,  
 D. R. Rehn,  F. Rob,  M. Scheurer,  M. Schneider,  N. Sergueev,  
 S. M. Sharada,  S. Sharma,  D. W. Small,  T. Stauch,  C. J. Stein,  
 T. Stein,  Yu-Chuan Su,  S. P. Veccham,  Zhen Tao,  A. J. W. Thom,  
 A. Tkatchenko,  T. Tsuchimochi,  N. M. Tubman,  L. Vogt,  M. L. Vidal,  
 O. Vydrov,  M. A. Watson,  J. Wenzel,  M. de Wergifosse,  T. A. Wesolowski,  
 A. White,  J. Witte,  A. Yamada,  Jun Yang,  K. Yao,  S. Yeganeh,  
 S. R. Yost,  Zhi-Qiang You,  A. Zech,  Igor Ying Zhang,  Xing Zhang,  
 Yan Zhao,  Ying Zhu,  B. R. Brooks,  G. K. L. Chan,  C. J. Cramer,  
 M. S. Gordon,  W. J. Hehre,  A. Klamt,  M. W. Schmidt,  C. D. Sherrill,  
 D. G. Truhlar,  A. Aspuru-Guzik,  R. Baer,  A. T. Bell,  N. A. Besley,  
 Jeng-Da Chai,  A. E. DePrince, III,  R. A. DiStasio Jr.,  A. Dreuw,  
 B. D. Dunietz,  T. R. Furlani,  Chao-Ping Hsu,  Yousung Jung,  Jing Kong,  
 D. S. Lambrecht,  WanZhen Liang,  C. Ochsenfeld,  V. A. Rassolov,  
 L. V. Slipchenko,  J. E. Subotnik,  T. Van Voorhis,  J. M. Herbert,  
 A. I. Krylov,  P. M. W. Gill,  M. Head-Gordon

 Contributors to earlier versions of Q-Chem not listed above: 
 R. D. Adamson,  B. Austin,  J. Baker,  G. J. O. Beran,  K. Brandhorst,  
 S. T. Brown,  E. F. C. Byrd,  A. K. Chakraborty,  C.-L. Cheng,  
 Siu Hung Chien,  D. M. Chipman,  D. L. Crittenden,  H. Dachsel,  
 R. J. Doerksen,  A. D. Dutoi,  L. Fusti-Molnar,  W. A. Goddard III,  
 A. Golubeva-Zadorozhnaya,  S. R. Gwaltney,  G. Hawkins,  A. Heyden,  
 S. Hirata,  G. Kedziora,  F. J. Keil,  C. Kelley,  Jihan Kim,  R. A. King,  
 R. Z. Khaliullin,  P. P. Korambath,  W. Kurlancheek,  A. M. Lee,  M. S. Lee,  
 S. V. Levchenko,  Ching Yeh Lin,  D. Liotard,  R. C. Lochan,  I. Lotan,  
 P. E. Maslen,  N. Nair,  D. P. O'Neill,  D. Neuhauser,  E. Neuscamman,  
 C. M. Oana,  R. Olson,  B. Peters,  R. Peverati,  P. A. Pieniazek,  
 Y. M. Rhee,  J. Ritchie,  M. A. Rohrdanz,  E. Rosta,  N. J. Russ,  
 H. F. Schaefer III,  N. E. Schultz,  N. Shenvi,  A. C. Simmonett,  A. Sodt,  
 D. Stuck,  K. S. Thanthiriwatte,  V. Vanovschi,  Tao Wang,  A. Warshel,  
 C. F. Williams,  Q. Wu,  X. Xu,  W. Zhang

[...]
    3   0.0049985   0.0193554  -0.0159778   0.0204974  -0.0198198  -0.0058101
           49          50          51          52          53          54
    1  -0.0013334   0.0292278  -0.0205938  -0.0622880  -0.0098741   0.0019808
    2   0.0229891  -0.0007199  -0.0061567   0.0683343  -0.0029436   0.0268069
    3   0.0196380  -0.0149109  -0.0218355   0.0613150   0.0024543  -0.0112697
           55          56          57          58          59          60
    1  -0.0221635  -0.0016653   0.0214152  -0.0066228  -0.0142893  -0.0283248
    2  -0.0146896   0.0082297  -0.0026931  -0.0059458  -0.0030008  -0.0192040
    3  -0.0285444   0.0334695  -0.0493607   0.0021817   0.0335650  -0.0194700
           61          62          63          64          65          66
    1   0.0242406   0.0509741   0.0013737  -0.0301842   0.0271775  -0.0061789
    2  -0.0113341   0.0402826   0.0074208   0.0085752   0.0224965  -0.0087792
    3   0.0138155   0.0888659  -0.0008932   0.0093459  -0.0038689  -0.0284998
           67          68          69          70          71          72
    1   0.0204946   0.0030719   0.0075651  -0.0015374   0.0302870  -0.0904032
    2   0.0070144  -0.0040236  -0.0293695   0.0013566   0.0139631  -0.0550645
    3   0.0510495  -0.0026106   0.0025370  -0.0360654  -0.0061716  -0.0291280
           73          74          75          76          77          78
    1   0.0036270   0.0088704   0.0290671  -0.0221823  -0.0388594   0.0057988
    2   0.0055859   0.0138249   0.0023179   0.0230139  -0.0009566  -0.0094198
    3  -0.0059257   0.0263369  -0.0133249  -0.0125604   0.0400576   0.0068898
           79          80          81          82          83          84
    1  -0.0046449   0.0259604   0.0150370   0.0022047  -0.0069473   0.0042265
    2  -0.0299412   0.0164262   0.0073742  -0.0658399   0.0049610   0.0305267
    3   0.0220794  -0.0213194   0.0304323  -0.0879525   0.0012804  -0.0181228
           85          86          87          88          89          90
    1  -0.0312250   0.0092439   0.0498583  -0.0054188   0.0193616  -0.0336725
    2  -0.0104583   0.0087586   0.0088195  -0.0068044  -0.0161918  -0.0013447
    3   0.0003556   0.0279925  -0.0088665  -0.0062647  -0.0253599   0.0152511
           91          92          93          94          95          96
    1  -0.0005712  -0.0427956   0.0074527   0.0373742  -0.0113328  -0.0182226
    2   0.0200403  -0.0665615  -0.0033534   0.0157528   0.0096645  -0.0316238
    3  -0.0251170   0.0770353   0.0063226  -0.0105928   0.0147200   0.0212983
           97          98          99         100         101         102
    1  -0.0574989   0.0072120  -0.0150906   0.0043957   0.0340658   0.0478131
    2  -0.0075872  -0.0062430  -0.0270319   0.0008609  -0.0003132   0.0944676
    3  -0.0044529  -0.0031207   0.0149224  -0.0329917   0.0000526  -0.0357767
          103         104         105         106         107         108
    1  -0.0129399  -0.0147923  -0.0317408   0.0057593   0.0377993  -0.0077992
    2  -0.0017277  -0.0303751   0.0184775   0.0070422  -0.0446870   0.0019859
    3  -0.0010038   0.0167350  -0.0036414  -0.0272986   0.0083342   0.0058384
          109         110         111         112         113         114
    1   0.0214851  -0.0142510  -0.0263395   0.0312675  -0.0043546  -0.0294365
    2   0.0002445   0.0307253  -0.0219839   0.1010844  -0.0026672   0.0095026
    3   0.0184966  -0.0042995   0.0173377  -0.0197661  -0.0008840   0.0036314
          115         116         117         118         119         120
    1   0.0129965  -0.0106488   0.0142572   0.0041355   0.0259596  -0.0085051
    2   0.0001876  -0.0318948   0.0570635  -0.0050485   0.0162241  -0.0249123
    3  -0.0290791   0.0084125  -0.0223668   0.0039068   0.0086545   0.0211405
          121         122         123         124         125         126
    1   0.0062242  -0.0518229   0.0014982   0.0295924  -0.0134902  -0.0065869
    2  -0.0123450  -0.0137448   0.0080905   0.0044198   0.0121426   0.0226954
    3  -0.0263613   0.0959205  -0.0020092   0.0111068  -0.0313222   0.0208634
          127         128         129         130         131         132
    1   0.0074973  -0.0083137  -0.0063074  -0.0175057  -0.0163860   0.0377802
    2  -0.0312655   0.0012893   0.0183484   0.0138352  -0.0274815  -0.0151390
    3  -0.0410741   0.0043868   0.0253410  -0.0258970   0.0036242   0.1027179
          133         134         135         136         137         138
    1   0.0044666   0.0008149   0.0258151  -0.0061227  -0.0497226   0.0027014
    2   0.0064285  -0.0253864   0.0173961   0.0342291  -0.0120762  -0.0038353
    3   0.0084707   0.0248577  -0.0166520   0.0071492   0.0244873  -0.0073153
          139         140         141         142         143         144
    1  -0.0114566  -0.0096811   0.0305464   0.0165322  -0.0083193  -0.0114158
    2  -0.0203799  -0.0204788   0.0165237   0.0734138   0.0006752  -0.0284862
    3   0.0207471  -0.0243137  -0.0057349  -0.0805568  -0.0023113  -0.0176907
          145         146         147         148         149         150
    1  -0.0253325   0.0132823   0.0565104  -0.0046829  -0.0274882  -0.0021128
    2   0.0186527   0.0188971  -0.0138590  -0.0028411  -0.0049646  -0.0279881
    3   0.0114980  -0.0193432  -0.0283565   0.0056095   0.0243380  -0.0126578
          151         152         153         154         155         156
    1   0.0156105  -0.0096731  -0.0097751   0.0040443  -0.0108745  -0.0195784
    2  -0.0070495   0.0930082  -0.0038610  -0.0064789  -0.0235628   0.0233876
    3   0.0264767   0.0585849  -0.0019735  -0.0347920   0.0193091   0.0155206
          157         158         159         160         161         162
    1   0.0230293   0.0016010  -0.0061104   0.0275058  -0.0161756  -0.0197539
    2   0.0418246  -0.0094225  -0.0099832   0.0014527  -0.0219683  -0.0126173
    3  -0.0213394  -0.0003576  -0.0341232   0.0192207   0.0159618   0.1098999
          163         164         165         166         167         168
    1   0.0029439  -0.0129215   0.0050804   0.0359536   0.0281783  -0.0012187
    2   0.0054998   0.0251945  -0.0278728   0.0101151   0.0109739   0.0075281
    3   0.0077097   0.0219077   0.0034023  -0.0095948  -0.0489514   0.0028771
          169         170         171         172         173         174
    1  -0.0172569   0.0079581  -0.0259372  -0.0616186  -0.0001133  -0.0056835
    2  -0.0089181   0.0317034   0.0052890  -0.0867553  -0.0036500   0.0269604
    3   0.0227193   0.0002805  -0.0168176   0.0219322   0.0085772   0.0175472
          175         176         177         178         179         180
    1  -0.0242345   0.0319409   0.0099090   0.0057304   0.0044585   0.0365270
    2  -0.0213698  -0.0116172  -0.0452305   0.0061965   0.0261749  -0.0078348
    3   0.0074546   0.0028629  -0.0377222  -0.0006582   0.0188445  -0.0008687
          181         182         183         184         185         186
    1  -0.0041098  -0.0942046   0.0040844   0.0163685   0.0172544  -0.0193366
    2   0.0207427   0.0572937  -0.0023176   0.0270960  -0.0248627  -0.0010167
    3  -0.0225786  -0.0026846  -0.0096874   0.0004547   0.0010418  -0.0299308
          187         188         189         190         191         192
    1  -0.0487258  -0.0055168   0.0297984  -0.0051638  -0.0220692   0.0728915
    2  -0.0276070   0.0073020   0.0093950   0.0187995   0.0088632  -0.0198645
    3  -0.0056909   0.0029972   0.0057675  -0.0289811   0.0267126   0.0777362
          193         194         195         196         197         198
    1  -0.0024847   0.0265427   0.0135249  -0.0343947  -0.0226951  -0.0007488
    2   0.0108673   0.0191126  -0.0003370   0.0078041  -0.0412993   0.0045483
    3  -0.0021080   0.0118647  -0.0311694   0.0079091  -0.0259514   0.0052795
          199         200         201         202         203         204
    1  -0.0321812   0.0074297   0.0237634   0.1111596   0.0026191   0.0230212
    2   0.0089985  -0.0189091   0.0241575   0.0094688  -0.0035959   0.0150063
    3   0.0119690   0.0255666   0.0136059   0.0103252   0.0047709   0.0168043
          205         206         207         208         209         210
    1  -0.0191670   0.0141996  -0.0286942  -0.0041236  -0.0277335  -0.0098650
    2   0.0029270  -0.0291347   0.0556991  -0.0075827  -0.0026807   0.0034943
    3   0.0265461  -0.0022545   0.0049031  -0.0045658   0.0187351  -0.0294804
          211         212         213         214         215         216
    1   0.0072695   0.0843740   0.0017439   0.0051516   0.0068720   0.0091737
    2  -0.0327631  -0.0140220   0.0002211   0.0290382  -0.0168537  -0.0211338
    3  -0.0014846  -0.0666169   0.0023679  -0.0173299   0.0261360  -0.0192454
          217         218         219         220         221         222
    1  -0.0318343   0.0007830  -0.0290390   0.0130122  -0.0004109  -0.0226574
    2   0.0210373   0.0054137  -0.0067987  -0.0019608   0.0396066  -0.0983214
    3  -0.0503932   0.0068995   0.0071289   0.0287344  -0.0078945   0.0430404
          223         224         225         226         227         228
    1  -0.0000572  -0.0268088   0.0092109   0.0163039   0.0022315  -0.0048716
    2   0.0106507   0.0051904   0.0212170   0.0055682  -0.0388890  -0.0005156
    3  -0.0034504  -0.0098926   0.0241219  -0.0276244  -0.0337638   0.0020046
          229         230         231         232         233         234
    1   0.0056668  -0.0051604  -0.0328353   0.0789645   0.0035409   0.0126455
    2  -0.0192136   0.0214857  -0.0030907   0.0177226   0.0075023  -0.0032510
    3   0.0254570   0.0180824  -0.0069965   0.0770149   0.0033689  -0.0281319
          235         236         237         238         239         240
    1  -0.0071551   0.0320784   0.0209286  -0.0058075  -0.0173308  -0.0082709
    2   0.0256533   0.0051674  -0.0506188   0.0018454  -0.0208651   0.0298183
    3   0.0186581   0.0021869  -0.0202838   0.0021247   0.0164221   0.0002773
          241         242
    1  -0.0146049   0.0063855
    2  -0.0046464   0.0201015
    3  -0.0299529   0.1246810
  --- DONE ESP SUMMARY ---
Archival summary:
1\1\n0072.mhg0\SP\ProcedureUnspecified\6-31+G*\222244h22\ymao\FriMar1202:59:172021FriMar1202:59:172021\0\\#,ProcedureUnspecified,6-31+G*,\\0,1\S\O,1,1.49641\Gh,2,1.77677,1,133.16\Gh,3,1.01317,2,155.126,1,-28.3907,0\Gh,4,1.37907,3,109.918,2,1.31739,0\Gh,5,1.105,4,114.961,3,-1.30058,0\Gh,5,1.21829,4,125.572,3,176.388,0\Gh,4,1.46167,3,127.996,2,-175.226,0\Gh,8,1.09681,4,108.344,3,-122.823,0\Gh,8,1.53706,4,117.805,3,115.399,0\Gh,10,1.09689,8,106.779,4,-47.0278,0\Gh,10,1.09722,8,109.706,4,64.5386,0\Gh,10,1.53724,8,116.462,4,-167.579,0\Gh,13,1.09658,10,114.743,8,-69.0533,0\Gh,13,1.09668,10,113.377,8,172.343,0\Gh,8,1.53741,4,107.944,3,-13.6584,0\Gh,16,1.09677,8,104.231,4,-59.4863,0\Gh,16,1.09699,8,102.097,4,53.1003,0\Gh,16,1.5378,8,115.909,4,174.89,0\Gh,19,1.09684,16,111.332,8,-170.907,0\Gh,19,1.09691,16,116.913,8,66.2605,0\Gh,19,1.53667,16,104.434,8,-54.4136,0\Gh,22,1.09682,19,114.914,16,-167.9,0\Gh,22,1.097,19,110.098,16,-53.8447,0\C,1,1.80682,2,101.347,3,-169.724,0\H,25,1.0925,1,108.063,2,-51.6242,0\H,25,1.09288,1,106.919,2,62.3012,0\H,25,1.09352,1,105.92,2,-174.788,0\C,1,1.80723,2,103.628,3,-66.1965,0\H,29,1.09285,1,118.553,2,-167.172,0\H,29,1.09315,1,98.6137,2,66.0769,0\H,29,1.09318,1,104.123,2,-46.0577,0\H,9,1.97115,8,158.237,4,158.444,0\C,33,1.09257,9,152.977,8,22.4954,0\H,34,1.09275,33,107.413,9,99.9495,0\H,34,1.09284,33,112.695,9,-28.9909,0\S,34,1.80738,33,111.073,9,-142.781,0\O,37,1.49701,34,95.8051,33,174.932,0\C,37,1.80698,34,98.1622,33,72.2959,0\H,39,1.09268,37,111.572,34,-178.802,0\H,39,1.09289,37,107.585,34,-53.3949,0\H,39,1.09303,37,107.366,34,56.0093,0\H,27,2.11063,25,137.381,1,-42.8775,0\C,43,1.09305,27,171.002,25,-51.198,0\H,44,1.09296,43,113.628,27,88.2861,0\H,44,1.09336,43,112.021,27,-44.5961,0\S,44,1.80747,43,108.31,27,-158.738,0\O,47,1.49706,44,106.163,43,179.967,0\C,47,1.80726,44,98.7764,43,75.2784,0\H,49,1.09285,47,111.801,44,56.7974,0\H,49,1.09312,47,109.505,44,-59.7229,0\H,49,1.09312,47,104.354,44,177.639,0\H,50,2.11657,49,130.033,47,22.0683,0\C,53,1.09338,50,120.928,49,167.632,0\H,54,1.09278,53,107.885,50,-25.2215,0\H,54,1.09301,53,111.213,50,-145.097,0\S,54,1.80726,53,110.545,50,88.734,0\O,57,1.49671,54,110.851,53,-34.7888,0\C,57,1.80641,54,92.6448,53,67.1742,0\H,59,1.09309,57,116.15,54,-67.2296,0\H,59,1.09313,57,107.968,54,70.424,0\H,59,1.09357,57,105.344,54,-173.678,0\H,11,2.23493,10,130.127,8,-10.3637,0\C,63,1.093,11,129.358,10,-153.735,0\H,64,1.09255,63,106.346,11,83.2963,0\H,64,1.09316,63,114.713,11,-32.9895,0\S,64,1.80715,63,109.806,11,-155.322,0\O,67,1.49702,64,101.421,63,147.743,0\C,67,1.80765,64,98.6449,63,-110.924,0\H,69,1.09197,67,105.463,64,-179.88,0\H,69,1.09259,67,107.561,64,-58.3174,0\H,69,1.09269,67,110.938,64,61.7874,0\H,66,2.26803,64,116.696,63,110.612,0\C,73,1.09293,66,138.231,64,-72.2317,0\H,74,1.09216,73,104.88,66,-21.5267,0\H,74,1.09339,73,113.115,66,-138.407,0\S,74,1.80729,73,101.021,66,101.859,0\O,77,1.49664,74,108.878,73,-58.8357,0\C,77,1.80654,74,90.2748,73,-164.596,0\H,79,1.09266,77,109.034,74,-50.4915,0\H,79,1.09342,77,112.208,74,-166.593,0\H,79,1.09344,77,108.614,74,61.6806,0\H,48,2.29096,47,163.774,44,55.3059,0\C,83,1.09254,48,145.064,47,-35.4157,0\H,84,1.09265,83,109.947,48,-62.9486,0\H,84,1.0934,83,112.375,48,56.8938,0\S,84,1.80661,83,112.76,48,176.217,0\O,87,1.4972,84,106.077,83,177.161,0\C,87,1.80769,84,97.7526,83,-70.7374,0\H,89,1.09258,87,113.631,84,-49.4699,0\H,89,1.09345,87,99.5417,84,63.6198,0\H,89,1.09358,87,101.831,84,-179.413,0\H,23,2.31581,22,140.869,19,53.9011,0\C,93,1.09372,23,112.964,22,-55.6349,0\H,94,1.09297,93,109.449,23,64.9949,0\H,94,1.09303,93,109.704,23,-75.9338,0\S,94,1.80736,93,102.098,23,171.658,0\O,97,1.49697,94,101.225,93,-62.4913,0\C,97,1.80688,94,97.2131,93,-161.482,0\H,99,1.09239,97,114.555,94,47.2147,0\H,99,1.09321,97,103.58,94,168.611,0\H,99,1.09363,97,111.344,94,-78.9466,0\H,42,2.32952,39,131.202,37,50.1606,0\C,103,1.09308,42,110.308,39,118.332,0\H,104,1.09287,103,105.748,42,56.3364,0\H,104,1.09318,103,112.84,42,-66.1044,0\S,104,1.80747,103,105.048,42,177.183,0\O,107,1.49648,104,106.007,103,-88.1405,0\C,107,1.80682,104,91.1808,103,171.209,0\H,109,1.09268,107,107.181,104,51.1006,0\H,109,1.09295,107,106.495,104,-64.9851,0\H,109,1.09306,107,114.224,104,171.454,0\H,15,2.34358,13,116.39,10,41.67,0\C,113,1.09287,15,154.738,13,160.238,0\H,114,1.09262,113,109.489,15,-43.513,0\H,114,1.09307,113,108.283,15,82.8804,0\S,114,1.80676,113,103.885,15,-166.996,0\O,117,1.49722,114,97.2686,113,39.9094,0\C,117,1.80743,114,99.2136,113,-69.2044,0\H,119,1.09251,117,117.696,114,-76.0297,0\H,119,1.09312,117,103.789,114,42.0598,0\H,119,1.09345,117,107.031,114,165.574,0\H,122,2.20823,119,110.769,117,175.185,0\C,123,1.09309,122,142.641,119,146.883,0\H,124,1.09224,123,105.06,122,-28.5094,0\H,124,1.09301,123,113.068,122,94.1796,0\S,124,1.80726,123,109.043,122,-144.91,0\O,127,1.49703,124,104.955,123,-56.4661,0\C,127,1.80701,124,94.9025,123,49.3014,0\H,129,1.09244,127,107.537,124,-36.7934,0\H,129,1.09351,127,104.401,124,81.1119,0\H,129,1.0936,127,113.229,124,-160.368,0\H,35,2.42165,34,133.391,33,-103.079,0\C,133,1.09358,35,107.693,34,112.826,0\H,134,1.09272,133,109.657,35,-27.6629,0\H,134,1.09294,133,110.574,35,91.6273,0\S,134,1.80642,133,111.82,35,-145.087,0\O,137,1.49664,134,98.6238,133,24.3909,0\C,137,1.80703,134,98.6417,133,-83.3946,0\H,139,1.09287,137,109.344,134,69.0715,0\H,139,1.09289,137,109.835,134,-171.548,0\H,139,1.09386,137,109.105,134,-43.7047,0\O,121,2.43233,119,111.489,117,-121.46,0\S,143,1.49716,121,144.671,119,154.198,0\C,144,1.8067,143,103.763,121,-89.9657,0\H,145,1.09223,144,101.691,143,63.4907,0\H,145,1.09256,144,109.788,143,-54.1858,0\H,145,1.09365,144,110.401,143,-175.33,0\C,144,1.8074,143,107.372,121,163.495,0\H,149,1.09248,144,109.744,143,176.172,0\H,149,1.0937,144,105.24,143,52.557,0\H,149,1.09371,144,108.608,143,-63.8638,0\H,146,2.37844,145,169.784,144,144.474,0\C,153,1.09277,146,101.639,145,-4.06635,0\H,154,1.09351,153,109.885,146,-63.983,0\H,154,1.09359,153,114.825,146,60.893,0\S,154,1.8062,153,117.161,146,177.118,0\O,157,1.49696,154,99.3258,153,-177.625,0\C,157,1.80714,154,93.9439,153,-71.1904,0\H,159,1.09233,157,104.173,154,-80.8307,0\H,159,1.09249,157,110.202,154,164.882,0\H,159,1.0932,157,112.524,154,40.8353,0\H,108,2.44064,107,146.615,104,38.4319,0\C,163,1.09267,108,126.062,107,147.838,0\H,164,1.09303,163,112.505,108,33.1572,0\H,164,1.09322,163,109.715,108,-92.3771,0\S,164,1.80705,163,112.896,108,155.424,0\O,167,1.49625,164,105.916,163,-59.6585,0\C,167,1.8075,164,100.637,163,-171.109,0\H,169,1.09273,167,116.086,164,64.1361,0\H,169,1.09277,167,111.468,164,-65.2578,0\H,169,1.09335,167,104.585,164,-174.727,0\O,30,2.50096,29,106.734,1,-108.301,0\S,173,1.49713,30,116.503,29,111.26,0\C,174,1.80656,173,108.619,30,-62.5725,0\H,175,1.09263,174,99.792,173,-70.4199,0\H,175,1.09326,174,106.846,173,173.29,0\H,175,1.09331,174,105.394,173,51.1162,0\C,174,1.8071,173,101.839,30,50.9008,0\H,179,1.092,174,109.731,173,-154.267,0\H,179,1.09297,174,111.905,173,82.8838,0\H,179,1.09304,174,106.352,173,-38.1912,0\O,41,2.50206,39,131.168,37,-46.3264,0\S,183,1.49736,41,120.07,39,-121.104,0\C,184,1.80718,183,104.682,41,137.636,0\H,185,1.09243,184,117.405,183,-74.0596,0\H,185,1.09293,184,106.925,183,160.692,0\H,185,1.09297,184,109.851,183,51.5722,0\C,184,1.80728,183,102.255,41,35.5464,0\H,189,1.09265,184,109.845,183,158.958,0\H,189,1.09269,184,116.394,183,23.3622,0\H,189,1.09384,184,103.279,183,-92.9831,0\H,188,2.3335,185,134.614,184,-63.0316,0\C,193,1.09278,188,136.829,185,-116.292,0\H,194,1.09293,193,104.049,188,-14.5659,0\H,194,1.09331,193,104.404,188,103.958,0\S,194,1.8065,193,110.921,188,-134.883,0\O,197,1.49707,194,101.897,193,-158.696,0\C,197,1.80751,194,99.1731,193,-54.3768,0\H,199,1.09261,197,115.02,194,-53.3814,0\H,199,1.09302,197,101.464,194,63.5164,0\H,199,1.09333,197,105.722,194,176.137,0\H,202,2.12786,199,127.103,197,50.0312,0\C,203,1.09303,202,142.63,199,53.1858,0\H,204,1.0925,203,107.278,202,-87.6786,0\H,204,1.09292,203,107.838,202,27.1982,0\S,204,1.80721,203,106.256,202,143.662,0\O,207,1.49657,204,106.2,203,-144.648,0\C,207,1.80725,204,95.5669,203,-44.678,0\H,209,1.09267,207,104.284,204,-168.127,0\H,209,1.09285,207,106.417,204,75.9764,0\H,209,1.09307,207,108.001,204,-45.0394,0\H,163,2.51273,108,66.5897,107,58.2113,0\C,213,1.09299,163,110.349,108,-130.562,0\H,214,1.09287,213,112.162,163,-41.9026,0\H,214,1.09343,213,109.745,163,84.0575,0\S,214,1.80702,213,106.898,163,-161.123,0\O,217,1.49714,214,104.144,213,43.2675,0\C,217,1.80677,214,92.8345,213,-59.3615,0\H,219,1.09243,217,112.061,214,-79.903,0\H,219,1.09316,217,107.359,214,163.44,0\H,219,1.09401,217,105.143,214,42.6379,0\S,177,2.7942,175,107.958,174,-131.178,0\O,223,1.49628,177,108.961,175,-48.3623,0\C,223,1.80712,177,146.89,175,103.468,0\H,225,1.09252,223,109.919,177,-80.1046,0\H,225,1.09299,223,109.761,177,160.159,0\H,225,1.09301,223,116.311,177,36.9273,0\C,223,1.80713,177,93.4891,175,-148.756,0\H,229,1.09237,223,109.713,177,33.8968,0\H,229,1.09283,223,106.105,177,150.806,0\H,229,1.09312,223,115.743,177,-81.741,0\H,7,2.79729,5,143.06,4,-179.243,0\C,233,1.09323,7,156.353,5,-16.5973,0\H,234,1.0926,233,118.036,7,-80.5366,0\H,234,1.09315,233,109.06,7,169.217,0\S,234,1.80708,233,111.062,7,43.9555,0\O,237,1.49757,234,102.373,233,69.7838,0\C,237,1.80747,234,94.4332,233,-175.122,0\H,239,1.09304,237,112.191,234,-174.061,0\H,239,1.09306,237,109.566,234,69.1911,0\H,239,1.09396,237,108.567,234,-48.1989,0\\\@

 Total job time:  46.84s(wall), 161.63s(cpu) 
 Fri Mar 12 02:59:17 2021

        *************************************************************
        *                                                           *
        *  Thank you very much for using Q-Chem.  Have a nice day.  *
        *                                                           *
        *************************************************************


