                  Welcome to Q-Chem
     A Quantum Leap Into The Future Of Chemistry


 Q-Chem 6.0 (devel), Q-Chem, Inc., Pleasanton, CA (2022)

 E. Epifanovsky,  A. T. B. Gilbert,  Xintian Feng,  Joonho Lee,  Yuezhi Mao,  
 N. Mardirossian,  P. Pokhilko,  A. White,  M. Wormit,  M. P. Coons,  
 A. L. Dempwolff,  Zhengting Gan,  D. Hait,  P. R. Horn,  L. D. Jacobson,  
 I. Kaliman,  J. Kussmann,  A. W. Lange,  Ka Un Lao,  D. S. Levine,  Jie Liu,  
 S. C. McKenzie,  A. F. Morrison,  K. Nanda,  F. Plasser,  D. R. Rehn,  
 M. L. Vidal,  Zhi-Qiang You,  Ying Zhu,  B. Alam,  B. Albrecht,  
 A. Aldossary,  E. Alguire,  J. H. Andersen,  V. Athavale,  D. Barton,  
 K. Begam,  A. Behn,  N. Bellonzi,  Y. A. Bernard,  E. J. Berquist,  
 H. Burton,  A. Carreras,  K. Carter-Fenk,  Romit Chakraborty,  
 Chandrima Chakravarty,  Junhan Chen,  A. D. Chien,  K. D. Closser,  
 V. Cofer-Shabica,  L. Cunha,  S. Dasgupta,  Jia Deng,  M. de Wergifosse,  
 M. Diedenhofen,  Hainam Do,  S. Ehlert,  Po-Tung Fang,  S. Fatehi,  
 Qingguo Feng,  T. Friedhoff,  B. Ganoe,  J. Gayvert,  Qinghui Ge,  
 G. Gidofalvi,  M. Goldey,  J. Gomes,  C. Gonzalez-Espinoza,  S. Gulania,  
 A. Gunina,  J. A. Gyamfi,  M. W. D. Hanson-Heine,  P. H. P. Harbach,  
 A. W. Hauser,  M. F. Herbst,  M. Hernandez Vera,  M. Hodecker,  
 Z. C. Holden,  S. Houck,  Xunkun Huang,  Kerwin Hui,  B. C. Huynh,  
 K. Ikeda,  M. Ivanov,  Hyunjun Ji,  Zuxin Jin,  Hanjie Jiang,  B. Kaduk,  
 S. Kaehler,  R. Kang,  K. Khistyaev,  Jaehoon Kim,  Yongbin Kim,  
 P. Klunzinger,  Z. Koczor-Benda,  Joong Hoon Koh,  D. Kosenkov,  
 Saikiran Kotaru,  L. Koulias,  T. Kowalczyk,  C. M. Krauter,  K. Kue,  
 A. Kunitsa,  T. Kus,  A. Landau,  K. V. Lawler,  D. Lefrancois,  S. Lehtola,  
 Rain Li,  Shaozhi Li,  Yi-Pei Li,  Jiashu Liang,  M. Liebenthal,  
 Hung-Hsuan Lin,  You-Sheng Lin,  Fenglai Liu,  Kuan-Yu Liu,  
 M. Loipersberger,  A. Luenser,  C. Malbon,  A. Manjanath,  P. Manohar,  
 E. Mansoor,  S. F. Manzer,  Shan-Ping Mao,  A. V. Marenich,  T. Markovich,  
 S. Mason,  F. Matz,  S. A. Maurer,  P. F. McLaughlin,  M. F. S. J. Menger,  
 J.-M. Mewes,  S. A. Mewes,  P. Morgante,  Mohammad Mostafanejad,  
 J. W. Mullinax,  K. J. Oosterbaan,  G. Paran,  V. Parravicini,  
 Alexander C. Paul,  Suranjan K. Paul,  F. Pavosevic,  Zheng Pei,  S. Prager,  
 E. I. Proynov,  E. Ramos,  B. Rana,  A. E. Rask,  A. Rettig,  R. M. Richard,  
 F. Rob,  E. Rossomme,  T. Scheele,  M. Scheurer,  M. Schneider,  
 P. E. Schneider,  N. Sergueev,  S. M. Sharada,  Hengyuan Shen,  
 W. Skomorowski,  D. W. Small,  C. J. Stein,  Yingli Su,  Yu-Chuan Su,  
 E. J. Sundstrom,  Zhen Tao,  J. Thirman,  Hung-Yi Tsai,  T. Tsuchimochi,  
 N. M. Tubman,  C. Utku,  S. P. Veccham,  O. Vydrov,  J. Wenzel,  
 Jonathan Wong,  J. Witte,  A. Yamada,  Chou-Hsun Yang,  Kun Yao,  
 S. Yeganeh,  S. R. Yost,  A. Zech,  F. Zeller,  Igor Ying Zhang,  
 Xing Zhang,  Yu Zhang,  D. Zuev,  A. Aspuru-Guzik,  A. T. Bell,  
 N. A. Besley,  K. B. Bravaya,  B. R. Brooks,  D. Casanova,  Jeng-Da Chai,  
 Hsing-Ta Chen,  S. Coriani,  C. J. Cramer,  A. E. DePrince, III,  
 R. A. DiStasio Jr.,  A. Dreuw,  B. D. Dunietz,  T. R. Furlani,  
 W. A. Goddard III,  S. Grimme,  S. Hammes-Schiffer,  T. Head-Gordon,  
 W. J. Hehre,  Chao-Ping Hsu,  T.-C. Jagau,  Yousung Jung,  A. Klamt,  
 Jing Kong,  D. S. Lambrecht,  Xiangyuan Li,  WanZhen Liang,  N. J. Mayhall,  
 C. W. McCurdy,  J. B. Neaton,  T. Neudecker,  C. Ochsenfeld,  
 J. A. Parkhill,  R. Peverati,  V. A. Rassolov,  Haisheng Ren,  Yihan Shao,  
 L. V. Slipchenko,  R. P. Steele,  J. E. Subotnik,  A. J. W. Thom,  
 A. Tkatchenko,  D. G. Truhlar,  T. Van Voorhis,  Fan Wang,  
 T. A. Wesolowski,  K. B. Whaley,  H. L. Woodcock III,  P. M. Zimmerman,  
 S. Faraji,  P. M. W. Gill,  M. Head-Gordon,  J. M. Herbert,  A. I. Krylov

 Contributors to earlier versions of Q-Chem not listed above: 
 R. D. Adamson,  B. Austin,  R. Baer,  J. Baker,  G. J. O. Beran,  
 K. Brandhorst,  S. T. Brown,  E. F. C. Byrd,  Arup K. Chakraborty,  
 G. K. L. Chan,  Chun-Min Chang,  Yunqing Chen,  C.-L. Cheng,  
 Siu Hung Chien,  D. M. Chipman,  D. L. Crittenden,  H. Dachsel,  
 R. J. Doerksen,  A. D. Dutoi,  R. G. Edgar,  J. Fosso-Tande,  
 L. Fusti-Molnar,  D. Ghosh,  A. Ghysels,  A. Golubeva-Zadorozhnaya,  
 J. Gonthier,  M. S. Gordon,  S. R. Gwaltney,  G. Hawkins,  J. E. Herr,  
 A. Heyden,  S. Hirata,  E. G. Hohenstein,  G. Kedziora,  F. J. Keil,  
 C. Kelley,  Jihan Kim,  R. A. King,  R. Z. Khaliullin,  P. P. Korambath,  
 W. Kurlancheek,  A. Laurent,  A. M. Lee,  M. S. Lee,  S. V. Levchenko,  
 Ching Yeh Lin,  D. Liotard,  E. Livshits,  R. C. Lochan,  I. Lotan,  
 L. A. Martinez-Martinez,  P. E. Maslen,  N. Nair,  D. P. O'Neill,  
 D. Neuhauser,  E. Neuscamman,  C. M. Oana,  R. Olivares-Amaya,  R. Olson,  
 T. M. Perrine,  B. Peters,  P. A. Pieniazek,  A. Prociuk,  Y. M. Rhee,  
 J. Ritchie,  M. A. Rohrdanz,  E. Rosta,  N. J. Russ,  H. F. Schaefer III,  
 M. W. Schmidt,  N. E. Schultz,  S. Sharma,  N. Shenvi,  C. D. Sherrill,  
 A. C. Simmonett,  A. Sodt,  T. Stein,  D. Stuck,  K. S. Thanthiriwatte,  
 V. Vanovschi,  L. Vogt,  Tao Wang,  A. Warshel,  M. A. Watson,  
 C. F. Williams,  Q. Wu,  X. Xu,  Jun Yang,  W. Zhang,  Yan Zhao

   Please cite Q-Chem as follows:
  "Software for the frontiers of quantum chemistry:
   An overview of developments in the Q-Chem 5 package"
   J. Chem. Phys. 155, 084801 (2021)
   https://doi.org/10.1063/5.0055522 (open access)

 Q-Chem 6.0.0 for Intel X86 EM64T Linux

 Parts of Q-Chem use Armadillo 9.900.5 (Nocturnal Misbehaviour).
 http://arma.sourceforge.net/

 Q-Chem begins on Thu Jul 21 09:17:36 2022  

 Host: nid00531
0

     Scratch files written to /global/cscratch1/sd/ymao90/r7.00_frame_0088_almo_B3LYP_dp20220721031503//
 Processing $rem in /global/homes/y/ymao90/my_qchem/qchem_embedding_5p4/config/preferences:
 Processing $rem in /global/homes/y/ymao90/.qchemrc:

 Checking the input file for inconsistencies... 	...done.

--------------------------------------------------------------
User input:
--------------------------------------------------------------
$molecule
0 1
--
0 1
C    29.52300   28.14300   25.79000  
C    28.21400   28.92300   26.00100  
C    26.97900   28.23800   25.39400  
C    26.85900   26.73600   25.70200  
C    28.16200   25.94900   25.49000  
C    29.38700   26.64500   26.10600  
H    26.15900   28.94600   25.56400  
H    28.07800   29.03600   27.08300  
H    29.91300   28.17900   24.76500  
H    30.33500   28.56000   26.39700  
H    26.62800   26.66400   26.77200  
H    26.11300   26.29800   25.02800  
H    28.03400   24.91800   25.84200  
H    28.37200   25.90400   24.41400  
H    29.35500   26.51900   27.19500  
H    30.28600   26.16000   25.70400  
H    27.14200   28.28000   24.31000  
N    28.40500   30.30400   25.56200  
H    28.84100   30.41000   24.65400  
C    28.30800   31.46400   26.30200  
H    28.72900   32.33800   25.77200  
O    27.72800   31.48000   27.37300  
--
0 1
C    26.73700   31.89600   21.18600  
H    26.15800   31.64400   20.29300  
H    26.08800   31.89200   22.06500  
H    27.30700   32.80600   20.98500  
S    27.79500   30.45500   21.44600  
C    26.48400   29.23900   21.70700  
H    25.92800   29.16800   20.76900  
H    26.90500   28.27800   22.01600  
H    25.75200   29.54800   22.45700  
O    28.29600   30.69900   22.83600  
C    33.29000   30.02500   23.56000  
H    32.93800   29.33500   22.78800  
H    32.35100   30.35200   24.01400  
H    33.79100   30.86600   23.07500  
S    34.33800   29.16400   24.75400  
C    35.54300   28.62600   23.51900  
H    34.97000   28.09600   22.75400  
H    35.99300   29.53300   23.10600  
H    36.34100   28.06800   24.01600  
O    33.54100   27.92500   25.01600  
C    28.76700   35.10400   24.55800  
H    28.57800   36.18000   24.59200  
H    28.48300   34.58500   25.47700  
H    29.79400   34.88700   24.25400  
S    27.60400   34.54200   23.29400  
C    27.49800   35.99900   22.23100  
H    27.05400   36.66800   22.97200  
H    28.44800   36.35400   21.82300  
H    26.71300   35.87700   21.48100  
O    26.31200   34.53500   24.05100  
C    31.26400   31.97200   21.74600  
H    31.94300   32.20100   22.57100  
H    30.66700   32.87200   21.57900  
H    30.64600   31.11300   22.02000  
S    32.07500   31.80900   20.13900  
C    30.80600   30.74700   19.41400  
H    30.88300   29.84000   20.01900  
H    29.90100   31.35400   19.50300  
H    31.09000   30.47900   18.39300  
O    33.09400   30.82900   20.63200  
C    32.73800   23.88400   30.89200  
H    33.73400   23.55500   31.19900  
H    31.96200   23.38600   31.47800  
H    32.54400   23.66800   29.83800  
S    32.64900   25.67300   31.13700  
C    33.19800   25.63900   32.85800  
H    33.06800   26.64600   33.26300  
H    32.62300   24.88700   33.40300  
H    34.26600   25.40600   32.84800  
O    31.19700   25.76600   31.49000  
C    32.16900   31.22400   27.15200  
H    33.08600   31.09500   27.73200  
H    31.31300   31.51600   27.76600  
H    31.84900   30.41600   26.48900  
S    32.35800   32.62200   26.02200  
C    32.16000   33.98300   27.19300  
H    33.03400   33.97700   27.84900  
H    32.02900   34.95100   26.70300  
H    31.20700   33.85300   27.71400  
O    31.10100   32.58200   25.21000  
C    29.99900   21.44400   28.55500  
H    30.60300   20.98000   27.77100  
H    30.75300   21.63700   29.32200  
H    29.25800   20.68900   28.82900  
S    29.00700   22.80700   27.90500  
C    28.55200   23.34400   29.57000  
H    27.70300   24.03100   29.57300  
H    28.27400   22.46200   30.15400  
H    29.47500   23.72400   30.01600  
O    27.71600   22.28400   27.35900  
C    24.26100   25.37500   30.77900  
H    23.95000   24.94300   31.73400  
H    25.10300   26.02800   31.02300  
H    23.50500   26.00200   30.29900  
S    24.83700   24.02500   29.72500  
C    25.45000   24.98300   28.32000  
H    24.59500   25.59500   28.02100  
H    26.21200   25.62500   28.76900  
H    25.72000   24.11100   27.72000  
O    23.61200   23.32200   29.22900  
C    28.20800   21.46900   23.36000  
H    27.87000   20.63300   22.74200  
H    27.71000   21.57300   24.32700  
H    28.07200   22.35700   22.73800  
S    29.98400   21.21100   23.56500  
C    30.47300   22.94400   23.71200  
H    31.56000   23.05900   23.74600  
H    29.94700   23.48700   22.92400  
H    30.16700   23.21900   24.72500  
O    30.21500   20.94700   22.11000  
C    22.05200   20.61400   27.10500  
H    21.96700   20.57900   26.01600  
H    21.31200   19.97600   27.59500  
H    21.85600   21.67900   27.25300  
S    23.65300   20.33400   27.89400  
C    24.77600   21.18800   26.76600  
H    25.75900   21.17400   27.24400  
H    24.76900   20.60700   25.84000  
H    24.40800   22.20700   26.61900  
O    24.12500   18.94100   27.61200  
C    29.83400   36.07500   30.09600  
H    30.75600   36.44700   30.55100  
H    29.11300   36.19000   30.91000  
H    29.93200   35.07600   29.66600  
S    29.25200   37.13200   28.75100  
C    27.98900   35.95200   28.22300  
H    28.42100   35.05000   27.78400  
H    27.44000   35.71200   29.13700  
H    27.40700   36.58900   27.55200  
O    30.31600   36.78500   27.75700  
C    22.68900   26.33700   25.37200  
H    22.14200   26.81700   24.55600  
H    22.47500   27.02800   26.19100  
H    23.75400   26.19900   25.17200  
S    21.91400   24.74600   25.74100  
C    22.23700   24.04000   24.11000  
H    23.30500   24.25600   24.03000  
H    22.10000   22.95800   24.03800  
H    21.62600   24.60400   23.40000  
O    20.46000   25.09500   25.81500  
C    25.19300   26.36600   20.23600  
H    24.55900   27.08200   19.70600  
H    26.02400   26.90000   20.70400  
H    25.51300   25.62300   19.50200  
S    24.12600   25.64200   21.50200  
C    23.46200   24.43600   20.33200  
H    22.65100   23.84800   20.77000  
H    23.07600   24.96100   19.45400  
H    24.23100   23.74200   19.98500  
O    23.08200   26.70900   21.62200  
C    25.31200   29.72700   28.98400  
H    26.33500   29.97200   28.68600  
H    25.25400   29.39000   30.02200  
H    24.99300   28.88100   28.37000  
S    24.31300   31.14600   28.48000  
C    24.87300   32.18000   29.85200  
H    25.96500   32.18200   29.82600  
H    24.65100   33.18100   29.47400  
H    24.33900   31.92500   30.77100  
O    22.88400   30.78000   28.73700  
C    30.68700   26.39600   19.85300  
H    31.12300   25.41000   20.03200  
H    29.82100   26.24000   19.20500  
H    31.41500   27.08000   19.40900  
S    30.21500   27.17700   21.41300  
C    31.68600   26.61500   22.29900  
H    31.56900   26.84700   23.36100  
H    31.76500   25.54700   22.08000  
H    32.59300   27.15500   22.01500  
O    29.22300   26.26800   22.06800  
C    34.79700   24.85600   25.74600  
H    35.15100   24.03400   25.11800  
H    34.68300   25.75400   25.13300  
H    35.49900   24.94200   26.58000  
S    33.11800   24.57600   26.35300  
C    33.17200   25.84700   27.63800  
H    33.33700   26.85700   27.25500  
H    32.17000   25.72500   28.05700  
H    33.90100   25.56400   28.40200  
O    33.06700   23.27900   27.09900  
C    25.12300   31.56600   24.75200  
H    25.72900   32.26100   24.16600  
H    25.30400   31.66800   25.82500  
H    25.44300   30.56200   24.46300  
S    23.36800   31.62300   24.32300  
C    22.88700   30.19000   25.31300  
H    23.79900   29.72800   25.70000  
H    22.21800   30.41700   26.14600  
H    22.32800   29.48100   24.69700  
O    23.31400   31.09800   22.92100  
C    24.81300   34.58300   26.81400  
H    24.73600   35.10100   27.77300  
H    24.44800   33.56200   26.94300  
H    25.87100   34.53200   26.54300  
S    23.83400   35.35000   25.50300  
C    24.36300   37.06400   25.72400  
H    23.73800   37.69300   25.08600  
H    24.18700   37.28900   26.77900  
H    25.43300   37.05500   25.50000  
O    22.41300   35.32400   25.97100  
C    33.33700   35.77300   21.40600  
H    33.08500   34.71300   21.49500  
H    32.94900   36.20400   20.48000  
H    34.40100   35.99500   21.52600  
S    32.49000   36.78100   22.64400  
C    32.57800   35.52300   23.93900  
H    33.56500   35.31100   24.35700  
H    31.90300   35.88700   24.71700  
H    32.12500   34.63100   23.49900  
O    31.08000   36.68000   22.15300  
C    28.34800   31.72900   31.10100  
H    27.90900   32.65700   31.47800  
H    28.49700   31.89700   30.03200  
H    27.66800   30.88900   31.26200  
S    29.97600   31.52600   31.85800  
C    29.36900   31.69100   33.55200  
H    29.02900   32.71900   33.70200  
H    28.53000   30.99700   33.64200  
H    30.15700   31.29700   34.19900  
O    30.80400   32.76500   31.71500  
C    23.12700   20.40700   21.17200  
H    23.30300   19.48100   20.61800  
H    22.15800   20.32800   21.67100  
H    23.14100   21.23900   20.46300  
S    24.56900   20.74600   22.20700  
C    24.15100   19.41300   23.35300  
H    25.00000   19.25400   24.02300  
H    23.22400   19.58100   23.90600  
H    24.02800   18.47000   22.81400  
O    24.11000   21.95800   22.95600  
C    28.30200   27.74600   31.77200  
H    27.92000   28.74700   31.55600  
H    27.46800   27.16300   32.17300  
H    29.25200   27.80000   32.31000  
S    28.72700   27.17000   30.11300  
C    29.82700   28.55400   29.74100  
H    30.74000   28.49600   30.33800  
H    30.08700   28.36900   28.69600  
H    29.36000   29.53700   29.84700  
O    27.56800   27.58400   29.26100  
C    28.27800   23.46700   20.07300  
H    27.93100   24.33400   20.64100  
H    29.16900   23.02300   20.52400  
H    28.39700   23.76200   19.02700  
S    27.05400   22.13900   20.04000  
C    27.96100   20.85200   19.15200  
H    28.80300   20.60000   19.80100  
H    27.29600   19.98500   19.10900  
H    28.33800   21.16300   18.17500  
O    26.12000   22.64400   18.98400  
C    34.00600   31.31500   30.75200  
H    33.10800   31.93600   30.78700  
H    34.76200   31.65200   31.46600  
H    34.35900   31.09200   29.74200  
S    33.44700   29.77400   31.51300  
C    33.28600   30.47500   33.17000  
H    32.46400   31.19500   33.19400  
H    32.93500   29.63500   33.77600  
H    34.24300   30.85800   33.53400  
O    34.75100   29.05400   31.66700  
C    24.75000   34.97200   31.97700  
H    23.91500   35.01900   32.68100  
H    24.46200   35.52700   31.08000  
H    25.04100   33.95800   31.69200  
S    26.24800   35.62900   32.74600  
C    26.19500   37.28300   32.02000  
H    25.91000   37.22400   30.96700  
H    25.43500   37.82400   32.58900  
H    27.19200   37.71800   32.12500  
O    27.22200   34.95300   31.83200  
$end

$rem
JOBTYPE  SP
METHOD  B3LYP
BASIS  6-31+G(D)
SYMMETRY  FALSE
SYM_IGNORE  TRUE
MEM_TOTAL  12000
MEM_STATIC  4000
BASIS_LIN_DEP_THRESH  6
THRESH  14
SCF_CONVERGENCE  8
FD_MAT_VEC_PROD  FALSE
XC_GRID  000075000302
NL_GRID  1
MAX_SCF_CYCLES  200
FRGM_METHOD  STOLL
SCFMI_MODE  1
ALMO_EFIELD  TRUE
$end

$rem_frgm
SCF_CONVERGENCE  4
$end


--------------------------------------------------------------
 ----------------------------------------------------------------
             Standard Nuclear Orientation (Angstroms)
    I     Atom           X                Y                Z
 ----------------------------------------------------------------
    1      C      29.5230000000    28.1430000000    25.7900000000
    2      C      28.2140000000    28.9230000000    26.0010000000
    3      C      26.9790000000    28.2380000000    25.3940000000
    4      C      26.8590000000    26.7360000000    25.7020000000
    5      C      28.1620000000    25.9490000000    25.4900000000
    6      C      29.3870000000    26.6450000000    26.1060000000
    7      H      26.1590000000    28.9460000000    25.5640000000
    8      H      28.0780000000    29.0360000000    27.0830000000
    9      H      29.9130000000    28.1790000000    24.7650000000
   10      H      30.3350000000    28.5600000000    26.3970000000
   11      H      26.6280000000    26.6640000000    26.7720000000
   12      H      26.1130000000    26.2980000000    25.0280000000
   13      H      28.0340000000    24.9180000000    25.8420000000
   14      H      28.3720000000    25.9040000000    24.4140000000
   15      H      29.3550000000    26.5190000000    27.1950000000
   16      H      30.2860000000    26.1600000000    25.7040000000
   17      H      27.1420000000    28.2800000000    24.3100000000
   18      N      28.4050000000    30.3040000000    25.5620000000
   19      H      28.8410000000    30.4100000000    24.6540000000
   20      C      28.3080000000    31.4640000000    26.3020000000
   21      H      28.7290000000    32.3380000000    25.7720000000
   22      O      27.7280000000    31.4800000000    27.3730000000
   23      C      26.7370000000    31.8960000000    21.1860000000
   24      H      26.1580000000    31.6440000000    20.2930000000
   25      H      26.0880000000    31.8920000000    22.0650000000
   26      H      27.3070000000    32.8060000000    20.9850000000
   27      S      27.7950000000    30.4550000000    21.4460000000
   28      C      26.4840000000    29.2390000000    21.7070000000
   29      H      25.9280000000    29.1680000000    20.7690000000
   30      H      26.9050000000    28.2780000000    22.0160000000
   31      H      25.7520000000    29.5480000000    22.4570000000
   32      O      28.2960000000    30.6990000000    22.8360000000
   33      C      33.2900000000    30.0250000000    23.5600000000
   34      H      32.9380000000    29.3350000000    22.7880000000
   35      H      32.3510000000    30.3520000000    24.0140000000
   36      H      33.7910000000    30.8660000000    23.0750000000
   37      S      34.3380000000    29.1640000000    24.7540000000
   38      C      35.5430000000    28.6260000000    23.5190000000
   39      H      34.9700000000    28.0960000000    22.7540000000
   40      H      35.9930000000    29.5330000000    23.1060000000
   41      H      36.3410000000    28.0680000000    24.0160000000
   42      O      33.5410000000    27.9250000000    25.0160000000
   43      C      28.7670000000    35.1040000000    24.5580000000
   44      H      28.5780000000    36.1800000000    24.5920000000
   45      H      28.4830000000    34.5850000000    25.4770000000
   46      H      29.7940000000    34.8870000000    24.2540000000
   47      S      27.6040000000    34.5420000000    23.2940000000
   48      C      27.4980000000    35.9990000000    22.2310000000
   49      H      27.0540000000    36.6680000000    22.9720000000
   50      H      28.4480000000    36.3540000000    21.8230000000
   51      H      26.7130000000    35.8770000000    21.4810000000
   52      O      26.3120000000    34.5350000000    24.0510000000
   53      C      31.2640000000    31.9720000000    21.7460000000
   54      H      31.9430000000    32.2010000000    22.5710000000
   55      H      30.6670000000    32.8720000000    21.5790000000
   56      H      30.6460000000    31.1130000000    22.0200000000
   57      S      32.0750000000    31.8090000000    20.1390000000
   58      C      30.8060000000    30.7470000000    19.4140000000
   59      H      30.8830000000    29.8400000000    20.0190000000
   60      H      29.9010000000    31.3540000000    19.5030000000
   61      H      31.0900000000    30.4790000000    18.3930000000
   62      O      33.0940000000    30.8290000000    20.6320000000
   63      C      32.7380000000    23.8840000000    30.8920000000
   64      H      33.7340000000    23.5550000000    31.1990000000
   65      H      31.9620000000    23.3860000000    31.4780000000
   66      H      32.5440000000    23.6680000000    29.8380000000
   67      S      32.6490000000    25.6730000000    31.1370000000
   68      C      33.1980000000    25.6390000000    32.8580000000
   69      H      33.0680000000    26.6460000000    33.2630000000
   70      H      32.6230000000    24.8870000000    33.4030000000
   71      H      34.2660000000    25.4060000000    32.8480000000
   72      O      31.1970000000    25.7660000000    31.4900000000
   73      C      32.1690000000    31.2240000000    27.1520000000
   74      H      33.0860000000    31.0950000000    27.7320000000
   75      H      31.3130000000    31.5160000000    27.7660000000
   76      H      31.8490000000    30.4160000000    26.4890000000
   77      S      32.3580000000    32.6220000000    26.0220000000
   78      C      32.1600000000    33.9830000000    27.1930000000
   79      H      33.0340000000    33.9770000000    27.8490000000
   80      H      32.0290000000    34.9510000000    26.7030000000
   81      H      31.2070000000    33.8530000000    27.7140000000
   82      O      31.1010000000    32.5820000000    25.2100000000
   83      C      29.9990000000    21.4440000000    28.5550000000
   84      H      30.6030000000    20.9800000000    27.7710000000
   85      H      30.7530000000    21.6370000000    29.3220000000
   86      H      29.2580000000    20.6890000000    28.8290000000
   87      S      29.0070000000    22.8070000000    27.9050000000
   88      C      28.5520000000    23.3440000000    29.5700000000
   89      H      27.7030000000    24.0310000000    29.5730000000
   90      H      28.2740000000    22.4620000000    30.1540000000
   91      H      29.4750000000    23.7240000000    30.0160000000
   92      O      27.7160000000    22.2840000000    27.3590000000
   93      C      24.2610000000    25.3750000000    30.7790000000
   94      H      23.9500000000    24.9430000000    31.7340000000
   95      H      25.1030000000    26.0280000000    31.0230000000
   96      H      23.5050000000    26.0020000000    30.2990000000
   97      S      24.8370000000    24.0250000000    29.7250000000
   98      C      25.4500000000    24.9830000000    28.3200000000
   99      H      24.5950000000    25.5950000000    28.0210000000
  100      H      26.2120000000    25.6250000000    28.7690000000
  101      H      25.7200000000    24.1110000000    27.7200000000
  102      O      23.6120000000    23.3220000000    29.2290000000
  103      C      28.2080000000    21.4690000000    23.3600000000
  104      H      27.8700000000    20.6330000000    22.7420000000
  105      H      27.7100000000    21.5730000000    24.3270000000
  106      H      28.0720000000    22.3570000000    22.7380000000
  107      S      29.9840000000    21.2110000000    23.5650000000
  108      C      30.4730000000    22.9440000000    23.7120000000
  109      H      31.5600000000    23.0590000000    23.7460000000
  110      H      29.9470000000    23.4870000000    22.9240000000
  111      H      30.1670000000    23.2190000000    24.7250000000
  112      O      30.2150000000    20.9470000000    22.1100000000
  113      C      22.0520000000    20.6140000000    27.1050000000
  114      H      21.9670000000    20.5790000000    26.0160000000
  115      H      21.3120000000    19.9760000000    27.5950000000
  116      H      21.8560000000    21.6790000000    27.2530000000
  117      S      23.6530000000    20.3340000000    27.8940000000
  118      C      24.7760000000    21.1880000000    26.7660000000
  119      H      25.7590000000    21.1740000000    27.2440000000
  120      H      24.7690000000    20.6070000000    25.8400000000
  121      H      24.4080000000    22.2070000000    26.6190000000
  122      O      24.1250000000    18.9410000000    27.6120000000
  123      C      29.8340000000    36.0750000000    30.0960000000
  124      H      30.7560000000    36.4470000000    30.5510000000
  125      H      29.1130000000    36.1900000000    30.9100000000
  126      H      29.9320000000    35.0760000000    29.6660000000
  127      S      29.2520000000    37.1320000000    28.7510000000
  128      C      27.9890000000    35.9520000000    28.2230000000
  129      H      28.4210000000    35.0500000000    27.7840000000
  130      H      27.4400000000    35.7120000000    29.1370000000
  131      H      27.4070000000    36.5890000000    27.5520000000
  132      O      30.3160000000    36.7850000000    27.7570000000
  133      C      22.6890000000    26.3370000000    25.3720000000
  134      H      22.1420000000    26.8170000000    24.5560000000
  135      H      22.4750000000    27.0280000000    26.1910000000
  136      H      23.7540000000    26.1990000000    25.1720000000
  137      S      21.9140000000    24.7460000000    25.7410000000
  138      C      22.2370000000    24.0400000000    24.1100000000
  139      H      23.3050000000    24.2560000000    24.0300000000
  140      H      22.1000000000    22.9580000000    24.0380000000
  141      H      21.6260000000    24.6040000000    23.4000000000
  142      O      20.4600000000    25.0950000000    25.8150000000
  143      C      25.1930000000    26.3660000000    20.2360000000
  144      H      24.5590000000    27.0820000000    19.7060000000
  145      H      26.0240000000    26.9000000000    20.7040000000
  146      H      25.5130000000    25.6230000000    19.5020000000
  147      S      24.1260000000    25.6420000000    21.5020000000
  148      C      23.4620000000    24.4360000000    20.3320000000
  149      H      22.6510000000    23.8480000000    20.7700000000
  150      H      23.0760000000    24.9610000000    19.4540000000
  151      H      24.2310000000    23.7420000000    19.9850000000
  152      O      23.0820000000    26.7090000000    21.6220000000
  153      C      25.3120000000    29.7270000000    28.9840000000
  154      H      26.3350000000    29.9720000000    28.6860000000
  155      H      25.2540000000    29.3900000000    30.0220000000
  156      H      24.9930000000    28.8810000000    28.3700000000
  157      S      24.3130000000    31.1460000000    28.4800000000
  158      C      24.8730000000    32.1800000000    29.8520000000
  159      H      25.9650000000    32.1820000000    29.8260000000
  160      H      24.6510000000    33.1810000000    29.4740000000
  161      H      24.3390000000    31.9250000000    30.7710000000
  162      O      22.8840000000    30.7800000000    28.7370000000
  163      C      30.6870000000    26.3960000000    19.8530000000
  164      H      31.1230000000    25.4100000000    20.0320000000
  165      H      29.8210000000    26.2400000000    19.2050000000
  166      H      31.4150000000    27.0800000000    19.4090000000
  167      S      30.2150000000    27.1770000000    21.4130000000
  168      C      31.6860000000    26.6150000000    22.2990000000
  169      H      31.5690000000    26.8470000000    23.3610000000
  170      H      31.7650000000    25.5470000000    22.0800000000
  171      H      32.5930000000    27.1550000000    22.0150000000
  172      O      29.2230000000    26.2680000000    22.0680000000
  173      C      34.7970000000    24.8560000000    25.7460000000
  174      H      35.1510000000    24.0340000000    25.1180000000
  175      H      34.6830000000    25.7540000000    25.1330000000
  176      H      35.4990000000    24.9420000000    26.5800000000
  177      S      33.1180000000    24.5760000000    26.3530000000
  178      C      33.1720000000    25.8470000000    27.6380000000
  179      H      33.3370000000    26.8570000000    27.2550000000
  180      H      32.1700000000    25.7250000000    28.0570000000
  181      H      33.9010000000    25.5640000000    28.4020000000
  182      O      33.0670000000    23.2790000000    27.0990000000
  183      C      25.1230000000    31.5660000000    24.7520000000
  184      H      25.7290000000    32.2610000000    24.1660000000
  185      H      25.3040000000    31.6680000000    25.8250000000
  186      H      25.4430000000    30.5620000000    24.4630000000
  187      S      23.3680000000    31.6230000000    24.3230000000
  188      C      22.8870000000    30.1900000000    25.3130000000
  189      H      23.7990000000    29.7280000000    25.7000000000
  190      H      22.2180000000    30.4170000000    26.1460000000
  191      H      22.3280000000    29.4810000000    24.6970000000
  192      O      23.3140000000    31.0980000000    22.9210000000
  193      C      24.8130000000    34.5830000000    26.8140000000
  194      H      24.7360000000    35.1010000000    27.7730000000
  195      H      24.4480000000    33.5620000000    26.9430000000
  196      H      25.8710000000    34.5320000000    26.5430000000
  197      S      23.8340000000    35.3500000000    25.5030000000
  198      C      24.3630000000    37.0640000000    25.7240000000
  199      H      23.7380000000    37.6930000000    25.0860000000
  200      H      24.1870000000    37.2890000000    26.7790000000
  201      H      25.4330000000    37.0550000000    25.5000000000
  202      O      22.4130000000    35.3240000000    25.9710000000
  203      C      33.3370000000    35.7730000000    21.4060000000
  204      H      33.0850000000    34.7130000000    21.4950000000
  205      H      32.9490000000    36.2040000000    20.4800000000
  206      H      34.4010000000    35.9950000000    21.5260000000
  207      S      32.4900000000    36.7810000000    22.6440000000
  208      C      32.5780000000    35.5230000000    23.9390000000
  209      H      33.5650000000    35.3110000000    24.3570000000
  210      H      31.9030000000    35.8870000000    24.7170000000
  211      H      32.1250000000    34.6310000000    23.4990000000
  212      O      31.0800000000    36.6800000000    22.1530000000
  213      C      28.3480000000    31.7290000000    31.1010000000
  214      H      27.9090000000    32.6570000000    31.4780000000
  215      H      28.4970000000    31.8970000000    30.0320000000
  216      H      27.6680000000    30.8890000000    31.2620000000
  217      S      29.9760000000    31.5260000000    31.8580000000
  218      C      29.3690000000    31.6910000000    33.5520000000
  219      H      29.0290000000    32.7190000000    33.7020000000
  220      H      28.5300000000    30.9970000000    33.6420000000
  221      H      30.1570000000    31.2970000000    34.1990000000
  222      O      30.8040000000    32.7650000000    31.7150000000
  223      C      23.1270000000    20.4070000000    21.1720000000
  224      H      23.3030000000    19.4810000000    20.6180000000
  225      H      22.1580000000    20.3280000000    21.6710000000
  226      H      23.1410000000    21.2390000000    20.4630000000
  227      S      24.5690000000    20.7460000000    22.2070000000
  228      C      24.1510000000    19.4130000000    23.3530000000
  229      H      25.0000000000    19.2540000000    24.0230000000
  230      H      23.2240000000    19.5810000000    23.9060000000
  231      H      24.0280000000    18.4700000000    22.8140000000
  232      O      24.1100000000    21.9580000000    22.9560000000
  233      C      28.3020000000    27.7460000000    31.7720000000
  234      H      27.9200000000    28.7470000000    31.5560000000
  235      H      27.4680000000    27.1630000000    32.1730000000
  236      H      29.2520000000    27.8000000000    32.3100000000
  237      S      28.7270000000    27.1700000000    30.1130000000
  238      C      29.8270000000    28.5540000000    29.7410000000
  239      H      30.7400000000    28.4960000000    30.3380000000
  240      H      30.0870000000    28.3690000000    28.6960000000
  241      H      29.3600000000    29.5370000000    29.8470000000
  242      O      27.5680000000    27.5840000000    29.2610000000
  243      C      28.2780000000    23.4670000000    20.0730000000
  244      H      27.9310000000    24.3340000000    20.6410000000
  245      H      29.1690000000    23.0230000000    20.5240000000
  246      H      28.3970000000    23.7620000000    19.0270000000
  247      S      27.0540000000    22.1390000000    20.0400000000
  248      C      27.9610000000    20.8520000000    19.1520000000
  249      H      28.8030000000    20.6000000000    19.8010000000
  250      H      27.2960000000    19.9850000000    19.1090000000
  251      H      28.3380000000    21.1630000000    18.1750000000
  252      O      26.1200000000    22.6440000000    18.9840000000
  253      C      34.0060000000    31.3150000000    30.7520000000
  254      H      33.1080000000    31.9360000000    30.7870000000
  255      H      34.7620000000    31.6520000000    31.4660000000
  256      H      34.3590000000    31.0920000000    29.7420000000
  257      S      33.4470000000    29.7740000000    31.5130000000
  258      C      33.2860000000    30.4750000000    33.1700000000
  259      H      32.4640000000    31.1950000000    33.1940000000
  260      H      32.9350000000    29.6350000000    33.7760000000
  261      H      34.2430000000    30.8580000000    33.5340000000
  262      O      34.7510000000    29.0540000000    31.6670000000
  263      C      24.7500000000    34.9720000000    31.9770000000
  264      H      23.9150000000    35.0190000000    32.6810000000
  265      H      24.4620000000    35.5270000000    31.0800000000
  266      H      25.0410000000    33.9580000000    31.6920000000
  267      S      26.2480000000    35.6290000000    32.7460000000
  268      C      26.1950000000    37.2830000000    32.0200000000
  269      H      25.9100000000    37.2240000000    30.9670000000
  270      H      25.4350000000    37.8240000000    32.5890000000
  271      H      27.1920000000    37.7180000000    32.1250000000
  272      O      27.2220000000    34.9530000000    31.8320000000
 ----------------------------------------------------------------
 Nuclear Repulsion Energy =       42354.63360847 hartrees
 There are      560 alpha and      560 beta electrons
 Requested basis set is 6-31+G(d)
 There are 896 shells and 2497 basis functions

 Total QAlloc Memory Limit  12000 MB
 Mega-Array Size      3911 MB
 MEM_STATIC part      4000 MB

 A cutoff of  1.0D-14 yielded 157728 shell pairs
 There are   1360790 function pairs
 Smallest overlap matrix eigenvalue = 5.28E-07
 Linear dependence detected in AO basis
 Tighter screening thresholds may be required for diffuse basis sets
 Use S2THRESH > 14 and THRESH = 14 in case of SCF convergence issues
 Number of orthogonalized atomic orbitals = 2496
 Maximum deviation from orthogonality = 2.223E-10

 Scale SEOQF with 1.000000e-03/1.000000e-03/1.000000e-03

 Standard Electronic Orientation quadrupole field applied
 Nucleus-field energy     =     0.0000001684 hartrees
 Attempting to make child job directory: /global/cscratch1/sd/ymao90/r7.00_frame_0088_almo_B3LYP_dp20220721031503//Frg1/
 Attempting to make child job directory: /global/cscratch1/sd/ymao90/r7.00_frame_0088_almo_B3LYP_dp20220721031503//Frg2/
 Creating input file /global/cscratch1/sd/ymao90/r7.00_frame_0088_almo_B3LYP_dp20220721031503/Frg1.input
 using default PutDataFrgm: nothing
 calling putenv with: QCSCRATCH=/global/cscratch1/sd/ymao90/r7.00_frame_0088_almo_B3LYP_dp20220721031503/ 
 Spawning Job For Fragment 0
 Done Job For Fragment 0
 calling putenv with: QCSCRATCH=/global/cscratch1/sd/ymao90 
 calling putenv with: QCTHREADS=16 
 Creating input file /global/cscratch1/sd/ymao90/r7.00_frame_0088_almo_B3LYP_dp20220721031503/Frg2.input
 using default PutDataFrgm: nothing
 calling putenv with: QCSCRATCH=/global/cscratch1/sd/ymao90/r7.00_frame_0088_almo_B3LYP_dp20220721031503/ 
 Spawning Job For Fragment 1
 Done Job For Fragment 1
 calling putenv with: QCSCRATCH=/global/cscratch1/sd/ymao90 
 calling putenv with: QCTHREADS=16 
 Time for running child jobs:  CPU 0.42 s  wall 13114.85 s

 -----------------------------------------------------------------------
  General SCF calculation program by
  Eric Jon Sundstrom, Paul Horn, Yuezhi Mao, Dmitri Zuev, Alec White,
  David Stuck, Shaama M.S., Shane Yost, Joonho Lee, David Small,
  Daniel Levine, Susi Lehtola, Hugh Burton, Evgeny Epifanovsky,
  Bang C. Huynh
 -----------------------------------------------------------------------
Performing Restricted Closed Shell SCFMI
Doing General SCFMI
 Exchange:     0.2000 Hartree-Fock + 0.0800 Slater + 0.7200 B88
 Correlation:  0.1900 VWN1RPA + 0.8100 LYP
 Using Euler-Maclaurin-Lebedev (75,302) quadrature formula
performing fock build before subrot guess so that all methods have access
 using 16 threads for integral computing
 -------------------------------------------------------
 OpenMP Integral computing Module                
 Release: version 1.0, May 2013, Q-Chem Inc. Pittsburgh 
 -------------------------------------------------------
Printing subrot_rss_gen Method Specification:
Occupied Subspace Method is 0
Virtual Subspace Method is 0
Energy prior to optimization (guess energy) = -14234.327340834112
Begin Timing: Total SCF Calculation
begin iterations for algorithm: DIIS         
the SCF tolerance is set to 1.00e-08
    1  -14234.3273408341      3.94e-05     00000 
    2  -14234.3350902578      3.57e-05     00000 
    3  -14234.3373542645      2.35e-05     00000 
    4  -14234.3384752313      7.25e-06     00000 
    5  -14234.3386041423      3.23e-06     00000 
    6  -14234.3386294734      1.95e-06     00000 
    7  -14234.3386376009      1.25e-06     00000 
    8  -14234.3386410666      6.64e-07     00000 
    9  -14234.3386420337      3.74e-07     00000 
   10  -14234.3386422478      2.80e-07     00000 
   11  -14234.3386423779      1.80e-07     00000 
   12  -14234.3386424359      1.05e-07     00000 
   13  -14234.3386424571      5.67e-08     00000 
   14  -14234.3386424631      3.55e-08     00000 
   15  -14234.3386424652      2.44e-08     00000 
   16  -14234.3386424664      1.28e-08     00000 
   17  -14234.3386424668      6.04e-09     00000 Convergence criterion met
write pseudocanon occs and virts to disk
write pseudocanon orbital energies to disk
Timing for Total SCF: 15523.00s (wall), 214224.83s (cpu)
SCFMI Energy  -14234.3386424668
<S^2>            0.00000
 Total energy in the final basis set =   -14234.3386424668
    ==================================================
        The end of Object-Oriented SCFman: SCFMI      
    ==================================================

 --------------------------------------------------------------

                    Orbital Energies (a.u.)
 --------------------------------------------------------------

 Alpha MOs
 -- Occupied --
-89.0312 -89.0276 -89.0220 -89.0218 -89.0206 -89.0194 -89.0179 -89.0172
-89.0162 -89.0072 -89.0066 -89.0054 -89.0052 -89.0019 -88.9980 -88.9947
-88.9937 -88.9928 -88.9863 -88.9761 -88.9746 -88.9697 -88.9621 -88.9544
-88.9493 -19.1440 -19.1428 -19.1402 -19.1388 -19.1326 -19.1313 -19.1270
-19.1258 -19.1251 -19.1236 -19.1225 -19.1213 -19.1192 -19.1167 -19.1147
-19.1124 -19.1068 -19.1036 -19.1027 -19.1002 -19.0935 -19.0863 -19.0846
-19.0776 -19.0694 -19.0628 -14.3435 -10.2828 -10.2507 -10.2457 -10.2449
-10.2419 -10.2407 -10.2392 -10.2387 -10.2363 -10.2355 -10.2353 -10.2344
-10.2337 -10.2315 -10.2313 -10.2306 -10.2302 -10.2300 -10.2289 -10.2249
-10.2231 -10.2227 -10.2225 -10.2221 -10.2178 -10.2161 -10.2153 -10.2150
-10.2150 -10.2142 -10.2141 -10.2137 -10.2124 -10.2111 -10.2103 -10.2098
-10.2094 -10.2067 -10.2056 -10.2037 -10.2037 -10.1964 -10.1964 -10.1935
-10.1916 -10.1852 -10.1819 -10.1786 -10.1775 -10.1764 -10.1753 -10.1748
-10.1729 -10.1708 -10.1706 -10.1679 -10.1664  -8.0781  -8.0735  -8.0681
 -8.0681  -8.0664  -8.0660  -8.0644  -8.0637  -8.0632  -8.0541  -8.0524
 -8.0515  -8.0510  -8.0473  -8.0437  -8.0412  -8.0402  -8.0392  -8.0319
 -8.0225  -8.0204  -8.0154  -8.0078  -8.0002  -7.9956  -6.0423  -6.0411
 -6.0379  -6.0365  -6.0356  -6.0326  -6.0325  -6.0313  -6.0312  -6.0311
 -6.0307  -6.0302  -6.0294  -6.0289  -6.0285  -6.0278  -6.0274  -6.0274
 -6.0267  -6.0260  -6.0255  -6.0254  -6.0241  -6.0237  -6.0219  -6.0214
 -6.0208  -6.0182  -6.0169  -6.0167  -6.0161  -6.0154  -6.0154  -6.0145
 -6.0141  -6.0119  -6.0117  -6.0104  -6.0097  -6.0091  -6.0083  -6.0078
 -6.0068  -6.0054  -6.0048  -6.0046  -6.0041  -6.0035  -6.0033  -6.0023
 -6.0015  -5.9987  -5.9973  -5.9965  -5.9962  -5.9951  -5.9895  -5.9868
 -5.9857  -5.9845  -5.9835  -5.9798  -5.9797  -5.9787  -5.9780  -5.9724
 -5.9722  -5.9710  -5.9651  -5.9647  -5.9633  -5.9600  -5.9588  -5.9576
 -5.9527  -1.0561  -1.0542  -1.0500  -1.0496  -1.0435  -1.0434  -1.0433
 -1.0402  -1.0397  -1.0392  -1.0339  -1.0316  -1.0311  -1.0299  -1.0286
 -1.0257  -1.0190  -1.0184  -1.0166  -1.0082  -1.0008  -0.9960  -0.9924
 -0.9855  -0.9766  -0.9732  -0.9104  -0.8269  -0.8260  -0.8259  -0.8248
 -0.8201  -0.8192  -0.8181  -0.8154  -0.8147  -0.8114  -0.8095  -0.8084
 -0.8047  -0.8046  -0.8028  -0.7984  -0.7937  -0.7936  -0.7913  -0.7889
 -0.7861  -0.7787  -0.7746  -0.7637  -0.7608  -0.7592  -0.7545  -0.7506
 -0.7485  -0.7482  -0.7471  -0.7458  -0.7441  -0.7425  -0.7410  -0.7410
 -0.7378  -0.7353  -0.7336  -0.7314  -0.7294  -0.7273  -0.7254  -0.7230
 -0.7229  -0.7180  -0.7167  -0.7155  -0.7126  -0.6971  -0.6899  -0.6858
 -0.6837  -0.6441  -0.6401  -0.6339  -0.6330  -0.6328  -0.6317  -0.6308
 -0.6289  -0.6268  -0.6253  -0.6210  -0.6170  -0.6164  -0.6162  -0.6152
 -0.6116  -0.6107  -0.6068  -0.6066  -0.6035  -0.5982  -0.5892  -0.5881
 -0.5865  -0.5789  -0.5722  -0.5662  -0.5647  -0.5516  -0.5191  -0.5119
 -0.5111  -0.5070  -0.5055  -0.5051  -0.5029  -0.5016  -0.5003  -0.4985
 -0.4954  -0.4953  -0.4949  -0.4946  -0.4941  -0.4920  -0.4903  -0.4883
 -0.4875  -0.4873  -0.4869  -0.4855  -0.4850  -0.4845  -0.4842  -0.4831
 -0.4826  -0.4821  -0.4821  -0.4813  -0.4812  -0.4807  -0.4788  -0.4787
 -0.4776  -0.4767  -0.4756  -0.4753  -0.4741  -0.4740  -0.4724  -0.4723
 -0.4695  -0.4687  -0.4675  -0.4675  -0.4667  -0.4652  -0.4651  -0.4649
 -0.4643  -0.4636  -0.4620  -0.4603  -0.4597  -0.4594  -0.4591  -0.4580
 -0.4572  -0.4568  -0.4559  -0.4551  -0.4536  -0.4535  -0.4524  -0.4518
 -0.4513  -0.4503  -0.4501  -0.4499  -0.4487  -0.4473  -0.4463  -0.4455
 -0.4438  -0.4433  -0.4431  -0.4421  -0.4418  -0.4406  -0.4398  -0.4397
 -0.4390  -0.4368  -0.4360  -0.4356  -0.4345  -0.4336  -0.4332  -0.4326
 -0.4321  -0.4319  -0.4304  -0.4294  -0.4277  -0.4271  -0.4266  -0.4243
 -0.4242  -0.4238  -0.4234  -0.4228  -0.4224  -0.4218  -0.4216  -0.4200
 -0.4198  -0.4197  -0.4189  -0.4185  -0.4175  -0.4165  -0.4161  -0.4159
 -0.4154  -0.4152  -0.4150  -0.4135  -0.4133  -0.4119  -0.4116  -0.4114
 -0.4099  -0.4098  -0.4094  -0.4078  -0.4074  -0.4069  -0.4032  -0.4027
 -0.4011  -0.4001  -0.3996  -0.3993  -0.3989  -0.3960  -0.3954  -0.3946
 -0.3945  -0.3934  -0.3922  -0.3920  -0.3910  -0.3885  -0.3884  -0.3878
 -0.3876  -0.3874  -0.3871  -0.3862  -0.3848  -0.3839  -0.3836  -0.3831
 -0.3821  -0.3808  -0.3804  -0.3786  -0.3770  -0.3765  -0.3752  -0.3745
 -0.3729  -0.3723  -0.3721  -0.3699  -0.3690  -0.3678  -0.3662  -0.3656
 -0.3627  -0.3606  -0.3596  -0.3595  -0.3572  -0.3525  -0.3524  -0.3510
 -0.3487  -0.3427  -0.3386  -0.3346  -0.3335  -0.3286  -0.3219  -0.3179
 -0.3170  -0.3108  -0.3048  -0.3042  -0.3032  -0.3024  -0.3001  -0.2993
 -0.2920  -0.2896  -0.2875  -0.2835  -0.2834  -0.2811  -0.2808  -0.2794
 -0.2781  -0.2768  -0.2739  -0.2725  -0.2687  -0.2676  -0.2656  -0.2653
 -0.2649  -0.2634  -0.2621  -0.2614  -0.2610  -0.2596  -0.2576  -0.2569
 -0.2545  -0.2542  -0.2513  -0.2487  -0.2476  -0.2474  -0.2461  -0.2458
 -0.2442  -0.2425  -0.2402  -0.2383  -0.2357  -0.2351  -0.2295  -0.2279
 -0.2267  -0.2251  -0.2158  -0.2156  -0.2047  -0.2004  -0.1928  -0.1864
 -- Virtual --
 -0.0389  -0.0340  -0.0324  -0.0296  -0.0288  -0.0281  -0.0262  -0.0252
 -0.0247  -0.0229  -0.0209  -0.0202  -0.0188  -0.0177  -0.0155  -0.0147
 -0.0137  -0.0132  -0.0122  -0.0115  -0.0087  -0.0074  -0.0065  -0.0061
 -0.0057  -0.0046  -0.0028  -0.0024  -0.0015  -0.0004  -0.0003   0.0022
  0.0026   0.0035   0.0042   0.0053   0.0067   0.0069   0.0087   0.0090
  0.0095   0.0101   0.0107   0.0131   0.0136   0.0147   0.0154   0.0154
  0.0168   0.0171   0.0179   0.0184   0.0196   0.0201   0.0212   0.0213
  0.0223   0.0230   0.0235   0.0241   0.0248   0.0255   0.0262   0.0267
  0.0276   0.0287   0.0289   0.0299   0.0311   0.0315   0.0322   0.0335
  0.0343   0.0351   0.0357   0.0360   0.0365   0.0369   0.0376   0.0386
  0.0390   0.0397   0.0400   0.0413   0.0415   0.0421   0.0423   0.0435
  0.0440   0.0445   0.0451   0.0457   0.0470   0.0477   0.0480   0.0483
  0.0494   0.0504   0.0509   0.0514   0.0517   0.0524   0.0534   0.0543
  0.0544   0.0552   0.0567   0.0575   0.0584   0.0591   0.0597   0.0604
  0.0611   0.0622   0.0627   0.0632   0.0639   0.0646   0.0652   0.0654
  0.0658   0.0661   0.0680   0.0682   0.0691   0.0701   0.0705   0.0708
  0.0718   0.0728   0.0732   0.0739   0.0752   0.0755   0.0758   0.0766
  0.0770   0.0780   0.0784   0.0790   0.0796   0.0803   0.0807   0.0816
  0.0821   0.0836   0.0838   0.0849   0.0853   0.0858   0.0865   0.0872
  0.0878   0.0885   0.0890   0.0895   0.0901   0.0908   0.0917   0.0918
  0.0929   0.0934   0.0942   0.0958   0.0962   0.0970   0.0981   0.0988
  0.0993   0.1001   0.1002   0.1007   0.1010   0.1013   0.1024   0.1031
  0.1036   0.1039   0.1053   0.1058   0.1062   0.1071   0.1076   0.1084
  0.1091   0.1104   0.1114   0.1119   0.1121   0.1133   0.1134   0.1142
  0.1148   0.1154   0.1157   0.1172   0.1176   0.1180   0.1189   0.1191
  0.1204   0.1205   0.1210   0.1218   0.1227   0.1232   0.1239   0.1250
  0.1258   0.1268   0.1269   0.1281   0.1284   0.1290   0.1299   0.1300
  0.1310   0.1315   0.1323   0.1325   0.1337   0.1340   0.1347   0.1357
  0.1365   0.1367   0.1372   0.1375   0.1384   0.1390   0.1396   0.1402
  0.1410   0.1411   0.1423   0.1426   0.1434   0.1439   0.1451   0.1454
  0.1468   0.1473   0.1476   0.1485   0.1488   0.1498   0.1499   0.1515
  0.1522   0.1528   0.1535   0.1542   0.1543   0.1552   0.1560   0.1568
  0.1573   0.1575   0.1578   0.1582   0.1585   0.1595   0.1600   0.1603
  0.1614   0.1621   0.1623   0.1627   0.1643   0.1651   0.1653   0.1655
  0.1663   0.1671   0.1684   0.1686   0.1689   0.1695   0.1701   0.1710
  0.1712   0.1724   0.1730   0.1738   0.1742   0.1750   0.1757   0.1763
  0.1767   0.1772   0.1781   0.1792   0.1798   0.1809   0.1817   0.1823
  0.1825   0.1826   0.1830   0.1839   0.1846   0.1851   0.1852   0.1864
  0.1870   0.1872   0.1882   0.1885   0.1894   0.1898   0.1910   0.1913
  0.1918   0.1929   0.1934   0.1940   0.1945   0.1947   0.1958   0.1965
  0.1968   0.1973   0.1981   0.1985   0.1994   0.2000   0.2005   0.2014
  0.2018   0.2030   0.2035   0.2046   0.2050   0.2058   0.2065   0.2068
  0.2083   0.2087   0.2090   0.2091   0.2098   0.2105   0.2106   0.2120
  0.2130   0.2135   0.2138   0.2146   0.2158   0.2159   0.2165   0.2180
  0.2182   0.2187   0.2196   0.2198   0.2201   0.2208   0.2214   0.2220
  0.2223   0.2231   0.2239   0.2255   0.2262   0.2266   0.2271   0.2276
  0.2279   0.2283   0.2289   0.2295   0.2307   0.2320   0.2328   0.2330
  0.2334   0.2341   0.2352   0.2364   0.2367   0.2371   0.2385   0.2390
  0.2399   0.2412   0.2418   0.2430   0.2434   0.2442   0.2445   0.2455
  0.2457   0.2465   0.2470   0.2476   0.2485   0.2504   0.2513   0.2515
  0.2521   0.2527   0.2533   0.2537   0.2540   0.2552   0.2559   0.2566
  0.2569   0.2582   0.2588   0.2592   0.2606   0.2614   0.2623   0.2628
  0.2640   0.2646   0.2654   0.2660   0.2666   0.2675   0.2686   0.2691
  0.2694   0.2703   0.2714   0.2719   0.2722   0.2733   0.2740   0.2752
  0.2759   0.2774   0.2786   0.2791   0.2799   0.2807   0.2809   0.2817
  0.2822   0.2830   0.2843   0.2859   0.2863   0.2875   0.2887   0.2892
  0.2903   0.2909   0.2914   0.2920   0.2922   0.2929   0.2935   0.2947
  0.2960   0.2969   0.2975   0.2979   0.2988   0.3002   0.3010   0.3016
  0.3021   0.3031   0.3044   0.3052   0.3064   0.3068   0.3069   0.3080
  0.3090   0.3100   0.3105   0.3117   0.3123   0.3128   0.3138   0.3143
  0.3159   0.3171   0.3182   0.3185   0.3194   0.3201   0.3210   0.3213
  0.3221   0.3224   0.3234   0.3245   0.3253   0.3258   0.3281   0.3296
  0.3298   0.3309   0.3313   0.3324   0.3334   0.3349   0.3368   0.3374
  0.3381   0.3387   0.3395   0.3402   0.3425   0.3428   0.3436   0.3450
  0.3459   0.3460   0.3476   0.3479   0.3487   0.3492   0.3504   0.3524
  0.3528   0.3534   0.3537   0.3547   0.3554   0.3570   0.3584   0.3599
  0.3606   0.3614   0.3616   0.3631   0.3639   0.3646   0.3659   0.3674
  0.3679   0.3690   0.3694   0.3700   0.3707   0.3714   0.3731   0.3736
  0.3747   0.3756   0.3756   0.3774   0.3779   0.3800   0.3816   0.3831
  0.3832   0.3839   0.3843   0.3856   0.3867   0.3871   0.3882   0.3895
  0.3897   0.3904   0.3924   0.3932   0.3935   0.3947   0.3951   0.3960
  0.3969   0.3981   0.3994   0.4005   0.4006   0.4016   0.4035   0.4037
  0.4040   0.4055   0.4066   0.4068   0.4077   0.4091   0.4107   0.4116
  0.4120   0.4130   0.4137   0.4157   0.4158   0.4173   0.4196   0.4199
  0.4209   0.4210   0.4225   0.4233   0.4244   0.4253   0.4262   0.4286
  0.4291   0.4311   0.4316   0.4322   0.4339   0.4350   0.4364   0.4375
  0.4381   0.4396   0.4411   0.4418   0.4428   0.4435   0.4441   0.4460
  0.4475   0.4487   0.4491   0.4504   0.4513   0.4519   0.4525   0.4547
  0.4551   0.4556   0.4573   0.4594   0.4607   0.4623   0.4639   0.4643
  0.4653   0.4689   0.4691   0.4702   0.4710   0.4720   0.4745   0.4755
  0.4764   0.4788   0.4799   0.4808   0.4815   0.4838   0.4845   0.4859
  0.4880   0.4891   0.4897   0.4910   0.4922   0.4949   0.4953   0.4968
  0.4993   0.5003   0.5014   0.5035   0.5052   0.5085   0.5093   0.5097
  0.5109   0.5130   0.5143   0.5168   0.5181   0.5193   0.5201   0.5219
  0.5241   0.5280   0.5280   0.5311   0.5319   0.5349   0.5365   0.5374
  0.5399   0.5418   0.5440   0.5447   0.5463   0.5475   0.5503   0.5506
  0.5525   0.5555   0.5559   0.5569   0.5577   0.5596   0.5615   0.5646
  0.5670   0.5680   0.5709   0.5713   0.5726   0.5739   0.5753   0.5759
  0.5777   0.5797   0.5811   0.5816   0.5828   0.5846   0.5861   0.5886
  0.5898   0.5903   0.5915   0.5925   0.5959   0.5973   0.5977   0.5992
  0.6008   0.6012   0.6024   0.6038   0.6053   0.6067   0.6086   0.6096
  0.6116   0.6119   0.6134   0.6148   0.6159   0.6166   0.6180   0.6187
  0.6193   0.6223   0.6239   0.6249   0.6260   0.6272   0.6305   0.6310
  0.6321   0.6330   0.6348   0.6371   0.6382   0.6397   0.6408   0.6424
  0.6433   0.6437   0.6455   0.6462   0.6479   0.6491   0.6505   0.6513
  0.6529   0.6533   0.6537   0.6544   0.6549   0.6562   0.6570   0.6589
  0.6601   0.6613   0.6633   0.6634   0.6635   0.6656   0.6665   0.6681
  0.6689   0.6696   0.6714   0.6736   0.6741   0.6753   0.6758   0.6769
  0.6775   0.6793   0.6799   0.6820   0.6829   0.6845   0.6868   0.6883
  0.6896   0.6911   0.6914   0.6922   0.6941   0.6952   0.6960   0.6978
  0.7001   0.7012   0.7023   0.7034   0.7035   0.7048   0.7058   0.7065
  0.7096   0.7105   0.7115   0.7130   0.7143   0.7159   0.7171   0.7177
  0.7189   0.7200   0.7217   0.7233   0.7242   0.7248   0.7262   0.7282
  0.7297   0.7313   0.7330   0.7348   0.7362   0.7368   0.7386   0.7403
  0.7410   0.7420   0.7444   0.7459   0.7481   0.7489   0.7494   0.7507
  0.7541   0.7543   0.7565   0.7586   0.7601   0.7621   0.7628   0.7643
  0.7654   0.7674   0.7692   0.7701   0.7714   0.7744   0.7751   0.7769
  0.7772   0.7800   0.7824   0.7833   0.7867   0.7885   0.7892   0.7904
  0.7915   0.7932   0.7945   0.7961   0.7967   0.7983   0.7998   0.8024
  0.8036   0.8051   0.8064   0.8076   0.8097   0.8110   0.8124   0.8134
  0.8158   0.8165   0.8178   0.8193   0.8218   0.8224   0.8247   0.8258
  0.8272   0.8286   0.8303   0.8323   0.8340   0.8355   0.8375   0.8394
  0.8404   0.8412   0.8421   0.8435   0.8439   0.8451   0.8474   0.8497
  0.8507   0.8516   0.8524   0.8549   0.8553   0.8576   0.8591   0.8608
  0.8615   0.8620   0.8635   0.8647   0.8656   0.8674   0.8682   0.8698
  0.8712   0.8723   0.8745   0.8747   0.8783   0.8784   0.8794   0.8812
  0.8816   0.8823   0.8854   0.8873   0.8883   0.8894   0.8901   0.8918
  0.8937   0.8952   0.8960   0.8977   0.9005   0.9012   0.9023   0.9043
  0.9055   0.9068   0.9079   0.9100   0.9110   0.9120   0.9129   0.9135
  0.9142   0.9161   0.9178   0.9188   0.9214   0.9217   0.9224   0.9244
  0.9249   0.9264   0.9278   0.9287   0.9293   0.9300   0.9326   0.9328
  0.9336   0.9355   0.9377   0.9384   0.9396   0.9416   0.9424   0.9425
  0.9443   0.9454   0.9474   0.9487   0.9490   0.9508   0.9521   0.9530
  0.9544   0.9548   0.9575   0.9590   0.9604   0.9611   0.9624   0.9630
  0.9637   0.9642   0.9662   0.9678   0.9697   0.9706   0.9707   0.9719
  0.9732   0.9733   0.9748   0.9756   0.9772   0.9783   0.9790   0.9809
  0.9820   0.9829   0.9834   0.9851   0.9856   0.9883   0.9889   0.9897
  0.9902   0.9912   0.9936   0.9942   0.9952   0.9965   0.9979   0.9983
  0.9994   1.0012   1.0016   1.0038   1.0045   1.0055   1.0061   1.0080
  1.0085   1.0097   1.0106   1.0118   1.0125   1.0140   1.0152   1.0156
  1.0171   1.0210   1.0216   1.0230   1.0236   1.0239   1.0264   1.0267
  1.0279   1.0297   1.0301   1.0310   1.0315   1.0323   1.0334   1.0366
  1.0385   1.0385   1.0402   1.0410   1.0415   1.0425   1.0451   1.0458
  1.0470   1.0495   1.0503   1.0509   1.0518   1.0541   1.0554   1.0569
  1.0574   1.0583   1.0587   1.0602   1.0638   1.0640   1.0663   1.0674
  1.0693   1.0705   1.0709   1.0727   1.0741   1.0759   1.0768   1.0790
  1.0799   1.0808   1.0817   1.0841   1.0847   1.0878   1.0891   1.0906
  1.0918   1.0927   1.0952   1.0968   1.0980   1.1001   1.1010   1.1021
  1.1040   1.1059   1.1083   1.1091   1.1103   1.1118   1.1131   1.1140
  1.1148   1.1152   1.1180   1.1189   1.1213   1.1223   1.1236   1.1248
  1.1276   1.1291   1.1307   1.1339   1.1347   1.1355   1.1367   1.1391
  1.1402   1.1410   1.1423   1.1443   1.1449   1.1456   1.1472   1.1487
  1.1493   1.1522   1.1544   1.1553   1.1571   1.1578   1.1595   1.1606
  1.1620   1.1634   1.1645   1.1657   1.1669   1.1678   1.1688   1.1706
  1.1719   1.1737   1.1750   1.1760   1.1769   1.1805   1.1813   1.1836
  1.1840   1.1857   1.1870   1.1879   1.1895   1.1901   1.1919   1.1931
  1.1940   1.1959   1.1998   1.2015   1.2024   1.2052   1.2067   1.2082
  1.2096   1.2115   1.2125   1.2149   1.2171   1.2196   1.2197   1.2214
  1.2230   1.2252   1.2254   1.2283   1.2306   1.2317   1.2331   1.2365
  1.2381   1.2397   1.2423   1.2428   1.2475   1.2481   1.2509   1.2553
  1.2571   1.2603   1.2612   1.2631   1.2665   1.2681   1.2700   1.2716
  1.2731   1.2751   1.2763   1.2799   1.2816   1.2854   1.2882   1.2898
  1.2934   1.2973   1.2991   1.2998   1.3020   1.3050   1.3074   1.3109
  1.3127   1.3142   1.3177   1.3193   1.3214   1.3233   1.3277   1.3294
  1.3327   1.3341   1.3376   1.3378   1.3417   1.3432   1.3437   1.3455
  1.3467   1.3519   1.3541   1.3552   1.3587   1.3601   1.3604   1.3617
  1.3628   1.3633   1.3649   1.3677   1.3696   1.3712   1.3724   1.3738
  1.3762   1.3778   1.3785   1.3798   1.3835   1.3843   1.3870   1.3885
  1.3912   1.3934   1.3941   1.3959   1.3974   1.3987   1.3995   1.4001
  1.4019   1.4040   1.4044   1.4062   1.4072   1.4085   1.4102   1.4126
  1.4133   1.4145   1.4162   1.4171   1.4178   1.4199   1.4206   1.4214
  1.4227   1.4251   1.4261   1.4275   1.4297   1.4312   1.4327   1.4332
  1.4348   1.4355   1.4388   1.4403   1.4421   1.4445   1.4452   1.4492
  1.4513   1.4525   1.4546   1.4558   1.4580   1.4592   1.4619   1.4626
  1.4650   1.4666   1.4692   1.4702   1.4725   1.4742   1.4745   1.4755
  1.4775   1.4804   1.4827   1.4831   1.4875   1.4882   1.4904   1.4915
  1.4930   1.4938   1.4959   1.4999   1.5010   1.5045   1.5079   1.5092
  1.5111   1.5126   1.5145   1.5163   1.5177   1.5193   1.5259   1.5282
  1.5300   1.5312   1.5340   1.5381   1.5419   1.5430   1.5447   1.5461
  1.5485   1.5530   1.5567   1.5580   1.5626   1.5640   1.5655   1.5674
  1.5722   1.5782   1.5795   1.5865   1.5889   1.5906   1.5949   1.6009
  1.6034   1.6047   1.6082   1.6180   1.6224   1.6271   1.6313   1.6359
  1.6367   1.6429   1.6464   1.6511   1.6517   1.6533   1.6564   1.6576
  1.6615   1.6621   1.6640   1.6659   1.6703   1.6722   1.6730   1.6741
  1.6750   1.6771   1.6780   1.6794   1.6813   1.6834   1.6842   1.6859
  1.6881   1.6894   1.6905   1.6923   1.6933   1.6947   1.6955   1.6966
  1.6982   1.6985   1.6996   1.7027   1.7035   1.7045   1.7059   1.7062
  1.7076   1.7107   1.7125   1.7131   1.7140   1.7168   1.7189   1.7199
  1.7212   1.7226   1.7242   1.7269   1.7279   1.7283   1.7287   1.7307
  1.7316   1.7345   1.7348   1.7357   1.7383   1.7391   1.7407   1.7435
  1.7437   1.7457   1.7465   1.7488   1.7506   1.7522   1.7525   1.7541
  1.7551   1.7568   1.7599   1.7601   1.7613   1.7637   1.7647   1.7658
  1.7667   1.7675   1.7701   1.7716   1.7745   1.7749   1.7753   1.7781
  1.7788   1.7798   1.7842   1.7874   1.7900   1.7917   1.7926   1.7971
  1.7987   1.8001   1.8031   1.8047   1.8069   1.8085   1.8118   1.8146
  1.8172   1.8193   1.8255   1.8257   1.8299   1.8357   1.8377   1.8393
  1.8415   1.8440   1.8446   1.8463   1.8473   1.8531   1.8548   1.8570
  1.8607   1.8621   1.8647   1.8669   1.8685   1.8694   1.8715   1.8740
  1.8744   1.8759   1.8764   1.8777   1.8828   1.8848   1.8870   1.8877
  1.8887   1.8902   1.8912   1.8921   1.8938   1.8945   1.8960   1.8963
  1.8982   1.8993   1.9009   1.9029   1.9045   1.9053   1.9067   1.9102
  1.9104   1.9120   1.9138   1.9155   1.9157   1.9173   1.9180   1.9203
  1.9208   1.9237   1.9255   1.9261   1.9269   1.9287   1.9306   1.9323
  1.9347   1.9376   1.9381   1.9386   1.9403   1.9438   1.9461   1.9480
  1.9500   1.9514   1.9546   1.9573   1.9624   1.9654   1.9673   1.9693
  1.9754   1.9781   1.9805   1.9924   2.0009   2.0049   2.0073   2.0176
  2.0229   2.0342   2.0364   2.0383   2.0428   2.0470   2.0523   2.0533
  2.0562   2.0576   2.0590   2.0600   2.0621   2.0634   2.0648   2.0664
  2.0672   2.0692   2.0715   2.0720   2.0747   2.0754   2.0770   2.0787
  2.0809   2.0823   2.0865   2.0873   2.0883   2.0899   2.0926   2.0939
  2.0961   2.0972   2.0994   2.0996   2.1014   2.1031   2.1066   2.1078
  2.1110   2.1116   2.1147   2.1168   2.1179   2.1210   2.1236   2.1277
  2.1300   2.1323   2.1325   2.1357   2.1390   2.1417   2.1440   2.1456
  2.1537   2.1599   2.1609   2.1657   2.1714   2.1723   2.1754   2.1772
  2.1815   2.1817   2.1853   2.1878   2.1917   2.1932   2.1948   2.1967
  2.2007   2.2034   2.2069   2.2093   2.2109   2.2128   2.2154   2.2156
  2.2167   2.2187   2.2194   2.2197   2.2222   2.2237   2.2259   2.2269
  2.2284   2.2298   2.2308   2.2317   2.2319   2.2332   2.2343   2.2357
  2.2373   2.2381   2.2395   2.2407   2.2421   2.2424   2.2431   2.2437
  2.2447   2.2469   2.2477   2.2491   2.2494   2.2507   2.2521   2.2532
  2.2555   2.2570   2.2575   2.2591   2.2604   2.2623   2.2632   2.2638
  2.2646   2.2651   2.2659   2.2662   2.2671   2.2678   2.2688   2.2700
  2.2707   2.2715   2.2726   2.2732   2.2747   2.2758   2.2764   2.2772
  2.2784   2.2794   2.2808   2.2819   2.2831   2.2836   2.2855   2.2859
  2.2870   2.2878   2.2891   2.2893   2.2902   2.2919   2.2937   2.2948
  2.2957   2.2974   2.2987   2.2992   2.3001   2.3002   2.3012   2.3015
  2.3037   2.3046   2.3059   2.3070   2.3096   2.3105   2.3123   2.3138
  2.3151   2.3158   2.3174   2.3183   2.3189   2.3209   2.3210   2.3229
  2.3246   2.3258   2.3280   2.3283   2.3297   2.3308   2.3321   2.3339
  2.3358   2.3384   2.3401   2.3418   2.3444   2.3462   2.3467   2.3478
  2.3487   2.3505   2.3527   2.3542   2.3568   2.3576   2.3581   2.3597
  2.3611   2.3634   2.3658   2.3667   2.3725   2.3746   2.3757   2.3783
  2.3826   2.3857   2.3917   2.3934   2.3957   2.3998   2.4030   2.4111
  2.4220   2.4411   2.4663   2.4891   2.5238   2.5640   2.6061   2.6686
  2.7633   2.7838   2.8088   2.8128   2.8155   2.8184   2.8269   2.8286
  2.8322   2.8329   2.8335   2.8364   2.8389   2.8406   2.8416   2.8463
  2.8508   2.8525   2.8594   2.8632   2.8659   2.8680   2.8707   2.8746
  2.8754   2.8806   2.8873   2.8895   2.8898   2.8949   2.8992   2.9122
  2.9258   3.1291   3.2597   3.9316   3.9479   3.9517   3.9564   3.9590
  3.9629   3.9679   3.9724   3.9735   3.9809   3.9836   3.9869   3.9902
  3.9909   3.9924   4.0010   4.0068   4.0090   4.0103   4.0124   4.0177
  4.0186   4.0233   4.0280   4.0378   4.2114   4.2146   4.2238   4.2299
  4.2341   4.2369   4.2437   4.2446   4.2458   4.2493   4.2555   4.2594
  4.2596   4.2612   4.2654   4.2677   4.2690   4.2710   4.2743   4.2767
  4.2798   4.2811   4.2828   4.2847   4.2864   4.2871   4.2903   4.2917
  4.2966   4.2994   4.3017   4.3026   4.3051   4.3100   4.3134   4.3185
  4.3206   4.3232   4.3244   4.3307   4.3315   4.3344   4.3350   4.3403
  4.3426   4.3444   4.3490   4.3494   4.3548   4.3572   4.3603   4.3607
  4.3659   4.3674   4.3720   4.3733   4.3772   4.3837   4.3866   4.3897
  4.3930   4.3965   4.3993   4.4054   4.4094   4.4159   4.4218   4.4325
  4.4508   4.4613   4.4732   4.4878   4.4992   4.5057   4.5263   4.5529
  4.5853   4.6057   4.6262   4.6826   4.7069   4.7182   4.7913   4.9163
 --------------------------------------------------------------

          Ground-State Mulliken Net Atomic Charges

     Atom                 Charge (a.u.)
  ----------------------------------------
      1 C                    -0.455900
      2 C                    -0.123383
      3 C                    -0.182111
      4 C                    -0.595014
      5 C                    -0.483812
      6 C                    -0.477773
      7 H                     0.188092
      8 H                     0.239041
      9 H                     0.200586
     10 H                     0.182843
     11 H                     0.210589
     12 H                     0.192142
     13 H                     0.215501
     14 H                     0.243608
     15 H                     0.187433
     16 H                     0.200356
     17 H                     0.195398
     18 N                    -0.350717
     19 H                     0.463762
     20 C                     0.325705
     21 H                     0.176583
     22 O                    -0.552928
     23 C                    -0.769157
     24 H                     0.239824
     25 H                     0.297413
     26 H                     0.239183
     27 S                     0.760874
     28 C                    -0.801893
     29 H                     0.242524
     30 H                     0.266668
     31 H                     0.307855
     32 O                    -0.655841
     33 C                    -0.900778
     34 H                     0.274578
     35 H                     0.269290
     36 H                     0.277649
     37 S                     0.794194
     38 C                    -0.798629
     39 H                     0.259746
     40 H                     0.247975
     41 H                     0.250364
     42 O                    -0.752059
     43 C                    -0.618788
     44 H                     0.238398
     45 H                     0.252062
     46 H                     0.269986
     47 S                     0.514449
     48 C                    -0.740018
     49 H                     0.243050
     50 H                     0.294547
     51 H                     0.256222
     52 O                    -0.687417
     53 C                    -1.180225
     54 H                     0.274095
     55 H                     0.233874
     56 H                     0.313189
     57 S                     1.175334
     58 C                    -0.821324
     59 H                     0.259475
     60 H                     0.235480
     61 H                     0.248996
     62 O                    -0.770614
     63 C                    -0.908548
     64 H                     0.235665
     65 H                     0.273094
     66 H                     0.289106
     67 S                     1.031383
     68 C                    -0.827109
     69 H                     0.250578
     70 H                     0.255656
     71 H                     0.233206
     72 O                    -0.786104
     73 C                    -0.842292
     74 H                     0.228456
     75 H                     0.259500
     76 H                     0.275952
     77 S                     0.962712
     78 C                    -0.778858
     79 H                     0.231516
     80 H                     0.296909
     81 H                     0.258345
     82 O                    -0.702220
     83 C                    -0.838893
     84 H                     0.270949
     85 H                     0.247652
     86 H                     0.267829
     87 S                     0.854238
     88 C                    -0.879213
     89 H                     0.246202
     90 H                     0.262138
     91 H                     0.261087
     92 O                    -0.681740
     93 C                    -0.835758
     94 H                     0.247235
     95 H                     0.226180
     96 H                     0.266370
     97 S                     0.856180
     98 C                    -0.901328
     99 H                     0.265433
    100 H                     0.274882
    101 H                     0.279066
    102 O                    -0.653388
    103 C                    -0.875886
    104 H                     0.262809
    105 H                     0.268687
    106 H                     0.250161
    107 S                     0.827073
    108 C                    -0.668701
    109 H                     0.249500
    110 H                     0.256296
    111 H                     0.248638
    112 O                    -0.781676
    113 C                    -0.863605
    114 H                     0.226000
    115 H                     0.239850
    116 H                     0.272938
    117 S                     0.952017
    118 C                    -0.879746
    119 H                     0.296129
    120 H                     0.235867
    121 H                     0.231587
    122 O                    -0.720640
    123 C                    -0.747969
    124 H                     0.248585
    125 H                     0.257815
    126 H                     0.246236
    127 S                     0.839739
    128 C                    -0.845621
    129 H                     0.274532
    130 H                     0.262510
    131 H                     0.243243
    132 O                    -0.790332
    133 C                    -0.947340
    134 H                     0.297019
    135 H                     0.253963
    136 H                     0.223243
    137 S                     1.002530
    138 C                    -0.902572
    139 H                     0.236921
    140 H                     0.261498
    141 H                     0.270459
    142 O                    -0.714522
    143 C                    -1.107211
    144 H                     0.279496
    145 H                     0.218264
    146 H                     0.259621
    147 S                     1.379141
    148 C                    -1.091634
    149 H                     0.250857
    150 H                     0.252607
    151 H                     0.305939
    152 O                    -0.726534
    153 C                    -0.921974
    154 H                     0.313441
    155 H                     0.242291
    156 H                     0.263016
    157 S                     1.077929
    158 C                    -1.009313
    159 H                     0.265978
    160 H                     0.244004
    161 H                     0.256130
    162 O                    -0.655729
    163 C                    -0.758541
    164 H                     0.255545
    165 H                     0.263284
    166 H                     0.246336
    167 S                     0.428766
    168 C                    -0.606707
    169 H                     0.303893
    170 H                     0.243412
    171 H                     0.231041
    172 O                    -0.645945
    173 C                    -0.943649
    174 H                     0.251350
    175 H                     0.279543
    176 H                     0.236367
    177 S                     1.020595
    178 C                    -0.942003
    179 H                     0.290429
    180 H                     0.247336
    181 H                     0.253133
    182 O                    -0.682675
    183 C                    -1.178844
    184 H                     0.298040
    185 H                     0.269428
    186 H                     0.245281
    187 S                     1.207592
    188 C                    -1.008044
    189 H                     0.233150
    190 H                     0.294309
    191 H                     0.283406
    192 O                    -0.718026
    193 C                    -0.850459
    194 H                     0.215143
    195 H                     0.246481
    196 H                     0.271505
    197 S                     1.061079
    198 C                    -0.956750
    199 H                     0.252792
    200 H                     0.234843
    201 H                     0.228106
    202 O                    -0.689447
    203 C                    -0.770894
    204 H                     0.241295
    205 H                     0.259742
    206 H                     0.233228
    207 S                     0.674051
    208 C                    -0.834167
    209 H                     0.243304
    210 H                     0.280162
    211 H                     0.274821
    212 O                    -0.762349
    213 C                    -1.048359
    214 H                     0.322394
    215 H                     0.317776
    216 H                     0.253584
    217 S                     0.688548
    218 C                    -0.792970
    219 H                     0.286474
    220 H                     0.233634
    221 H                     0.240931
    222 O                    -0.605486
    223 C                    -0.796866
    224 H                     0.237259
    225 H                     0.261075
    226 H                     0.265443
    227 S                     0.604732
    228 C                    -0.796349
    229 H                     0.259880
    230 H                     0.272780
    231 H                     0.231589
    232 O                    -0.584649
    233 C                    -0.791728
    234 H                     0.229275
    235 H                     0.254396
    236 H                     0.260926
    237 S                     0.690493
    238 C                    -0.879255
    239 H                     0.259846
    240 H                     0.258262
    241 H                     0.257330
    242 O                    -0.580717
    243 C                    -0.897727
    244 H                     0.296139
    245 H                     0.261732
    246 H                     0.249922
    247 S                     0.952296
    248 C                    -0.864223
    249 H                     0.286673
    250 H                     0.245319
    251 H                     0.248964
    252 O                    -0.755699
    253 C                    -0.854634
    254 H                     0.277831
    255 H                     0.240848
    256 H                     0.229355
    257 S                     0.917170
    258 C                    -0.839549
    259 H                     0.243718
    260 H                     0.242416
    261 H                     0.260316
    262 O                    -0.749037
    263 C                    -0.853407
    264 H                     0.240781
    265 H                     0.252692
    266 H                     0.272468
    267 S                     1.051687
    268 C                    -0.838672
    269 H                     0.251842
    270 H                     0.239961
    271 H                     0.255543
    272 O                    -0.831437
  ----------------------------------------
  Sum of atomic charges =     0.000000

 -----------------------------------------------------------------
                    Cartesian Multipole Moments
 -----------------------------------------------------------------
    Charge (ESU x 10^10)
                 0.0000
    Dipole Moment (Debye)
         X      29.3300      Y      14.3423      Z       6.2187
       Tot      33.2358
    Quadrupole Moments (Debye-Ang)
        XX     645.9917     XY    1233.9457     YY     -91.9206
        XZ     909.0394     YZ     626.1286     ZZ    -419.8300
    Octopole Moments (Debye-Ang^2)
       XXX  -13766.5304    XXY   29485.9459    XYY   21104.3317
       YYY  -41692.3022    XXZ   20063.5417    XYZ   37820.1573
       YYZ    7085.2501    XZZ    6571.6440    YZZ    2065.5676
       ZZZ  -44765.2809
    Hexadecapole Moments (Debye-Ang^3)
      XXXX ************   XXXY  -89719.7666   XXYY  410995.1767
      XYYY -502022.5104   YYYY ************   XXXZ -295764.1043
      XXYZ  885904.1874   XYYZ  759650.1607   YYYZ -747239.0177
      XXZZ   -4826.4941   XYZZ  544438.4706   YYZZ -182088.4253
      XZZZ -803050.4579   YZZZ -846561.5231   ZZZZ ************
 -----------------------------------------------------------------
 Total job time:  30246.79s(wall), 236900.45s(cpu) 
 Thu Jul 21 17:41:42 2022

        *************************************************************
        *                                                           *
        *  Thank you very much for using Q-Chem.  Have a nice day.  *
        *                                                           *
        *************************************************************


 
User input: 2 of 2 
 
                  Welcome to Q-Chem
     A Quantum Leap Into The Future Of Chemistry


 Q-Chem 6.0 (devel), Q-Chem, Inc., Pleasanton, CA (2022)

 E. Epifanovsky,  A. T. B. Gilbert,  Xintian Feng,  Joonho Lee,  Yuezhi Mao,  
 N. Mardirossian,  P. Pokhilko,  A. White,  M. Wormit,  M. P. Coons,  
 A. L. Dempwolff,  Zhengting Gan,  D. Hait,  P. R. Horn,  L. D. Jacobson,  
 I. Kaliman,  J. Kussmann,  A. W. Lange,  Ka Un Lao,  D. S. Levine,  Jie Liu,  
 S. C. McKenzie,  A. F. Morrison,  K. Nanda,  F. Plasser,  D. R. Rehn,  
 M. L. Vidal,  Zhi-Qiang You,  Ying Zhu,  B. Alam,  B. Albrecht,  
 A. Aldossary,  E. Alguire,  J. H. Andersen,  V. Athavale,  D. Barton,  
 K. Begam,  A. Behn,  N. Bellonzi,  Y. A. Bernard,  E. J. Berquist,  
 H. Burton,  A. Carreras,  K. Carter-Fenk,  Romit Chakraborty,  
 Chandrima Chakravarty,  Junhan Chen,  A. D. Chien,  K. D. Closser,  
 V. Cofer-Shabica,  L. Cunha,  S. Dasgupta,  Jia Deng,  M. de Wergifosse,  
 M. Diedenhofen,  Hainam Do,  S. Ehlert,  Po-Tung Fang,  S. Fatehi,  
 Qingguo Feng,  T. Friedhoff,  B. Ganoe,  J. Gayvert,  Qinghui Ge,  
 G. Gidofalvi,  M. Goldey,  J. Gomes,  C. Gonzalez-Espinoza,  S. Gulania,  
 A. Gunina,  J. A. Gyamfi,  M. W. D. Hanson-Heine,  P. H. P. Harbach,  
 A. W. Hauser,  M. F. Herbst,  M. Hernandez Vera,  M. Hodecker,  
 Z. C. Holden,  S. Houck,  Xunkun Huang,  Kerwin Hui,  B. C. Huynh,  
 K. Ikeda,  M. Ivanov,  Hyunjun Ji,  Zuxin Jin,  Hanjie Jiang,  B. Kaduk,  
 S. Kaehler,  R. Kang,  K. Khistyaev,  Jaehoon Kim,  Yongbin Kim,  
 P. Klunzinger,  Z. Koczor-Benda,  Joong Hoon Koh,  D. Kosenkov,  
 Saikiran Kotaru,  L. Koulias,  T. Kowalczyk,  C. M. Krauter,  K. Kue,  
 A. Kunitsa,  T. Kus,  A. Landau,  K. V. Lawler,  D. Lefrancois,  S. Lehtola,  
 Rain Li,  Shaozhi Li,  Yi-Pei Li,  Jiashu Liang,  M. Liebenthal,  
 Hung-Hsuan Lin,  You-Sheng Lin,  Fenglai Liu,  Kuan-Yu Liu,  
 M. Loipersberger,  A. Luenser,  C. Malbon,  A. Manjanath,  P. Manohar,  
 E. Mansoor,  S. F. Manzer,  Shan-Ping Mao,  A. V. Marenich,  T. Markovich,  
 S. Mason,  F. Matz,  S. A. Maurer,  P. F. McLaughlin,  M. F. S. J. Menger,  
 J.-M. Mewes,  S. A. Mewes,  P. Morgante,  Mohammad Mostafanejad,  
 J. W. Mullinax,  K. J. Oosterbaan,  G. Paran,  V. Parravicini,  
 Alexander C. Paul,  Suranjan K. Paul,  F. Pavosevic,  Zheng Pei,  S. Prager,  
 E. I. Proynov,  E. Ramos,  B. Rana,  A. E. Rask,  A. Rettig,  R. M. Richard,  
 F. Rob,  E. Rossomme,  T. Scheele,  M. Scheurer,  M. Schneider,  
 P. E. Schneider,  N. Sergueev,  S. M. Sharada,  Hengyuan Shen,  
 W. Skomorowski,  D. W. Small,  C. J. Stein,  Yingli Su,  Yu-Chuan Su,  
 E. J. Sundstrom,  Zhen Tao,  J. Thirman,  Hung-Yi Tsai,  T. Tsuchimochi,  
 N. M. Tubman,  C. Utku,  S. P. Veccham,  O. Vydrov,  J. Wenzel,  
 Jonathan Wong,  J. Witte,  A. Yamada,  Chou-Hsun Yang,  Kun Yao,  
 S. Yeganeh,  S. R. Yost,  A. Zech,  F. Zeller,  Igor Ying Zhang,  
 Xing Zhang,  Yu Zhang,  D. Zuev,  A. Aspuru-Guzik,  A. T. Bell,  
 N. A. Besley,  K. B. Bravaya,  B. R. Brooks,  D. Casanova,  Jeng-Da Chai,  
 Hsing-Ta Chen,  S. Coriani,  C. J. Cramer,  A. E. DePrince, III,  
 R. A. DiStasio Jr.,  A. Dreuw,  B. D. Dunietz,  T. R. Furlani,  
 W. A. Goddard III,  S. Grimme,  S. Hammes-Schiffer,  T. Head-Gordon,  
 W. J. Hehre,  Chao-Ping Hsu,  T.-C. Jagau,  Yousung Jung,  A. Klamt,  
 Jing Kong,  D. S. Lambrecht,  Xiangyuan Li,  WanZhen Liang,  N. J. Mayhall,  
 C. W. McCurdy,  J. B. Neaton,  T. Neudecker,  C. Ochsenfeld,  
 J. A. Parkhill,  R. Peverati,  V. A. Rassolov,  Haisheng Ren,  Yihan Shao,  
 L. V. Slipchenko,  R. P. Steele,  J. E. Subotnik,  A. J. W. Thom,  
 A. Tkatchenko,  D. G. Truhlar,  T. Van Voorhis,  Fan Wang,  
 T. A. Wesolowski,  K. B. Whaley,  H. L. Woodcock III,  P. M. Zimmerman,  
 S. Faraji,  P. M. W. Gill,  M. Head-Gordon,  J. M. Herbert,  A. I. Krylov

 Contributors to earlier versions of Q-Chem not listed above: 
 R. D. Adamson,  B. Austin,  R. Baer,  J. Baker,  G. J. O. Beran,  
 K. Brandhorst,  S. T. Brown,  E. F. C. Byrd,  Arup K. Chakraborty,  
 G. K. L. Chan,  Chun-Min Chang,  Yunqing Chen,  C.-L. Cheng,  
 Siu Hung Chien,  D. M. Chipman,  D. L. Crittenden,  H. Dachsel,  
 R. J. Doerksen,  A. D. Dutoi,  R. G. Edgar,  J. Fosso-Tande,  
 L. Fusti-Molnar,  D. Ghosh,  A. Ghysels,  A. Golubeva-Zadorozhnaya,  
 J. Gonthier,  M. S. Gordon,  S. R. Gwaltney,  G. Hawkins,  J. E. Herr,  
 A. Heyden,  S. Hirata,  E. G. Hohenstein,  G. Kedziora,  F. J. Keil,  
 C. Kelley,  Jihan Kim,  R. A. King,  R. Z. Khaliullin,  P. P. Korambath,  
 W. Kurlancheek,  A. Laurent,  A. M. Lee,  M. S. Lee,  S. V. Levchenko,  
 Ching Yeh Lin,  D. Liotard,  E. Livshits,  R. C. Lochan,  I. Lotan,  
 L. A. Martinez-Martinez,  P. E. Maslen,  N. Nair,  D. P. O'Neill,  
 D. Neuhauser,  E. Neuscamman,  C. M. Oana,  R. Olivares-Amaya,  R. Olson,  
 T. M. Perrine,  B. Peters,  P. A. Pieniazek,  A. Prociuk,  Y. M. Rhee,  
 J. Ritchie,  M. A. Rohrdanz,  E. Rosta,  N. J. Russ,  H. F. Schaefer III,  
 M. W. Schmidt,  N. E. Schultz,  S. Sharma,  N. Shenvi,  C. D. Sherrill,  
 A. C. Simmonett,  A. Sodt,  T. Stein,  D. Stuck,  K. S. Thanthiriwatte,  
[...]
    2  -0.9957650  -2.5916401  -0.7829876   0.3623042   0.3526301  -1.0501390
    3  -3.3696708  -2.3650401  -3.9532102  -3.5680447  -1.7514041  -0.6775619
          169         170         171         172         173         174
    1   1.1437665   2.2312557   3.3639687  -1.0976211   3.4316376   3.2399589
    2  -0.4677747  -2.8221114  -0.1152257  -1.6277261  -1.0423483  -2.5618896
    3   1.0358194  -1.3890799  -1.8284193  -0.1465874  -0.7308683  -1.6673813
          175         176         177         178         179         180
    1   2.7276396   4.1409159   1.3064779   1.7278965   1.9551806  -0.3683295
    2   0.2104102  -0.8473316  -0.9103554   0.1828841   1.3350657  -0.4325529
    3  -1.6189628   1.1967936  -0.6702089   1.1056373   0.2682236   1.2166117
          181         182         183         184         185         186
    1   3.4086140   1.6626607  -0.0428151   0.1373053  -0.0936465   0.1000876
    2  -0.8364208  -3.5378333   0.4543555   1.4752640   0.5608148  -1.4835638
    3   1.9650086   1.1222661  -0.0822596  -1.2639030   1.5329467  -0.5692240
          187         188         189         190         191         192
    1  -2.4142503  -2.6206648  -0.4607164  -3.8077815  -3.4013391  -2.2625406
    2   1.2673192  -0.6667813  -1.2686652   0.3116752  -1.2183363   0.0262473
    3  -0.3658867   0.3835614   0.7050574   1.4012048  -1.0774925  -3.2964392
          193         194         195         196         197         198
    1  -0.6929666  -1.2832244  -1.7635403   0.9301010  -1.4035023  -0.9164784
    2   1.1244686   2.3423250  -0.2384425   1.2306687   1.6748915   3.5471625
    3   1.2567213   2.5102174   0.9718893   0.3982217  -0.8902777  -0.1355657
          199         200         201         202         203         204
    1  -2.1434987  -1.4189641   0.8306532  -4.1727198   2.2135053   1.5835612
    2   3.7488716   3.2876233   3.1353322   1.5141624   0.9438110  -0.3935786
    3  -1.4462991   1.9855278  -0.5780466   0.5120695  -2.2161146  -1.7050492
          205         206         207         208         209         210
    1   0.8901847   3.7525113   1.7957654   1.7988560   3.6815111   0.4010536
    2   1.9820712   1.5228587   2.7243082   1.2134488   1.2336929   2.5376213
    3  -3.6163803  -1.2687961  -0.5923261   0.4131308   0.6382309   1.3513265
          211         212         213         214         215         216
    1   0.8434778  -1.2857356  -1.2480914  -1.4014742  -0.2217054  -1.9965538
    2  -0.0537887   2.2089742   0.6344176   1.9608573   0.9951800  -0.8095826
    3  -1.1056935  -1.9517063   1.0527186   2.0320170  -0.8725648   1.9553566
          217         218         219         220         221         222
    1   0.3977242  -0.3297621  -0.6214852  -1.8435921   1.3047958   2.0370598
    2  -0.0686731   0.5571223   2.3910077  -0.8822098  -0.1810580   2.8730308
    3   1.7283471   3.7574651   3.3673213   3.3390425   4.1975953   1.4651649
          223         224         225         226         227         228
    1  -2.4176399  -1.2832348  -3.6993561  -2.0395905  -0.2294391  -1.0403332
    2  -1.9842027  -3.4336431  -1.8160370  -0.3126976  -2.2238664  -3.2457572
    3  -2.0558433  -2.5498820  -0.5887762  -3.1160343  -1.2890323   0.2433020
          229         230         231         232         233         234
    1   0.8429636  -2.8794434  -1.0260240  -1.6020759  -0.7798614  -1.5127979
    2  -3.1329627  -2.3341779  -4.2671953   0.2099104  -0.2221064   1.4345737
    3   0.9717987   0.7302570  -1.1082807   0.3412655   3.5042327   2.5058878
          235         236         237         238         239         240
    1  -2.0856052   1.1002137   0.3045148   1.1176569   2.2218384   1.2487854
    2  -1.3316784  -0.2980396  -1.1579283   0.7337900   0.0984775   0.0060624
    3   3.5977360   3.9087663   1.4490048   0.5223935   1.7800737  -1.4522089
          241         242         243         244         245         246
    1  -0.2375757  -1.9608991   1.2475731  -0.1224754   2.5591269   1.1119262
    2   1.7827562   0.1710834  -0.0007191   0.8501772  -1.3242758   0.2044590
    3   0.6941049  -0.3282186  -1.9239915  -0.9010410  -1.2638581  -4.0587636
          247         248         249         250         251         252
    1   0.0398418   0.9706484   2.2463307  -0.6762553   1.3329720  -1.7439955
    2  -1.5759330  -2.6331824  -2.7431419  -3.7241719  -1.2994755  -0.3428460
    3  -1.1599032  -2.5325699  -1.1044292  -2.1019446  -3.9161948  -3.7680242
          253         254         255         256         257         258
    1   2.4309854   0.7528255   3.5961426   2.9782914   0.9744121   1.3302859
    2   1.9177924   2.5450467   2.1497426   0.8000597   0.0864737   0.8635726
    3   0.4070326   0.8478251   1.9884330  -1.0364344   1.0955855   3.3112414
          259         260         261         262         263         264
    1   0.2392766   0.5420966   3.0840939   3.9427337  -2.5325212  -3.2498783
    2   1.8487283  -1.0676516   1.3965016  -1.0621202   0.6914719   0.8623185
    3   2.9206836   3.9147570   3.1391544   1.4581242   1.2468052   2.6193137
          265         266         267         268         269         270
    1  -2.5255697  -1.5305273  -0.8693482  -0.7138953  -1.4158168  -2.0335242
    2   2.1099786  -0.8827225   1.4635021   3.1334983   2.5805877   3.1975515
    3  -0.3396863   1.2471947   2.8408119   1.0256476  -0.7759621   2.0966192
          271         272
    1   1.3070072   0.9414079
    2   3.2965175   0.3840317
    3   1.5169291   0.7243513
 EField
            1           2           3           4           5           6
    1  -0.0057144  -0.0009555   0.0048408   0.0031405  -0.0013136  -0.0055304
    2  -0.0002545  -0.0012951  -0.0009931  -0.0003883   0.0012163  -0.0001440
    3  -0.0072581  -0.0077409  -0.0029975  -0.0002795  -0.0041874  -0.0052330
            7           8           9          10          11          12
    1   0.0071409  -0.0035428  -0.0081418  -0.0050121   0.0055481   0.0052046
    2  -0.0039935  -0.0114875   0.0024040  -0.0035729   0.0015688  -0.0007079
    3  -0.0036858  -0.0015972  -0.0033922  -0.0103299   0.0043356  -0.0017193
           13          14          15          16          17          18
    1  -0.0034798   0.0023740  -0.0097397  -0.0039742   0.0078635   0.0022678
    2  -0.0001548   0.0039359  -0.0009735   0.0000842   0.0028411   0.0019514
    3  -0.0020683  -0.0125795  -0.0064806  -0.0052160  -0.0010246  -0.0205950
           19          20          21          22          23          24
    1  -0.0062329   0.0061223   0.0155986   0.0046464  -0.0079511  -0.0266332
    2   0.0064137  -0.0028175  -0.0085332  -0.0029873   0.0035863   0.0016805
    3  -0.0320860  -0.0185855  -0.0178889  -0.0160476   0.0026097  -0.0242507
           25          26          27          28          29          30
    1  -0.0194582   0.0173110   0.0313412  -0.0083426  -0.0199618   0.0189804
    2   0.0119900   0.0236422  -0.0130566  -0.0052264  -0.0112429  -0.0260651
    3   0.0208287   0.0041304  -0.0400217   0.0054159  -0.0245907   0.0109518
           31          32          33          34          35          36
    1  -0.0177161   0.0425712  -0.0089333  -0.0034723  -0.0279018   0.0102983
    2   0.0128835   0.0165528   0.0041338  -0.0176206   0.0135924   0.0218349
    3   0.0227908   0.1169580  -0.0105489  -0.0253230   0.0168476  -0.0196043
           37          38          39          40          41          42
    1   0.0200191   0.0030366  -0.0092698   0.0151338   0.0196174  -0.0603385
    2   0.0342900  -0.0012106  -0.0201877   0.0236420  -0.0228549  -0.0895930
    3   0.0350955  -0.0064133  -0.0223975  -0.0205655   0.0091445   0.0190430
           43          44          45          46          47          48
    1   0.0076705   0.0055351  -0.0026035   0.0278962   0.0250642   0.0001357
    2   0.0004978   0.0315903  -0.0175000  -0.0106711  -0.0543739   0.0088419
    3   0.0022439   0.0140529   0.0206427  -0.0048112  -0.0295804  -0.0015020
           49          50          51          52          53          54
    1  -0.0107132   0.0305283  -0.0195553  -0.0929191  -0.0100807   0.0189665
    2   0.0346857   0.0105649  -0.0100823  -0.0047749   0.0008538   0.0032980
    3   0.0127644  -0.0087949  -0.0238949   0.0515794   0.0103324   0.0185593
           55          56          57          58          59          60
    1  -0.0337443  -0.0232959   0.0071513  -0.0034172  -0.0098504  -0.0373497
    2   0.0239702  -0.0223553   0.0421972  -0.0058502  -0.0245751   0.0003345
    3   0.0161984   0.0134009  -0.0193414   0.0016156   0.0209155  -0.0029412
           61          62          63          64          65          66
    1   0.0030773   0.0743308  -0.0003179   0.0290191  -0.0231654   0.0019781
    2  -0.0035149  -0.0706842  -0.0092090  -0.0206320  -0.0064137  -0.0111739
    3  -0.0311265   0.0386528  -0.0023360   0.0028093   0.0217329  -0.0326770
           67          68          69          70          71          72
    1   0.0269325   0.0049812  -0.0035885  -0.0201567   0.0351412  -0.1059834
    2   0.0266320  -0.0009367   0.0255352  -0.0183861  -0.0055691   0.0040483
    3  -0.0297031   0.0068160   0.0133555   0.0140593   0.0112522   0.0276609
           73          74          75          76          77          78
    1  -0.0048305   0.0246044  -0.0225140  -0.0057810   0.0525524  -0.0048336
    2  -0.0036971  -0.0140147  -0.0017787  -0.0315097   0.0009877   0.0078450
    3   0.0011213   0.0152512   0.0193600  -0.0145379  -0.0255663   0.0037096
           79          80          81          82          83          84
    1   0.0221080   0.0004074  -0.0223337  -0.0971611   0.0028752   0.0146275
    2   0.0075112   0.0270182  -0.0027453  -0.0057428  -0.0118875  -0.0098996
    3   0.0251377  -0.0147004   0.0180570  -0.0643508   0.0001143  -0.0303062
           85          86          87          88          89          90
    1   0.0142815  -0.0193153   0.0324987  -0.0017935  -0.0171097  -0.0144988
    2   0.0132369  -0.0247296   0.0439621   0.0015193   0.0210555  -0.0254336
    3   0.0272561   0.0144900  -0.0270392   0.0083972  -0.0030467   0.0146925
           91          92          93          94          95          96
    1   0.0193707  -0.0948135  -0.0029731  -0.0189615   0.0267135  -0.0290465
    2   0.0244577  -0.0341689   0.0048934  -0.0124122   0.0209902   0.0101971
    3   0.0196631  -0.0427918   0.0022521   0.0236980   0.0048080  -0.0131066
           97          98          99         100         101         102
    1   0.0450453   0.0024715  -0.0202705   0.0346754   0.0206554  -0.0896827
    2  -0.0269582   0.0041933   0.0134943   0.0259107  -0.0078172  -0.0543834
    3   0.0231369  -0.0042895  -0.0242339  -0.0089806  -0.0402910  -0.0352824
          103         104         105         106         107         108
    1  -0.0091681  -0.0098810  -0.0235752  -0.0068963   0.0128370  -0.0016091
    2   0.0035060  -0.0259287   0.0037947   0.0272069  -0.0289240   0.0084666
    3   0.0013220  -0.0105674   0.0266513  -0.0121420   0.0392770   0.0012584
          109         110         111         112         113         114
    1   0.0301769  -0.0093789  -0.0151175   0.0175140  -0.0049726   0.0057914
    2   0.0012434   0.0256165   0.0243984  -0.0212629   0.0041138  -0.0172191
    3  -0.0089794  -0.0190935   0.0276665  -0.1064269  -0.0038506  -0.0343698
          115         116         117         118         119         120
    1  -0.0222100  -0.0140652   0.0024575   0.0055829   0.0298006   0.0018131
    2  -0.0155118   0.0319819   0.0235612   0.0042931   0.0034463  -0.0138312
    3   0.0126778   0.0185969   0.0545917  -0.0052249   0.0076709  -0.0240757
          121         122         123         124         125         126
    1  -0.0034890   0.0367444   0.0007508   0.0337723  -0.0244843   0.0078949
    2   0.0322593  -0.1017980  -0.0028365   0.0086303  -0.0192368  -0.0278143
    3  -0.0091789  -0.0183618   0.0089703   0.0022671   0.0271882  -0.0004845
          127         128         129         130         131         132
    1  -0.0156605  -0.0042750   0.0184334  -0.0253618  -0.0260149   0.0795525
    2   0.0408988  -0.0002956  -0.0153812  -0.0122589   0.0031053  -0.0244868
    3   0.0130253  -0.0000806  -0.0174978   0.0220682  -0.0278290  -0.0736141
          133         134         135         136         137         138
    1  -0.0006880  -0.0100507  -0.0002288   0.0337427   0.0276722   0.0020008
    2   0.0069887   0.0059749   0.0145015   0.0043780  -0.0296383  -0.0016277
    3  -0.0049875  -0.0349620   0.0302180  -0.0086776   0.0398667  -0.0073872
          139         140         141         142         143         144
    1   0.0337744  -0.0019485  -0.0149681  -0.1073291   0.0029360  -0.0216197
    2  -0.0044337  -0.0283098   0.0154861   0.0248871   0.0038792   0.0216763
    3  -0.0231861  -0.0015135  -0.0234581   0.0073727  -0.0060211  -0.0094253
          145         146         147         148         149         150
    1   0.0251259   0.0163941   0.0278133  -0.0018415  -0.0222579  -0.0142473
    2   0.0098023  -0.0226109  -0.0231488  -0.0077032  -0.0127450   0.0181525
    3   0.0102894  -0.0186214   0.0422938  -0.0073108   0.0169481  -0.0227720
          151         152         153         154         155         156
    1   0.0269077  -0.0750704   0.0016207   0.0262825  -0.0079942  -0.0076537
    2  -0.0212580   0.0790955  -0.0137803  -0.0147176  -0.0084918  -0.0316786
    3  -0.0115049   0.0101767  -0.0000781  -0.0026833   0.0330556  -0.0186200
          157         158         159         160         161         162
    1   0.0134443  -0.0038555   0.0259461  -0.0189274  -0.0165915  -0.1087545
    2   0.0164428   0.0054607  -0.0031192   0.0352180  -0.0095076  -0.0277528
    3  -0.0484171   0.0039710   0.0169094   0.0033638   0.0270458   0.0155602
          163         164         165         166         167         168
    1   0.0016762   0.0129000  -0.0258791   0.0226835  -0.0047466   0.0054612
    2  -0.0045965  -0.0279142   0.0013178   0.0144322   0.0550269  -0.0016425
    3  -0.0046792   0.0048510  -0.0179183  -0.0219152  -0.0016433   0.0071982
          169         170         171         172         173         174
    1  -0.0086252   0.0029422   0.0276323  -0.0741151   0.0066204   0.0047108
    2   0.0011414  -0.0298095   0.0126440  -0.0636271   0.0022643  -0.0261318
    3   0.0329291   0.0049038  -0.0123969   0.0533400  -0.0034978  -0.0185172
          175         176         177         178         179         180
    1   0.0038717   0.0209732  -0.0388503   0.0004303   0.0027025  -0.0289251
    2   0.0323220   0.0068756   0.0160591   0.0061892   0.0284466   0.0082682
    3  -0.0148520   0.0227819  -0.0439626   0.0041389  -0.0182353   0.0175075
          181         182         183         184         185         186
    1   0.0229831  -0.0057454   0.0106870   0.0137305   0.0054253   0.0163964
    2  -0.0079021  -0.0965742  -0.0021261   0.0291715   0.0051512  -0.0335443
    3   0.0192777   0.0510662  -0.0043503  -0.0128498   0.0219386  -0.0110998
          187         188         189         190         191         192
    1  -0.0272303  -0.0049381   0.0216494  -0.0160814  -0.0096555  -0.0078402
    2   0.0503670  -0.0091196  -0.0223200   0.0126652  -0.0173671  -0.0380736
    3   0.0154721   0.0037014   0.0088093   0.0281930  -0.0285498  -0.1037211
          193         194         195         196         197         198
    1   0.0033055  -0.0112105  -0.0161608   0.0269117   0.0143783   0.0008005
    2  -0.0008879   0.0205106  -0.0248324  -0.0004310  -0.0224998   0.0031057
    3   0.0018845   0.0266896  -0.0019855  -0.0193874  -0.0599948   0.0022244
          199         200         201         202         203         204
    1  -0.0143224  -0.0079426   0.0308608  -0.1067054   0.0016769  -0.0067696
    2   0.0189411   0.0141033   0.0107088  -0.0037001  -0.0020927  -0.0289260
    3  -0.0196900   0.0289864  -0.0123848   0.0294534  -0.0050929  -0.0004767
          205         206         207         208         209         210
    1  -0.0068464   0.0350176   0.0278154  -0.0051193   0.0303038  -0.0180064
    2   0.0048190  -0.0024372   0.0442709  -0.0073461  -0.0046179   0.0072627
    3  -0.0321772  -0.0059036   0.0106235   0.0045213   0.0100063   0.0249955
          211         212         213         214         215         216
    1  -0.0155521  -0.1033525  -0.0076007  -0.0139240   0.0047016  -0.0175820
    2  -0.0293268  -0.0045764   0.0088437   0.0321939   0.0019293  -0.0260026
    3  -0.0059504  -0.0376279   0.0010189   0.0152620  -0.0237962   0.0088262
          217         218         219         220         221         222
    1   0.0212561  -0.0026136  -0.0016147  -0.0285821   0.0214438   0.0635916
    2  -0.0550011   0.0008313   0.0308758  -0.0185560   0.0007699   0.0911380
    3  -0.0055495   0.0066773   0.0085328   0.0120832   0.0273159  -0.0072937
          223         224         225         226         227         228
    1  -0.0050896   0.0025436  -0.0235072  -0.0084705   0.0432900  -0.0009582
    2   0.0002874  -0.0266862   0.0046493   0.0215526  -0.0076815  -0.0066809
    3  -0.0068242  -0.0213931   0.0223106  -0.0241200  -0.0240927   0.0071341
          229         230         231         232         233         234
    1   0.0186584  -0.0227633  -0.0032402  -0.0326747  -0.0008078  -0.0135828
    2  -0.0046458   0.0139325  -0.0305495   0.0903691   0.0024587   0.0260339
    3   0.0266936   0.0171239  -0.0156539   0.0552718   0.0035168   0.0017703
          235         236         237         238         239         240
    1  -0.0156565   0.0217585   0.0272179   0.0078572   0.0300971   0.0096311
    2  -0.0216311  -0.0069587  -0.0540199   0.0019894  -0.0025951  -0.0007093
    3   0.0184869   0.0278019  -0.0033733  -0.0013124   0.0168542  -0.0358325
          241         242         243         244         245         246
    1  -0.0162486  -0.0826859   0.0063985  -0.0092947   0.0341947   0.0061415
    2   0.0163190   0.0261345   0.0051321   0.0234412  -0.0042482   0.0080116
    3   0.0000861  -0.0673939  -0.0000097   0.0213286   0.0113357  -0.0299748
          247         248         249         250         251         252
    1  -0.0152964   0.0075141   0.0306829  -0.0176035   0.0032753  -0.0678521
    2  -0.0162448  -0.0049976  -0.0143896  -0.0239667   0.0119049   0.0367248
    3   0.0508957  -0.0011492   0.0176770  -0.0078640  -0.0298936  -0.0785540
          253         254         255         256         257         258
    1   0.0002374  -0.0206318   0.0293449   0.0165619  -0.0416436  -0.0015001
    2   0.0067529   0.0343299   0.0160878  -0.0024460  -0.0184657   0.0031687
    3   0.0005416  -0.0051937   0.0075088  -0.0255749  -0.0198472   0.0063684
          259         260         261         262         263         264
    1  -0.0153858  -0.0015320   0.0279000   0.0970398  -0.0083327  -0.0297364
    2   0.0313055  -0.0235479   0.0081696  -0.0535101  -0.0041092  -0.0065322
    3   0.0025061   0.0249379   0.0088586   0.0106225  -0.0027035   0.0191404
          265         266         267         268         269         270
    1  -0.0070025   0.0020779  -0.0008726  -0.0014598  -0.0056580  -0.0199766
    2   0.0148327  -0.0262940   0.0005692   0.0070229  -0.0004978   0.0296083
    3  -0.0263417  -0.0042374   0.0513953  -0.0028514  -0.0299423   0.0129179
          271         272
    1   0.0259880   0.0718063
    2   0.0177765  -0.0484279
    3   0.0041738  -0.0647556
  --- DONE ESP SUMMARY ---
 Total job time:  27.53s(wall), 64.24s(cpu) 
 Thu Jul 21 17:42:10 2022

        *************************************************************
        *                                                           *
        *  Thank you very much for using Q-Chem.  Have a nice day.  *
        *                                                           *
        *************************************************************


