                  Welcome to Q-Chem
     A Quantum Leap Into The Future Of Chemistry


 Q-Chem 6.0 (devel), Q-Chem, Inc., Pleasanton, CA (2022)

 E. Epifanovsky,  A. T. B. Gilbert,  Xintian Feng,  Joonho Lee,  Yuezhi Mao,  
 N. Mardirossian,  P. Pokhilko,  A. White,  M. Wormit,  M. P. Coons,  
 A. L. Dempwolff,  Zhengting Gan,  D. Hait,  P. R. Horn,  L. D. Jacobson,  
 I. Kaliman,  J. Kussmann,  A. W. Lange,  Ka Un Lao,  D. S. Levine,  Jie Liu,  
 S. C. McKenzie,  A. F. Morrison,  K. Nanda,  F. Plasser,  D. R. Rehn,  
 M. L. Vidal,  Zhi-Qiang You,  Ying Zhu,  B. Alam,  B. Albrecht,  
 A. Aldossary,  E. Alguire,  J. H. Andersen,  V. Athavale,  D. Barton,  
 K. Begam,  A. Behn,  N. Bellonzi,  Y. A. Bernard,  E. J. Berquist,  
 H. Burton,  A. Carreras,  K. Carter-Fenk,  Romit Chakraborty,  
 Chandrima Chakravarty,  Junhan Chen,  A. D. Chien,  K. D. Closser,  
 V. Cofer-Shabica,  L. Cunha,  S. Dasgupta,  Jia Deng,  M. de Wergifosse,  
 M. Diedenhofen,  Hainam Do,  S. Ehlert,  Po-Tung Fang,  S. Fatehi,  
 Qingguo Feng,  T. Friedhoff,  B. Ganoe,  J. Gayvert,  Qinghui Ge,  
 G. Gidofalvi,  M. Goldey,  J. Gomes,  C. Gonzalez-Espinoza,  S. Gulania,  
 A. Gunina,  J. A. Gyamfi,  M. W. D. Hanson-Heine,  P. H. P. Harbach,  
 A. W. Hauser,  M. F. Herbst,  M. Hernandez Vera,  M. Hodecker,  
 Z. C. Holden,  S. Houck,  Xunkun Huang,  Kerwin Hui,  B. C. Huynh,  
 K. Ikeda,  M. Ivanov,  Hyunjun Ji,  Zuxin Jin,  Hanjie Jiang,  B. Kaduk,  
 S. Kaehler,  R. Kang,  K. Khistyaev,  Jaehoon Kim,  Yongbin Kim,  
 P. Klunzinger,  Z. Koczor-Benda,  Joong Hoon Koh,  D. Kosenkov,  
 Saikiran Kotaru,  L. Koulias,  T. Kowalczyk,  C. M. Krauter,  K. Kue,  
 A. Kunitsa,  T. Kus,  A. Landau,  K. V. Lawler,  D. Lefrancois,  S. Lehtola,  
 Rain Li,  Shaozhi Li,  Yi-Pei Li,  Jiashu Liang,  M. Liebenthal,  
 Hung-Hsuan Lin,  You-Sheng Lin,  Fenglai Liu,  Kuan-Yu Liu,  
 M. Loipersberger,  A. Luenser,  C. Malbon,  A. Manjanath,  P. Manohar,  
 E. Mansoor,  S. F. Manzer,  Shan-Ping Mao,  A. V. Marenich,  T. Markovich,  
 S. Mason,  F. Matz,  S. A. Maurer,  P. F. McLaughlin,  M. F. S. J. Menger,  
 J.-M. Mewes,  S. A. Mewes,  P. Morgante,  Mohammad Mostafanejad,  
 J. W. Mullinax,  K. J. Oosterbaan,  G. Paran,  V. Parravicini,  
 Alexander C. Paul,  Suranjan K. Paul,  F. Pavosevic,  Zheng Pei,  S. Prager,  
 E. I. Proynov,  E. Ramos,  B. Rana,  A. E. Rask,  A. Rettig,  R. M. Richard,  
 F. Rob,  E. Rossomme,  T. Scheele,  M. Scheurer,  M. Schneider,  
 P. E. Schneider,  N. Sergueev,  S. M. Sharada,  Hengyuan Shen,  
 W. Skomorowski,  D. W. Small,  C. J. Stein,  Yingli Su,  Yu-Chuan Su,  
 E. J. Sundstrom,  Zhen Tao,  J. Thirman,  Hung-Yi Tsai,  T. Tsuchimochi,  
 N. M. Tubman,  C. Utku,  S. P. Veccham,  O. Vydrov,  J. Wenzel,  
 Jonathan Wong,  J. Witte,  A. Yamada,  Chou-Hsun Yang,  Kun Yao,  
 S. Yeganeh,  S. R. Yost,  A. Zech,  F. Zeller,  Igor Ying Zhang,  
 Xing Zhang,  Yu Zhang,  D. Zuev,  A. Aspuru-Guzik,  A. T. Bell,  
 N. A. Besley,  K. B. Bravaya,  B. R. Brooks,  D. Casanova,  Jeng-Da Chai,  
 Hsing-Ta Chen,  S. Coriani,  C. J. Cramer,  A. E. DePrince, III,  
 R. A. DiStasio Jr.,  A. Dreuw,  B. D. Dunietz,  T. R. Furlani,  
 W. A. Goddard III,  S. Grimme,  S. Hammes-Schiffer,  T. Head-Gordon,  
 W. J. Hehre,  Chao-Ping Hsu,  T.-C. Jagau,  Yousung Jung,  A. Klamt,  
 Jing Kong,  D. S. Lambrecht,  Xiangyuan Li,  WanZhen Liang,  N. J. Mayhall,  
 C. W. McCurdy,  J. B. Neaton,  T. Neudecker,  C. Ochsenfeld,  
 J. A. Parkhill,  R. Peverati,  V. A. Rassolov,  Haisheng Ren,  Yihan Shao,  
 L. V. Slipchenko,  R. P. Steele,  J. E. Subotnik,  A. J. W. Thom,  
 A. Tkatchenko,  D. G. Truhlar,  T. Van Voorhis,  Fan Wang,  
 T. A. Wesolowski,  K. B. Whaley,  H. L. Woodcock III,  P. M. Zimmerman,  
 S. Faraji,  P. M. W. Gill,  M. Head-Gordon,  J. M. Herbert,  A. I. Krylov

 Contributors to earlier versions of Q-Chem not listed above: 
 R. D. Adamson,  B. Austin,  R. Baer,  J. Baker,  G. J. O. Beran,  
 K. Brandhorst,  S. T. Brown,  E. F. C. Byrd,  Arup K. Chakraborty,  
 G. K. L. Chan,  Chun-Min Chang,  Yunqing Chen,  C.-L. Cheng,  
 Siu Hung Chien,  D. M. Chipman,  D. L. Crittenden,  H. Dachsel,  
 R. J. Doerksen,  A. D. Dutoi,  R. G. Edgar,  J. Fosso-Tande,  
 L. Fusti-Molnar,  D. Ghosh,  A. Ghysels,  A. Golubeva-Zadorozhnaya,  
 J. Gonthier,  M. S. Gordon,  S. R. Gwaltney,  G. Hawkins,  J. E. Herr,  
 A. Heyden,  S. Hirata,  E. G. Hohenstein,  G. Kedziora,  F. J. Keil,  
 C. Kelley,  Jihan Kim,  R. A. King,  R. Z. Khaliullin,  P. P. Korambath,  
 W. Kurlancheek,  A. Laurent,  A. M. Lee,  M. S. Lee,  S. V. Levchenko,  
 Ching Yeh Lin,  D. Liotard,  E. Livshits,  R. C. Lochan,  I. Lotan,  
 L. A. Martinez-Martinez,  P. E. Maslen,  N. Nair,  D. P. O'Neill,  
 D. Neuhauser,  E. Neuscamman,  C. M. Oana,  R. Olivares-Amaya,  R. Olson,  
 T. M. Perrine,  B. Peters,  P. A. Pieniazek,  A. Prociuk,  Y. M. Rhee,  
 J. Ritchie,  M. A. Rohrdanz,  E. Rosta,  N. J. Russ,  H. F. Schaefer III,  
 M. W. Schmidt,  N. E. Schultz,  S. Sharma,  N. Shenvi,  C. D. Sherrill,  
 A. C. Simmonett,  A. Sodt,  T. Stein,  D. Stuck,  K. S. Thanthiriwatte,  
 V. Vanovschi,  L. Vogt,  Tao Wang,  A. Warshel,  M. A. Watson,  
 C. F. Williams,  Q. Wu,  X. Xu,  Jun Yang,  W. Zhang,  Yan Zhao

   Please cite Q-Chem as follows:
  "Software for the frontiers of quantum chemistry:
   An overview of developments in the Q-Chem 5 package"
   J. Chem. Phys. 155, 084801 (2021)
   https://doi.org/10.1063/5.0055522 (open access)

 Q-Chem 6.0.0 for Intel X86 EM64T Linux

 Parts of Q-Chem use Armadillo 9.900.5 (Nocturnal Misbehaviour).
 http://arma.sourceforge.net/

 Q-Chem begins on Thu Jul 21 07:31:44 2022  

 Host: nid00533
0

     Scratch files written to /global/cscratch1/sd/ymao90/r7.00_frame_0056_almo_B3LYP_dp20220721031454//
 Processing $rem in /global/homes/y/ymao90/my_qchem/qchem_embedding_5p4/config/preferences:
 Processing $rem in /global/homes/y/ymao90/.qchemrc:

 Checking the input file for inconsistencies... 	...done.

--------------------------------------------------------------
User input:
--------------------------------------------------------------
$molecule
0 1
--
0 1
C    25.10500   20.74200   27.15800  
C    25.29300   21.64600   28.38700  
C    26.67300   22.32100   28.31200  
C    26.82500   23.02100   26.95200  
C    26.56700   22.28600   25.62600  
C    25.30400   21.42600   25.79600  
H    26.74000   23.05300   29.12600  
H    24.55300   22.45500   28.39300  
H    25.82200   19.91300   27.13100  
H    24.07900   20.35400   27.13400  
H    26.26700   23.96500   26.91500  
H    27.82100   23.47800   26.97600  
H    26.37800   22.97600   24.79600  
H    27.40200   21.58300   25.51500  
H    24.41500   22.06000   25.68600  
H    25.23700   20.59500   25.08300  
H    27.44800   21.55000   28.40100  
N    25.17000   21.00000   29.69300  
H    25.95300   20.47800   30.06700  
C    23.97700   20.85900   30.37000  
H    23.95000   20.32000   31.33500  
O    23.00900   21.46800   29.95200  
--
0 1
C    24.93000   26.64400   28.44600  
H    24.19400   27.02300   27.73300  
H    25.26200   27.36700   29.19500  
H    25.67200   26.14300   27.81800  
S    24.20400   25.24000   29.32200  
C    23.18700   24.58500   27.98000  
H    22.42200   25.31200   27.69400  
H    23.75900   24.22800   27.12000  
H    22.71800   23.67900   28.37200  
O    23.30200   25.77600   30.39000  
C    24.07100   17.94800   21.06100  
H    24.19600   18.15700   22.12700  
H    24.70000   17.07800   20.85800  
H    24.43700   18.79300   20.47300  
S    22.36400   17.43300   20.76700  
C    22.51500   17.73300   18.99100  
H    23.09200   18.63200   18.75900  
H    22.89900   16.80700   18.55700  
H    21.49400   17.79400   18.60400  
O    21.71700   18.71300   21.19800  
C    21.86100   26.05000   35.52100  
H    20.77200   25.99100   35.45000  
H    22.15600   26.77800   36.28100  
H    22.12900   26.34700   34.50400  
S    22.55900   24.43800   35.94500  
C    21.90600   24.47400   37.63000  
H    20.84800   24.74900   37.65600  
H    22.09400   23.50500   38.09800  
H    22.48300   25.25900   38.12500  
O    24.01700   24.73800   36.10200  
C    29.52300   24.59200   30.46600  
H    30.53100   24.21300   30.65700  
H    28.79200   23.91300   30.91300  
H    29.17200   24.58000   29.43200  
S    29.26600   26.27100   31.08200  
C    29.30300   25.77700   32.81900  
H    30.20100   25.15500   32.86200  
H    29.34900   26.69000   33.41800  
H    28.39300   25.24000   33.09900  
O    27.87200   26.69200   30.73600  
C    30.87000   21.08100   34.26300  
H    30.12400   21.48700   33.57400  
H    30.50100   20.08800   34.53100  
H    30.80900   21.67600   35.17800  
S    32.54700   21.31400   33.63400  
C    32.43500   23.11400   33.51900  
H    32.39300   23.49300   34.54300  
H    33.33900   23.58500   33.12500  
H    31.57700   23.49100   32.95700  
O    32.51100   20.90200   32.19500  
C    31.43300   21.52000   28.60900  
H    30.93800   20.56700   28.81100  
H    32.36300   21.33800   28.06400  
H    31.53600   22.06600   29.55000  
S    30.24900   22.42900   27.59100  
C    30.59100   21.38800   26.15400  
H    30.39800   20.31800   26.26900  
H    30.20400   21.72900   25.19100  
H    31.66300   21.48300   25.96000  
O    30.96600   23.72900   27.39600  
C    22.07500   18.78400   36.83100  
H    22.04600   17.97400   36.09700  
H    23.06200   18.75800   37.29900  
H    21.26800   18.69000   37.56200  
S    21.78700   20.36500   36.00400  
C    20.35900   19.85200   35.02200  
H    19.60800   19.52100   35.74300  
H    20.17000   20.68800   34.34400  
H    20.71400   19.04900   34.37100  
O    22.84600   20.58000   34.96900  
C    31.67900   16.49400   29.16100  
H    30.62100   16.72000   29.00500  
H    31.78000   15.55300   29.70900  
H    32.07400   17.36000   29.69900  
S    32.52600   16.36300   27.57100  
C    31.68500   17.83100   26.93700  
H    30.60900   17.81500   27.12800  
H    32.11200   18.73800   27.37400  
H    31.79600   17.96500   25.85800  
O    31.83500   15.17600   26.97500  
C    28.02000   18.43100   33.35400  
H    27.08800   18.05700   33.78500  
H    28.69500   17.72600   33.84600  
H    28.26300   19.45900   33.63500  
S    27.97400   18.28000   31.55400  
C    29.28300   19.46600   31.17100  
H    29.28100   19.56700   30.08300  
H    29.03000   20.43700   31.60300  
H    30.23300   19.06900   31.53800  
O    26.78300   19.06800   31.10600  
C    23.76600   21.53500   21.49000  
H    23.58100   22.32900   22.21900  
H    23.06900   21.69800   20.66400  
H    23.62700   20.61900   22.07000  
S    25.47500   21.76800   20.95200  
C    25.11800   23.27500   20.02200  
H    24.32600   22.98300   19.32700  
H    24.64300   24.03300   20.65000  
H    25.95900   23.73200   19.49300  
O    25.82400   20.70200   19.96100  
C    27.43900   20.81100   36.78500  
H    27.32900   21.39200   35.86700  
H    27.90100   21.32100   37.63400  
H    27.99900   19.92700   36.46900  
S    25.73300   20.32100   37.12700  
C    25.11400   21.90200   37.74500  
H    25.87000   22.19200   38.47900  
H    25.04300   22.53100   36.85400  
H    24.13900   21.68100   38.18700  
O    25.81200   19.56400   38.41600  
C    25.40100   13.59200   24.13300  
H    26.27100   13.70400   23.48100  
H    25.62800   13.85600   25.16900  
H    25.13600   12.53700   24.23800  
S    24.06300   14.68600   23.60600  
C    22.72200   13.48400   23.75500  
H    22.57900   13.15400   24.78700  
H    21.89800   14.00500   23.26100  
H    22.95500   12.58200   23.18300  
O    24.13500   14.62800   22.11200  
C    27.47500   29.40400   24.11900  
H    28.15100   28.83400   23.47600  
H    27.28800   30.34200   23.58900  
H    27.89100   29.58800   25.11300  
S    25.95900   28.43700   24.29700  
C    25.09300   29.41000   25.55000  
H    25.67200   29.36200   26.47500  
H    25.02400   30.46700   25.28000  
H    24.12200   28.92200   25.66500  
O    26.38500   27.24600   25.09700  
C    29.39200   27.59500   27.40900  
H    28.53100   28.24400   27.22700  
H    29.29600   26.74800   26.72400  
H    29.45500   27.27300   28.45100  
S    30.81500   28.64400   27.03800  
C    30.04700   30.04500   27.88200  
H    30.77000   30.86400   27.92200  
H    29.22500   30.39400   27.25200  
H    29.61700   29.78700   28.85300  
O    30.60900   28.78000   25.56100  
C    23.33000   17.85000   32.90700  
H    22.49100   18.43300   32.51800  
H    23.61400   18.06000   33.94100  
H    24.06100   17.91700   32.09700  
S    22.70500   16.15400   32.88600  
C    24.11800   15.47800   33.78600  
H    24.19600   15.80400   34.82700  
H    23.96700   14.39600   33.80000  
H    25.05700   15.74300   33.29300  
O    22.94600   15.65000   31.49800  
C    21.96300   18.76400   24.67200  
H    21.34900   19.63300   24.92400  
H    22.77100   18.64900   25.39900  
H    22.36100   18.97500   23.67500  
S    20.93600   17.28000   24.74300  
C    19.52400   17.80200   23.74400  
H    19.91500   17.96900   22.73800  
H    18.66200   17.13700   23.64600  
H    19.20300   18.72600   24.23100  
O    20.47200   17.41000   26.16100  
C    29.45800   13.46100   29.81600  
H    29.15100   12.41500   29.73400  
H    29.79800   13.81100   28.83800  
H    30.35200   13.65000   30.41700  
S    28.10300   14.56300   30.27700  
C    26.79000   13.81200   29.28800  
H    26.89200   12.74100   29.48100  
H    25.84700   14.26300   29.60900  
H    26.80800   14.10900   28.23600  
O    28.35700   15.60300   29.23100  
C    28.39500   18.90300   20.61100  
H    28.27800   18.16300   19.81600  
H    27.86800   18.46000   21.46000  
H    27.95000   19.87700   20.39300  
S    30.07500   19.20000   21.20800  
C    29.82000   20.86700   21.85700  
H    29.36600   20.81600   22.85000  
H    30.83600   21.25600   21.74700  
H    29.16500   21.52300   21.27800  
O    30.96200   19.54600   20.05200  
C    28.21200   24.91200   23.02900  
H    27.73400   25.40300   23.88000  
H    28.31100   25.77200   22.36000  
H    27.57100   24.16300   22.55700  
S    29.80100   24.15400   23.43700  
C    30.75900   25.63200   23.84100  
H    30.71600   26.29400   22.97200  
H    30.36200   26.08200   24.75400  
H    31.76900   25.22900   23.94900  
O    30.41900   23.72200   22.14400  
C    19.04200   22.35600   31.79900  
H    19.36500   22.12400   30.78100  
H    19.12000   21.39000   32.30300  
H    18.04900   22.80800   31.86500  
S    20.09400   23.55300   32.65100  
C    21.55300   22.48700   32.63900  
H    22.21000   22.83200   31.83700  
H    22.01100   22.81700   33.57500  
H    21.41700   21.40300   32.60900  
O    19.48500   23.56900   34.01900  
C    28.63200   16.65700   26.05400  
H    28.83700   16.61600   27.12700  
H    28.04500   15.75800   25.85300  
H    29.53700   16.76800   25.45100  
S    27.46900   17.97300   25.63200  
C    26.74000   17.25800   24.14100  
H    27.62800   16.93000   23.59400  
H    26.15100   16.44600   24.57400  
H    26.14400   18.02000   23.63200  
O    28.42500   18.99600   25.10300  
C    20.18500   19.55300   29.35100  
H    20.48600   18.99100   28.46300  
H    19.21500   20.04800   29.26500  
H    20.92500   20.32300   29.58400  
S    20.25800   18.32100   30.67100  
C    18.72300   17.58700   30.06400  
H    17.98800   18.39500   30.06700  
H    19.05100   17.23400   29.08300  
H    18.30400   16.81100   30.71000  
O    19.70200   19.07700   31.83700  
C    18.97900   24.61600   26.22800  
H    18.88400   25.63600   26.60900  
H    19.51600   24.64200   25.27600  
H    17.99100   24.19800   26.01800  
S    19.78300   23.52300   27.42100  
C    19.28300   21.97000   26.64300  
H    18.19800   21.89300   26.53700  
H    19.68100   22.06000   25.62900  
H    19.67700   21.22000   27.33400  
O    18.91500   23.28600   28.61700  
C    21.54000   24.93900   22.80800  
H    22.04200   24.61700   21.89200  
H    20.47000   24.72000   22.79200  
H    21.68000   26.02200   22.74800  
S    22.30800   24.29000   24.30900  
C    24.04100   24.72500   24.04100  
H    24.03400   25.78200   24.32000  
H    24.63700   24.17500   24.77400  
H    24.35100   24.43100   23.03500  
O    22.35500   22.80700   24.10800  
C    25.63800   24.25400   32.92600  
H    26.03600   25.04300   32.28400  
H    24.57800   24.08000   32.72400  
H    25.69100   24.68400   33.93000  
S    26.50200   22.69200   32.64500  
C    25.59300   21.61000   33.77200  
H    26.11500   20.65700   33.66100  
H    25.63800   21.94700   34.81100  
H    24.58200   21.57600   33.35600  
O    27.79500   22.97000   33.34600  
C    22.96800   17.31700   28.25900  
H    22.92400   17.28300   29.35100  
H    23.23800   18.31500   27.90600  
H    22.00100   17.02100   27.84400  
S    24.17900   16.07500   27.75400  
C    25.59500   16.92300   28.49000  
H    26.50100   16.53100   28.02000  
H    25.62400   18.00800   28.35700  
H    25.77100   16.66000   29.53600  
O    24.46500   16.23400   26.29300  
C    33.48000   24.47900   29.70100  
H    33.46100   23.77200   30.53400  
H    32.78900   24.25900   28.88300  
H    34.43800   24.43200   29.17800  
S    33.24700   26.21000   30.16600  
C    34.46600   26.21200   31.50000  
H    34.23700   25.32200   32.09100  
H    35.42100   26.05100   30.99200  
H    34.45800   27.08200   32.16100  
O    32.09100   26.29900   31.11300  
$end

$rem
JOBTYPE  SP
METHOD  B3LYP
BASIS  6-31+G(D)
SYMMETRY  FALSE
SYM_IGNORE  TRUE
MEM_TOTAL  12000
MEM_STATIC  4000
BASIS_LIN_DEP_THRESH  6
THRESH  14
SCF_CONVERGENCE  8
FD_MAT_VEC_PROD  FALSE
XC_GRID  000075000302
NL_GRID  1
MAX_SCF_CYCLES  200
FRGM_METHOD  STOLL
SCFMI_MODE  1
ALMO_EFIELD  TRUE
$end

$rem_frgm
SCF_CONVERGENCE  4
$end


--------------------------------------------------------------
 ----------------------------------------------------------------
             Standard Nuclear Orientation (Angstroms)
    I     Atom           X                Y                Z
 ----------------------------------------------------------------
    1      C      25.1050000000    20.7420000000    27.1580000000
    2      C      25.2930000000    21.6460000000    28.3870000000
    3      C      26.6730000000    22.3210000000    28.3120000000
    4      C      26.8250000000    23.0210000000    26.9520000000
    5      C      26.5670000000    22.2860000000    25.6260000000
    6      C      25.3040000000    21.4260000000    25.7960000000
    7      H      26.7400000000    23.0530000000    29.1260000000
    8      H      24.5530000000    22.4550000000    28.3930000000
    9      H      25.8220000000    19.9130000000    27.1310000000
   10      H      24.0790000000    20.3540000000    27.1340000000
   11      H      26.2670000000    23.9650000000    26.9150000000
   12      H      27.8210000000    23.4780000000    26.9760000000
   13      H      26.3780000000    22.9760000000    24.7960000000
   14      H      27.4020000000    21.5830000000    25.5150000000
   15      H      24.4150000000    22.0600000000    25.6860000000
   16      H      25.2370000000    20.5950000000    25.0830000000
   17      H      27.4480000000    21.5500000000    28.4010000000
   18      N      25.1700000000    21.0000000000    29.6930000000
   19      H      25.9530000000    20.4780000000    30.0670000000
   20      C      23.9770000000    20.8590000000    30.3700000000
   21      H      23.9500000000    20.3200000000    31.3350000000
   22      O      23.0090000000    21.4680000000    29.9520000000
   23      C      24.9300000000    26.6440000000    28.4460000000
   24      H      24.1940000000    27.0230000000    27.7330000000
   25      H      25.2620000000    27.3670000000    29.1950000000
   26      H      25.6720000000    26.1430000000    27.8180000000
   27      S      24.2040000000    25.2400000000    29.3220000000
   28      C      23.1870000000    24.5850000000    27.9800000000
   29      H      22.4220000000    25.3120000000    27.6940000000
   30      H      23.7590000000    24.2280000000    27.1200000000
   31      H      22.7180000000    23.6790000000    28.3720000000
   32      O      23.3020000000    25.7760000000    30.3900000000
   33      C      24.0710000000    17.9480000000    21.0610000000
   34      H      24.1960000000    18.1570000000    22.1270000000
   35      H      24.7000000000    17.0780000000    20.8580000000
   36      H      24.4370000000    18.7930000000    20.4730000000
   37      S      22.3640000000    17.4330000000    20.7670000000
   38      C      22.5150000000    17.7330000000    18.9910000000
   39      H      23.0920000000    18.6320000000    18.7590000000
   40      H      22.8990000000    16.8070000000    18.5570000000
   41      H      21.4940000000    17.7940000000    18.6040000000
   42      O      21.7170000000    18.7130000000    21.1980000000
   43      C      21.8610000000    26.0500000000    35.5210000000
   44      H      20.7720000000    25.9910000000    35.4500000000
   45      H      22.1560000000    26.7780000000    36.2810000000
   46      H      22.1290000000    26.3470000000    34.5040000000
   47      S      22.5590000000    24.4380000000    35.9450000000
   48      C      21.9060000000    24.4740000000    37.6300000000
   49      H      20.8480000000    24.7490000000    37.6560000000
   50      H      22.0940000000    23.5050000000    38.0980000000
   51      H      22.4830000000    25.2590000000    38.1250000000
   52      O      24.0170000000    24.7380000000    36.1020000000
   53      C      29.5230000000    24.5920000000    30.4660000000
   54      H      30.5310000000    24.2130000000    30.6570000000
   55      H      28.7920000000    23.9130000000    30.9130000000
   56      H      29.1720000000    24.5800000000    29.4320000000
   57      S      29.2660000000    26.2710000000    31.0820000000
   58      C      29.3030000000    25.7770000000    32.8190000000
   59      H      30.2010000000    25.1550000000    32.8620000000
   60      H      29.3490000000    26.6900000000    33.4180000000
   61      H      28.3930000000    25.2400000000    33.0990000000
   62      O      27.8720000000    26.6920000000    30.7360000000
   63      C      30.8700000000    21.0810000000    34.2630000000
   64      H      30.1240000000    21.4870000000    33.5740000000
   65      H      30.5010000000    20.0880000000    34.5310000000
   66      H      30.8090000000    21.6760000000    35.1780000000
   67      S      32.5470000000    21.3140000000    33.6340000000
   68      C      32.4350000000    23.1140000000    33.5190000000
   69      H      32.3930000000    23.4930000000    34.5430000000
   70      H      33.3390000000    23.5850000000    33.1250000000
   71      H      31.5770000000    23.4910000000    32.9570000000
   72      O      32.5110000000    20.9020000000    32.1950000000
   73      C      31.4330000000    21.5200000000    28.6090000000
   74      H      30.9380000000    20.5670000000    28.8110000000
   75      H      32.3630000000    21.3380000000    28.0640000000
   76      H      31.5360000000    22.0660000000    29.5500000000
   77      S      30.2490000000    22.4290000000    27.5910000000
   78      C      30.5910000000    21.3880000000    26.1540000000
   79      H      30.3980000000    20.3180000000    26.2690000000
   80      H      30.2040000000    21.7290000000    25.1910000000
   81      H      31.6630000000    21.4830000000    25.9600000000
   82      O      30.9660000000    23.7290000000    27.3960000000
   83      C      22.0750000000    18.7840000000    36.8310000000
   84      H      22.0460000000    17.9740000000    36.0970000000
   85      H      23.0620000000    18.7580000000    37.2990000000
   86      H      21.2680000000    18.6900000000    37.5620000000
   87      S      21.7870000000    20.3650000000    36.0040000000
   88      C      20.3590000000    19.8520000000    35.0220000000
   89      H      19.6080000000    19.5210000000    35.7430000000
   90      H      20.1700000000    20.6880000000    34.3440000000
   91      H      20.7140000000    19.0490000000    34.3710000000
   92      O      22.8460000000    20.5800000000    34.9690000000
   93      C      31.6790000000    16.4940000000    29.1610000000
   94      H      30.6210000000    16.7200000000    29.0050000000
   95      H      31.7800000000    15.5530000000    29.7090000000
   96      H      32.0740000000    17.3600000000    29.6990000000
   97      S      32.5260000000    16.3630000000    27.5710000000
   98      C      31.6850000000    17.8310000000    26.9370000000
   99      H      30.6090000000    17.8150000000    27.1280000000
  100      H      32.1120000000    18.7380000000    27.3740000000
  101      H      31.7960000000    17.9650000000    25.8580000000
  102      O      31.8350000000    15.1760000000    26.9750000000
  103      C      28.0200000000    18.4310000000    33.3540000000
  104      H      27.0880000000    18.0570000000    33.7850000000
  105      H      28.6950000000    17.7260000000    33.8460000000
  106      H      28.2630000000    19.4590000000    33.6350000000
  107      S      27.9740000000    18.2800000000    31.5540000000
  108      C      29.2830000000    19.4660000000    31.1710000000
  109      H      29.2810000000    19.5670000000    30.0830000000
  110      H      29.0300000000    20.4370000000    31.6030000000
  111      H      30.2330000000    19.0690000000    31.5380000000
  112      O      26.7830000000    19.0680000000    31.1060000000
  113      C      23.7660000000    21.5350000000    21.4900000000
  114      H      23.5810000000    22.3290000000    22.2190000000
  115      H      23.0690000000    21.6980000000    20.6640000000
  116      H      23.6270000000    20.6190000000    22.0700000000
  117      S      25.4750000000    21.7680000000    20.9520000000
  118      C      25.1180000000    23.2750000000    20.0220000000
  119      H      24.3260000000    22.9830000000    19.3270000000
  120      H      24.6430000000    24.0330000000    20.6500000000
  121      H      25.9590000000    23.7320000000    19.4930000000
  122      O      25.8240000000    20.7020000000    19.9610000000
  123      C      27.4390000000    20.8110000000    36.7850000000
  124      H      27.3290000000    21.3920000000    35.8670000000
  125      H      27.9010000000    21.3210000000    37.6340000000
  126      H      27.9990000000    19.9270000000    36.4690000000
  127      S      25.7330000000    20.3210000000    37.1270000000
  128      C      25.1140000000    21.9020000000    37.7450000000
  129      H      25.8700000000    22.1920000000    38.4790000000
  130      H      25.0430000000    22.5310000000    36.8540000000
  131      H      24.1390000000    21.6810000000    38.1870000000
  132      O      25.8120000000    19.5640000000    38.4160000000
  133      C      25.4010000000    13.5920000000    24.1330000000
  134      H      26.2710000000    13.7040000000    23.4810000000
  135      H      25.6280000000    13.8560000000    25.1690000000
  136      H      25.1360000000    12.5370000000    24.2380000000
  137      S      24.0630000000    14.6860000000    23.6060000000
  138      C      22.7220000000    13.4840000000    23.7550000000
  139      H      22.5790000000    13.1540000000    24.7870000000
  140      H      21.8980000000    14.0050000000    23.2610000000
  141      H      22.9550000000    12.5820000000    23.1830000000
  142      O      24.1350000000    14.6280000000    22.1120000000
  143      C      27.4750000000    29.4040000000    24.1190000000
  144      H      28.1510000000    28.8340000000    23.4760000000
  145      H      27.2880000000    30.3420000000    23.5890000000
  146      H      27.8910000000    29.5880000000    25.1130000000
  147      S      25.9590000000    28.4370000000    24.2970000000
  148      C      25.0930000000    29.4100000000    25.5500000000
  149      H      25.6720000000    29.3620000000    26.4750000000
  150      H      25.0240000000    30.4670000000    25.2800000000
  151      H      24.1220000000    28.9220000000    25.6650000000
  152      O      26.3850000000    27.2460000000    25.0970000000
  153      C      29.3920000000    27.5950000000    27.4090000000
  154      H      28.5310000000    28.2440000000    27.2270000000
  155      H      29.2960000000    26.7480000000    26.7240000000
  156      H      29.4550000000    27.2730000000    28.4510000000
  157      S      30.8150000000    28.6440000000    27.0380000000
  158      C      30.0470000000    30.0450000000    27.8820000000
  159      H      30.7700000000    30.8640000000    27.9220000000
  160      H      29.2250000000    30.3940000000    27.2520000000
  161      H      29.6170000000    29.7870000000    28.8530000000
  162      O      30.6090000000    28.7800000000    25.5610000000
  163      C      23.3300000000    17.8500000000    32.9070000000
  164      H      22.4910000000    18.4330000000    32.5180000000
  165      H      23.6140000000    18.0600000000    33.9410000000
  166      H      24.0610000000    17.9170000000    32.0970000000
  167      S      22.7050000000    16.1540000000    32.8860000000
  168      C      24.1180000000    15.4780000000    33.7860000000
  169      H      24.1960000000    15.8040000000    34.8270000000
  170      H      23.9670000000    14.3960000000    33.8000000000
  171      H      25.0570000000    15.7430000000    33.2930000000
  172      O      22.9460000000    15.6500000000    31.4980000000
  173      C      21.9630000000    18.7640000000    24.6720000000
  174      H      21.3490000000    19.6330000000    24.9240000000
  175      H      22.7710000000    18.6490000000    25.3990000000
  176      H      22.3610000000    18.9750000000    23.6750000000
  177      S      20.9360000000    17.2800000000    24.7430000000
  178      C      19.5240000000    17.8020000000    23.7440000000
  179      H      19.9150000000    17.9690000000    22.7380000000
  180      H      18.6620000000    17.1370000000    23.6460000000
  181      H      19.2030000000    18.7260000000    24.2310000000
  182      O      20.4720000000    17.4100000000    26.1610000000
  183      C      29.4580000000    13.4610000000    29.8160000000
  184      H      29.1510000000    12.4150000000    29.7340000000
  185      H      29.7980000000    13.8110000000    28.8380000000
  186      H      30.3520000000    13.6500000000    30.4170000000
  187      S      28.1030000000    14.5630000000    30.2770000000
  188      C      26.7900000000    13.8120000000    29.2880000000
  189      H      26.8920000000    12.7410000000    29.4810000000
  190      H      25.8470000000    14.2630000000    29.6090000000
  191      H      26.8080000000    14.1090000000    28.2360000000
  192      O      28.3570000000    15.6030000000    29.2310000000
  193      C      28.3950000000    18.9030000000    20.6110000000
  194      H      28.2780000000    18.1630000000    19.8160000000
  195      H      27.8680000000    18.4600000000    21.4600000000
  196      H      27.9500000000    19.8770000000    20.3930000000
  197      S      30.0750000000    19.2000000000    21.2080000000
  198      C      29.8200000000    20.8670000000    21.8570000000
  199      H      29.3660000000    20.8160000000    22.8500000000
  200      H      30.8360000000    21.2560000000    21.7470000000
  201      H      29.1650000000    21.5230000000    21.2780000000
  202      O      30.9620000000    19.5460000000    20.0520000000
  203      C      28.2120000000    24.9120000000    23.0290000000
  204      H      27.7340000000    25.4030000000    23.8800000000
  205      H      28.3110000000    25.7720000000    22.3600000000
  206      H      27.5710000000    24.1630000000    22.5570000000
  207      S      29.8010000000    24.1540000000    23.4370000000
  208      C      30.7590000000    25.6320000000    23.8410000000
  209      H      30.7160000000    26.2940000000    22.9720000000
  210      H      30.3620000000    26.0820000000    24.7540000000
  211      H      31.7690000000    25.2290000000    23.9490000000
  212      O      30.4190000000    23.7220000000    22.1440000000
  213      C      19.0420000000    22.3560000000    31.7990000000
  214      H      19.3650000000    22.1240000000    30.7810000000
  215      H      19.1200000000    21.3900000000    32.3030000000
  216      H      18.0490000000    22.8080000000    31.8650000000
  217      S      20.0940000000    23.5530000000    32.6510000000
  218      C      21.5530000000    22.4870000000    32.6390000000
  219      H      22.2100000000    22.8320000000    31.8370000000
  220      H      22.0110000000    22.8170000000    33.5750000000
  221      H      21.4170000000    21.4030000000    32.6090000000
  222      O      19.4850000000    23.5690000000    34.0190000000
  223      C      28.6320000000    16.6570000000    26.0540000000
  224      H      28.8370000000    16.6160000000    27.1270000000
  225      H      28.0450000000    15.7580000000    25.8530000000
  226      H      29.5370000000    16.7680000000    25.4510000000
  227      S      27.4690000000    17.9730000000    25.6320000000
  228      C      26.7400000000    17.2580000000    24.1410000000
  229      H      27.6280000000    16.9300000000    23.5940000000
  230      H      26.1510000000    16.4460000000    24.5740000000
  231      H      26.1440000000    18.0200000000    23.6320000000
  232      O      28.4250000000    18.9960000000    25.1030000000
  233      C      20.1850000000    19.5530000000    29.3510000000
  234      H      20.4860000000    18.9910000000    28.4630000000
  235      H      19.2150000000    20.0480000000    29.2650000000
  236      H      20.9250000000    20.3230000000    29.5840000000
  237      S      20.2580000000    18.3210000000    30.6710000000
  238      C      18.7230000000    17.5870000000    30.0640000000
  239      H      17.9880000000    18.3950000000    30.0670000000
  240      H      19.0510000000    17.2340000000    29.0830000000
  241      H      18.3040000000    16.8110000000    30.7100000000
  242      O      19.7020000000    19.0770000000    31.8370000000
  243      C      18.9790000000    24.6160000000    26.2280000000
  244      H      18.8840000000    25.6360000000    26.6090000000
  245      H      19.5160000000    24.6420000000    25.2760000000
  246      H      17.9910000000    24.1980000000    26.0180000000
  247      S      19.7830000000    23.5230000000    27.4210000000
  248      C      19.2830000000    21.9700000000    26.6430000000
  249      H      18.1980000000    21.8930000000    26.5370000000
  250      H      19.6810000000    22.0600000000    25.6290000000
  251      H      19.6770000000    21.2200000000    27.3340000000
  252      O      18.9150000000    23.2860000000    28.6170000000
  253      C      21.5400000000    24.9390000000    22.8080000000
  254      H      22.0420000000    24.6170000000    21.8920000000
  255      H      20.4700000000    24.7200000000    22.7920000000
  256      H      21.6800000000    26.0220000000    22.7480000000
  257      S      22.3080000000    24.2900000000    24.3090000000
  258      C      24.0410000000    24.7250000000    24.0410000000
  259      H      24.0340000000    25.7820000000    24.3200000000
  260      H      24.6370000000    24.1750000000    24.7740000000
  261      H      24.3510000000    24.4310000000    23.0350000000
  262      O      22.3550000000    22.8070000000    24.1080000000
  263      C      25.6380000000    24.2540000000    32.9260000000
  264      H      26.0360000000    25.0430000000    32.2840000000
  265      H      24.5780000000    24.0800000000    32.7240000000
  266      H      25.6910000000    24.6840000000    33.9300000000
  267      S      26.5020000000    22.6920000000    32.6450000000
  268      C      25.5930000000    21.6100000000    33.7720000000
  269      H      26.1150000000    20.6570000000    33.6610000000
  270      H      25.6380000000    21.9470000000    34.8110000000
  271      H      24.5820000000    21.5760000000    33.3560000000
  272      O      27.7950000000    22.9700000000    33.3460000000
  273      C      22.9680000000    17.3170000000    28.2590000000
  274      H      22.9240000000    17.2830000000    29.3510000000
  275      H      23.2380000000    18.3150000000    27.9060000000
  276      H      22.0010000000    17.0210000000    27.8440000000
  277      S      24.1790000000    16.0750000000    27.7540000000
  278      C      25.5950000000    16.9230000000    28.4900000000
  279      H      26.5010000000    16.5310000000    28.0200000000
  280      H      25.6240000000    18.0080000000    28.3570000000
  281      H      25.7710000000    16.6600000000    29.5360000000
  282      O      24.4650000000    16.2340000000    26.2930000000
  283      C      33.4800000000    24.4790000000    29.7010000000
  284      H      33.4610000000    23.7720000000    30.5340000000
  285      H      32.7890000000    24.2590000000    28.8830000000
  286      H      34.4380000000    24.4320000000    29.1780000000
  287      S      33.2470000000    26.2100000000    30.1660000000
  288      C      34.4660000000    26.2120000000    31.5000000000
  289      H      34.2370000000    25.3220000000    32.0910000000
  290      H      35.4210000000    26.0510000000    30.9920000000
  291      H      34.4580000000    27.0820000000    32.1610000000
  292      O      32.0910000000    26.2990000000    31.1130000000
 ----------------------------------------------------------------
 Nuclear Repulsion Energy =       48097.23412350 hartrees
 There are      602 alpha and      602 beta electrons
 Requested basis set is 6-31+G(d)
 There are 962 shells and 2681 basis functions

 Total QAlloc Memory Limit  12000 MB
 Mega-Array Size      3911 MB
 MEM_STATIC part      4000 MB

 A cutoff of  1.0D-14 yielded 176084 shell pairs
 There are   1534095 function pairs
 Smallest overlap matrix eigenvalue = 6.48E-07
 Linear dependence detected in AO basis
 Tighter screening thresholds may be required for diffuse basis sets
 Use S2THRESH > 14 and THRESH = 14 in case of SCF convergence issues
 Number of orthogonalized atomic orbitals = 2678
 Maximum deviation from orthogonality = 1.378E-10

 Scale SEOQF with 1.000000e-03/1.000000e-03/1.000000e-03

 Standard Electronic Orientation quadrupole field applied
 Nucleus-field energy     =    -0.0000003771 hartrees
 Attempting to make child job directory: /global/cscratch1/sd/ymao90/r7.00_frame_0056_almo_B3LYP_dp20220721031454//Frg1/
 Attempting to make child job directory: /global/cscratch1/sd/ymao90/r7.00_frame_0056_almo_B3LYP_dp20220721031454//Frg2/
 Creating input file /global/cscratch1/sd/ymao90/r7.00_frame_0056_almo_B3LYP_dp20220721031454/Frg1.input
 using default PutDataFrgm: nothing
 calling putenv with: QCSCRATCH=/global/cscratch1/sd/ymao90/r7.00_frame_0056_almo_B3LYP_dp20220721031454/ 
 Spawning Job For Fragment 0
 Done Job For Fragment 0
 calling putenv with: QCSCRATCH=/global/cscratch1/sd/ymao90 
 calling putenv with: QCTHREADS=16 
 Creating input file /global/cscratch1/sd/ymao90/r7.00_frame_0056_almo_B3LYP_dp20220721031454/Frg2.input
 using default PutDataFrgm: nothing
 calling putenv with: QCSCRATCH=/global/cscratch1/sd/ymao90/r7.00_frame_0056_almo_B3LYP_dp20220721031454/ 
 Spawning Job For Fragment 1
 Done Job For Fragment 1
 calling putenv with: QCSCRATCH=/global/cscratch1/sd/ymao90 
 calling putenv with: QCTHREADS=16 
 Time for running child jobs:  CPU 0.49 s  wall 13798.34 s

 -----------------------------------------------------------------------
  General SCF calculation program by
  Eric Jon Sundstrom, Paul Horn, Yuezhi Mao, Dmitri Zuev, Alec White,
  David Stuck, Shaama M.S., Shane Yost, Joonho Lee, David Small,
  Daniel Levine, Susi Lehtola, Hugh Burton, Evgeny Epifanovsky,
  Bang C. Huynh
 -----------------------------------------------------------------------
Performing Restricted Closed Shell SCFMI
Doing General SCFMI
 Exchange:     0.2000 Hartree-Fock + 0.0800 Slater + 0.7200 B88
 Correlation:  0.1900 VWN1RPA + 0.8100 LYP
 Using Euler-Maclaurin-Lebedev (75,302) quadrature formula
performing fock build before subrot guess so that all methods have access
 using 16 threads for integral computing
 -------------------------------------------------------
 OpenMP Integral computing Module                
 Release: version 1.0, May 2013, Q-Chem Inc. Pittsburgh 
 -------------------------------------------------------
Printing subrot_rss_gen Method Specification:
Occupied Subspace Method is 0
Virtual Subspace Method is 0
Energy prior to optimization (guess energy) = -15340.692556495065
Begin Timing: Total SCF Calculation
begin iterations for algorithm: DIIS         
the SCF tolerance is set to 1.00e-08
    1  -15340.6925564951      3.22e-05     00000 
    2  -15340.6988375410      2.47e-05     00000 
    3  -15340.7000965348      1.80e-05     00000 
    4  -15340.7008524180      6.70e-06     00000 
    5  -15340.7009669175      2.86e-06     00000 
    6  -15340.7009868387      1.78e-06     00000 
    7  -15340.7009942859      1.20e-06     00000 
    8  -15340.7009970326      8.08e-07     00000 
    9  -15340.7009985135      4.04e-07     00000 
   10  -15340.7009988613      2.49e-07     00000 
   11  -15340.7009989954      1.56e-07     00000 
   12  -15340.7009990409      1.14e-07     00000 
   13  -15340.7009990683      6.46e-08     00000 
   14  -15340.7009990783      3.45e-08     00000 
   15  -15340.7009990809      2.12e-08     00000 
   16  -15340.7009990816      1.61e-08     00000 
   17  -15340.7009990822      8.38e-09     00000 Convergence criterion met
write pseudocanon occs and virts to disk
write pseudocanon orbital energies to disk
Timing for Total SCF: 19092.00s (wall), 260199.53s (cpu)
SCFMI Energy  -15340.7009990822
<S^2>            0.00000
 Total energy in the final basis set =   -15340.7009990822
    ==================================================
        The end of Object-Oriented SCFman: SCFMI      
    ==================================================

 --------------------------------------------------------------

                    Orbital Energies (a.u.)
 --------------------------------------------------------------

 Alpha MOs
 -- Occupied --
-89.0257 -89.0245 -89.0239 -89.0214 -89.0187 -89.0092 -89.0063 -89.0056
-89.0036 -89.0021 -88.9976 -88.9963 -88.9952 -88.9936 -88.9933 -88.9928
-88.9920 -88.9898 -88.9895 -88.9877 -88.9872 -88.9857 -88.9827 -88.9805
-88.9690 -88.9585 -88.9535 -19.1399 -19.1329 -19.1321 -19.1296 -19.1237
-19.1216 -19.1210 -19.1206 -19.1195 -19.1164 -19.1161 -19.1137 -19.1126
-19.1112 -19.1066 -19.1046 -19.1036 -19.1027 -19.1017 -19.1012 -19.1011
-19.1009 -19.1004 -19.0969 -19.0962 -19.0960 -19.0836 -19.0663 -14.3520
-10.2866 -10.2467 -10.2447 -10.2419 -10.2397 -10.2367 -10.2327 -10.2326
-10.2307 -10.2306 -10.2305 -10.2273 -10.2267 -10.2259 -10.2254 -10.2222
-10.2217 -10.2211 -10.2203 -10.2189 -10.2188 -10.2180 -10.2174 -10.2172
-10.2126 -10.2098 -10.2091 -10.2089 -10.2079 -10.2076 -10.2076 -10.2076
-10.2066 -10.2064 -10.2060 -10.2056 -10.2052 -10.2050 -10.2047 -10.2046
-10.2035 -10.2016 -10.2010 -10.2001 -10.1997 -10.1985 -10.1970 -10.1964
-10.1948 -10.1923 -10.1889 -10.1876 -10.1867 -10.1838 -10.1831 -10.1818
-10.1797 -10.1744 -10.1723 -10.1672 -10.1662  -8.0709  -8.0706  -8.0706
 -8.0668  -8.0652  -8.0551  -8.0525  -8.0514  -8.0491  -8.0475  -8.0439
 -8.0415  -8.0412  -8.0397  -8.0394  -8.0390  -8.0376  -8.0363  -8.0357
 -8.0340  -8.0337  -8.0313  -8.0287  -8.0263  -8.0147  -8.0046  -7.9999
 -6.0354  -6.0349  -6.0347  -6.0341  -6.0338  -6.0336  -6.0312  -6.0300
 -6.0294  -6.0283  -6.0283  -6.0282  -6.0279  -6.0241  -6.0225  -6.0194
 -6.0182  -6.0167  -6.0157  -6.0155  -6.0145  -6.0135  -6.0127  -6.0121
 -6.0121  -6.0107  -6.0099  -6.0090  -6.0081  -6.0071  -6.0066  -6.0061
 -6.0055  -6.0049  -6.0045  -6.0042  -6.0040  -6.0040  -6.0034  -6.0025
 -6.0024  -6.0020  -6.0017  -6.0014  -6.0007  -6.0007  -5.9999  -5.9993
 -5.9990  -5.9988  -5.9988  -5.9985  -5.9983  -5.9974  -5.9969  -5.9969
 -5.9968  -5.9967  -5.9956  -5.9949  -5.9944  -5.9937  -5.9930  -5.9930
 -5.9919  -5.9912  -5.9910  -5.9907  -5.9896  -5.9888  -5.9860  -5.9834
 -5.9793  -5.9777  -5.9717  -5.9689  -5.9676  -5.9642  -5.9630  -5.9621
 -5.9573  -1.0518  -1.0456  -1.0454  -1.0437  -1.0427  -1.0391  -1.0321
 -1.0306  -1.0286  -1.0262  -1.0249  -1.0241  -1.0213  -1.0202  -1.0199
 -1.0170  -1.0167  -1.0163  -1.0153  -1.0152  -1.0138  -1.0128  -1.0115
 -1.0057  -1.0048  -1.0000  -0.9891  -0.9759  -0.9137  -0.8256  -0.8242
 -0.8231  -0.8172  -0.8157  -0.8093  -0.8091  -0.8079  -0.8069  -0.8069
 -0.8048  -0.8008  -0.8003  -0.7993  -0.7957  -0.7937  -0.7934  -0.7915
 -0.7909  -0.7871  -0.7868  -0.7855  -0.7844  -0.7836  -0.7826  -0.7800
 -0.7604  -0.7594  -0.7549  -0.7544  -0.7487  -0.7483  -0.7479  -0.7433
 -0.7421  -0.7352  -0.7347  -0.7296  -0.7284  -0.7270  -0.7267  -0.7232
 -0.7225  -0.7223  -0.7206  -0.7185  -0.7170  -0.7163  -0.7152  -0.7142
 -0.7120  -0.7118  -0.7104  -0.7087  -0.7019  -0.6840  -0.6833  -0.6418
 -0.6395  -0.6376  -0.6372  -0.6341  -0.6291  -0.6229  -0.6216  -0.6180
 -0.6158  -0.6156  -0.6144  -0.6142  -0.6093  -0.6081  -0.6056  -0.6053
 -0.6045  -0.6028  -0.6009  -0.6006  -0.5988  -0.5976  -0.5967  -0.5960
 -0.5948  -0.5850  -0.5803  -0.5695  -0.5674  -0.5629  -0.5267  -0.5110
 -0.5081  -0.5029  -0.4999  -0.4994  -0.4949  -0.4910  -0.4898  -0.4891
 -0.4884  -0.4870  -0.4869  -0.4854  -0.4852  -0.4848  -0.4845  -0.4836
 -0.4830  -0.4818  -0.4811  -0.4794  -0.4779  -0.4771  -0.4761  -0.4758
 -0.4749  -0.4746  -0.4740  -0.4738  -0.4736  -0.4732  -0.4729  -0.4713
 -0.4708  -0.4704  -0.4701  -0.4695  -0.4694  -0.4692  -0.4691  -0.4686
 -0.4675  -0.4664  -0.4657  -0.4655  -0.4648  -0.4647  -0.4635  -0.4626
 -0.4615  -0.4611  -0.4607  -0.4599  -0.4595  -0.4594  -0.4589  -0.4577
 -0.4569  -0.4562  -0.4560  -0.4556  -0.4552  -0.4547  -0.4545  -0.4543
 -0.4518  -0.4514  -0.4513  -0.4498  -0.4486  -0.4478  -0.4469  -0.4465
 -0.4455  -0.4452  -0.4448  -0.4445  -0.4437  -0.4431  -0.4426  -0.4421
 -0.4415  -0.4402  -0.4385  -0.4372  -0.4364  -0.4362  -0.4352  -0.4349
 -0.4342  -0.4334  -0.4333  -0.4330  -0.4307  -0.4296  -0.4294  -0.4291
 -0.4273  -0.4265  -0.4254  -0.4250  -0.4244  -0.4235  -0.4233  -0.4222
 -0.4217  -0.4206  -0.4204  -0.4194  -0.4191  -0.4186  -0.4180  -0.4176
 -0.4171  -0.4158  -0.4155  -0.4150  -0.4142  -0.4134  -0.4132  -0.4129
 -0.4124  -0.4112  -0.4104  -0.4098  -0.4095  -0.4088  -0.4078  -0.4071
 -0.4055  -0.4044  -0.4040  -0.4034  -0.4028  -0.4022  -0.4020  -0.4017
 -0.4004  -0.3995  -0.3990  -0.3988  -0.3984  -0.3981  -0.3967  -0.3958
 -0.3954  -0.3944  -0.3929  -0.3911  -0.3909  -0.3906  -0.3898  -0.3888
 -0.3882  -0.3875  -0.3869  -0.3854  -0.3850  -0.3839  -0.3829  -0.3823
 -0.3821  -0.3815  -0.3806  -0.3803  -0.3785  -0.3780  -0.3775  -0.3759
 -0.3731  -0.3727  -0.3719  -0.3715  -0.3712  -0.3694  -0.3687  -0.3665
 -0.3651  -0.3621  -0.3599  -0.3594  -0.3591  -0.3584  -0.3580  -0.3567
 -0.3563  -0.3548  -0.3539  -0.3512  -0.3506  -0.3493  -0.3484  -0.3477
 -0.3460  -0.3439  -0.3406  -0.3359  -0.3353  -0.3236  -0.3229  -0.3177
 -0.3127  -0.3048  -0.3019  -0.2953  -0.2915  -0.2914  -0.2836  -0.2833
 -0.2805  -0.2804  -0.2764  -0.2753  -0.2751  -0.2743  -0.2704  -0.2685
 -0.2670  -0.2659  -0.2655  -0.2642  -0.2633  -0.2628  -0.2617  -0.2605
 -0.2598  -0.2590  -0.2583  -0.2582  -0.2574  -0.2572  -0.2569  -0.2564
 -0.2563  -0.2506  -0.2491  -0.2482  -0.2469  -0.2441  -0.2437  -0.2429
 -0.2414  -0.2377  -0.2372  -0.2364  -0.2344  -0.2337  -0.2311  -0.2304
 -0.2280  -0.2272  -0.2271  -0.2265  -0.2246  -0.2202  -0.2183  -0.2078
 -0.2058  -0.1914
 -- Virtual --
 -0.0418  -0.0364  -0.0341  -0.0275  -0.0219  -0.0208  -0.0202  -0.0181
 -0.0178  -0.0167  -0.0137  -0.0134  -0.0106  -0.0095  -0.0081  -0.0078
 -0.0068  -0.0055  -0.0049  -0.0043  -0.0040  -0.0030  -0.0023  -0.0013
 -0.0000   0.0003   0.0010   0.0018   0.0026   0.0028   0.0032   0.0055
  0.0065   0.0069   0.0077   0.0081   0.0089   0.0100   0.0105   0.0108
  0.0123   0.0131   0.0139   0.0148   0.0150   0.0154   0.0163   0.0170
  0.0174   0.0183   0.0194   0.0205   0.0208   0.0212   0.0219   0.0229
  0.0233   0.0236   0.0248   0.0253   0.0255   0.0259   0.0269   0.0276
  0.0284   0.0289   0.0294   0.0304   0.0309   0.0315   0.0326   0.0331
  0.0340   0.0344   0.0347   0.0353   0.0356   0.0364   0.0368   0.0369
  0.0377   0.0385   0.0393   0.0400   0.0402   0.0411   0.0413   0.0426
  0.0431   0.0441   0.0447   0.0450   0.0456   0.0468   0.0471   0.0473
  0.0482   0.0490   0.0503   0.0506   0.0512   0.0519   0.0522   0.0528
  0.0535   0.0542   0.0550   0.0557   0.0558   0.0566   0.0576   0.0580
  0.0590   0.0595   0.0597   0.0598   0.0607   0.0613   0.0623   0.0634
  0.0636   0.0644   0.0647   0.0653   0.0658   0.0660   0.0669   0.0676
  0.0682   0.0689   0.0690   0.0701   0.0709   0.0719   0.0726   0.0730
  0.0735   0.0739   0.0745   0.0753   0.0759   0.0762   0.0780   0.0783
  0.0789   0.0796   0.0803   0.0807   0.0811   0.0818   0.0825   0.0831
  0.0838   0.0843   0.0852   0.0860   0.0866   0.0871   0.0875   0.0883
  0.0887   0.0894   0.0901   0.0905   0.0916   0.0918   0.0918   0.0926
  0.0937   0.0940   0.0945   0.0954   0.0956   0.0969   0.0969   0.0972
  0.0986   0.0993   0.0999   0.1005   0.1010   0.1020   0.1026   0.1029
  0.1037   0.1040   0.1044   0.1052   0.1059   0.1066   0.1073   0.1079
  0.1083   0.1096   0.1097   0.1102   0.1108   0.1117   0.1128   0.1130
  0.1132   0.1139   0.1145   0.1147   0.1164   0.1170   0.1177   0.1178
  0.1180   0.1190   0.1195   0.1202   0.1211   0.1215   0.1222   0.1230
  0.1241   0.1242   0.1252   0.1255   0.1265   0.1267   0.1274   0.1276
  0.1287   0.1289   0.1294   0.1308   0.1313   0.1321   0.1330   0.1332
  0.1339   0.1348   0.1351   0.1356   0.1360   0.1364   0.1378   0.1382
  0.1384   0.1387   0.1399   0.1407   0.1411   0.1415   0.1417   0.1427
  0.1435   0.1437   0.1449   0.1450   0.1458   0.1461   0.1473   0.1480
  0.1487   0.1497   0.1500   0.1503   0.1505   0.1515   0.1528   0.1529
  0.1534   0.1544   0.1545   0.1548   0.1557   0.1565   0.1570   0.1579
  0.1585   0.1588   0.1597   0.1600   0.1609   0.1610   0.1616   0.1623
  0.1630   0.1634   0.1639   0.1642   0.1647   0.1651   0.1664   0.1671
  0.1672   0.1677   0.1684   0.1694   0.1703   0.1706   0.1714   0.1720
  0.1728   0.1735   0.1738   0.1743   0.1746   0.1756   0.1761   0.1766
  0.1770   0.1773   0.1783   0.1788   0.1790   0.1798   0.1805   0.1807
  0.1816   0.1822   0.1825   0.1833   0.1840   0.1842   0.1847   0.1853
  0.1859   0.1863   0.1869   0.1881   0.1888   0.1895   0.1899   0.1902
  0.1911   0.1916   0.1923   0.1926   0.1933   0.1937   0.1943   0.1950
  0.1954   0.1960   0.1968   0.1974   0.1982   0.1984   0.1988   0.1998
  0.2000   0.2007   0.2012   0.2021   0.2029   0.2031   0.2041   0.2043
  0.2051   0.2056   0.2063   0.2066   0.2072   0.2078   0.2079   0.2086
  0.2097   0.2105   0.2109   0.2119   0.2130   0.2135   0.2142   0.2145
  0.2151   0.2159   0.2163   0.2166   0.2183   0.2188   0.2190   0.2203
  0.2207   0.2212   0.2224   0.2231   0.2238   0.2241   0.2249   0.2252
  0.2256   0.2263   0.2272   0.2279   0.2288   0.2293   0.2294   0.2300
  0.2306   0.2314   0.2320   0.2327   0.2338   0.2340   0.2345   0.2349
  0.2360   0.2362   0.2369   0.2374   0.2380   0.2395   0.2396   0.2409
  0.2410   0.2418   0.2421   0.2435   0.2440   0.2444   0.2455   0.2459
  0.2471   0.2476   0.2480   0.2482   0.2500   0.2502   0.2512   0.2515
  0.2519   0.2525   0.2541   0.2545   0.2552   0.2554   0.2566   0.2571
  0.2576   0.2581   0.2592   0.2602   0.2608   0.2621   0.2623   0.2624
  0.2641   0.2647   0.2655   0.2658   0.2665   0.2672   0.2676   0.2685
  0.2701   0.2704   0.2711   0.2718   0.2719   0.2726   0.2733   0.2740
  0.2747   0.2757   0.2767   0.2770   0.2775   0.2781   0.2782   0.2799
  0.2806   0.2812   0.2825   0.2831   0.2838   0.2840   0.2853   0.2860
  0.2863   0.2873   0.2881   0.2887   0.2896   0.2911   0.2917   0.2930
  0.2934   0.2941   0.2943   0.2949   0.2963   0.2975   0.2982   0.2985
  0.2999   0.3008   0.3017   0.3024   0.3031   0.3040   0.3047   0.3055
  0.3058   0.3064   0.3065   0.3080   0.3083   0.3090   0.3101   0.3105
  0.3115   0.3118   0.3135   0.3148   0.3156   0.3166   0.3175   0.3179
  0.3184   0.3201   0.3204   0.3209   0.3222   0.3223   0.3242   0.3250
  0.3255   0.3262   0.3272   0.3281   0.3290   0.3300   0.3311   0.3314
  0.3322   0.3330   0.3336   0.3341   0.3351   0.3380   0.3385   0.3388
  0.3404   0.3411   0.3418   0.3420   0.3427   0.3432   0.3433   0.3449
  0.3460   0.3469   0.3470   0.3488   0.3499   0.3503   0.3513   0.3515
  0.3518   0.3525   0.3547   0.3553   0.3563   0.3565   0.3577   0.3587
  0.3589   0.3593   0.3611   0.3616   0.3630   0.3634   0.3640   0.3653
  0.3662   0.3663   0.3684   0.3688   0.3690   0.3699   0.3704   0.3711
  0.3720   0.3727   0.3746   0.3748   0.3757   0.3763   0.3778   0.3784
  0.3794   0.3800   0.3811   0.3818   0.3822   0.3830   0.3836   0.3857
  0.3866   0.3869   0.3878   0.3889   0.3895   0.3896   0.3909   0.3913
  0.3930   0.3946   0.3952   0.3962   0.3975   0.3980   0.3987   0.3995
  0.3998   0.4010   0.4021   0.4024   0.4030   0.4040   0.4052   0.4059
  0.4065   0.4080   0.4091   0.4093   0.4104   0.4111   0.4124   0.4128
  0.4137   0.4147   0.4155   0.4163   0.4172   0.4184   0.4192   0.4198
  0.4207   0.4217   0.4221   0.4228   0.4238   0.4258   0.4259   0.4274
  0.4291   0.4295   0.4304   0.4316   0.4325   0.4332   0.4344   0.4351
  0.4360   0.4382   0.4398   0.4405   0.4410   0.4419   0.4437   0.4440
  0.4453   0.4465   0.4471   0.4491   0.4497   0.4502   0.4522   0.4539
  0.4552   0.4556   0.4574   0.4585   0.4599   0.4612   0.4614   0.4632
  0.4641   0.4661   0.4662   0.4671   0.4678   0.4689   0.4694   0.4717
  0.4735   0.4748   0.4770   0.4778   0.4790   0.4815   0.4831   0.4835
  0.4845   0.4863   0.4868   0.4886   0.4900   0.4908   0.4922   0.4937
  0.4947   0.4961   0.4980   0.4990   0.5003   0.5022   0.5036   0.5062
  0.5080   0.5081   0.5093   0.5114   0.5129   0.5151   0.5171   0.5182
  0.5199   0.5217   0.5227   0.5232   0.5238   0.5256   0.5277   0.5302
  0.5321   0.5327   0.5348   0.5362   0.5375   0.5383   0.5400   0.5405
  0.5426   0.5432   0.5468   0.5470   0.5502   0.5518   0.5524   0.5548
  0.5560   0.5575   0.5592   0.5600   0.5626   0.5645   0.5663   0.5680
  0.5684   0.5686   0.5702   0.5724   0.5747   0.5756   0.5778   0.5786
  0.5814   0.5824   0.5832   0.5843   0.5852   0.5867   0.5879   0.5895
  0.5917   0.5936   0.5944   0.5954   0.5968   0.5988   0.6018   0.6024
  0.6029   0.6036   0.6057   0.6071   0.6073   0.6097   0.6108   0.6121
  0.6135   0.6144   0.6162   0.6168   0.6182   0.6192   0.6203   0.6214
  0.6223   0.6230   0.6258   0.6263   0.6275   0.6284   0.6316   0.6329
  0.6338   0.6344   0.6352   0.6372   0.6382   0.6390   0.6402   0.6411
  0.6433   0.6437   0.6446   0.6451   0.6476   0.6485   0.6489   0.6501
  0.6513   0.6523   0.6532   0.6548   0.6555   0.6569   0.6577   0.6583
  0.6597   0.6615   0.6618   0.6632   0.6639   0.6657   0.6666   0.6671
  0.6694   0.6700   0.6705   0.6715   0.6730   0.6748   0.6759   0.6781
  0.6785   0.6800   0.6807   0.6822   0.6831   0.6844   0.6845   0.6858
  0.6871   0.6876   0.6892   0.6901   0.6915   0.6927   0.6929   0.6950
  0.6955   0.6969   0.6980   0.6986   0.6995   0.7010   0.7020   0.7034
  0.7052   0.7065   0.7074   0.7082   0.7088   0.7098   0.7100   0.7126
  0.7135   0.7149   0.7150   0.7168   0.7182   0.7194   0.7202   0.7211
  0.7213   0.7229   0.7247   0.7250   0.7257   0.7277   0.7292   0.7309
  0.7324   0.7332   0.7340   0.7349   0.7360   0.7372   0.7381   0.7398
  0.7419   0.7430   0.7446   0.7457   0.7466   0.7492   0.7496   0.7518
  0.7534   0.7563   0.7566   0.7575   0.7586   0.7598   0.7605   0.7628
  0.7633   0.7653   0.7678   0.7692   0.7714   0.7722   0.7745   0.7754
  0.7762   0.7780   0.7788   0.7812   0.7836   0.7853   0.7868   0.7883
  0.7897   0.7913   0.7924   0.7933   0.7956   0.7965   0.7979   0.7985
  0.8006   0.8015   0.8035   0.8056   0.8070   0.8074   0.8094   0.8101
  0.8127   0.8140   0.8148   0.8158   0.8165   0.8194   0.8210   0.8237
  0.8244   0.8251   0.8260   0.8273   0.8284   0.8293   0.8310   0.8318
  0.8335   0.8360   0.8366   0.8382   0.8404   0.8421   0.8427   0.8445
  0.8452   0.8458   0.8469   0.8500   0.8515   0.8526   0.8530   0.8545
  0.8567   0.8599   0.8615   0.8619   0.8631   0.8644   0.8656   0.8673
  0.8677   0.8679   0.8707   0.8718   0.8730   0.8746   0.8755   0.8779
  0.8781   0.8790   0.8802   0.8818   0.8827   0.8830   0.8836   0.8843
  0.8857   0.8870   0.8885   0.8886   0.8909   0.8924   0.8944   0.8955
  0.8963   0.8969   0.8978   0.8995   0.9001   0.9014   0.9016   0.9051
  0.9055   0.9061   0.9077   0.9088   0.9090   0.9112   0.9117   0.9119
  0.9124   0.9141   0.9149   0.9167   0.9182   0.9192   0.9198   0.9205
  0.9217   0.9237   0.9254   0.9270   0.9275   0.9285   0.9306   0.9312
  0.9327   0.9335   0.9346   0.9355   0.9364   0.9380   0.9399   0.9407
  0.9424   0.9435   0.9450   0.9459   0.9463   0.9480   0.9483   0.9486
  0.9509   0.9511   0.9512   0.9529   0.9541   0.9570   0.9581   0.9589
  0.9599   0.9610   0.9615   0.9621   0.9630   0.9643   0.9663   0.9667
  0.9678   0.9694   0.9704   0.9730   0.9745   0.9748   0.9755   0.9766
  0.9768   0.9779   0.9795   0.9800   0.9812   0.9817   0.9831   0.9855
  0.9862   0.9869   0.9873   0.9881   0.9893   0.9908   0.9919   0.9931
  0.9939   0.9941   0.9962   0.9968   0.9973   0.9981   0.9990   1.0003
  1.0007   1.0021   1.0029   1.0032   1.0044   1.0048   1.0061   1.0076
  1.0087   1.0095   1.0100   1.0117   1.0132   1.0139   1.0159   1.0170
  1.0177   1.0191   1.0197   1.0206   1.0222   1.0237   1.0242   1.0252
  1.0252   1.0270   1.0283   1.0300   1.0306   1.0336   1.0344   1.0347
  1.0363   1.0367   1.0385   1.0387   1.0393   1.0399   1.0412   1.0424
  1.0427   1.0444   1.0465   1.0477   1.0498   1.0503   1.0512   1.0532
  1.0538   1.0541   1.0554   1.0573   1.0578   1.0582   1.0594   1.0601
  1.0616   1.0644   1.0646   1.0654   1.0669   1.0683   1.0690   1.0694
  1.0726   1.0730   1.0747   1.0760   1.0772   1.0783   1.0801   1.0816
  1.0827   1.0847   1.0855   1.0864   1.0891   1.0902   1.0923   1.0939
  1.0961   1.0980   1.1004   1.1008   1.1015   1.1029   1.1052   1.1069
  1.1074   1.1092   1.1104   1.1121   1.1130   1.1144   1.1172   1.1178
  1.1192   1.1196   1.1199   1.1224   1.1231   1.1253   1.1257   1.1282
  1.1289   1.1318   1.1328   1.1339   1.1354   1.1366   1.1370   1.1382
  1.1387   1.1402   1.1424   1.1433   1.1444   1.1451   1.1465   1.1491
  1.1515   1.1520   1.1528   1.1537   1.1550   1.1563   1.1571   1.1581
  1.1599   1.1615   1.1630   1.1647   1.1653   1.1667   1.1684   1.1690
  1.1705   1.1710   1.1718   1.1724   1.1753   1.1754   1.1773   1.1817
  1.1818   1.1824   1.1836   1.1860   1.1868   1.1886   1.1906   1.1922
  1.1925   1.1943   1.1962   1.1969   1.1992   1.2002   1.2033   1.2040
  1.2055   1.2067   1.2082   1.2087   1.2125   1.2146   1.2152   1.2185
  1.2202   1.2213   1.2232   1.2238   1.2253   1.2283   1.2285   1.2307
  1.2332   1.2350   1.2385   1.2398   1.2434   1.2441   1.2448   1.2483
  1.2489   1.2504   1.2527   1.2540   1.2549   1.2568   1.2596   1.2611
  1.2636   1.2648   1.2661   1.2705   1.2711   1.2752   1.2771   1.2788
  1.2806   1.2817   1.2862   1.2879   1.2921   1.2929   1.2983   1.3001
  1.3013   1.3038   1.3048   1.3102   1.3115   1.3149   1.3170   1.3188
  1.3198   1.3220   1.3249   1.3263   1.3285   1.3311   1.3339   1.3363
  1.3377   1.3397   1.3412   1.3431   1.3468   1.3487   1.3490   1.3507
  1.3512   1.3554   1.3570   1.3592   1.3603   1.3615   1.3619   1.3630
  1.3665   1.3670   1.3708   1.3726   1.3746   1.3755   1.3761   1.3767
  1.3786   1.3797   1.3811   1.3832   1.3847   1.3849   1.3867   1.3871
  1.3892   1.3900   1.3904   1.3931   1.3940   1.3966   1.3998   1.4017
  1.4020   1.4030   1.4037   1.4041   1.4061   1.4085   1.4105   1.4111
  1.4121   1.4136   1.4149   1.4169   1.4180   1.4193   1.4211   1.4224
  1.4252   1.4258   1.4276   1.4286   1.4307   1.4321   1.4328   1.4348
  1.4354   1.4366   1.4383   1.4411   1.4433   1.4446   1.4464   1.4487
  1.4491   1.4496   1.4511   1.4515   1.4545   1.4573   1.4587   1.4602
  1.4613   1.4635   1.4639   1.4652   1.4666   1.4676   1.4685   1.4705
  1.4717   1.4729   1.4744   1.4769   1.4794   1.4801   1.4825   1.4847
  1.4853   1.4871   1.4879   1.4909   1.4935   1.4946   1.4959   1.4964
  1.4985   1.5004   1.5022   1.5029   1.5048   1.5077   1.5106   1.5114
  1.5128   1.5162   1.5173   1.5186   1.5212   1.5233   1.5271   1.5306
  1.5328   1.5334   1.5368   1.5384   1.5430   1.5462   1.5467   1.5502
  1.5525   1.5535   1.5565   1.5606   1.5638   1.5656   1.5721   1.5741
  1.5759   1.5762   1.5836   1.5864   1.5889   1.5918   1.5955   1.6000
  1.6060   1.6079   1.6147   1.6178   1.6211   1.6234   1.6290   1.6356
  1.6403   1.6422   1.6448   1.6514   1.6522   1.6553   1.6560   1.6583
  1.6601   1.6636   1.6646   1.6648   1.6660   1.6682   1.6692   1.6715
  1.6724   1.6736   1.6739   1.6752   1.6774   1.6778   1.6786   1.6801
  1.6808   1.6832   1.6846   1.6863   1.6873   1.6889   1.6906   1.6921
  1.6935   1.6938   1.6974   1.6980   1.6995   1.7001   1.7027   1.7028
  1.7046   1.7065   1.7078   1.7092   1.7096   1.7109   1.7131   1.7148
  1.7151   1.7179   1.7193   1.7204   1.7234   1.7239   1.7256   1.7261
  1.7285   1.7292   1.7298   1.7320   1.7323   1.7334   1.7364   1.7368
  1.7377   1.7392   1.7413   1.7438   1.7443   1.7454   1.7466   1.7479
  1.7509   1.7517   1.7527   1.7542   1.7544   1.7559   1.7580   1.7601
  1.7606   1.7618   1.7633   1.7642   1.7665   1.7667   1.7687   1.7692
  1.7738   1.7756   1.7759   1.7790   1.7809   1.7819   1.7832   1.7844
  1.7847   1.7873   1.7891   1.7898   1.7927   1.7936   1.7959   1.7972
  1.7993   1.8021   1.8034   1.8053   1.8078   1.8095   1.8108   1.8125
  1.8160   1.8192   1.8195   1.8228   1.8246   1.8287   1.8301   1.8344
  1.8372   1.8380   1.8406   1.8440   1.8449   1.8465   1.8501   1.8509
  1.8567   1.8587   1.8623   1.8626   1.8651   1.8669   1.8710   1.8730
  1.8748   1.8767   1.8782   1.8799   1.8811   1.8821   1.8829   1.8842
  1.8853   1.8861   1.8894   1.8914   1.8932   1.8943   1.8957   1.8961
  1.8981   1.8990   1.9017   1.9026   1.9033   1.9058   1.9065   1.9080
  1.9090   1.9123   1.9130   1.9147   1.9150   1.9157   1.9167   1.9174
  1.9197   1.9214   1.9221   1.9237   1.9251   1.9269   1.9298   1.9301
  1.9314   1.9337   1.9343   1.9355   1.9359   1.9373   1.9381   1.9387
  1.9411   1.9416   1.9423   1.9441   1.9453   1.9469   1.9497   1.9530
  1.9549   1.9553   1.9573   1.9580   1.9612   1.9622   1.9695   1.9720
  1.9775   1.9795   1.9845   1.9866   1.9905   2.0002   2.0047   2.0085
  2.0141   2.0183   2.0294   2.0372   2.0447   2.0456   2.0510   2.0513
  2.0573   2.0602   2.0622   2.0656   2.0664   2.0710   2.0733   2.0752
  2.0762   2.0772   2.0776   2.0790   2.0792   2.0798   2.0822   2.0841
  2.0854   2.0863   2.0877   2.0884   2.0890   2.0903   2.0912   2.0923
  2.0947   2.0951   2.0969   2.0976   2.0993   2.0994   2.1020   2.1036
  2.1058   2.1073   2.1087   2.1106   2.1120   2.1135   2.1138   2.1153
  2.1155   2.1191   2.1204   2.1234   2.1248   2.1263   2.1270   2.1294
  2.1333   2.1347   2.1375   2.1412   2.1444   2.1490   2.1501   2.1510
  2.1552   2.1575   2.1630   2.1719   2.1735   2.1790   2.1854   2.1859
  2.1877   2.1903   2.1917   2.1929   2.1952   2.1957   2.1971   2.2012
  2.2025   2.2073   2.2094   2.2109   2.2131   2.2147   2.2163   2.2206
  2.2237   2.2248   2.2253   2.2255   2.2278   2.2293   2.2304   2.2316
  2.2320   2.2325   2.2343   2.2351   2.2366   2.2375   2.2383   2.2386
  2.2395   2.2404   2.2413   2.2425   2.2436   2.2441   2.2463   2.2470
  2.2490   2.2498   2.2505   2.2515   2.2522   2.2527   2.2531   2.2540
  2.2545   2.2555   2.2561   2.2573   2.2578   2.2587   2.2593   2.2604
  2.2614   2.2617   2.2628   2.2644   2.2653   2.2657   2.2665   2.2676
  2.2682   2.2697   2.2705   2.2714   2.2733   2.2744   2.2746   2.2762
  2.2766   2.2782   2.2789   2.2800   2.2811   2.2816   2.2830   2.2847
  2.2850   2.2860   2.2876   2.2897   2.2914   2.2917   2.2930   2.2949
  2.2955   2.2957   2.2970   2.2976   2.2984   2.2988   2.3006   2.3013
  2.3025   2.3029   2.3034   2.3037   2.3043   2.3066   2.3086   2.3105
  2.3119   2.3125   2.3141   2.3154   2.3159   2.3184   2.3189   2.3193
  2.3210   2.3241   2.3251   2.3273   2.3278   2.3290   2.3299   2.3304
  2.3326   2.3335   2.3348   2.3356   2.3380   2.3387   2.3398   2.3403
  2.3429   2.3445   2.3450   2.3463   2.3473   2.3490   2.3507   2.3515
  2.3523   2.3547   2.3566   2.3572   2.3577   2.3604   2.3625   2.3650
  2.3655   2.3689   2.3697   2.3742   2.3772   2.3816   2.3842   2.3846
  2.3857   2.3895   2.3899   2.3920   2.3960   2.3984   2.4028   2.4126
  2.4138   2.4157   2.4279   2.4329   2.4690   2.4969   2.5172   2.5237
  2.5840   2.6470   2.7215   2.7492   2.7840   2.8239   2.8259   2.8268
  2.8371   2.8402   2.8417   2.8430   2.8440   2.8492   2.8494   2.8511
  2.8531   2.8542   2.8559   2.8566   2.8601   2.8627   2.8637   2.8657
  2.8663   2.8705   2.8738   2.8746   2.8756   2.8830   2.8847   2.8856
  2.8902   2.8986   2.9068   2.9130   2.9432   3.1063   3.2425   3.9521
  3.9572   3.9604   3.9651   3.9683   3.9704   3.9720   3.9803   3.9832
  3.9846   3.9861   3.9893   3.9909   3.9928   3.9968   3.9983   4.0027
  4.0040   4.0046   4.0126   4.0181   4.0201   4.0235   4.0265   4.0295
  4.0357   4.0394   4.2266   4.2280   4.2398   4.2408   4.2456   4.2471
  4.2478   4.2481   4.2512   4.2573   4.2597   4.2612   4.2641   4.2692
  4.2700   4.2725   4.2750   4.2781   4.2813   4.2836   4.2843   4.2851
  4.2885   4.2940   4.2966   4.2980   4.3013   4.3031   4.3051   4.3058
  4.3105   4.3124   4.3166   4.3171   4.3177   4.3205   4.3236   4.3246
  4.3281   4.3320   4.3328   4.3352   4.3369   4.3387   4.3401   4.3434
  4.3479   4.3487   4.3538   4.3568   4.3599   4.3614   4.3634   4.3662
  4.3688   4.3735   4.3780   4.3790   4.3847   4.3870   4.3881   4.3929
  4.3942   4.3984   4.4065   4.4149   4.4183   4.4197   4.4302   4.4398
  4.4499   4.4555   4.4648   4.4744   4.4851   4.4984   4.5054   4.5077
  4.5138   4.5275   4.5402   4.5564   4.5685   4.5987   4.6159   4.6766
  4.7078   4.7193   4.7751   4.9453
 --------------------------------------------------------------

          Ground-State Mulliken Net Atomic Charges

     Atom                 Charge (a.u.)
  ----------------------------------------
      1 C                    -0.228327
      2 C                    -0.413481
      3 C                    -0.214908
      4 C                    -0.520443
      5 C                    -0.363901
      6 C                    -0.540576
      7 H                     0.234917
      8 H                     0.197907
      9 H                     0.206881
     10 H                     0.198509
     11 H                     0.189901
     12 H                     0.204396
     13 H                     0.183867
     14 H                     0.246538
     15 H                     0.217244
     16 H                     0.195825
     17 H                     0.196748
     18 N                    -0.393466
     19 H                     0.474397
     20 C                     0.285679
     21 H                     0.166532
     22 O                    -0.524239
     23 C                    -0.774660
     24 H                     0.220782
     25 H                     0.276510
     26 H                     0.268578
     27 S                     0.841318
     28 C                    -0.940270
     29 H                     0.243525
     30 H                     0.225675
     31 H                     0.305366
     32 O                    -0.672165
     33 C                    -0.944408
     34 H                     0.232235
     35 H                     0.276294
     36 H                     0.302616
     37 S                     0.994716
     38 C                    -0.898141
     39 H                     0.259028
     40 H                     0.239653
     41 H                     0.243703
     42 O                    -0.751715
     43 C                    -0.930351
     44 H                     0.275803
     45 H                     0.236201
     46 H                     0.270442
     47 S                     0.968292
     48 C                    -0.921546
     49 H                     0.249960
     50 H                     0.243319
     51 H                     0.258168
     52 O                    -0.675617
     53 C                    -0.915187
     54 H                     0.239287
     55 H                     0.274866
     56 H                     0.269791
     57 S                     0.692440
     58 C                    -0.776124
     59 H                     0.209518
     60 H                     0.238378
     61 H                     0.298798
     62 O                    -0.644676
     63 C                    -0.714644
     64 H                     0.296818
     65 H                     0.242346
     66 H                     0.239770
     67 S                     0.687604
     68 C                    -0.840892
     69 H                     0.239977
     70 H                     0.241917
     71 H                     0.273621
     72 O                    -0.707605
     73 C                    -0.828949
     74 H                     0.224202
     75 H                     0.251599
     76 H                     0.272364
     77 S                     1.052199
     78 C                    -0.985728
     79 H                     0.286515
     80 H                     0.286295
     81 H                     0.254201
     82 O                    -0.666376
     83 C                    -0.758180
     84 H                     0.237479
     85 H                     0.280859
     86 H                     0.238956
     87 S                     0.752734
     88 C                    -0.790987
     89 H                     0.220766
     90 H                     0.309250
     91 H                     0.287136
     92 O                    -0.616879
     93 C                    -0.916489
     94 H                     0.294372
     95 H                     0.231652
     96 H                     0.242287
     97 S                     0.883179
     98 C                    -0.867643
     99 H                     0.261848
    100 H                     0.241463
    101 H                     0.281532
    102 O                    -0.686708
    103 C                    -0.922444
    104 H                     0.268001
    105 H                     0.253116
    106 H                     0.258984
    107 S                     0.726779
    108 C                    -0.756362
    109 H                     0.246813
    110 H                     0.280124
    111 H                     0.269729
    112 O                    -0.655729
    113 C                    -0.898761
    114 H                     0.252401
    115 H                     0.248400
    116 H                     0.279602
    117 S                     0.976394
    118 C                    -0.859075
    119 H                     0.252736
    120 H                     0.218755
    121 H                     0.264655
    122 O                    -0.664090
    123 C                    -0.795938
    124 H                     0.255573
    125 H                     0.247665
    126 H                     0.238443
    127 S                     0.735090
    128 C                    -0.721332
    129 H                     0.241067
    130 H                     0.279510
    131 H                     0.243186
    132 O                    -0.720478
    133 C                    -1.134664
    134 H                     0.269823
    135 H                     0.248981
    136 H                     0.242997
    137 S                     1.331291
    138 C                    -0.938391
    139 H                     0.228836
    140 H                     0.252199
    141 H                     0.259186
    142 O                    -0.752875
    143 C                    -0.746614
    144 H                     0.272839
    145 H                     0.232876
    146 H                     0.255229
    147 S                     0.712822
    148 C                    -0.780676
    149 H                     0.274299
    150 H                     0.237197
    151 H                     0.242023
    152 O                    -0.668848
    153 C                    -0.900845
    154 H                     0.238013
    155 H                     0.262561
    156 H                     0.256200
    157 S                     0.947494
    158 C                    -0.885345
    159 H                     0.240846
    160 H                     0.241093
    161 H                     0.268861
    162 O                    -0.677644
    163 C                    -0.971671
    164 H                     0.281354
    165 H                     0.247023
    166 H                     0.299872
    167 S                     1.039965
    168 C                    -0.930996
    169 H                     0.239591
    170 H                     0.250552
    171 H                     0.249548
    172 O                    -0.719827
    173 C                    -0.732883
    174 H                     0.262776
    175 H                     0.270178
    176 H                     0.266239
    177 S                     0.809904
    178 C                    -0.872053
    179 H                     0.293407
    180 H                     0.246885
    181 H                     0.236322
    182 O                    -0.714831
    183 C                    -0.891877
    184 H                     0.229537
    185 H                     0.331099
    186 H                     0.243756
    187 S                     1.136273
    188 C                    -0.909006
    189 H                     0.213735
    190 H                     0.288032
    191 H                     0.291195
    192 O                    -0.831606
    193 C                    -0.824694
    194 H                     0.245212
    195 H                     0.223241
    196 H                     0.273630
    197 S                     0.861440
    198 C                    -0.879528
    199 H                     0.243240
    200 H                     0.286481
    201 H                     0.250862
    202 O                    -0.745759
    203 C                    -0.937129
    204 H                     0.296034
    205 H                     0.238896
    206 H                     0.243201
    207 S                     1.020912
    208 C                    -0.875529
    209 H                     0.248625
    210 H                     0.247386
    211 H                     0.252949
    212 O                    -0.676428
    213 C                    -0.904466
    214 H                     0.270910
    215 H                     0.282717
    216 H                     0.232529
    217 S                     0.954062
    218 C                    -0.992397
    219 H                     0.288519
    220 H                     0.247420
    221 H                     0.278452
    222 O                    -0.697309
    223 C                    -0.782308
    224 H                     0.303362
    225 H                     0.231125
    226 H                     0.283302
    227 S                     0.370814
    228 C                    -0.563039
    229 H                     0.251693
    230 H                     0.260474
    231 H                     0.248670
    232 O                    -0.663109
    233 C                    -0.965962
    234 H                     0.269880
    235 H                     0.265733
    236 H                     0.335422
    237 S                     0.893063
    238 C                    -0.845780
    239 H                     0.247636
    240 H                     0.247755
    241 H                     0.244381
    242 O                    -0.755369
    243 C                    -0.974236
    244 H                     0.257584
    245 H                     0.222637
    246 H                     0.248491
    247 S                     1.166956
    248 C                    -0.842397
    249 H                     0.257304
    250 H                     0.228565
    251 H                     0.260219
    252 O                    -0.722558
    253 C                    -0.815247
    254 H                     0.256667
    255 H                     0.256713
    256 H                     0.243394
    257 S                     0.532885
    258 C                    -0.727024
    259 H                     0.243501
    260 H                     0.281424
    261 H                     0.230886
    262 O                    -0.564741
    263 C                    -1.019767
    264 H                     0.298222
    265 H                     0.255576
    266 H                     0.315167
    267 S                     0.976975
    268 C                    -0.939085
    269 H                     0.254410
    270 H                     0.235905
    271 H                     0.273706
    272 O                    -0.671986
    273 C                    -0.783666
    274 H                     0.271261
    275 H                     0.268270
    276 H                     0.306959
    277 S                     0.945767
    278 C                    -1.307777
    279 H                     0.299502
    280 H                     0.288628
    281 H                     0.261337
    282 O                    -0.700037
    283 C                    -0.825290
    284 H                     0.256796
    285 H                     0.322605
    286 H                     0.244496
    287 S                     0.740290
    288 C                    -0.689622
    289 H                     0.224087
    290 H                     0.216812
    291 H                     0.259411
    292 O                    -0.718530
  ----------------------------------------
  Sum of atomic charges =     0.000000

 -----------------------------------------------------------------
                    Cartesian Multipole Moments
 -----------------------------------------------------------------
    Charge (ESU x 10^10)
                 0.0000
    Dipole Moment (Debye)
         X      -2.1873      Y       2.4347      Z       6.8496
       Tot       7.5913
    Quadrupole Moments (Debye-Ang)
        XX   -1078.4141     XY      29.2707     YY    -732.4087
        XZ     293.9617     YZ     112.6013     ZZ    -652.8100
    Octopole Moments (Debye-Ang^2)
       XXX  -79075.4223    XXY  -20367.1221    XYY  -19545.7874
       YYY  -49640.4008    XXZ  -16305.7656    XYZ    5918.4224
       YYZ  -22205.5542    XZZ   -9466.9441    YZZ  -17258.2916
       ZZZ  -71729.8240
    Hexadecapole Moments (Debye-Ang^3)
      XXXX ************   XXXY ************   XXYY -976362.6272
      XYYY ************   YYYY ************   XXXZ ************
      XXYZ -335676.5201   XYYZ -500452.3811   YYYZ ************
      XXZZ -842045.8207   XYZZ -270920.4564   YYZZ ************
      XZZZ ************   YZZZ ************   ZZZZ ************
 -----------------------------------------------------------------
 Total job time:  34912.76s(wall), 288413.01s(cpu) 
 Thu Jul 21 17:13:37 2022

        *************************************************************
        *                                                           *
        *  Thank you very much for using Q-Chem.  Have a nice day.  *
        *                                                           *
        *************************************************************


 
User input: 2 of 2 
 
                  Welcome to Q-Chem
     A Quantum Leap Into The Future Of Chemistry


 Q-Chem 6.0 (devel), Q-Chem, Inc., Pleasanton, CA (2022)

 E. Epifanovsky,  A. T. B. Gilbert,  Xintian Feng,  Joonho Lee,  Yuezhi Mao,  
 N. Mardirossian,  P. Pokhilko,  A. White,  M. Wormit,  M. P. Coons,  
 A. L. Dempwolff,  Zhengting Gan,  D. Hait,  P. R. Horn,  L. D. Jacobson,  
 I. Kaliman,  J. Kussmann,  A. W. Lange,  Ka Un Lao,  D. S. Levine,  Jie Liu,  
 S. C. McKenzie,  A. F. Morrison,  K. Nanda,  F. Plasser,  D. R. Rehn,  
 M. L. Vidal,  Zhi-Qiang You,  Ying Zhu,  B. Alam,  B. Albrecht,  
[...]
          205         206         207         208         209         210
    1   0.2926113  -0.9817649   1.0331518   2.3266800   1.7975751   1.1388639
    2   2.8801156   0.0724849   0.5442967   2.1318006   2.9172109   2.1295467
    3  -3.2568505  -2.5146421  -0.8013482  -1.1563285  -3.0145662   0.1271331
          211         212         213         214         215         216
    1   4.0696212   2.4176948  -3.2483197  -2.1123049  -2.9121705  -4.6702193
    2   0.8025354   0.1889810  -0.0336733   0.0166414  -1.4307230   1.0992853
    3  -1.0317372  -3.6249022   0.0041971  -1.2035817   1.3658655   0.4294224
          217         218         219         220         221         222
    1  -1.7924811  -0.3818625   0.2596253  -0.0303666  -1.1312345  -3.1922053
    2   1.8067228   0.0979500   1.0297334   1.0670851  -1.4740146   1.2186646
    3   0.1346250   0.4733932  -0.8632145   2.0936501   0.4573208   3.0082038
          223         224         225         226         227         228
    1   1.8525404   1.6166401   0.5496748   3.0711091   0.0377339   0.0895477
    2  -2.4273816  -1.7315107  -3.9263618  -1.8517072  -0.7153554  -1.5235001
    3  -0.6854941   0.9168707  -1.2171765  -2.1614022  -0.3515534  -2.3977409
          229         230         231         232         233         234
    1   2.0931477  -0.3707583  -0.7763041   2.0643256  -1.8588273  -1.4074858
    2  -2.2946822  -2.7117441   0.3250367   1.0170820   0.3678224  -0.9569519
    3  -3.0307890  -1.1170756  -2.5103626  -1.6375829  -0.9043708  -1.8196962
          235         236         237         238         239         240
    1  -3.9109654  -0.1868915  -1.3318246  -3.5193920  -4.5055008  -2.4436457
    2   0.7063242   1.3463426  -1.5763689  -1.9647486   0.0731215  -2.3812433
    3  -0.5590243  -0.0151982   0.2327116  -0.1484115   0.0013751  -1.6938330
          241         242         243         244         245         246
    1  -3.4073596  -2.9535541  -2.7437694  -2.4372166  -1.7522966  -4.3041527
    2  -2.9586623   0.0811008   2.1720066   3.6179920   1.7447885   0.8022235
    3   1.3102115   2.3965482  -1.4179583  -0.1656159  -2.6247924  -1.4857490
          247         248         249         250         251         252
    1  -1.2611238  -2.5495163  -4.4938456  -1.7590096  -1.6193673  -3.4945151
    2   1.2311327  -0.8484821  -0.4366973  -0.1367603  -1.5312176   0.7297756
    3  -0.5108403  -1.2799522  -1.1557134  -2.7878979   0.1702727   1.5767018
          253         254         255         256         257         258
    1  -2.1446372  -0.9179836  -3.7390044  -1.4589178  -1.5096345   0.5100254
    2   1.8905946   1.0479548   1.0793744   3.6161860   1.7842850   1.5849577
    3  -2.6257449  -3.8120231  -2.0805501  -2.0646393  -0.6876119  -1.3708332
          259         260         261         262         263         264
    1  -0.4373189   1.1007747   0.4697324  -1.2405193  -0.6504301   0.1416435
    2   3.2633310   0.1298819   1.0622642  -1.4230831   2.4195301   3.2462645
    3  -0.8762849   0.1717415  -3.0856458  -1.3161901   1.2892567   0.3156704
          265         266         267         268         269         270
    1  -2.1619466   0.0755532  -0.0997692  -0.4806887   0.7149991   0.1564929
    2   1.4982339   2.8294419   0.3219230  -0.5311087  -2.0271513   0.7642368
    3   0.6591650   3.0760615   0.2210759   1.8187833   1.4351118   3.2090421
          271         272         273         274         275         276
    1  -1.9272099   2.4847931  -1.7517177  -1.2659280  -0.6543545  -3.0257786
    2  -0.2009416   0.9965549  -0.4139149  -0.9834613   1.4942544  -1.7406984
    3   0.4167124   2.4726128   0.3994251   1.8266719  -0.4513709  -0.2979369
          277         278         279         280         281         282
    1  -0.9634674   0.5381876   1.6408652   0.1240606   0.1428954  -0.2108930
    2  -2.4754534  -0.6706298  -1.7768873   1.4013907  -1.5985234  -1.4971334
    3   0.5629407   0.6607629  -0.5286977   0.0382730   2.1396840  -2.1448684
          283         284         285         286         287         288
    1   2.7803454   2.6988323   1.7655407   4.3251342   2.5755999   3.2204910
    2  -0.5154553  -1.2130623  -0.0260341  -0.0882664   1.7863523   1.3042962
    3  -0.3381602   1.4204497  -1.5459535  -1.2338517  -0.4688155   1.6627337
          289         290         291         292
    1   2.5179124   4.3482512   2.3289870   0.5003369
    2  -0.4503393   0.7505163   2.8188475   1.9157230
    3   2.5107154   0.0566536   2.3582309   2.0997383
 EField
            1           2           3           4           5           6
    1   0.0056400   0.0068405   0.0028411   0.0046788   0.0057604   0.0029957
    2  -0.0010136  -0.0028796  -0.0025609  -0.0036506  -0.0068829  -0.0038579
    3  -0.0001170   0.0039826   0.0034872   0.0023174   0.0005983  -0.0006879
            7           8           9          10          11          12
    1  -0.0006376   0.0096398   0.0066659   0.0053640   0.0085410   0.0006592
    2  -0.0010446  -0.0043962  -0.0002333   0.0023985  -0.0027141  -0.0015114
    3   0.0037677   0.0032933  -0.0016895  -0.0024223   0.0018038   0.0022120
           13          14          15          16          17          18
    1   0.0078463   0.0059069  -0.0053647   0.0033325  -0.0007430   0.0123988
    2  -0.0067985  -0.0127687  -0.0078900   0.0010294  -0.0006033  -0.0066947
    3   0.0008000  -0.0016410  -0.0054008   0.0015064   0.0015538   0.0069380
           19          20          21          22          23          24
    1   0.0166098   0.0124216   0.0122339   0.0097282   0.0036787  -0.0214374
    2  -0.0194813  -0.0041211  -0.0037967  -0.0019648   0.0041312   0.0223154
    3   0.0167936   0.0020388   0.0006199   0.0021572  -0.0038244  -0.0159075
           25          26          27          28          29          30
    1   0.0191520   0.0388510   0.0504024  -0.0037740  -0.0232043   0.0260410
    2   0.0188749   0.0011597  -0.0374966  -0.0010328   0.0220793  -0.0063253
    3   0.0174293  -0.0166045   0.0132064  -0.0044694  -0.0089811  -0.0280185
           31          32          33          34          35          36
    1  -0.0146954  -0.0623219   0.0130496   0.0013961   0.0245178   0.0049144
    2  -0.0169107   0.0411252   0.0005780   0.0050105  -0.0268071   0.0262679
    3   0.0079122   0.0820810  -0.0005407   0.0300085  -0.0033436  -0.0180376
           37          38          39          40          41          42
    1  -0.0085160  -0.0001319   0.0155535   0.0215500  -0.0294707  -0.0461909
    2  -0.0457803   0.0002142   0.0235651  -0.0233928   0.0096697   0.0940513
    3   0.0129011  -0.0076613  -0.0051026  -0.0208479  -0.0116513   0.0304507
           43          44          45          46          47          48
    1  -0.0049275  -0.0350476   0.0133665   0.0194341  -0.0221860  -0.0005723
    2   0.0082471  -0.0049863   0.0242272   0.0102447  -0.0432238   0.0024371
    3  -0.0023097   0.0027652   0.0171489  -0.0258093  -0.0328844   0.0074128
           49          50          51          52          53          54
    1  -0.0319628   0.0027067   0.0197513   0.1073776  -0.0042667   0.0280316
    2   0.0025290  -0.0261417   0.0197224   0.0218454  -0.0090699  -0.0036532
    3   0.0011791   0.0166874   0.0188258   0.0104170  -0.0025616  -0.0025705
           55          56          57          58          59          60
    1  -0.0200833   0.0052008   0.0523666  -0.0042930   0.0239245   0.0082080
    2  -0.0203438   0.0016608   0.0377353  -0.0045534  -0.0147377   0.0236984
    3   0.0241473  -0.0367509  -0.0132605   0.0069415   0.0167090   0.0198484
           61          62          63          64          65          66
    1  -0.0198328  -0.0984364  -0.0130413  -0.0206666   0.0045482  -0.0095632
    2  -0.0250457   0.0343119   0.0040203   0.0186598  -0.0348283   0.0182241
    3   0.0056785  -0.0261143   0.0006409  -0.0217914   0.0043891   0.0280720
           67          68          69          70          71          72
    1   0.0393043  -0.0033466  -0.0075244   0.0269452  -0.0256908  -0.0006331
    2  -0.0169053   0.0102511   0.0174944   0.0034771   0.0032757  -0.0311219
    3   0.0344441   0.0001236   0.0309537  -0.0163030  -0.0171577  -0.1060163
           73          74          75          76          77          78
    1   0.0019336  -0.0081244   0.0281138   0.0095486  -0.0536993   0.0025311
    2  -0.0036450  -0.0326663   0.0013419   0.0091991  -0.0076244  -0.0071580
    3   0.0054292   0.0137521  -0.0108286   0.0275437   0.0206627  -0.0123679
           79          80          81          82          83          84
    1  -0.0208343  -0.0283054   0.0339061   0.0490825   0.0034859  -0.0035234
    2  -0.0282657   0.0106578   0.0038622   0.0958396  -0.0064693  -0.0256743
    3   0.0021894  -0.0198086  -0.0037685  -0.0131249   0.0012578  -0.0194458
           85          86          87          88          89          90
    1   0.0274379  -0.0191974  -0.0164904  -0.0029069  -0.0360075  -0.0218479
    2   0.0019513  -0.0109244   0.0399875  -0.0030677  -0.0059444   0.0222330
    3   0.0185391   0.0261358   0.0385436  -0.0081742   0.0088236  -0.0091841
           91          92          93          94          95          96
    1   0.0023316   0.0785771  -0.0081479  -0.0344661   0.0055730   0.0155926
    2  -0.0256442   0.0185087   0.0029444  -0.0063382  -0.0229068   0.0214836
    3  -0.0209431  -0.0756777   0.0052726  -0.0051476   0.0153645   0.0245330
           97          98          99         100         101         102
    1   0.0532454  -0.0073922  -0.0277214   0.0124120   0.0056345  -0.0482406
    2   0.0059460   0.0075324  -0.0019783   0.0261737  -0.0028475  -0.0888171
    3   0.0042003  -0.0043493   0.0058787   0.0157324  -0.0323144  -0.0444572
          103         104         105         106         107         108
    1  -0.0013472  -0.0369237   0.0328637  -0.0009711   0.0132537   0.0027556
    2   0.0034813   0.0036168  -0.0173165   0.0290543  -0.0516814   0.0079683
    3   0.0065775   0.0047592   0.0061615   0.0101944  -0.0219963  -0.0019254
          109         110         111         112         113         114
    1  -0.0022534  -0.0101091   0.0332075  -0.0944497  -0.0096318  -0.0132822
    2   0.0035515   0.0280388  -0.0000963   0.0681311   0.0003588   0.0173156
    3  -0.0307363   0.0099951   0.0059422  -0.0434555   0.0051751   0.0273943
          115         116         117         118         119         120
    1  -0.0241854  -0.0087971   0.0341058  -0.0036513  -0.0159083  -0.0089030
    2  -0.0104134  -0.0282640   0.0098754   0.0043396  -0.0068778   0.0241442
    3  -0.0227257   0.0054292   0.0501197  -0.0071359  -0.0311862   0.0214557
          121         122         123         124         125         126
    1   0.0272416   0.0297248   0.0039842   0.0145760   0.0140327   0.0166448
    2   0.0047958  -0.0785419   0.0034282   0.0305796   0.0146041  -0.0282419
    3  -0.0141982  -0.0708764  -0.0029448  -0.0240190   0.0222921  -0.0001787
          127         128         129         130         131         132
    1  -0.0267471   0.0001716   0.0132671  -0.0088350  -0.0249580   0.0054890
    2  -0.0177115   0.0074546   0.0172047   0.0378402  -0.0016020  -0.0561848
    3  -0.0446104  -0.0015519   0.0248085  -0.0137600   0.0150608   0.0949698
          133         134         135         136         137         138
    1   0.0058895   0.0219259   0.0145153  -0.0116405  -0.0061593  -0.0041013
    2  -0.0043329   0.0058116   0.0159916  -0.0317785   0.0469561  -0.0054831
    3   0.0041519  -0.0198679   0.0298916  -0.0105087   0.0302113  -0.0000568
          139         140         141         142         143         144
    1  -0.0167207  -0.0306290   0.0124603   0.0048292   0.0099989   0.0265588
    2  -0.0036151   0.0085037  -0.0193474  -0.0045080   0.0042374  -0.0174903
    3   0.0328653  -0.0065577  -0.0244786  -0.1095875   0.0012545  -0.0086341
          145         146         147         148         149         150
    1  -0.0046869   0.0230779  -0.0277868  -0.0000531   0.0149377  -0.0096682
    2   0.0312165   0.0008101  -0.0023468   0.0040222  -0.0088378   0.0317927
    3  -0.0134142   0.0225924  -0.0483838   0.0069660   0.0287032  -0.0093811
          151         152         153         154         155         156
    1  -0.0289418   0.0318321  -0.0077982  -0.0304857   0.0038547  -0.0083609
    2  -0.0067284  -0.0883542  -0.0063300   0.0073361  -0.0241977  -0.0130739
    3   0.0095213   0.0586082   0.0034656  -0.0016319  -0.0164025   0.0299962
          157         158         159         160         161         162
    1   0.0464437  -0.0038235   0.0199624  -0.0229428  -0.0061174  -0.0118302
    2  -0.0202690   0.0066366   0.0242881   0.0104935  -0.0079963   0.0067005
    3   0.0250701   0.0008196   0.0078363  -0.0211425   0.0314756  -0.1087589
          163         164         165         166         167         168
    1   0.0035844  -0.0184514   0.0138040   0.0368494  -0.0456214   0.0062417
    2   0.0084523   0.0290465   0.0277608   0.0055764  -0.0020660  -0.0030699
    3  -0.0044592   0.0026560   0.0215106  -0.0160089   0.0287844   0.0024435
          169         170         171         172         173         174
    1  -0.0008187   0.0022728   0.0248971   0.0156359   0.0060693  -0.0161733
    2   0.0110037  -0.0321550   0.0048460  -0.0387489   0.0103317   0.0238274
    3   0.0318180  -0.0021024  -0.0216245  -0.1016079  -0.0041591   0.0113599
          175         176         177         178         179         180
    1   0.0234392   0.0102930   0.0277529  -0.0043043   0.0106180  -0.0190897
    2  -0.0073541   0.0032707  -0.0471767   0.0075573   0.0175096  -0.0276548
    3   0.0189639  -0.0317613  -0.0215826  -0.0077090  -0.0341075   0.0072697
          181         182         183         184         185         186
    1  -0.0146150  -0.0333069   0.0074571  -0.0001032   0.0001264   0.0217856
    2   0.0289367   0.0077749  -0.0026989  -0.0330006   0.0125616  -0.0035485
    3   0.0073977   0.1020523  -0.0092598   0.0023796  -0.0334971   0.0262250
          187         188         189         190         191         192
    1  -0.0109702  -0.0066649  -0.0172893  -0.0313238   0.0229085   0.0170212
    2   0.0066501  -0.0038259  -0.0356903   0.0010851   0.0063941   0.0748654
    3   0.0447590  -0.0043219  -0.0047377   0.0172398  -0.0278814  -0.0787142
          193         194         195         196         197         198
    1  -0.0087762   0.0058784  -0.0208687  -0.0217588   0.0144984   0.0012145
    2   0.0047637  -0.0147176  -0.0086280   0.0187738  -0.0343682   0.0085539
    3  -0.0025162  -0.0293710   0.0273379  -0.0176923   0.0408841   0.0022529
          199         200         201         202         203         204
    1  -0.0032276   0.0232121  -0.0122674   0.0675824  -0.0066087  -0.0184705
    2   0.0002688   0.0233156   0.0158426   0.0252505   0.0056458   0.0053292
    3   0.0372312   0.0080786  -0.0262600  -0.0834546  -0.0007563   0.0344230
          205         206         207         208         209         210
    1   0.0116711  -0.0177566  -0.0030980   0.0034263   0.0027510  -0.0018947
    2   0.0180901  -0.0225479  -0.0347490   0.0066685   0.0218471   0.0205930
    3  -0.0303181  -0.0107099   0.0466119   0.0016327  -0.0222256   0.0258889
          211         212         213         214         215         216
    1   0.0314472   0.0468377  -0.0079795  -0.0020677  -0.0084118  -0.0337592
    2  -0.0031929  -0.0344905  -0.0080500   0.0091620  -0.0280695   0.0042674
    3   0.0075586  -0.0941194  -0.0019021  -0.0328008   0.0213748  -0.0042328
          217         218         219         220         221         222
    1   0.0084196   0.0077382   0.0181471   0.0241991  -0.0067063  -0.0472375
    2   0.0476376  -0.0027248   0.0106365  -0.0057155  -0.0314928   0.0047717
    3  -0.0332461   0.0101093  -0.0171763   0.0337550   0.0078363   0.0994353
          223         224         225         226         227         228
    1   0.0050528   0.0048084  -0.0015608   0.0210557  -0.0386638  -0.0013021
    2  -0.0054851  -0.0007646  -0.0383595   0.0006067   0.0124962  -0.0054237
    3   0.0028874   0.0311743  -0.0065850  -0.0190384   0.0418971  -0.0022337
          229         230         231         232         233         234
    1   0.0179780  -0.0277142  -0.0150547   0.0691275  -0.0012495   0.0037412
    2  -0.0107126  -0.0236219   0.0190874   0.0765685   0.0009475  -0.0095132
    3  -0.0269772  -0.0000995  -0.0140388  -0.0371207  -0.0079215  -0.0406039
          235         236         237         238         239         240
    1  -0.0341299   0.0149403   0.0377805  -0.0070155  -0.0212841  -0.0136633
    2   0.0069168   0.0124580  -0.0316011  -0.0038975   0.0219770  -0.0204484
    3   0.0003166   0.0015811  -0.0017010  -0.0034811  -0.0043637  -0.0363708
          241         242         243         244         245         246
    1  -0.0039673  -0.0434272  -0.0077169  -0.0045589   0.0184216  -0.0339408
    2  -0.0275477   0.0520848   0.0037351   0.0287357   0.0015836  -0.0054828
    3   0.0183895   0.0869215  -0.0046282   0.0132038  -0.0264605  -0.0034156
          247         248         249         250         251         252
    1   0.0531352  -0.0021608  -0.0334465   0.0204239   0.0088788  -0.0651578
    2   0.0037009  -0.0051611   0.0019790  -0.0230968  -0.0283257  -0.0185565
    3   0.0001899  -0.0074134   0.0078479  -0.0347971   0.0026623   0.0884132
          253         254         255         256         257         258
    1  -0.0007610   0.0101053  -0.0288673  -0.0019053  -0.0173975   0.0077103
    2   0.0033540  -0.0236870  -0.0102789   0.0367339   0.0228532   0.0028812
    3  -0.0096319  -0.0256118  -0.0030431   0.0030261   0.0464018  -0.0003461
          259         260         261         262         263         264
    1   0.0256789   0.0202715   0.0143737   0.0047890  -0.0056773   0.0103073
    2   0.0350103  -0.0171958  -0.0011986  -0.1100248   0.0111169   0.0187344
    3  -0.0011103   0.0209351  -0.0279124  -0.0134626   0.0029542  -0.0279264
          265         266         267         268         269         270
    1  -0.0304267   0.0058262  -0.0062375  -0.0041805   0.0045281  -0.0058573
    2   0.0067514  -0.0019419  -0.0189244  -0.0058923  -0.0342194   0.0149846
    3  -0.0102562   0.0369922  -0.0525723   0.0011982  -0.0054600   0.0203440
          271         272         273         274         275         276
    1  -0.0331273   0.0940476  -0.0080157  -0.0012170   0.0116062  -0.0290697
    2  -0.0160633   0.0221479   0.0035321  -0.0036068   0.0265215  -0.0051970
    3   0.0014506   0.0497924   0.0024931   0.0347066  -0.0120019  -0.0164653
          277         278         279         280         281         282
    1  -0.0092872   0.0136326   0.0256779  -0.0013784  -0.0004905   0.0209244
    2  -0.0477748   0.0051048  -0.0086531   0.0325647   0.0031642   0.0100883
    3   0.0288916   0.0046314  -0.0118027  -0.0015441   0.0342246  -0.1058050
          283         284         285         286         287         288
    1  -0.0018385  -0.0058879  -0.0312454   0.0340962   0.0098124   0.0064162
    2  -0.0086447  -0.0212050  -0.0110961  -0.0068956   0.0337344  -0.0033521
    3  -0.0053879   0.0220892  -0.0185504  -0.0124693  -0.0385993   0.0037675
          289         290         291         292
    1  -0.0072513   0.0395318  -0.0056249  -0.0839746
    2  -0.0212810  -0.0006396   0.0283228   0.0110966
    3   0.0197307  -0.0020063   0.0103562   0.0691157
  --- DONE ESP SUMMARY ---
 Total job time:  29.30s(wall), 76.02s(cpu) 
 Thu Jul 21 17:14:07 2022

        *************************************************************
        *                                                           *
        *  Thank you very much for using Q-Chem.  Have a nice day.  *
        *                                                           *
        *************************************************************


