                  Welcome to Q-Chem
     A Quantum Leap Into The Future Of Chemistry


 Q-Chem 6.0 (devel), Q-Chem, Inc., Pleasanton, CA (2022)

 E. Epifanovsky,  A. T. B. Gilbert,  Xintian Feng,  Joonho Lee,  Yuezhi Mao,  
 N. Mardirossian,  P. Pokhilko,  A. White,  M. Wormit,  M. P. Coons,  
 A. L. Dempwolff,  Zhengting Gan,  D. Hait,  P. R. Horn,  L. D. Jacobson,  
 I. Kaliman,  J. Kussmann,  A. W. Lange,  Ka Un Lao,  D. S. Levine,  Jie Liu,  
 S. C. McKenzie,  A. F. Morrison,  K. Nanda,  F. Plasser,  D. R. Rehn,  
 M. L. Vidal,  Zhi-Qiang You,  Ying Zhu,  B. Alam,  B. Albrecht,  
 A. Aldossary,  E. Alguire,  J. H. Andersen,  V. Athavale,  D. Barton,  
 K. Begam,  A. Behn,  N. Bellonzi,  Y. A. Bernard,  E. J. Berquist,  
 H. Burton,  A. Carreras,  K. Carter-Fenk,  Romit Chakraborty,  
 Chandrima Chakravarty,  Junhan Chen,  A. D. Chien,  K. D. Closser,  
 V. Cofer-Shabica,  L. Cunha,  S. Dasgupta,  Jia Deng,  M. de Wergifosse,  
 M. Diedenhofen,  Hainam Do,  S. Ehlert,  Po-Tung Fang,  S. Fatehi,  
 Qingguo Feng,  T. Friedhoff,  B. Ganoe,  J. Gayvert,  Qinghui Ge,  
 G. Gidofalvi,  M. Goldey,  J. Gomes,  C. Gonzalez-Espinoza,  S. Gulania,  
 A. Gunina,  J. A. Gyamfi,  M. W. D. Hanson-Heine,  P. H. P. Harbach,  
 A. W. Hauser,  M. F. Herbst,  M. Hernandez Vera,  M. Hodecker,  
 Z. C. Holden,  S. Houck,  Xunkun Huang,  Kerwin Hui,  B. C. Huynh,  
 K. Ikeda,  M. Ivanov,  Hyunjun Ji,  Zuxin Jin,  Hanjie Jiang,  B. Kaduk,  
 S. Kaehler,  R. Kang,  K. Khistyaev,  Jaehoon Kim,  Yongbin Kim,  
 P. Klunzinger,  Z. Koczor-Benda,  Joong Hoon Koh,  D. Kosenkov,  
 Saikiran Kotaru,  L. Koulias,  T. Kowalczyk,  C. M. Krauter,  K. Kue,  
 A. Kunitsa,  T. Kus,  A. Landau,  K. V. Lawler,  D. Lefrancois,  S. Lehtola,  
 Rain Li,  Shaozhi Li,  Yi-Pei Li,  Jiashu Liang,  M. Liebenthal,  
 Hung-Hsuan Lin,  You-Sheng Lin,  Fenglai Liu,  Kuan-Yu Liu,  
 M. Loipersberger,  A. Luenser,  C. Malbon,  A. Manjanath,  P. Manohar,  
 E. Mansoor,  S. F. Manzer,  Shan-Ping Mao,  A. V. Marenich,  T. Markovich,  
 S. Mason,  F. Matz,  S. A. Maurer,  P. F. McLaughlin,  M. F. S. J. Menger,  
 J.-M. Mewes,  S. A. Mewes,  P. Morgante,  Mohammad Mostafanejad,  
 J. W. Mullinax,  K. J. Oosterbaan,  G. Paran,  V. Parravicini,  
 Alexander C. Paul,  Suranjan K. Paul,  F. Pavosevic,  Zheng Pei,  S. Prager,  
 E. I. Proynov,  E. Ramos,  B. Rana,  A. E. Rask,  A. Rettig,  R. M. Richard,  
 F. Rob,  E. Rossomme,  T. Scheele,  M. Scheurer,  M. Schneider,  
 P. E. Schneider,  N. Sergueev,  S. M. Sharada,  Hengyuan Shen,  
 W. Skomorowski,  D. W. Small,  C. J. Stein,  Yingli Su,  Yu-Chuan Su,  
 E. J. Sundstrom,  Zhen Tao,  J. Thirman,  Hung-Yi Tsai,  T. Tsuchimochi,  
 N. M. Tubman,  C. Utku,  S. P. Veccham,  O. Vydrov,  J. Wenzel,  
 Jonathan Wong,  J. Witte,  A. Yamada,  Chou-Hsun Yang,  Kun Yao,  
 S. Yeganeh,  S. R. Yost,  A. Zech,  F. Zeller,  Igor Ying Zhang,  
 Xing Zhang,  Yu Zhang,  D. Zuev,  A. Aspuru-Guzik,  A. T. Bell,  
 N. A. Besley,  K. B. Bravaya,  B. R. Brooks,  D. Casanova,  Jeng-Da Chai,  
 Hsing-Ta Chen,  S. Coriani,  C. J. Cramer,  A. E. DePrince, III,  
 R. A. DiStasio Jr.,  A. Dreuw,  B. D. Dunietz,  T. R. Furlani,  
 W. A. Goddard III,  S. Grimme,  S. Hammes-Schiffer,  T. Head-Gordon,  
 W. J. Hehre,  Chao-Ping Hsu,  T.-C. Jagau,  Yousung Jung,  A. Klamt,  
 Jing Kong,  D. S. Lambrecht,  Xiangyuan Li,  WanZhen Liang,  N. J. Mayhall,  
 C. W. McCurdy,  J. B. Neaton,  T. Neudecker,  C. Ochsenfeld,  
 J. A. Parkhill,  R. Peverati,  V. A. Rassolov,  Haisheng Ren,  Yihan Shao,  
 L. V. Slipchenko,  R. P. Steele,  J. E. Subotnik,  A. J. W. Thom,  
 A. Tkatchenko,  D. G. Truhlar,  T. Van Voorhis,  Fan Wang,  
 T. A. Wesolowski,  K. B. Whaley,  H. L. Woodcock III,  P. M. Zimmerman,  
 S. Faraji,  P. M. W. Gill,  M. Head-Gordon,  J. M. Herbert,  A. I. Krylov

 Contributors to earlier versions of Q-Chem not listed above: 
 R. D. Adamson,  B. Austin,  R. Baer,  J. Baker,  G. J. O. Beran,  
 K. Brandhorst,  S. T. Brown,  E. F. C. Byrd,  Arup K. Chakraborty,  
 G. K. L. Chan,  Chun-Min Chang,  Yunqing Chen,  C.-L. Cheng,  
 Siu Hung Chien,  D. M. Chipman,  D. L. Crittenden,  H. Dachsel,  
 R. J. Doerksen,  A. D. Dutoi,  R. G. Edgar,  J. Fosso-Tande,  
 L. Fusti-Molnar,  D. Ghosh,  A. Ghysels,  A. Golubeva-Zadorozhnaya,  
 J. Gonthier,  M. S. Gordon,  S. R. Gwaltney,  G. Hawkins,  J. E. Herr,  
 A. Heyden,  S. Hirata,  E. G. Hohenstein,  G. Kedziora,  F. J. Keil,  
 C. Kelley,  Jihan Kim,  R. A. King,  R. Z. Khaliullin,  P. P. Korambath,  
 W. Kurlancheek,  A. Laurent,  A. M. Lee,  M. S. Lee,  S. V. Levchenko,  
 Ching Yeh Lin,  D. Liotard,  E. Livshits,  R. C. Lochan,  I. Lotan,  
 L. A. Martinez-Martinez,  P. E. Maslen,  N. Nair,  D. P. O'Neill,  
 D. Neuhauser,  E. Neuscamman,  C. M. Oana,  R. Olivares-Amaya,  R. Olson,  
 T. M. Perrine,  B. Peters,  P. A. Pieniazek,  A. Prociuk,  Y. M. Rhee,  
 J. Ritchie,  M. A. Rohrdanz,  E. Rosta,  N. J. Russ,  H. F. Schaefer III,  
 M. W. Schmidt,  N. E. Schultz,  S. Sharma,  N. Shenvi,  C. D. Sherrill,  
 A. C. Simmonett,  A. Sodt,  T. Stein,  D. Stuck,  K. S. Thanthiriwatte,  
 V. Vanovschi,  L. Vogt,  Tao Wang,  A. Warshel,  M. A. Watson,  
 C. F. Williams,  Q. Wu,  X. Xu,  Jun Yang,  W. Zhang,  Yan Zhao

   Please cite Q-Chem as follows:
  "Software for the frontiers of quantum chemistry:
   An overview of developments in the Q-Chem 5 package"
   J. Chem. Phys. 155, 084801 (2021)
   https://doi.org/10.1063/5.0055522 (open access)

 Q-Chem 6.0.0 for Intel X86 EM64T Linux

 Parts of Q-Chem use Armadillo 9.900.5 (Nocturnal Misbehaviour).
 http://arma.sourceforge.net/

 Q-Chem begins on Thu Jul 21 09:24:32 2022  

 Host: nid00536
0

     Scratch files written to /global/cscratch1/sd/ymao90/r7.00_frame_0021_almo_B3LYP_dp20220721031503//
 Processing $rem in /global/homes/y/ymao90/my_qchem/qchem_embedding_5p4/config/preferences:
 Processing $rem in /global/homes/y/ymao90/.qchemrc:

 Checking the input file for inconsistencies... 	...done.

--------------------------------------------------------------
User input:
--------------------------------------------------------------
$molecule
0 1
--
0 1
C    22.97800   14.20400   26.86100  
C    23.15700   15.15100   25.66300  
C    22.15000   16.30600   25.78400  
C    22.01200   17.01300   27.14200  
C    22.00500   16.10300   28.38100  
C    23.03100   14.97300   28.19100  
H    22.40600   17.01000   24.98200  
H    24.16000   15.55600   25.84700  
H    22.10100   13.54700   26.81100  
H    23.90300   13.61400   26.82900  
H    22.94000   17.58200   27.27500  
H    21.18400   17.73000   27.20300  
H    22.16900   16.62400   29.33200  
H    21.00200   15.65900   28.39000  
H    24.08300   15.28200   28.22300  
H    22.86500   14.22200   28.97300  
H    21.17300   15.84200   25.60000  
N    22.96900   14.38600   24.43200  
H    22.00100   14.14300   24.25700  
C    23.87400   14.43700   23.39200  
H    23.54900   14.04000   22.41300  
O    25.05000   14.69100   23.58100  
--
0 1
C    20.30600   21.42700   28.13100  
H    20.42600   20.34200   28.18600  
H    19.52200   21.81200   28.78700  
H    20.10500   21.65100   27.08000  
S    21.77400   22.28200   28.74700  
C    22.77700   21.71200   27.35600  
H    22.76400   20.61900   27.34100  
H    22.38200   22.11000   26.41700  
H    23.81000   22.00800   27.55700  
O    22.22300   21.47800   29.92700  
C    20.83300   19.79600   22.70400  
H    21.63100   20.33900   22.19200  
H    20.99400   18.71900   22.61500  
H    19.92900   20.06000   22.15000  
S    20.68900   20.26000   24.44500  
C    18.92800   19.88800   24.60300  
H    18.83800   18.79900   24.61300  
H    18.60300   20.40900   25.50700  
H    18.25000   20.37700   23.89900  
O    20.57900   21.74200   24.62900  
C    27.69400   14.31300   32.00500  
H    28.31800   15.20000   32.14200  
H    27.11200   14.24900   32.92800  
H    28.22500   13.38800   31.76700  
S    26.43500   14.59600   30.74000  
C    27.60100   15.04900   29.43600  
H    26.99600   15.38500   28.59000  
H    28.25500   15.89300   29.67200  
H    28.14000   14.12200   29.22400  
O    25.78100   15.90700   31.04900  
C    24.52200   19.11100   30.05700  
H    24.35700   19.69200   30.96800  
H    23.67000   19.14100   29.37300  
H    25.00000   18.16400   30.32200  
S    25.83800   19.97800   29.17200  
C    26.68900   18.53100   28.50300  
H    27.14000   18.05800   29.37900  
H    25.91500   17.81400   28.21800  
H    27.45100   18.72300   27.74400  
O    26.76700   20.47500   30.23500  
C    20.72900   11.49600   36.32800  
H    19.97000   11.10900   35.64300  
H    21.10800   10.72800   37.00700  
H    20.35000   12.39600   36.81900  
S    22.10100   11.98100   35.25700  
C    23.00200   12.78600   36.60000  
H    22.45300   13.61400   37.05600  
H    23.26100   12.02700   37.34200  
H    23.95500   13.10200   36.16800  
O    21.59600   13.18900   34.53100  
C    20.31900   19.84700   32.99700  
H    20.18200   19.91500   31.91400  
H    20.96900   20.64000   33.37600  
H    20.62100   18.88300   33.41200  
S    18.69600   20.21700   33.70100  
C    19.35800   19.88000   35.34800  
H    19.77600   18.87100   35.37700  
H    20.16500   20.58300   35.56700  
H    18.58000   19.94900   36.11300  
O    17.86500   19.03000   33.32400  
C    17.36700   19.32100   27.85800  
H    18.28500   19.79800   27.50500  
H    16.66100   19.34300   27.02400  
H    16.83000   19.92400   28.59500  
S    17.86200   17.62500   28.23700  
C    18.92400   17.92100   29.66800  
H    19.14900   17.07300   30.32000  
H    19.82700   18.19900   29.11700  
H    18.50400   18.75500   30.23500  
O    18.78800   17.37600   27.08700  
C    19.24400   8.79600    26.25000  
H    18.31600   8.94400    25.69100  
H    19.76400   9.68100    26.62500  
H    19.92700   8.30300    25.55300  
S    18.76500   7.50400    27.41900  
C    17.86600   8.43400    28.68100  
H    18.52400   9.23800    29.02000  
H    17.02000   8.88500    28.15500  
H    17.69200   7.63500    29.40600  
O    20.05500   7.04600    28.02400  
C    28.08700   12.80400   22.50800  
H    27.34100   13.49000   22.91800  
H    27.95700   11.81500   22.95500  
H    29.04000   13.22300   22.84100  
S    28.11100   12.65900   20.70700  
C    26.49000   11.90100   20.46000  
H    25.65000   12.59300   20.56600  
H    26.47600   11.53500   19.43000  
H    26.49400   11.01700   21.10200  
O    29.03700   11.49700   20.52200  
C    28.66900   20.44000   26.10500  
H    29.39800   19.68200   26.40400  
H    27.74700   20.07200   25.64700  
H    29.20700   21.02200   25.35200  
S    28.20400   21.56100   27.44400  
C    27.26000   22.73900   26.45200  
H    27.37000   23.71300   26.93400  
H    27.61900   22.65800   25.42300  
H    26.24500   22.33200   26.47100  
O    29.49400   22.31700   27.52800  
C    27.37100   11.37600   27.34800  
H    27.08300   10.63600   26.59800  
H    26.49300   11.97300   27.60700  
H    28.31800   11.88900   27.15900  
S    27.70600   10.31500   28.77200  
C    26.09900   9.50500    28.61400  
H    26.16600   8.76200    27.81500  
H    25.87000   8.94900    29.52700  
H    25.21500   10.14400   28.54300  
O    27.62700   11.22100   29.96100  
C    26.14100   12.67200   14.86500  
H    27.02300   12.26800   14.36100  
H    25.23900   12.43600   14.29500  
H    26.29500   13.75400   14.89200  
S    26.07800   12.05000   16.56100  
C    24.78600   13.20800   17.06600  
H    24.76200   13.13700   18.15600  
H    25.18000   14.19500   16.80800  
H    23.85700   12.93400   16.56100  
O    27.30000   12.68800   17.14500  
C    24.88700   12.12200   32.12800  
H    24.01700   11.46300   32.16900  
H    24.66700   13.16400   32.37400  
H    25.40900   12.12100   31.16800  
S    26.07300   11.51200   33.34700  
C    25.68200   9.76700    33.08700  
H    24.67600   9.54700    33.45300  
H    25.69600   9.50300    32.02600  
H    26.30000   9.07200    33.66100  
O    25.60600   11.86300   34.72500  
C    29.02800   19.66500   32.75700  
H    29.92900   20.07800   32.29400  
H    28.26500   20.44100   32.85200  
H    29.33700   19.17000   33.68100  
S    28.40600   18.30200   31.74700  
C    27.43600   17.79300   33.18400  
H    27.98400   17.78500   34.12900  
H    26.63300   18.53200   33.26200  
H    26.93800   16.83800   32.99900  
O    29.56700   17.35700   31.74700  
C    21.24900   13.76900   31.14600  
H    22.00600   13.22100   31.71400  
H    20.88500   13.03100   30.42700  
H    21.61400   14.67700   30.65900  
S    19.87400   14.28600   32.19700  
C    19.21300   12.62200   32.44100  
H    18.26700   12.70000   32.98300  
H    19.10300   12.04200   31.52100  
H    19.85800   12.04400   33.10800  
O    18.94100   14.99600   31.26500  
C    21.86400   17.67300   19.80800  
H    21.90600   17.64900   18.71600  
H    21.35000   16.75100   20.09000  
H    21.27400   18.54100   20.11400  
S    23.35500   17.60400   20.82700  
C    23.89500   16.07700   20.02700  
H    23.22400   15.26600   20.32200  
H    23.91800   16.33100   18.96400  
H    24.93500   15.90800   20.31600  
O    22.81500   17.10200   22.13000  
C    18.66200   10.70200   21.35600  
H    19.17300   9.74200    21.46300  
H    17.64500   10.63400   20.96200  
H    19.22500   11.39800   20.72800  
S    18.42400   11.36500   23.01900  
C    20.00100   10.76100   23.66200  
H    20.13100   11.10300   24.69200  
H    19.99900   9.68400    23.47800  
H    20.73100   11.27400   23.03100  
O    17.60100   10.18400   23.43000  
C    17.81000   13.56400   28.69400  
H    17.76900   14.61800   28.40800  
H    16.93900   13.12200   28.20300  
H    17.80800   13.44700   29.78100  
S    19.31100   12.88200   27.95400  
C    19.12300   13.39900   26.23200  
H    19.94600   12.97800   25.64900  
H    18.22000   12.96700   25.79300  
H    19.16600   14.49000   26.26700  
O    19.04600   11.40900   27.96100  
C    22.29200   10.36300   20.34600  
H    22.14200   9.32800    20.02700  
H    23.33100   10.57400   20.61200  
H    21.63400   10.54600   21.20000  
S    21.69000   11.60100   19.17600  
C    22.70900   10.86500   17.87800  
H    22.38900   9.83800    17.69000  
H    22.65000   11.41600   16.93600  
H    23.73000   10.81900   18.26600  
O    22.43700   12.84000   19.56000  
C    29.85300   18.32600   19.34100  
H    30.10800   17.84600   18.39300  
H    29.37700   19.29300   19.15900  
H    30.73900   18.40400   19.97700  
S    28.66700   17.26100   20.19400  
C    27.22200   17.99100   19.39000  
H    27.33900   17.91100   18.30700  
H    26.31500   17.48100   19.72700  
H    27.18000   19.07900   19.49000  
O    28.62000   17.75100   21.60700  
C    22.86500   16.73900   32.57700  
H    22.06400   16.13000   33.00400  
H    22.45300   17.45300   31.85900  
H    23.51900   15.98600   32.13000  
S    23.70800   17.47000   33.99800  
C    24.03800   15.99500   34.98800  
H    23.85600   16.30900   36.01800  
H    23.18600   15.37300   34.70300  
H    25.02000   15.59900   34.71600  
O    22.63300   18.20800   34.73300  
C    25.99300   18.29500   24.19200  
H    26.39000   17.63000   24.96400  
H    25.67200   17.70500   23.33100  
H    26.75300   19.01400   23.87400  
S    24.65300   19.35900   24.77200  
C    24.42200   20.30600   23.25000  
H    25.36800   20.60600   22.79100  
H    23.94600   19.63400   22.53300  
H    23.76900   21.17400   23.37000  
O    25.28000   20.27500   25.77600  
C    28.23100   14.97300   25.65200  
H    28.17800   16.05200   25.82100  
H    27.74400   14.79300   24.69000  
H    27.67000   14.44000   26.42400  
S    29.96100   14.46600   25.54100  
C    30.21600   15.46700   24.05800  
H    30.39200   16.51500   24.31300  
H    31.11800   15.13700   23.53600  
H    29.30300   15.42200   23.46100  
O    29.75900   13.04200   25.12600  
C    16.01700   17.35200   24.96800  
H    15.50100   17.46200   25.92500  
H    17.09100   17.20700   25.10400  
H    15.86700   18.24600   24.35600  
S    15.31200   15.97500   24.03400  
C    13.57400   16.46100   24.11700  
H    13.44300   17.50800   23.83300  
H    13.13500   15.90100   23.28700  
H    13.07500   16.05800   25.00200  
O    15.38500   14.72900   24.86100  
C    21.33300   10.07200   31.01900  
H    21.51800   11.04700   31.47600  
H    20.32700   9.64900    31.08200  
H    22.04700   9.40800    31.51200  
S    21.83900   10.09600   29.28400  
C    22.68200   8.49800    29.24100  
H    21.91000   7.73000    29.14700  
H    23.35900   8.48700    28.38300  
H    23.34600   8.42000    30.10600  
O    23.05500   10.96500   29.35400  
C    24.95100   10.96200   23.84600  
H    25.44700   11.86300   24.21400  
H    25.43900   10.13300   24.36500  
H    24.96400   11.06900   22.75800  
S    23.20200   10.68600   24.21000  
C    23.34400   10.60700   26.00900  
H    24.26500   10.06600   26.23900  
H    23.39200   11.58700   26.49100  
H    22.48500   10.01500   26.33500  
O    22.97600   9.26700    23.78900  
C    30.68600   19.09500   28.95800  
H    29.88100   19.82300   28.83400  
H    31.06800   18.94600   29.97100  
H    31.49000   19.38400   28.27500  
S    29.98100   17.49000   28.51900  
C    31.52500   16.66900   28.97500  
H    32.45700   17.05900   28.55700  
H    31.52300   16.58900   30.06500  
H    31.34800   15.63200   28.67700  
O    30.01100   17.37800   27.02700  
C    19.04900   16.37700   23.15800  
H    18.84600   17.18900   22.45500  
H    18.19800   15.85900   23.60600  
H    19.51800   16.65600   24.10500  
S    20.21200   15.30300   22.28600  
C    18.86200   14.84000   21.17700  
H    18.77200   15.70700   20.51700  
H    19.15100   13.98800   20.55700  
H    17.92500   14.60000   21.68500  
O    20.42300   14.04000   23.06000  
$end

$rem
JOBTYPE  SP
METHOD  B3LYP
BASIS  6-31+G(D)
SYMMETRY  FALSE
SYM_IGNORE  TRUE
MEM_TOTAL  12000
MEM_STATIC  4000
BASIS_LIN_DEP_THRESH  6
THRESH  14
SCF_CONVERGENCE  8
FD_MAT_VEC_PROD  FALSE
XC_GRID  000075000302
NL_GRID  1
MAX_SCF_CYCLES  200
FRGM_METHOD  STOLL
SCFMI_MODE  1
ALMO_EFIELD  TRUE
$end

$rem_frgm
SCF_CONVERGENCE  4
$end


--------------------------------------------------------------
 ----------------------------------------------------------------
             Standard Nuclear Orientation (Angstroms)
    I     Atom           X                Y                Z
 ----------------------------------------------------------------
    1      C      22.9780000000    14.2040000000    26.8610000000
    2      C      23.1570000000    15.1510000000    25.6630000000
    3      C      22.1500000000    16.3060000000    25.7840000000
    4      C      22.0120000000    17.0130000000    27.1420000000
    5      C      22.0050000000    16.1030000000    28.3810000000
    6      C      23.0310000000    14.9730000000    28.1910000000
    7      H      22.4060000000    17.0100000000    24.9820000000
    8      H      24.1600000000    15.5560000000    25.8470000000
    9      H      22.1010000000    13.5470000000    26.8110000000
   10      H      23.9030000000    13.6140000000    26.8290000000
   11      H      22.9400000000    17.5820000000    27.2750000000
   12      H      21.1840000000    17.7300000000    27.2030000000
   13      H      22.1690000000    16.6240000000    29.3320000000
   14      H      21.0020000000    15.6590000000    28.3900000000
   15      H      24.0830000000    15.2820000000    28.2230000000
   16      H      22.8650000000    14.2220000000    28.9730000000
   17      H      21.1730000000    15.8420000000    25.6000000000
   18      N      22.9690000000    14.3860000000    24.4320000000
   19      H      22.0010000000    14.1430000000    24.2570000000
   20      C      23.8740000000    14.4370000000    23.3920000000
   21      H      23.5490000000    14.0400000000    22.4130000000
   22      O      25.0500000000    14.6910000000    23.5810000000
   23      C      20.3060000000    21.4270000000    28.1310000000
   24      H      20.4260000000    20.3420000000    28.1860000000
   25      H      19.5220000000    21.8120000000    28.7870000000
   26      H      20.1050000000    21.6510000000    27.0800000000
   27      S      21.7740000000    22.2820000000    28.7470000000
   28      C      22.7770000000    21.7120000000    27.3560000000
   29      H      22.7640000000    20.6190000000    27.3410000000
   30      H      22.3820000000    22.1100000000    26.4170000000
   31      H      23.8100000000    22.0080000000    27.5570000000
   32      O      22.2230000000    21.4780000000    29.9270000000
   33      C      20.8330000000    19.7960000000    22.7040000000
   34      H      21.6310000000    20.3390000000    22.1920000000
   35      H      20.9940000000    18.7190000000    22.6150000000
   36      H      19.9290000000    20.0600000000    22.1500000000
   37      S      20.6890000000    20.2600000000    24.4450000000
   38      C      18.9280000000    19.8880000000    24.6030000000
   39      H      18.8380000000    18.7990000000    24.6130000000
   40      H      18.6030000000    20.4090000000    25.5070000000
   41      H      18.2500000000    20.3770000000    23.8990000000
   42      O      20.5790000000    21.7420000000    24.6290000000
   43      C      27.6940000000    14.3130000000    32.0050000000
   44      H      28.3180000000    15.2000000000    32.1420000000
   45      H      27.1120000000    14.2490000000    32.9280000000
   46      H      28.2250000000    13.3880000000    31.7670000000
   47      S      26.4350000000    14.5960000000    30.7400000000
   48      C      27.6010000000    15.0490000000    29.4360000000
   49      H      26.9960000000    15.3850000000    28.5900000000
   50      H      28.2550000000    15.8930000000    29.6720000000
   51      H      28.1400000000    14.1220000000    29.2240000000
   52      O      25.7810000000    15.9070000000    31.0490000000
   53      C      24.5220000000    19.1110000000    30.0570000000
   54      H      24.3570000000    19.6920000000    30.9680000000
   55      H      23.6700000000    19.1410000000    29.3730000000
   56      H      25.0000000000    18.1640000000    30.3220000000
   57      S      25.8380000000    19.9780000000    29.1720000000
   58      C      26.6890000000    18.5310000000    28.5030000000
   59      H      27.1400000000    18.0580000000    29.3790000000
   60      H      25.9150000000    17.8140000000    28.2180000000
   61      H      27.4510000000    18.7230000000    27.7440000000
   62      O      26.7670000000    20.4750000000    30.2350000000
   63      C      20.7290000000    11.4960000000    36.3280000000
   64      H      19.9700000000    11.1090000000    35.6430000000
   65      H      21.1080000000    10.7280000000    37.0070000000
   66      H      20.3500000000    12.3960000000    36.8190000000
   67      S      22.1010000000    11.9810000000    35.2570000000
   68      C      23.0020000000    12.7860000000    36.6000000000
   69      H      22.4530000000    13.6140000000    37.0560000000
   70      H      23.2610000000    12.0270000000    37.3420000000
   71      H      23.9550000000    13.1020000000    36.1680000000
   72      O      21.5960000000    13.1890000000    34.5310000000
   73      C      20.3190000000    19.8470000000    32.9970000000
   74      H      20.1820000000    19.9150000000    31.9140000000
   75      H      20.9690000000    20.6400000000    33.3760000000
   76      H      20.6210000000    18.8830000000    33.4120000000
   77      S      18.6960000000    20.2170000000    33.7010000000
   78      C      19.3580000000    19.8800000000    35.3480000000
   79      H      19.7760000000    18.8710000000    35.3770000000
   80      H      20.1650000000    20.5830000000    35.5670000000
   81      H      18.5800000000    19.9490000000    36.1130000000
   82      O      17.8650000000    19.0300000000    33.3240000000
   83      C      17.3670000000    19.3210000000    27.8580000000
   84      H      18.2850000000    19.7980000000    27.5050000000
   85      H      16.6610000000    19.3430000000    27.0240000000
   86      H      16.8300000000    19.9240000000    28.5950000000
   87      S      17.8620000000    17.6250000000    28.2370000000
   88      C      18.9240000000    17.9210000000    29.6680000000
   89      H      19.1490000000    17.0730000000    30.3200000000
   90      H      19.8270000000    18.1990000000    29.1170000000
   91      H      18.5040000000    18.7550000000    30.2350000000
   92      O      18.7880000000    17.3760000000    27.0870000000
   93      C      19.2440000000     8.7960000000    26.2500000000
   94      H      18.3160000000     8.9440000000    25.6910000000
   95      H      19.7640000000     9.6810000000    26.6250000000
   96      H      19.9270000000     8.3030000000    25.5530000000
   97      S      18.7650000000     7.5040000000    27.4190000000
   98      C      17.8660000000     8.4340000000    28.6810000000
   99      H      18.5240000000     9.2380000000    29.0200000000
  100      H      17.0200000000     8.8850000000    28.1550000000
  101      H      17.6920000000     7.6350000000    29.4060000000
  102      O      20.0550000000     7.0460000000    28.0240000000
  103      C      28.0870000000    12.8040000000    22.5080000000
  104      H      27.3410000000    13.4900000000    22.9180000000
  105      H      27.9570000000    11.8150000000    22.9550000000
  106      H      29.0400000000    13.2230000000    22.8410000000
  107      S      28.1110000000    12.6590000000    20.7070000000
  108      C      26.4900000000    11.9010000000    20.4600000000
  109      H      25.6500000000    12.5930000000    20.5660000000
  110      H      26.4760000000    11.5350000000    19.4300000000
  111      H      26.4940000000    11.0170000000    21.1020000000
  112      O      29.0370000000    11.4970000000    20.5220000000
  113      C      28.6690000000    20.4400000000    26.1050000000
  114      H      29.3980000000    19.6820000000    26.4040000000
  115      H      27.7470000000    20.0720000000    25.6470000000
  116      H      29.2070000000    21.0220000000    25.3520000000
  117      S      28.2040000000    21.5610000000    27.4440000000
  118      C      27.2600000000    22.7390000000    26.4520000000
  119      H      27.3700000000    23.7130000000    26.9340000000
  120      H      27.6190000000    22.6580000000    25.4230000000
  121      H      26.2450000000    22.3320000000    26.4710000000
  122      O      29.4940000000    22.3170000000    27.5280000000
  123      C      27.3710000000    11.3760000000    27.3480000000
  124      H      27.0830000000    10.6360000000    26.5980000000
  125      H      26.4930000000    11.9730000000    27.6070000000
  126      H      28.3180000000    11.8890000000    27.1590000000
  127      S      27.7060000000    10.3150000000    28.7720000000
  128      C      26.0990000000     9.5050000000    28.6140000000
  129      H      26.1660000000     8.7620000000    27.8150000000
  130      H      25.8700000000     8.9490000000    29.5270000000
  131      H      25.2150000000    10.1440000000    28.5430000000
  132      O      27.6270000000    11.2210000000    29.9610000000
  133      C      26.1410000000    12.6720000000    14.8650000000
  134      H      27.0230000000    12.2680000000    14.3610000000
  135      H      25.2390000000    12.4360000000    14.2950000000
  136      H      26.2950000000    13.7540000000    14.8920000000
  137      S      26.0780000000    12.0500000000    16.5610000000
  138      C      24.7860000000    13.2080000000    17.0660000000
  139      H      24.7620000000    13.1370000000    18.1560000000
  140      H      25.1800000000    14.1950000000    16.8080000000
  141      H      23.8570000000    12.9340000000    16.5610000000
  142      O      27.3000000000    12.6880000000    17.1450000000
  143      C      24.8870000000    12.1220000000    32.1280000000
  144      H      24.0170000000    11.4630000000    32.1690000000
  145      H      24.6670000000    13.1640000000    32.3740000000
  146      H      25.4090000000    12.1210000000    31.1680000000
  147      S      26.0730000000    11.5120000000    33.3470000000
  148      C      25.6820000000     9.7670000000    33.0870000000
  149      H      24.6760000000     9.5470000000    33.4530000000
  150      H      25.6960000000     9.5030000000    32.0260000000
  151      H      26.3000000000     9.0720000000    33.6610000000
  152      O      25.6060000000    11.8630000000    34.7250000000
  153      C      29.0280000000    19.6650000000    32.7570000000
  154      H      29.9290000000    20.0780000000    32.2940000000
  155      H      28.2650000000    20.4410000000    32.8520000000
  156      H      29.3370000000    19.1700000000    33.6810000000
  157      S      28.4060000000    18.3020000000    31.7470000000
  158      C      27.4360000000    17.7930000000    33.1840000000
  159      H      27.9840000000    17.7850000000    34.1290000000
  160      H      26.6330000000    18.5320000000    33.2620000000
  161      H      26.9380000000    16.8380000000    32.9990000000
  162      O      29.5670000000    17.3570000000    31.7470000000
  163      C      21.2490000000    13.7690000000    31.1460000000
  164      H      22.0060000000    13.2210000000    31.7140000000
  165      H      20.8850000000    13.0310000000    30.4270000000
  166      H      21.6140000000    14.6770000000    30.6590000000
  167      S      19.8740000000    14.2860000000    32.1970000000
  168      C      19.2130000000    12.6220000000    32.4410000000
  169      H      18.2670000000    12.7000000000    32.9830000000
  170      H      19.1030000000    12.0420000000    31.5210000000
  171      H      19.8580000000    12.0440000000    33.1080000000
  172      O      18.9410000000    14.9960000000    31.2650000000
  173      C      21.8640000000    17.6730000000    19.8080000000
  174      H      21.9060000000    17.6490000000    18.7160000000
  175      H      21.3500000000    16.7510000000    20.0900000000
  176      H      21.2740000000    18.5410000000    20.1140000000
  177      S      23.3550000000    17.6040000000    20.8270000000
  178      C      23.8950000000    16.0770000000    20.0270000000
  179      H      23.2240000000    15.2660000000    20.3220000000
  180      H      23.9180000000    16.3310000000    18.9640000000
  181      H      24.9350000000    15.9080000000    20.3160000000
  182      O      22.8150000000    17.1020000000    22.1300000000
  183      C      18.6620000000    10.7020000000    21.3560000000
  184      H      19.1730000000     9.7420000000    21.4630000000
  185      H      17.6450000000    10.6340000000    20.9620000000
  186      H      19.2250000000    11.3980000000    20.7280000000
  187      S      18.4240000000    11.3650000000    23.0190000000
  188      C      20.0010000000    10.7610000000    23.6620000000
  189      H      20.1310000000    11.1030000000    24.6920000000
  190      H      19.9990000000     9.6840000000    23.4780000000
  191      H      20.7310000000    11.2740000000    23.0310000000
  192      O      17.6010000000    10.1840000000    23.4300000000
  193      C      17.8100000000    13.5640000000    28.6940000000
  194      H      17.7690000000    14.6180000000    28.4080000000
  195      H      16.9390000000    13.1220000000    28.2030000000
  196      H      17.8080000000    13.4470000000    29.7810000000
  197      S      19.3110000000    12.8820000000    27.9540000000
  198      C      19.1230000000    13.3990000000    26.2320000000
  199      H      19.9460000000    12.9780000000    25.6490000000
  200      H      18.2200000000    12.9670000000    25.7930000000
  201      H      19.1660000000    14.4900000000    26.2670000000
  202      O      19.0460000000    11.4090000000    27.9610000000
  203      C      22.2920000000    10.3630000000    20.3460000000
  204      H      22.1420000000     9.3280000000    20.0270000000
  205      H      23.3310000000    10.5740000000    20.6120000000
  206      H      21.6340000000    10.5460000000    21.2000000000
  207      S      21.6900000000    11.6010000000    19.1760000000
  208      C      22.7090000000    10.8650000000    17.8780000000
  209      H      22.3890000000     9.8380000000    17.6900000000
  210      H      22.6500000000    11.4160000000    16.9360000000
  211      H      23.7300000000    10.8190000000    18.2660000000
  212      O      22.4370000000    12.8400000000    19.5600000000
  213      C      29.8530000000    18.3260000000    19.3410000000
  214      H      30.1080000000    17.8460000000    18.3930000000
  215      H      29.3770000000    19.2930000000    19.1590000000
  216      H      30.7390000000    18.4040000000    19.9770000000
  217      S      28.6670000000    17.2610000000    20.1940000000
  218      C      27.2220000000    17.9910000000    19.3900000000
  219      H      27.3390000000    17.9110000000    18.3070000000
  220      H      26.3150000000    17.4810000000    19.7270000000
  221      H      27.1800000000    19.0790000000    19.4900000000
  222      O      28.6200000000    17.7510000000    21.6070000000
  223      C      22.8650000000    16.7390000000    32.5770000000
  224      H      22.0640000000    16.1300000000    33.0040000000
  225      H      22.4530000000    17.4530000000    31.8590000000
  226      H      23.5190000000    15.9860000000    32.1300000000
  227      S      23.7080000000    17.4700000000    33.9980000000
  228      C      24.0380000000    15.9950000000    34.9880000000
  229      H      23.8560000000    16.3090000000    36.0180000000
  230      H      23.1860000000    15.3730000000    34.7030000000
  231      H      25.0200000000    15.5990000000    34.7160000000
  232      O      22.6330000000    18.2080000000    34.7330000000
  233      C      25.9930000000    18.2950000000    24.1920000000
  234      H      26.3900000000    17.6300000000    24.9640000000
  235      H      25.6720000000    17.7050000000    23.3310000000
  236      H      26.7530000000    19.0140000000    23.8740000000
  237      S      24.6530000000    19.3590000000    24.7720000000
  238      C      24.4220000000    20.3060000000    23.2500000000
  239      H      25.3680000000    20.6060000000    22.7910000000
  240      H      23.9460000000    19.6340000000    22.5330000000
  241      H      23.7690000000    21.1740000000    23.3700000000
  242      O      25.2800000000    20.2750000000    25.7760000000
  243      C      28.2310000000    14.9730000000    25.6520000000
  244      H      28.1780000000    16.0520000000    25.8210000000
  245      H      27.7440000000    14.7930000000    24.6900000000
  246      H      27.6700000000    14.4400000000    26.4240000000
  247      S      29.9610000000    14.4660000000    25.5410000000
  248      C      30.2160000000    15.4670000000    24.0580000000
  249      H      30.3920000000    16.5150000000    24.3130000000
  250      H      31.1180000000    15.1370000000    23.5360000000
  251      H      29.3030000000    15.4220000000    23.4610000000
  252      O      29.7590000000    13.0420000000    25.1260000000
  253      C      16.0170000000    17.3520000000    24.9680000000
  254      H      15.5010000000    17.4620000000    25.9250000000
  255      H      17.0910000000    17.2070000000    25.1040000000
  256      H      15.8670000000    18.2460000000    24.3560000000
  257      S      15.3120000000    15.9750000000    24.0340000000
  258      C      13.5740000000    16.4610000000    24.1170000000
  259      H      13.4430000000    17.5080000000    23.8330000000
  260      H      13.1350000000    15.9010000000    23.2870000000
  261      H      13.0750000000    16.0580000000    25.0020000000
  262      O      15.3850000000    14.7290000000    24.8610000000
  263      C      21.3330000000    10.0720000000    31.0190000000
  264      H      21.5180000000    11.0470000000    31.4760000000
  265      H      20.3270000000     9.6490000000    31.0820000000
  266      H      22.0470000000     9.4080000000    31.5120000000
  267      S      21.8390000000    10.0960000000    29.2840000000
  268      C      22.6820000000     8.4980000000    29.2410000000
  269      H      21.9100000000     7.7300000000    29.1470000000
  270      H      23.3590000000     8.4870000000    28.3830000000
  271      H      23.3460000000     8.4200000000    30.1060000000
  272      O      23.0550000000    10.9650000000    29.3540000000
  273      C      24.9510000000    10.9620000000    23.8460000000
  274      H      25.4470000000    11.8630000000    24.2140000000
  275      H      25.4390000000    10.1330000000    24.3650000000
  276      H      24.9640000000    11.0690000000    22.7580000000
  277      S      23.2020000000    10.6860000000    24.2100000000
  278      C      23.3440000000    10.6070000000    26.0090000000
  279      H      24.2650000000    10.0660000000    26.2390000000
  280      H      23.3920000000    11.5870000000    26.4910000000
  281      H      22.4850000000    10.0150000000    26.3350000000
  282      O      22.9760000000     9.2670000000    23.7890000000
  283      C      30.6860000000    19.0950000000    28.9580000000
  284      H      29.8810000000    19.8230000000    28.8340000000
  285      H      31.0680000000    18.9460000000    29.9710000000
  286      H      31.4900000000    19.3840000000    28.2750000000
  287      S      29.9810000000    17.4900000000    28.5190000000
  288      C      31.5250000000    16.6690000000    28.9750000000
  289      H      32.4570000000    17.0590000000    28.5570000000
  290      H      31.5230000000    16.5890000000    30.0650000000
  291      H      31.3480000000    15.6320000000    28.6770000000
  292      O      30.0110000000    17.3780000000    27.0270000000
  293      C      19.0490000000    16.3770000000    23.1580000000
  294      H      18.8460000000    17.1890000000    22.4550000000
  295      H      18.1980000000    15.8590000000    23.6060000000
  296      H      19.5180000000    16.6560000000    24.1050000000
  297      S      20.2120000000    15.3030000000    22.2860000000
  298      C      18.8620000000    14.8400000000    21.1770000000
  299      H      18.7720000000    15.7070000000    20.5170000000
  300      H      19.1510000000    13.9880000000    20.5570000000
  301      H      17.9250000000    14.6000000000    21.6850000000
  302      O      20.4230000000    14.0400000000    23.0600000000
 ----------------------------------------------------------------
 Nuclear Repulsion Energy =       51550.84773389 hartrees
 There are      623 alpha and      623 beta electrons
 Requested basis set is 6-31+G(d)
 There are 995 shells and 2773 basis functions

 Total QAlloc Memory Limit  12000 MB
 Mega-Array Size      3911 MB
 MEM_STATIC part      4000 MB

 A cutoff of  1.0D-14 yielded 188850 shell pairs
 There are   1642296 function pairs
 Smallest overlap matrix eigenvalue = 4.79E-07
 Linear dependence detected in AO basis
 Tighter screening thresholds may be required for diffuse basis sets
 Use S2THRESH > 14 and THRESH = 14 in case of SCF convergence issues
 Number of orthogonalized atomic orbitals = 2771
 Maximum deviation from orthogonality = 2.660E-10

 Scale SEOQF with 1.000000e-03/1.000000e-03/1.000000e-03

 Standard Electronic Orientation quadrupole field applied
 Nucleus-field energy     =    -0.0000005204 hartrees
 Attempting to make child job directory: /global/cscratch1/sd/ymao90/r7.00_frame_0021_almo_B3LYP_dp20220721031503//Frg1/
 Attempting to make child job directory: /global/cscratch1/sd/ymao90/r7.00_frame_0021_almo_B3LYP_dp20220721031503//Frg2/
 Creating input file /global/cscratch1/sd/ymao90/r7.00_frame_0021_almo_B3LYP_dp20220721031503/Frg1.input
 using default PutDataFrgm: nothing
 calling putenv with: QCSCRATCH=/global/cscratch1/sd/ymao90/r7.00_frame_0021_almo_B3LYP_dp20220721031503/ 
 Spawning Job For Fragment 0
 Done Job For Fragment 0
 calling putenv with: QCSCRATCH=/global/cscratch1/sd/ymao90 
 calling putenv with: QCTHREADS=16 
 Creating input file /global/cscratch1/sd/ymao90/r7.00_frame_0021_almo_B3LYP_dp20220721031503/Frg2.input
 using default PutDataFrgm: nothing
 calling putenv with: QCSCRATCH=/global/cscratch1/sd/ymao90/r7.00_frame_0021_almo_B3LYP_dp20220721031503/ 
 Spawning Job For Fragment 1
 Done Job For Fragment 1
 calling putenv with: QCSCRATCH=/global/cscratch1/sd/ymao90 
 calling putenv with: QCTHREADS=16 
 Time for running child jobs:  CPU 0.54 s  wall 16413.45 s

 -----------------------------------------------------------------------
  General SCF calculation program by
  Eric Jon Sundstrom, Paul Horn, Yuezhi Mao, Dmitri Zuev, Alec White,
  David Stuck, Shaama M.S., Shane Yost, Joonho Lee, David Small,
  Daniel Levine, Susi Lehtola, Hugh Burton, Evgeny Epifanovsky,
  Bang C. Huynh
 -----------------------------------------------------------------------
Performing Restricted Closed Shell SCFMI
Doing General SCFMI
 Exchange:     0.2000 Hartree-Fock + 0.0800 Slater + 0.7200 B88
 Correlation:  0.1900 VWN1RPA + 0.8100 LYP
 Using Euler-Maclaurin-Lebedev (75,302) quadrature formula
performing fock build before subrot guess so that all methods have access
 using 16 threads for integral computing
 -------------------------------------------------------
 OpenMP Integral computing Module                
 Release: version 1.0, May 2013, Q-Chem Inc. Pittsburgh 
 -------------------------------------------------------
Printing subrot_rss_gen Method Specification:
Occupied Subspace Method is 0
Virtual Subspace Method is 0
Energy prior to optimization (guess energy) = -15893.898487968021
Begin Timing: Total SCF Calculation
begin iterations for algorithm: DIIS         
the SCF tolerance is set to 1.00e-08
    1  -15893.8984879680      2.95e-05     00000 
    2  -15893.9044788839      2.10e-05     00000 
    3  -15893.9053438980      1.66e-05     00000 
    4  -15893.9060374780      5.98e-06     00000 
    5  -15893.9061406980      2.50e-06     00000 
    6  -15893.9061613048      1.43e-06     00000 
    7  -15893.9061670377      1.14e-06     00000 
    8  -15893.9061701055      6.79e-07     00000 
    9  -15893.9061713114      3.57e-07     00000 
   10  -15893.9061716222      2.33e-07     00000 
   11  -15893.9061717304      1.75e-07     00000 
   12  -15893.9061717986      9.91e-08     00000 
   13  -15893.9061718240      5.47e-08     00000 
   14  -15893.9061718322      3.38e-08     00000 
   15  -15893.9061718348      2.32e-08     00000 
   16  -15893.9061718360      1.51e-08     00000 
   17  -15893.9061718365      7.01e-09     00000 Convergence criterion met
write pseudocanon occs and virts to disk
write pseudocanon orbital energies to disk
Timing for Total SCF: 21634.00s (wall), 295873.40s (cpu)
SCFMI Energy  -15893.9061718365
<S^2>            0.00000
 Total energy in the final basis set =   -15893.9061718365
    ==================================================
        The end of Object-Oriented SCFman: SCFMI      
    ==================================================

 --------------------------------------------------------------

                    Orbital Energies (a.u.)
 --------------------------------------------------------------

 Alpha MOs
 -- Occupied --
-89.0394 -89.0328 -89.0304 -89.0234 -89.0182 -89.0170 -89.0134 -89.0081
-89.0054 -89.0037 -89.0002 -88.9969 -88.9962 -88.9952 -88.9925 -88.9909
-88.9906 -88.9890 -88.9872 -88.9840 -88.9793 -88.9786 -88.9769 -88.9765
-88.9746 -88.9708 -88.9645 -88.9628 -19.1520 -19.1515 -19.1492 -19.1364
-19.1334 -19.1322 -19.1284 -19.1275 -19.1254 -19.1205 -19.1203 -19.1202
-19.1178 -19.1152 -19.1128 -19.1092 -19.1085 -19.1066 -19.1062 -19.1031
-19.0997 -19.0963 -19.0943 -19.0927 -19.0920 -19.0901 -19.0861 -19.0800
-19.0678 -14.3618 -10.2947 -10.2539 -10.2472 -10.2469 -10.2465 -10.2426
-10.2418 -10.2391 -10.2388 -10.2377 -10.2375 -10.2354 -10.2353 -10.2342
-10.2318 -10.2299 -10.2278 -10.2271 -10.2256 -10.2212 -10.2203 -10.2178
-10.2158 -10.2143 -10.2143 -10.2141 -10.2137 -10.2134 -10.2104 -10.2103
-10.2099 -10.2090 -10.2088 -10.2062 -10.2049 -10.2047 -10.2043 -10.2032
-10.2028 -10.2024 -10.2015 -10.2012 -10.1952 -10.1943 -10.1933 -10.1933
-10.1922 -10.1917 -10.1910 -10.1898 -10.1894 -10.1874 -10.1865 -10.1853
-10.1839 -10.1836 -10.1830 -10.1823 -10.1821 -10.1817 -10.1800 -10.1791
-10.1767  -8.0852  -8.0790  -8.0757  -8.0690  -8.0642  -8.0634  -8.0592
 -8.0541  -8.0515  -8.0489  -8.0462  -8.0430  -8.0421  -8.0417  -8.0384
 -8.0367  -8.0365  -8.0341  -8.0331  -8.0298  -8.0250  -8.0241  -8.0230
 -8.0219  -8.0214  -8.0176  -8.0103  -8.0093  -6.0495  -6.0482  -6.0432
 -6.0429  -6.0418  -6.0403  -6.0386  -6.0366  -6.0334  -6.0332  -6.0323
 -6.0285  -6.0275  -6.0275  -6.0265  -6.0263  -6.0235  -6.0224  -6.0215
 -6.0211  -6.0186  -6.0171  -6.0165  -6.0158  -6.0144  -6.0135  -6.0121
 -6.0113  -6.0107  -6.0091  -6.0091  -6.0072  -6.0065  -6.0063  -6.0061
 -6.0057  -6.0051  -6.0047  -6.0037  -6.0030  -6.0016  -6.0013  -6.0011
 -6.0004  -5.9998  -5.9995  -5.9995  -5.9994  -5.9985  -5.9974  -5.9973
 -5.9962  -5.9956  -5.9942  -5.9938  -5.9938  -5.9926  -5.9913  -5.9907
 -5.9895  -5.9884  -5.9876  -5.9875  -5.9874  -5.9871  -5.9862  -5.9861
 -5.9859  -5.9852  -5.9845  -5.9826  -5.9819  -5.9816  -5.9804  -5.9800
 -5.9794  -5.9784  -5.9753  -5.9748  -5.9735  -5.9735  -5.9724  -5.9675
 -5.9667  -1.0648  -1.0596  -1.0588  -1.0477  -1.0461  -1.0392  -1.0389
 -1.0376  -1.0351  -1.0320  -1.0284  -1.0267  -1.0250  -1.0235  -1.0218
 -1.0199  -1.0190  -1.0163  -1.0157  -1.0130  -1.0125  -1.0100  -1.0036
 -1.0033  -1.0031  -0.9967  -0.9958  -0.9912  -0.9848  -0.9258  -0.8397
 -0.8392  -0.8349  -0.8253  -0.8231  -0.8219  -0.8201  -0.8177  -0.8079
 -0.8072  -0.8060  -0.8045  -0.8002  -0.7993  -0.7955  -0.7928  -0.7921
 -0.7918  -0.7914  -0.7904  -0.7870  -0.7846  -0.7838  -0.7797  -0.7792
 -0.7786  -0.7740  -0.7733  -0.7614  -0.7602  -0.7547  -0.7530  -0.7519
 -0.7507  -0.7483  -0.7448  -0.7438  -0.7426  -0.7358  -0.7324  -0.7306
 -0.7284  -0.7276  -0.7270  -0.7237  -0.7229  -0.7214  -0.7198  -0.7165
 -0.7129  -0.7123  -0.7106  -0.7085  -0.7041  -0.7006  -0.6998  -0.6956
 -0.6930  -0.6912  -0.6527  -0.6455  -0.6443  -0.6406  -0.6369  -0.6303
 -0.6300  -0.6292  -0.6207  -0.6171  -0.6164  -0.6160  -0.6150  -0.6129
 -0.6100  -0.6085  -0.6079  -0.6044  -0.6034  -0.6010  -0.6003  -0.5958
 -0.5956  -0.5937  -0.5926  -0.5906  -0.5878  -0.5824  -0.5816  -0.5798
 -0.5760  -0.5641  -0.5313  -0.5236  -0.5170  -0.5143  -0.5083  -0.5054
 -0.5034  -0.4998  -0.4991  -0.4977  -0.4965  -0.4950  -0.4946  -0.4938
 -0.4926  -0.4917  -0.4899  -0.4894  -0.4881  -0.4863  -0.4857  -0.4849
 -0.4842  -0.4841  -0.4830  -0.4820  -0.4813  -0.4805  -0.4798  -0.4797
 -0.4779  -0.4771  -0.4765  -0.4760  -0.4758  -0.4743  -0.4722  -0.4711
 -0.4708  -0.4705  -0.4700  -0.4690  -0.4685  -0.4676  -0.4673  -0.4672
 -0.4662  -0.4659  -0.4657  -0.4646  -0.4635  -0.4632  -0.4630  -0.4624
 -0.4609  -0.4606  -0.4606  -0.4600  -0.4585  -0.4579  -0.4571  -0.4570
 -0.4567  -0.4565  -0.4563  -0.4558  -0.4550  -0.4548  -0.4542  -0.4535
 -0.4530  -0.4522  -0.4521  -0.4511  -0.4509  -0.4497  -0.4494  -0.4484
 -0.4480  -0.4467  -0.4458  -0.4456  -0.4446  -0.4436  -0.4431  -0.4422
 -0.4419  -0.4413  -0.4408  -0.4397  -0.4391  -0.4388  -0.4362  -0.4355
 -0.4350  -0.4343  -0.4340  -0.4333  -0.4331  -0.4321  -0.4312  -0.4303
 -0.4299  -0.4299  -0.4292  -0.4270  -0.4267  -0.4262  -0.4258  -0.4249
 -0.4243  -0.4232  -0.4216  -0.4214  -0.4201  -0.4194  -0.4185  -0.4182
 -0.4170  -0.4168  -0.4161  -0.4157  -0.4146  -0.4140  -0.4134  -0.4134
 -0.4126  -0.4115  -0.4110  -0.4098  -0.4095  -0.4084  -0.4082  -0.4077
 -0.4074  -0.4071  -0.4062  -0.4054  -0.4040  -0.4037  -0.4032  -0.4022
 -0.4019  -0.4013  -0.4005  -0.3989  -0.3979  -0.3975  -0.3972  -0.3962
 -0.3956  -0.3951  -0.3946  -0.3934  -0.3930  -0.3924  -0.3914  -0.3900
 -0.3895  -0.3890  -0.3879  -0.3875  -0.3873  -0.3864  -0.3864  -0.3833
 -0.3826  -0.3821  -0.3819  -0.3805  -0.3795  -0.3791  -0.3770  -0.3770
 -0.3766  -0.3750  -0.3748  -0.3737  -0.3729  -0.3723  -0.3693  -0.3682
 -0.3678  -0.3664  -0.3656  -0.3649  -0.3647  -0.3637  -0.3629  -0.3626
 -0.3609  -0.3601  -0.3595  -0.3553  -0.3546  -0.3521  -0.3512  -0.3495
 -0.3490  -0.3484  -0.3426  -0.3421  -0.3407  -0.3398  -0.3382  -0.3370
 -0.3346  -0.3251  -0.3184  -0.3144  -0.3131  -0.3092  -0.3075  -0.3031
 -0.2972  -0.2940  -0.2916  -0.2904  -0.2889  -0.2846  -0.2845  -0.2818
 -0.2798  -0.2793  -0.2789  -0.2772  -0.2739  -0.2727  -0.2724  -0.2711
 -0.2685  -0.2664  -0.2649  -0.2615  -0.2606  -0.2586  -0.2582  -0.2578
 -0.2567  -0.2550  -0.2548  -0.2539  -0.2519  -0.2518  -0.2499  -0.2491
 -0.2474  -0.2463  -0.2460  -0.2450  -0.2420  -0.2412  -0.2385  -0.2377
 -0.2354  -0.2320  -0.2316  -0.2302  -0.2299  -0.2279  -0.2269  -0.2266
 -0.2196  -0.2169  -0.2160  -0.2123  -0.2121  -0.2002  -0.1989
 -- Virtual --
 -0.0505  -0.0403  -0.0351  -0.0347  -0.0332  -0.0302  -0.0263  -0.0218
 -0.0211  -0.0205  -0.0185  -0.0175  -0.0162  -0.0140  -0.0109  -0.0102
 -0.0098  -0.0093  -0.0075  -0.0065  -0.0048  -0.0042  -0.0026  -0.0017
 -0.0004  -0.0002   0.0021   0.0029   0.0038   0.0046   0.0048   0.0050
  0.0062   0.0068   0.0076   0.0079   0.0089   0.0095   0.0112   0.0112
  0.0118   0.0131   0.0137   0.0143   0.0146   0.0158   0.0164   0.0165
  0.0166   0.0180   0.0191   0.0192   0.0201   0.0208   0.0211   0.0221
  0.0227   0.0229   0.0238   0.0246   0.0250   0.0259   0.0262   0.0275
  0.0280   0.0282   0.0287   0.0295   0.0298   0.0309   0.0317   0.0327
  0.0328   0.0334   0.0336   0.0348   0.0350   0.0359   0.0370   0.0374
  0.0375   0.0380   0.0386   0.0392   0.0398   0.0407   0.0413   0.0419
  0.0424   0.0427   0.0436   0.0442   0.0445   0.0452   0.0458   0.0466
  0.0476   0.0478   0.0482   0.0489   0.0495   0.0503   0.0512   0.0515
  0.0525   0.0531   0.0532   0.0541   0.0549   0.0550   0.0553   0.0558
  0.0563   0.0570   0.0574   0.0576   0.0589   0.0598   0.0600   0.0608
  0.0616   0.0625   0.0629   0.0632   0.0642   0.0647   0.0648   0.0655
  0.0658   0.0660   0.0670   0.0673   0.0681   0.0689   0.0694   0.0701
  0.0708   0.0714   0.0722   0.0729   0.0734   0.0743   0.0746   0.0756
  0.0758   0.0766   0.0775   0.0778   0.0784   0.0786   0.0795   0.0801
  0.0806   0.0815   0.0827   0.0829   0.0836   0.0852   0.0858   0.0865
  0.0868   0.0878   0.0882   0.0886   0.0892   0.0893   0.0895   0.0917
  0.0920   0.0927   0.0935   0.0943   0.0948   0.0953   0.0962   0.0966
  0.0981   0.0983   0.0988   0.0996   0.0998   0.1001   0.1011   0.1016
  0.1022   0.1025   0.1029   0.1034   0.1039   0.1047   0.1051   0.1055
  0.1061   0.1076   0.1080   0.1090   0.1094   0.1098   0.1101   0.1114
  0.1120   0.1125   0.1126   0.1131   0.1142   0.1147   0.1151   0.1155
  0.1156   0.1163   0.1168   0.1175   0.1182   0.1192   0.1197   0.1199
  0.1205   0.1211   0.1222   0.1228   0.1230   0.1239   0.1246   0.1249
  0.1254   0.1267   0.1268   0.1276   0.1280   0.1283   0.1285   0.1300
  0.1305   0.1313   0.1317   0.1324   0.1332   0.1333   0.1346   0.1349
  0.1357   0.1360   0.1367   0.1372   0.1379   0.1386   0.1396   0.1399
  0.1406   0.1410   0.1414   0.1424   0.1429   0.1436   0.1441   0.1449
  0.1460   0.1463   0.1473   0.1477   0.1483   0.1484   0.1491   0.1497
  0.1502   0.1510   0.1514   0.1526   0.1526   0.1536   0.1540   0.1548
  0.1555   0.1557   0.1567   0.1569   0.1575   0.1579   0.1583   0.1593
  0.1596   0.1606   0.1613   0.1619   0.1623   0.1630   0.1636   0.1639
  0.1646   0.1649   0.1660   0.1662   0.1664   0.1673   0.1678   0.1681
  0.1689   0.1698   0.1702   0.1707   0.1716   0.1716   0.1725   0.1728
  0.1730   0.1740   0.1748   0.1753   0.1755   0.1761   0.1764   0.1777
  0.1782   0.1789   0.1796   0.1798   0.1802   0.1815   0.1820   0.1824
  0.1829   0.1836   0.1847   0.1851   0.1860   0.1862   0.1865   0.1874
  0.1880   0.1881   0.1891   0.1901   0.1906   0.1911   0.1913   0.1927
  0.1928   0.1934   0.1939   0.1945   0.1951   0.1955   0.1961   0.1965
  0.1968   0.1976   0.1977   0.1988   0.1997   0.1999   0.2004   0.2006
  0.2017   0.2020   0.2024   0.2041   0.2047   0.2049   0.2056   0.2064
  0.2068   0.2075   0.2076   0.2084   0.2090   0.2093   0.2104   0.2106
  0.2115   0.2125   0.2128   0.2134   0.2139   0.2147   0.2148   0.2153
  0.2159   0.2168   0.2169   0.2174   0.2190   0.2194   0.2200   0.2203
  0.2205   0.2210   0.2214   0.2225   0.2226   0.2236   0.2239   0.2246
  0.2250   0.2257   0.2262   0.2264   0.2270   0.2282   0.2286   0.2297
  0.2302   0.2303   0.2316   0.2322   0.2330   0.2333   0.2343   0.2347
  0.2351   0.2357   0.2359   0.2368   0.2374   0.2378   0.2390   0.2394
  0.2401   0.2410   0.2418   0.2427   0.2432   0.2441   0.2443   0.2446
  0.2451   0.2459   0.2470   0.2476   0.2482   0.2486   0.2493   0.2498
  0.2506   0.2508   0.2518   0.2524   0.2527   0.2543   0.2547   0.2552
  0.2556   0.2563   0.2574   0.2575   0.2588   0.2590   0.2599   0.2603
  0.2610   0.2613   0.2622   0.2626   0.2634   0.2639   0.2644   0.2658
  0.2672   0.2677   0.2685   0.2693   0.2700   0.2702   0.2711   0.2715
  0.2722   0.2723   0.2735   0.2743   0.2748   0.2751   0.2766   0.2767
  0.2772   0.2788   0.2792   0.2801   0.2811   0.2817   0.2825   0.2829
  0.2840   0.2841   0.2849   0.2858   0.2866   0.2875   0.2881   0.2887
  0.2893   0.2898   0.2911   0.2917   0.2921   0.2932   0.2943   0.2947
  0.2962   0.2969   0.2975   0.2984   0.2994   0.2999   0.3001   0.3009
  0.3014   0.3024   0.3032   0.3034   0.3045   0.3053   0.3064   0.3068
  0.3078   0.3086   0.3100   0.3104   0.3109   0.3123   0.3124   0.3127
  0.3138   0.3144   0.3153   0.3159   0.3167   0.3173   0.3183   0.3185
  0.3189   0.3195   0.3209   0.3219   0.3227   0.3243   0.3243   0.3256
  0.3263   0.3274   0.3281   0.3292   0.3297   0.3311   0.3315   0.3321
  0.3324   0.3338   0.3353   0.3358   0.3369   0.3378   0.3388   0.3394
  0.3400   0.3406   0.3413   0.3426   0.3433   0.3443   0.3446   0.3458
  0.3465   0.3477   0.3482   0.3491   0.3494   0.3509   0.3519   0.3523
  0.3530   0.3544   0.3561   0.3570   0.3574   0.3580   0.3588   0.3592
  0.3602   0.3614   0.3624   0.3632   0.3644   0.3647   0.3661   0.3666
  0.3673   0.3685   0.3694   0.3698   0.3705   0.3709   0.3719   0.3733
  0.3742   0.3750   0.3753   0.3761   0.3765   0.3769   0.3793   0.3794
  0.3809   0.3815   0.3825   0.3833   0.3838   0.3844   0.3850   0.3857
  0.3872   0.3874   0.3883   0.3889   0.3911   0.3916   0.3922   0.3931
  0.3936   0.3942   0.3951   0.3959   0.3962   0.3971   0.3980   0.3989
  0.3997   0.4005   0.4014   0.4026   0.4032   0.4037   0.4049   0.4053
  0.4064   0.4071   0.4079   0.4080   0.4098   0.4111   0.4115   0.4127
  0.4130   0.4135   0.4150   0.4158   0.4175   0.4185   0.4191   0.4193
  0.4205   0.4216   0.4224   0.4238   0.4249   0.4253   0.4257   0.4261
  0.4275   0.4290   0.4301   0.4311   0.4313   0.4322   0.4338   0.4348
  0.4357   0.4361   0.4375   0.4378   0.4392   0.4404   0.4417   0.4420
  0.4428   0.4452   0.4458   0.4464   0.4467   0.4489   0.4494   0.4508
  0.4526   0.4534   0.4537   0.4554   0.4573   0.4575   0.4589   0.4595
  0.4609   0.4619   0.4629   0.4649   0.4657   0.4670   0.4684   0.4692
  0.4701   0.4718   0.4726   0.4729   0.4747   0.4752   0.4768   0.4786
  0.4796   0.4803   0.4816   0.4830   0.4850   0.4853   0.4860   0.4880
  0.4900   0.4909   0.4922   0.4935   0.4966   0.4972   0.4984   0.4988
  0.4999   0.5022   0.5027   0.5028   0.5043   0.5057   0.5061   0.5096
  0.5110   0.5113   0.5125   0.5145   0.5149   0.5171   0.5185   0.5200
  0.5202   0.5244   0.5252   0.5271   0.5281   0.5293   0.5304   0.5312
  0.5329   0.5347   0.5357   0.5370   0.5390   0.5399   0.5408   0.5432
  0.5446   0.5451   0.5484   0.5495   0.5508   0.5516   0.5527   0.5547
  0.5551   0.5580   0.5594   0.5609   0.5618   0.5628   0.5639   0.5641
  0.5664   0.5679   0.5696   0.5714   0.5738   0.5750   0.5757   0.5772
  0.5786   0.5800   0.5815   0.5831   0.5855   0.5860   0.5875   0.5887
  0.5897   0.5915   0.5926   0.5948   0.5961   0.5967   0.5976   0.5989
  0.5998   0.6017   0.6028   0.6040   0.6046   0.6065   0.6078   0.6097
  0.6106   0.6127   0.6137   0.6151   0.6165   0.6178   0.6189   0.6208
  0.6215   0.6225   0.6235   0.6256   0.6265   0.6281   0.6286   0.6295
  0.6301   0.6312   0.6332   0.6338   0.6359   0.6367   0.6382   0.6393
  0.6406   0.6408   0.6425   0.6429   0.6453   0.6454   0.6470   0.6485
  0.6489   0.6497   0.6509   0.6520   0.6530   0.6551   0.6552   0.6565
  0.6575   0.6585   0.6594   0.6612   0.6627   0.6642   0.6647   0.6658
  0.6666   0.6685   0.6697   0.6713   0.6730   0.6736   0.6741   0.6760
  0.6763   0.6775   0.6778   0.6805   0.6810   0.6825   0.6830   0.6838
  0.6849   0.6860   0.6880   0.6890   0.6899   0.6907   0.6914   0.6934
  0.6938   0.6959   0.6974   0.6979   0.6984   0.7001   0.7006   0.7018
  0.7034   0.7036   0.7048   0.7062   0.7067   0.7088   0.7094   0.7105
  0.7118   0.7124   0.7133   0.7169   0.7173   0.7184   0.7202   0.7207
  0.7212   0.7218   0.7253   0.7260   0.7272   0.7292   0.7297   0.7303
  0.7323   0.7330   0.7346   0.7359   0.7368   0.7380   0.7387   0.7407
  0.7414   0.7437   0.7447   0.7469   0.7476   0.7484   0.7498   0.7514
  0.7518   0.7540   0.7549   0.7567   0.7573   0.7590   0.7607   0.7623
  0.7640   0.7642   0.7661   0.7671   0.7686   0.7700   0.7704   0.7717
  0.7734   0.7747   0.7749   0.7765   0.7787   0.7804   0.7827   0.7841
  0.7855   0.7865   0.7880   0.7890   0.7904   0.7907   0.7938   0.7946
  0.7967   0.7982   0.7988   0.8002   0.8009   0.8047   0.8053   0.8073
  0.8083   0.8099   0.8102   0.8115   0.8125   0.8130   0.8158   0.8172
  0.8178   0.8200   0.8212   0.8216   0.8236   0.8246   0.8268   0.8276
  0.8286   0.8297   0.8323   0.8328   0.8357   0.8370   0.8379   0.8384
  0.8396   0.8414   0.8423   0.8449   0.8458   0.8469   0.8478   0.8485
  0.8511   0.8516   0.8532   0.8542   0.8550   0.8575   0.8587   0.8602
  0.8610   0.8628   0.8643   0.8653   0.8659   0.8686   0.8689   0.8695
  0.8723   0.8735   0.8741   0.8751   0.8756   0.8764   0.8782   0.8797
  0.8804   0.8818   0.8830   0.8836   0.8853   0.8862   0.8869   0.8879
  0.8884   0.8891   0.8909   0.8932   0.8948   0.8957   0.8960   0.8973
  0.8982   0.8988   0.9006   0.9016   0.9019   0.9035   0.9039   0.9054
  0.9079   0.9085   0.9099   0.9105   0.9119   0.9128   0.9129   0.9159
  0.9165   0.9172   0.9192   0.9207   0.9226   0.9229   0.9232   0.9244
  0.9250   0.9258   0.9273   0.9290   0.9305   0.9315   0.9339   0.9347
  0.9354   0.9364   0.9379   0.9392   0.9399   0.9412   0.9427   0.9438
  0.9448   0.9454   0.9468   0.9473   0.9498   0.9509   0.9518   0.9525
  0.9529   0.9539   0.9549   0.9564   0.9583   0.9592   0.9598   0.9603
  0.9616   0.9633   0.9647   0.9657   0.9661   0.9673   0.9680   0.9686
  0.9701   0.9709   0.9721   0.9730   0.9736   0.9757   0.9765   0.9780
  0.9783   0.9805   0.9813   0.9826   0.9845   0.9852   0.9868   0.9874
  0.9875   0.9902   0.9908   0.9914   0.9932   0.9938   0.9940   0.9950
  0.9955   0.9957   0.9978   0.9994   1.0008   1.0017   1.0027   1.0033
  1.0034   1.0039   1.0050   1.0068   1.0075   1.0090   1.0101   1.0112
  1.0135   1.0137   1.0148   1.0158   1.0165   1.0173   1.0190   1.0204
  1.0215   1.0221   1.0230   1.0246   1.0258   1.0267   1.0272   1.0298
  1.0305   1.0316   1.0328   1.0332   1.0339   1.0354   1.0372   1.0382
  1.0386   1.0406   1.0425   1.0436   1.0441   1.0448   1.0484   1.0494
  1.0502   1.0513   1.0524   1.0538   1.0548   1.0562   1.0571   1.0583
  1.0597   1.0600   1.0608   1.0618   1.0641   1.0648   1.0658   1.0672
  1.0684   1.0690   1.0697   1.0719   1.0724   1.0743   1.0753   1.0771
  1.0782   1.0795   1.0806   1.0819   1.0835   1.0845   1.0851   1.0867
  1.0878   1.0880   1.0905   1.0914   1.0917   1.0939   1.0946   1.0965
  1.0969   1.0978   1.0991   1.1005   1.1022   1.1029   1.1032   1.1045
  1.1050   1.1075   1.1080   1.1096   1.1109   1.1130   1.1138   1.1147
  1.1157   1.1162   1.1187   1.1192   1.1206   1.1229   1.1236   1.1246
  1.1257   1.1267   1.1275   1.1286   1.1295   1.1300   1.1331   1.1343
  1.1355   1.1367   1.1380   1.1384   1.1399   1.1419   1.1427   1.1432
  1.1452   1.1471   1.1479   1.1481   1.1492   1.1501   1.1512   1.1529
  1.1548   1.1553   1.1560   1.1567   1.1579   1.1594   1.1616   1.1626
  1.1631   1.1643   1.1648   1.1657   1.1677   1.1680   1.1700   1.1726
  1.1734   1.1748   1.1760   1.1768   1.1780   1.1796   1.1809   1.1821
  1.1838   1.1858   1.1876   1.1886   1.1908   1.1923   1.1934   1.1941
  1.1963   1.1982   1.1995   1.2022   1.2027   1.2036   1.2045   1.2055
  1.2072   1.2095   1.2103   1.2118   1.2134   1.2141   1.2156   1.2174
  1.2198   1.2216   1.2236   1.2262   1.2269   1.2282   1.2308   1.2322
  1.2369   1.2380   1.2395   1.2406   1.2433   1.2441   1.2467   1.2481
  1.2498   1.2509   1.2540   1.2553   1.2566   1.2578   1.2594   1.2606
  1.2637   1.2667   1.2693   1.2708   1.2757   1.2781   1.2790   1.2809
  1.2824   1.2840   1.2842   1.2866   1.2902   1.2911   1.2936   1.2947
  1.2973   1.3005   1.3025   1.3043   1.3061   1.3068   1.3086   1.3095
  1.3120   1.3127   1.3157   1.3187   1.3200   1.3244   1.3274   1.3289
  1.3303   1.3315   1.3340   1.3355   1.3369   1.3379   1.3391   1.3421
  1.3429   1.3453   1.3463   1.3474   1.3508   1.3519   1.3523   1.3551
  1.3561   1.3593   1.3618   1.3637   1.3647   1.3669   1.3693   1.3710
  1.3717   1.3720   1.3753   1.3768   1.3787   1.3821   1.3827   1.3844
  1.3860   1.3881   1.3883   1.3891   1.3911   1.3918   1.3927   1.3951
  1.3963   1.3965   1.3983   1.3992   1.4007   1.4017   1.4034   1.4044
  1.4071   1.4076   1.4082   1.4094   1.4104   1.4120   1.4126   1.4136
  1.4150   1.4162   1.4166   1.4192   1.4195   1.4211   1.4243   1.4265
  1.4288   1.4291   1.4304   1.4312   1.4334   1.4357   1.4367   1.4380
  1.4385   1.4409   1.4433   1.4469   1.4475   1.4484   1.4493   1.4512
  1.4531   1.4551   1.4576   1.4600   1.4604   1.4627   1.4642   1.4660
  1.4668   1.4685   1.4698   1.4719   1.4726   1.4735   1.4759   1.4767
  1.4776   1.4807   1.4811   1.4829   1.4852   1.4864   1.4881   1.4917
  1.4941   1.4948   1.4960   1.4980   1.5009   1.5026   1.5041   1.5074
  1.5078   1.5100   1.5110   1.5148   1.5175   1.5188   1.5209   1.5226
  1.5247   1.5268   1.5288   1.5307   1.5326   1.5340   1.5373   1.5376
  1.5398   1.5428   1.5451   1.5487   1.5506   1.5534   1.5573   1.5595
  1.5608   1.5630   1.5637   1.5651   1.5708   1.5737   1.5744   1.5791
  1.5841   1.5848   1.5861   1.5889   1.5945   1.5964   1.5993   1.6025
  1.6044   1.6085   1.6121   1.6157   1.6182   1.6202   1.6261   1.6281
  1.6339   1.6369   1.6400   1.6425   1.6435   1.6453   1.6507   1.6510
  1.6525   1.6539   1.6549   1.6569   1.6623   1.6637   1.6664   1.6692
  1.6702   1.6721   1.6747   1.6767   1.6774   1.6802   1.6810   1.6825
  1.6834   1.6846   1.6856   1.6870   1.6884   1.6894   1.6899   1.6911
  1.6941   1.6942   1.6969   1.6984   1.6999   1.7010   1.7022   1.7036
  1.7037   1.7055   1.7068   1.7078   1.7099   1.7113   1.7119   1.7132
  1.7142   1.7147   1.7162   1.7171   1.7189   1.7194   1.7211   1.7226
  1.7236   1.7239   1.7263   1.7283   1.7294   1.7299   1.7307   1.7318
  1.7343   1.7350   1.7368   1.7388   1.7397   1.7412   1.7430   1.7444
  1.7456   1.7463   1.7471   1.7490   1.7510   1.7514   1.7521   1.7526
  1.7562   1.7566   1.7578   1.7587   1.7602   1.7620   1.7626   1.7643
  1.7648   1.7673   1.7686   1.7698   1.7710   1.7732   1.7740   1.7750
  1.7759   1.7781   1.7793   1.7824   1.7830   1.7844   1.7856   1.7864
  1.7901   1.7906   1.7914   1.7930   1.7961   1.7967   1.7976   1.7992
  1.8015   1.8039   1.8062   1.8082   1.8133   1.8145   1.8177   1.8216
  1.8229   1.8265   1.8271   1.8294   1.8317   1.8341   1.8375   1.8390
  1.8393   1.8434   1.8451   1.8481   1.8515   1.8539   1.8552   1.8574
  1.8595   1.8624   1.8660   1.8674   1.8679   1.8705   1.8723   1.8734
  1.8765   1.8777   1.8795   1.8808   1.8818   1.8833   1.8849   1.8854
  1.8874   1.8886   1.8899   1.8906   1.8925   1.8937   1.8946   1.8966
  1.8976   1.8985   1.9000   1.9032   1.9039   1.9049   1.9072   1.9083
  1.9098   1.9112   1.9132   1.9143   1.9157   1.9161   1.9178   1.9198
  1.9209   1.9222   1.9229   1.9235   1.9246   1.9259   1.9267   1.9301
  1.9315   1.9329   1.9336   1.9364   1.9370   1.9392   1.9418   1.9431
  1.9450   1.9463   1.9510   1.9523   1.9531   1.9545   1.9558   1.9574
  1.9600   1.9605   1.9642   1.9667   1.9679   1.9721   1.9742   1.9755
  1.9787   1.9833   1.9860   1.9880   1.9943   1.9950   1.9972   2.0053
  2.0094   2.0117   2.0208   2.0236   2.0321   2.0342   2.0375   2.0406
  2.0428   2.0468   2.0483   2.0509   2.0568   2.0612   2.0642   2.0652
  2.0661   2.0683   2.0700   2.0718   2.0737   2.0749   2.0759   2.0777
  2.0790   2.0826   2.0832   2.0840   2.0853   2.0860   2.0870   2.0883
  2.0887   2.0898   2.0902   2.0910   2.0953   2.0967   2.0979   2.0989
  2.1006   2.1014   2.1029   2.1037   2.1054   2.1085   2.1127   2.1138
  2.1148   2.1164   2.1173   2.1189   2.1206   2.1228   2.1244   2.1268
  2.1272   2.1298   2.1323   2.1337   2.1385   2.1389   2.1436   2.1442
  2.1464   2.1505   2.1515   2.1549   2.1575   2.1605   2.1617   2.1650
  2.1698   2.1715   2.1806   2.1820   2.1878   2.1940   2.1949   2.1964
  2.1983   2.1998   2.2026   2.2044   2.2056   2.2099   2.2111   2.2145
  2.2153   2.2181   2.2194   2.2202   2.2215   2.2221   2.2231   2.2241
  2.2248   2.2257   2.2274   2.2283   2.2311   2.2324   2.2329   2.2338
  2.2348   2.2361   2.2373   2.2376   2.2380   2.2403   2.2423   2.2430
  2.2453   2.2462   2.2482   2.2484   2.2492   2.2504   2.2505   2.2509
  2.2530   2.2534   2.2553   2.2555   2.2563   2.2577   2.2577   2.2588
  2.2596   2.2611   2.2643   2.2657   2.2670   2.2676   2.2686   2.2702
  2.2702   2.2712   2.2713   2.2722   2.2726   2.2727   2.2738   2.2744
  2.2747   2.2764   2.2780   2.2784   2.2791   2.2802   2.2805   2.2818
  2.2830   2.2835   2.2847   2.2857   2.2861   2.2873   2.2876   2.2888
  2.2902   2.2918   2.2930   2.2936   2.2941   2.2944   2.2955   2.2961
  2.2969   2.2977   2.2980   2.2997   2.3012   2.3017   2.3021   2.3036
  2.3045   2.3057   2.3066   2.3079   2.3084   2.3098   2.3110   2.3119
  2.3144   2.3148   2.3155   2.3187   2.3203   2.3216   2.3218   2.3239
  2.3244   2.3265   2.3280   2.3289   2.3312   2.3320   2.3336   2.3343
  2.3354   2.3363   2.3393   2.3406   2.3416   2.3426   2.3442   2.3466
  2.3475   2.3502   2.3506   2.3514   2.3524   2.3554   2.3587   2.3599
  2.3607   2.3623   2.3641   2.3666   2.3673   2.3683   2.3687   2.3705
  2.3732   2.3744   2.3754   2.3766   2.3781   2.3791   2.3807   2.3815
  2.3846   2.3876   2.3881   2.3909   2.3917   2.3941   2.3957   2.4025
  2.4059   2.4105   2.4122   2.4170   2.4208   2.4305   2.4468   2.4570
  2.4942   2.5244   2.5666   2.5811   2.6484   2.7215   2.7724   2.7891
  2.8212   2.8247   2.8283   2.8294   2.8323   2.8377   2.8420   2.8432
  2.8466   2.8485   2.8517   2.8543   2.8552   2.8575   2.8609   2.8615
  2.8683   2.8702   2.8732   2.8754   2.8779   2.8796   2.8813   2.8824
  2.8856   2.8879   2.8892   2.8930   2.8996   2.9071   2.9103   2.9206
  2.9415   3.0839   3.2349   3.9374   3.9402   3.9566   3.9659   3.9744
  3.9775   3.9800   3.9854   3.9862   3.9878   3.9908   3.9936   3.9977
  4.0042   4.0060   4.0069   4.0073   4.0112   4.0172   4.0183   4.0238
  4.0254   4.0269   4.0301   4.0341   4.0371   4.0520   4.0565   4.2032
  4.2147   4.2224   4.2256   4.2280   4.2372   4.2458   4.2522   4.2530
  4.2586   4.2644   4.2664   4.2690   4.2715   4.2739   4.2755   4.2782
  4.2790   4.2812   4.2836   4.2845   4.2885   4.2902   4.2930   4.2939
  4.2971   4.2972   4.2998   4.3032   4.3071   4.3083   4.3112   4.3136
  4.3140   4.3178   4.3206   4.3221   4.3252   4.3275   4.3310   4.3339
  4.3378   4.3380   4.3407   4.3412   4.3425   4.3480   4.3519   4.3542
  4.3582   4.3622   4.3629   4.3655   4.3678   4.3725   4.3750   4.3777
  4.3802   4.3832   4.3899   4.3931   4.3945   4.3977   4.4025   4.4064
  4.4085   4.4144   4.4198   4.4265   4.4284   4.4363   4.4430   4.4465
  4.4628   4.4807   4.5026   4.5062   4.5139   4.5296   4.5347   4.5510
  4.5519   4.5636   4.5811   4.6070   4.6261   4.6712   4.6869   4.7079
  4.7379   4.7786   4.8203   4.8549
 --------------------------------------------------------------

          Ground-State Mulliken Net Atomic Charges

     Atom                 Charge (a.u.)
  ----------------------------------------
      1 C                    -0.278975
      2 C                    -0.381837
      3 C                    -0.267975
      4 C                    -0.493032
      5 C                    -0.603470
      6 C                    -0.337950
      7 H                     0.238036
      8 H                     0.226163
      9 H                     0.198742
     10 H                     0.195108
     11 H                     0.197374
     12 H                     0.226141
     13 H                     0.206385
     14 H                     0.229902
     15 H                     0.191342
     16 H                     0.214774
     17 H                     0.185043
     18 N                    -0.358933
     19 H                     0.485241
     20 C                     0.260401
     21 H                     0.159756
     22 O                    -0.492236
     23 C                    -0.788573
     24 H                     0.261735
     25 H                     0.240910
     26 H                     0.275795
     27 S                     0.546896
     28 C                    -0.850237
     29 H                     0.276912
     30 H                     0.282926
     31 H                     0.282229
     32 O                    -0.672443
     33 C                    -1.175673
     34 H                     0.252694
     35 H                     0.300777
     36 H                     0.251710
     37 S                     1.320307
     38 C                    -0.921426
     39 H                     0.241075
     40 H                     0.242923
     41 H                     0.255243
     42 O                    -0.715969
     43 C                    -0.690341
     44 H                     0.326135
     45 H                     0.254763
     46 H                     0.291614
     47 S                    -0.203813
     48 C                    -0.400160
     49 H                     0.256282
     50 H                     0.295953
     51 H                     0.252513
     52 O                    -0.504058
     53 C                    -0.914214
     54 H                     0.299834
     55 H                     0.248477
     56 H                     0.303214
     57 S                     0.865856
     58 C                    -0.999060
     59 H                     0.298759
     60 H                     0.257161
     61 H                     0.278795
     62 O                    -0.605756
     63 C                    -0.872565
     64 H                     0.236628
     65 H                     0.234925
     66 H                     0.260345
     67 S                     1.026203
     68 C                    -0.864105
     69 H                     0.257718
     70 H                     0.232189
     71 H                     0.302684
     72 O                    -0.742475
     73 C                    -0.805973
     74 H                     0.235542
     75 H                     0.245905
     76 H                     0.283787
     77 S                     0.839012
     78 C                    -0.831665
     79 H                     0.277057
     80 H                     0.241725
     81 H                     0.231963
     82 O                    -0.706205
     83 C                    -0.798075
     84 H                     0.247175
     85 H                     0.244748
     86 H                     0.253599
     87 S                     0.699274
     88 C                    -0.680253
     89 H                     0.345077
     90 H                     0.245543
     91 H                     0.263467
     92 O                    -0.733066
     93 C                    -0.870516
     94 H                     0.286717
     95 H                     0.291861
     96 H                     0.263741
     97 S                     0.783752
     98 C                    -0.750244
     99 H                     0.286531
    100 H                     0.248552
    101 H                     0.233930
    102 O                    -0.707612
    103 C                    -0.836618
    104 H                     0.261031
    105 H                     0.248010
    106 H                     0.275209
    107 S                     0.880382
    108 C                    -0.832510
    109 H                     0.230409
    110 H                     0.252731
    111 H                     0.238044
    112 O                    -0.752238
    113 C                    -1.045876
    114 H                     0.306129
    115 H                     0.254638
    116 H                     0.256455
    117 S                     1.103379
    118 C                    -0.935005
    119 H                     0.256450
    120 H                     0.235482
    121 H                     0.275849
    122 O                    -0.724077
    123 C                    -0.875666
    124 H                     0.232724
    125 H                     0.273891
    126 H                     0.293555
    127 S                     0.994967
    128 C                    -1.031103
    129 H                     0.248802
    130 H                     0.247469
    131 H                     0.323228
    132 O                    -0.743043
    133 C                    -0.904297
    134 H                     0.261951
    135 H                     0.223012
    136 H                     0.247153
    137 S                     1.046099
    138 C                    -0.868211
    139 H                     0.287654
    140 H                     0.242127
    141 H                     0.206609
    142 O                    -0.713821
    143 C                    -0.900319
    144 H                     0.251502
    145 H                     0.260513
    146 H                     0.310627
    147 S                     0.983436
    148 C                    -0.959971
    149 H                     0.255611
    150 H                     0.246845
    151 H                     0.251011
    152 O                    -0.668582
    153 C                    -0.928756
    154 H                     0.246564
    155 H                     0.269843
    156 H                     0.230625
    157 S                     1.157205
    158 C                    -0.935322
    159 H                     0.232233
    160 H                     0.271489
    161 H                     0.278164
    162 O                    -0.708677
    163 C                    -1.000987
    164 H                     0.270110
    165 H                     0.257464
    166 H                     0.267096
    167 S                     1.013610
    168 C                    -0.939238
    169 H                     0.253615
    170 H                     0.256077
    171 H                     0.252508
    172 O                    -0.655998
    173 C                    -0.831128
    174 H                     0.246229
    175 H                     0.255816
    176 H                     0.248812
    177 S                     0.920906
    178 C                    -0.963182
    179 H                     0.309595
    180 H                     0.231168
    181 H                     0.261381
    182 O                    -0.662230
    183 C                    -0.932417
    184 H                     0.249310
    185 H                     0.260963
    186 H                     0.201918
    187 S                     1.260432
    188 C                    -1.130734
    189 H                     0.255518
    190 H                     0.286546
    191 H                     0.256060
    192 O                    -0.741257
    193 C                    -0.719864
    194 H                     0.247772
    195 H                     0.265242
    196 H                     0.285794
    197 S                     0.626361
    198 C                    -0.814394
    199 H                     0.258559
    200 H                     0.287686
    201 H                     0.262148
    202 O                    -0.639454
    203 C                    -0.832351
    204 H                     0.252023
    205 H                     0.270156
    206 H                     0.258551
    207 S                     0.804015
    208 C                    -0.847199
    209 H                     0.247450
    210 H                     0.224304
    211 H                     0.259302
    212 O                    -0.663425
    213 C                    -0.898803
    214 H                     0.246712
    215 H                     0.231794
    216 H                     0.265458
    217 S                     0.964598
    218 C                    -0.810949
    219 H                     0.241161
    220 H                     0.218727
    221 H                     0.253841
    222 O                    -0.697475
    223 C                    -0.891212
    224 H                     0.268414
    225 H                     0.269025
    226 H                     0.301538
    227 S                     0.742319
    228 C                    -0.792412
    229 H                     0.270595
    230 H                     0.280737
    231 H                     0.241836
    232 O                    -0.702530
    233 C                    -0.635168
    234 H                     0.265784
    235 H                     0.268977
    236 H                     0.264383
    237 S                     0.492584
    238 C                    -0.802668
    239 H                     0.256120
    240 H                     0.233187
    241 H                     0.269612
    242 O                    -0.574154
    243 C                    -0.862822
    244 H                     0.270398
    245 H                     0.264652
    246 H                     0.233949
    247 S                     0.864145
    248 C                    -0.837997
    249 H                     0.289352
    250 H                     0.248424
    251 H                     0.244919
    252 O                    -0.667343
    253 C                    -0.851344
    254 H                     0.254286
    255 H                     0.284170
    256 H                     0.232061
    257 S                     0.836964
    258 C                    -0.909102
    259 H                     0.229446
    260 H                     0.252761
    261 H                     0.277828
    262 O                    -0.647315
    263 C                    -0.905455
    264 H                     0.278969
    265 H                     0.250041
    266 H                     0.249258
    267 S                     0.616390
    268 C                    -0.702369
    269 H                     0.320168
    270 H                     0.263065
    271 H                     0.236631
    272 O                    -0.557006
    273 C                    -1.025924
    274 H                     0.287844
    275 H                     0.240872
    276 H                     0.225469
    277 S                     1.204494
    278 C                    -1.097137
    279 H                     0.228355
    280 H                     0.294117
    281 H                     0.264698
    282 O                    -0.680569
    283 C                    -0.928421
    284 H                     0.282866
    285 H                     0.251381
    286 H                     0.273363
    287 S                     0.768665
    288 C                    -0.860289
    289 H                     0.249712
    290 H                     0.282306
    291 H                     0.254883
    292 O                    -0.610661
    293 C                    -0.790443
    294 H                     0.227224
    295 H                     0.273810
    296 H                     0.303120
    297 S                     0.490528
    298 C                    -0.800136
    299 H                     0.223397
    300 H                     0.261160
    301 H                     0.279482
    302 O                    -0.605643
  ----------------------------------------
  Sum of atomic charges =     0.000000

[...]
    2   0.3570664  -0.4500782   1.8289097  -0.8464626   1.1776269  -0.4789905
    3   0.6153744   2.0406200  -0.1669819   0.3800316   2.0503291   3.4094335
          229         230         231         232         233         234
    1   0.1944447  -1.1590294   2.3884629  -1.4963627   1.6014575   1.5901972
    2   0.5921191  -1.0446562  -0.6662611   2.2488213   0.0264889  -0.8548176
    3   4.8848234   2.5150854   2.6383698   3.4995885  -1.3620745   0.1598426
          235         236         237         238         239         240
    1   0.6469793   2.7857454  -0.3317368   0.2328962   2.0627045  -0.3820516
    2  -0.5709791   2.0489795   0.7920752   2.7975453   3.0377006   1.4180690
    3  -2.3946958  -2.0039000  -0.9226612  -2.4446417  -2.8042347  -2.9904863
          241         242         243         244         245         246
    1  -0.7595924   0.9780765   0.2002611   0.6695166  -0.2633196  -0.1630518
    2   4.1195443   2.9278107  -0.0652573   1.6380377  -0.4108024  -1.2501565
    3  -1.7120196   0.4374532  -0.3721644  -0.4312337  -2.0523004   0.7710569
          247         248         249         250         251         252
    1   2.8981436   2.7781092   2.9550450   4.2578395   0.8090577   2.2044780
    2  -0.2947397   0.6494328   2.2650791  -0.3813304   0.2948712  -3.1986449
    3   0.1143147  -1.8704523  -1.0007882  -2.1386682  -2.3801384  -0.8586001
          253         254         255         256         257         258
    1  -2.0384791  -3.3920956  -0.6092760  -2.4319114  -2.2912521  -3.6933111
    2   1.8001625   1.4100552   0.9042132   3.1052954   0.4902513   0.7533078
    3  -0.0980924   1.5699358  -0.3706230  -1.6571294  -1.6189381  -0.6208198
          259         260         261         262         263         264
    1  -3.0687115  -3.6444565  -3.9051293  -2.4951445  -1.2182581  -0.5846341
    2   2.5501048  -0.6125232  -0.2823348  -2.0870920  -2.1550614  -0.5129787
    3  -1.1884566  -2.2632530   1.2127230   0.6223412   2.5532485   2.5486437
          265         266         267         268         269         270
    1  -2.8930491   0.4350162  -1.0191018   0.6501652  -0.7546339   1.6191675
    2  -2.8383916  -3.4866925  -2.0240688  -3.8429343  -4.4247739  -3.3647991
    3   2.1349527   2.9486635   0.3330665   0.6320826   0.7063314  -1.0846438
          271         272         273         274         275         276
    1   1.5306648   1.6617726   1.9615661   1.8615442   2.5063495   1.2218356
    2  -3.4958482  -0.1790729  -1.3495571   0.3047930  -3.3329096  -1.3715352
    3   2.3077692   0.5395274  -1.0455764  -0.1624405  -0.0846901  -2.6684805
          277         278         279         280         281         282
    1   0.0872709   0.4654317   2.1383033   0.4777229  -1.0881552  -0.0535796
    2  -0.8614268  -1.5217359  -2.8817674   0.6610752  -2.8342681  -4.4123892
    3  -0.8574230   0.6485451   0.3786840   0.6673200   0.4081988  -1.5339927
          283         284         285         286         287         288
    1   3.2759894   1.7040716   3.7820839   4.4053455   2.0681290   4.0677699
    2   2.3135134   2.9908565   1.5399401   2.1702752   0.2488416  -0.6767510
    3   0.7902910   0.6151351   2.5505288  -0.7658449   0.7708381   0.8753597
          289         290         291         292         293         294
    1   4.9108083   3.5156550   3.1873055   2.4600323  -2.1634467  -2.3726544
    2   0.4973592  -0.6202445  -2.4749709   0.4188254   1.3789816   2.5604722
    3  -0.1935467   2.7678759   0.2721877  -2.3149559  -0.7653105  -2.5978682
          295         296         297         298         299         300
    1  -3.0835535  -0.6710477  -0.6361305  -2.6235004  -2.3258139  -1.6275862
    2  -0.1112983   1.2346589   0.7535796  -0.0871338   1.7263244  -1.3742995
    3  -0.3215202   0.8216819  -1.8107961  -2.9670319  -3.7949297  -3.6193898
          301         302
    1  -3.8809335  -0.2798190
    2  -0.4414301  -1.6735631
    3  -1.5940833  -0.0167835
 EField
            1           2           3           4           5           6
    1  -0.0051908  -0.0067276  -0.0024822  -0.0064410  -0.0028028  -0.0027296
    2   0.0023898   0.0013804  -0.0003358  -0.0011492  -0.0004405  -0.0013972
    3   0.0026903  -0.0024183  -0.0003150  -0.0012811  -0.0025685   0.0016749
            7           8           9          10          11          12
    1   0.0019996  -0.0073854  -0.0030875  -0.0052520  -0.0039090  -0.0142895
    2  -0.0002378   0.0008863   0.0041641   0.0054453  -0.0017871  -0.0071095
    3  -0.0033160  -0.0002429   0.0039543   0.0057364  -0.0018039  -0.0040091
           13          14          15          16          17          18
    1   0.0012224  -0.0036804  -0.0045754  -0.0003515   0.0009297  -0.0138898
    2   0.0002850   0.0008549   0.0002252  -0.0065912  -0.0024054   0.0018852
    3  -0.0026874  -0.0036594   0.0046095  -0.0005770   0.0030955  -0.0066957
           19          20          21          22          23          24
    1  -0.0259351  -0.0141642  -0.0146515  -0.0110065  -0.0051093   0.0078741
    2  -0.0024742   0.0047260   0.0013976   0.0032478  -0.0032957  -0.0311871
    3  -0.0204096  -0.0007195   0.0033489   0.0008364  -0.0031945   0.0118119
           25          26          27          28          29          30
    1  -0.0315422  -0.0056191  -0.0063181   0.0067781   0.0015785  -0.0083436
    2   0.0008477   0.0161979   0.0544322  -0.0029566  -0.0313037   0.0119094
    3   0.0145007  -0.0299915  -0.0031868  -0.0060572  -0.0014635  -0.0295288
           31          32          33          34          35          36
    1   0.0301316   0.0333478  -0.0014964   0.0261702   0.0126806  -0.0294964
    2   0.0060931  -0.0559969  -0.0030541   0.0151486  -0.0330062   0.0101634
    3  -0.0019866   0.0885837  -0.0087958  -0.0074640   0.0023966  -0.0128465
           37          38          39          40          41          42
    1   0.0301820  -0.0075744  -0.0140258  -0.0027081  -0.0076744  -0.0091641
    2  -0.0353154  -0.0040150  -0.0303721   0.0014877   0.0131260   0.1082458
    3   0.0361040   0.0033929   0.0128439   0.0331743  -0.0352708   0.0163507
           43          44          45          46          47          48
    1   0.0076430   0.0262425  -0.0089056   0.0174875  -0.0256966   0.0059693
    2   0.0019989   0.0225716  -0.0112238  -0.0271506  -0.0501525   0.0038007
    3   0.0069812  -0.0041326   0.0325367  -0.0008825  -0.0143296  -0.0036203
           49          50          51          52          53          54
    1  -0.0168803   0.0180956   0.0214962  -0.0500504  -0.0027217  -0.0114599
    2   0.0051177   0.0184615  -0.0230560   0.0942725  -0.0043341   0.0193225
    3  -0.0259906   0.0189165  -0.0134209   0.0204150   0.0063866   0.0215496
           55          56          57          58          59          60
    1  -0.0329458  -0.0047524  -0.0246356   0.0028641   0.0154382  -0.0205475
    2  -0.0075680  -0.0367099   0.0373767  -0.0077619  -0.0089697  -0.0218678
    3  -0.0086944   0.0117078  -0.0433657   0.0038225   0.0244619  -0.0192331
           61          62          63          64          65          66
    1   0.0124112   0.0672049  -0.0051994  -0.0280282   0.0016878  -0.0126773
    2   0.0080007   0.0397219   0.0008609  -0.0146980  -0.0233101   0.0238383
    3  -0.0224710   0.0753720   0.0022355  -0.0113309   0.0245303   0.0157279
           67          68          69          70          71          72
    1   0.0270062   0.0092457  -0.0188015   0.0113853   0.0279987  -0.0357897
    2  -0.0411956   0.0040075   0.0240970  -0.0193592   0.0107605   0.0894210
    3  -0.0187683   0.0047267   0.0061780   0.0270119  -0.0114959  -0.0523202
           73          74          75          76          77          78
    1   0.0068877   0.0103791   0.0312794   0.0159385  -0.0111068   0.0032272
    2  -0.0032589  -0.0025194   0.0179312  -0.0282921   0.0506331  -0.0050561
    3  -0.0015666  -0.0314617   0.0007612   0.0032190  -0.0077991   0.0074127
           79          80          81          82          83          84
    1   0.0120224   0.0244501  -0.0229531  -0.0627081   0.0015130   0.0246071
    2  -0.0301576   0.0195484   0.0028115  -0.0865762   0.0096554   0.0154678
    3  -0.0001349   0.0108072   0.0213617  -0.0283533  -0.0021127  -0.0051409
           85          86          87          88          89          90
    1  -0.0159053  -0.0066924  -0.0473197   0.0101711  -0.0051107   0.0362253
    2  -0.0093961   0.0135786  -0.0380308   0.0000372  -0.0329908   0.0115223
    3  -0.0284074   0.0333728   0.0155589   0.0083712   0.0152326  -0.0064824
           91          92          93          94          95          96
    1  -0.0065542   0.0696516   0.0011481  -0.0223382  -0.0000235   0.0197401
    2   0.0216843  -0.0203370   0.0083634   0.0249981   0.0285167  -0.0166955
    3   0.0240661  -0.0828503  -0.0070037  -0.0245170   0.0224060  -0.0196264
           97          98          99         100         101         102
    1  -0.0368184   0.0017050   0.0151927  -0.0319656  -0.0164898   0.0936763
    2  -0.0334014   0.0073876   0.0261036   0.0129994  -0.0118195  -0.0372452
    3  -0.0293855   0.0031703   0.0123892  -0.0041915   0.0291612   0.0405353
          103         104         105         106         107         108
    1   0.0067101  -0.0204617   0.0066488   0.0342924   0.0083807  -0.0035383
    2  -0.0036889   0.0119434  -0.0325995  -0.0038072   0.0487631  -0.0067532
    3   0.0087597   0.0040364   0.0120390   0.0097213  -0.0274520  -0.0037593
          109         110         111         112         113         114
    1  -0.0286303   0.0084446  -0.0049484   0.0711296   0.0009970   0.0120585
    2   0.0173342  -0.0100546  -0.0277388  -0.0854208  -0.0033817  -0.0274417
    3   0.0087853  -0.0302833   0.0178783  -0.0160884  -0.0074806   0.0116486
          115         116         117         118         119         120
    1  -0.0240931   0.0157942  -0.0259573  -0.0073463   0.0044210   0.0130434
    2  -0.0181028   0.0248415  -0.0212720   0.0009193   0.0277263   0.0087642
    3  -0.0113212  -0.0171734   0.0402888  -0.0032181   0.0102078  -0.0274303
          121         122         123         124         125         126
    1  -0.0358535   0.0944565   0.0010783  -0.0015684  -0.0207795   0.0199935
    2  -0.0029246   0.0566446   0.0034979  -0.0103849   0.0238384   0.0198176
    3  -0.0049055   0.0061409  -0.0027114  -0.0366101   0.0084145  -0.0205281
          127         128         129         130         131         132
    1   0.0409342  -0.0106951  -0.0028038   0.0005114  -0.0230865  -0.0022645
    2  -0.0353840  -0.0022151  -0.0225315  -0.0194320   0.0284518   0.0641031
    3  -0.0124782   0.0020072  -0.0243730   0.0280287  -0.0046386   0.0882540
          133         134         135         136         137         138
    1   0.0021634   0.0244885  -0.0263182   0.0053781  -0.0136880  -0.0024666
    2   0.0040026  -0.0154672  -0.0076723   0.0311818  -0.0494617   0.0047232
    3  -0.0074019  -0.0133566  -0.0207969   0.0032872   0.0046183   0.0036488
          139         140         141         142         143         144
    1  -0.0159798   0.0062685  -0.0309385   0.0922216  -0.0051004  -0.0296305
    2   0.0010368   0.0292377   0.0040247   0.0442839   0.0017806  -0.0099059
    3   0.0299338  -0.0072307  -0.0082749   0.0429213  -0.0083990  -0.0081883
          145         146         147         148         149         150
    1  -0.0149517   0.0064163   0.0586638  -0.0044614  -0.0333974   0.0064756
    2   0.0264879  -0.0069519   0.0143278  -0.0084568   0.0006948  -0.0053051
    3   0.0081442  -0.0315775  -0.0211970  -0.0003156   0.0129257  -0.0306859
          151         152         153         154         155         156
    1   0.0274706  -0.0288629   0.0043229   0.0229560  -0.0208003   0.0114986
    2  -0.0129632   0.0262942   0.0062137   0.0147638   0.0243463  -0.0036703
    3   0.0149993   0.1017364   0.0040415  -0.0151233   0.0051276   0.0286041
          157         158         159         160         161         162
    1  -0.0336890  -0.0085396   0.0205244  -0.0279643  -0.0143487   0.0837560
    2   0.0161594  -0.0039793  -0.0043418   0.0185783  -0.0236069  -0.0680972
    3  -0.0434008   0.0051889   0.0233970   0.0066347  -0.0096184   0.0001030
          163         164         165         166         167         168
    1   0.0054851   0.0266102  -0.0089603   0.0162325   0.0213964  -0.0023482
    2  -0.0050198  -0.0037673  -0.0100350   0.0213369   0.0250591  -0.0085089
    3  -0.0065958   0.0200234  -0.0330128  -0.0195042   0.0540311   0.0012286
          169         170         171         172         173         174
    1  -0.0308478  -0.0088278   0.0241805  -0.0685719  -0.0107865   0.0110794
    2   0.0049337  -0.0110963  -0.0081740   0.0544373  -0.0030121   0.0034504
    3   0.0095914  -0.0294758   0.0191527  -0.0646738  -0.0021347  -0.0321496
          175         176         177         178         179         180
    1  -0.0204854  -0.0198506   0.0336815  -0.0014177  -0.0208182  -0.0026057
    2  -0.0244060   0.0223351   0.0385991  -0.0090165  -0.0293477  -0.0087831
    3   0.0122711   0.0080720  -0.0081153  -0.0019994   0.0066032  -0.0365234
          181         182         183         184         185         186
    1   0.0224862  -0.0410152   0.0014087   0.0053739  -0.0270754   0.0187309
    2  -0.0167044  -0.0404308   0.0007822  -0.0290209  -0.0111092   0.0185913
    3   0.0103305   0.0975074  -0.0044217   0.0012856  -0.0101341  -0.0229877
          187         188         189         190         191         192
    1  -0.0081476   0.0075422   0.0035049   0.0017411   0.0331718  -0.0605248
    2   0.0474325   0.0012100   0.0036175  -0.0277574   0.0171059  -0.0867002
    3   0.0070570  -0.0007798   0.0272952   0.0053581  -0.0070806   0.0299571
          193         194         195         196         197         198
    1  -0.0092556  -0.0022157  -0.0241527   0.0026527   0.0479829  -0.0000079
    2   0.0057578   0.0353878  -0.0201093   0.0042146   0.0264855   0.0037845
    3   0.0024007   0.0024119  -0.0113246   0.0274446   0.0221322  -0.0090039
          199         200         201         202         203         204
    1   0.0326070  -0.0308061   0.0017111  -0.0187565   0.0008529  -0.0032125
    2   0.0004847  -0.0035139   0.0356132  -0.1065382  -0.0034358  -0.0301425
    3  -0.0188466  -0.0104272  -0.0126823  -0.0000513   0.0106440  -0.0067316
          205         206         207         208         209         210
    1   0.0261756  -0.0069187  -0.0535038   0.0050920  -0.0104861  -0.0032091
    2   0.0068823  -0.0043611  -0.0062943  -0.0035325  -0.0312774   0.0142392
    3   0.0081496   0.0355272  -0.0079427  -0.0047990  -0.0079575  -0.0238556
          211         212         213         214         215         216
    1   0.0292851   0.0516860   0.0056089   0.0127647  -0.0039467   0.0251311
    2   0.0013784   0.0921990   0.0053320  -0.0112056   0.0330875   0.0061895
    3   0.0060506   0.0302779  -0.0030023  -0.0300772  -0.0029691   0.0169787
          217         218         219         220         221         222
    1   0.0081324  -0.0041848  -0.0010373  -0.0237553  -0.0039901  -0.0007818
    2  -0.0555932   0.0053487  -0.0138118  -0.0075982   0.0319985   0.0352935
    3  -0.0147751  -0.0043523  -0.0367670   0.0069361   0.0204840   0.1043763
          223         224         225         226         227         228
    1  -0.0046820  -0.0325585  -0.0053292   0.0259254   0.0528364  -0.0049888
    2  -0.0096007  -0.0109294   0.0236661  -0.0118143   0.0293009  -0.0062454
    3  -0.0052587   0.0120216  -0.0183657  -0.0252120  -0.0177525   0.0022657
          229         230         231         232         233         234
    1   0.0031071  -0.0184328   0.0260596  -0.0769998   0.0077844   0.0075595
    2   0.0084117  -0.0359065  -0.0171985   0.0570350   0.0006851  -0.0110416
    3   0.0306636   0.0010135   0.0007620   0.0536611  -0.0044044   0.0260998
          235         236         237         238         239         240
    1  -0.0094752   0.0320335  -0.0528471  -0.0002569   0.0290733  -0.0163655
    2  -0.0145698   0.0126260  -0.0328278   0.0038517   0.0142738  -0.0200484
    3  -0.0230148  -0.0103590   0.0143391  -0.0080107  -0.0076948  -0.0202769
          241         242         243         244         245         246
    1  -0.0156648   0.0417153  -0.0046632   0.0045534  -0.0061348  -0.0083785
    2   0.0263225   0.0666217   0.0066329   0.0339125  -0.0102201  -0.0167875
    3   0.0124013   0.0761366   0.0022387   0.0153196  -0.0191088   0.0269874
          247         248         249         250         251         252
    1   0.0335589   0.0023526   0.0030840   0.0237993  -0.0143430  -0.0111071
    2   0.0172669   0.0070271   0.0321649  -0.0144210   0.0027355  -0.1059927
    3   0.0466914  -0.0069572   0.0141023  -0.0188748  -0.0267348  -0.0269742
          253         254         255         256         257         258
    1   0.0044136  -0.0110781   0.0301045  -0.0027932   0.0199983  -0.0073319
    2   0.0034495  -0.0001581  -0.0064960   0.0298847   0.0011813  -0.0011903
    3   0.0060443   0.0300436   0.0138817  -0.0146643  -0.0537344   0.0000896
          259         260         261         262         263         264
    1  -0.0095207  -0.0180020  -0.0080313   0.0061867  -0.0000023  -0.0041376
    2   0.0334705  -0.0176584  -0.0039947  -0.0944458  -0.0016561   0.0288821
    3   0.0024410  -0.0237370   0.0325243   0.0588978   0.0064218   0.0048550
          265         266         267         268         269         270
    1  -0.0310594   0.0157034  -0.0425156  -0.0010414  -0.0188583   0.0102870
    2  -0.0063831  -0.0214251   0.0042238  -0.0108583  -0.0313909  -0.0012909
    3   0.0096703   0.0182634  -0.0395525  -0.0000240  -0.0061084  -0.0292259
          271         272         273         274         275         276
    1   0.0136658   0.0872201   0.0046267   0.0016042   0.0207005   0.0099437
    2  -0.0042830   0.0651055  -0.0020601   0.0270159  -0.0348081  -0.0134723
    3   0.0280763   0.0046677  -0.0012496   0.0163662  -0.0056445  -0.0316517
          277         278         279         280         281         282
    1  -0.0378390  -0.0017919   0.0220711  -0.0062823  -0.0254844  -0.0199539
    2   0.0469948  -0.0024136  -0.0212155   0.0278118  -0.0150376  -0.1038476
    3  -0.0175115   0.0082965   0.0121465   0.0187030   0.0133943  -0.0318279
          283         284         285         286         287         288
    1   0.0019455  -0.0144320   0.0072579   0.0223236  -0.0386574   0.0042669
    2   0.0096783   0.0308544   0.0090315   0.0054773  -0.0128227  -0.0073792
    3   0.0008119   0.0106433   0.0325658  -0.0208458   0.0360827   0.0060873
          289         290         291         292         293         294
    1   0.0212068   0.0055613   0.0057439   0.0028441  -0.0016512  -0.0137275
    2   0.0147014   0.0039989  -0.0308910  -0.0090176  -0.0011378   0.0279095
    3  -0.0156523   0.0357047  -0.0155001  -0.1069489   0.0107812  -0.0082552
          295         296         297         298         299         300
    1  -0.0280535   0.0247994   0.0425968  -0.0043868  -0.0148732   0.0123504
    2  -0.0247409   0.0198171   0.0291956  -0.0046064   0.0207779  -0.0240249
    3  -0.0040459   0.0245165  -0.0254604  -0.0035031  -0.0251750  -0.0151649
          301         302
    1  -0.0229882   0.0287584
    2  -0.0063007  -0.0929358
    3   0.0187840   0.0634150
  --- DONE ESP SUMMARY ---
 Total job time:  31.01s(wall), 83.73s(cpu) 
 Thu Jul 21 20:39:00 2022

        *************************************************************
        *                                                           *
        *  Thank you very much for using Q-Chem.  Have a nice day.  *
        *                                                           *
        *************************************************************


