                  Welcome to Q-Chem
     A Quantum Leap Into The Future Of Chemistry


 Q-Chem 5.2 (devel), Q-Chem, Inc., Pleasanton, CA (2019)

 Yihan Shao,  Zhengting Gan,  E. Epifanovsky,  A. T. B. Gilbert,  M. Wormit,  
 J. Kussmann,  A. W. Lange,  A. Behn,  Jia Deng,  Xintian Feng,  D. Ghosh,  
 M. Goldey,  P. R. Horn,  L. D. Jacobson,  I. Kaliman,  T. Kus,  A. Landau,  
 Jie Liu,  E. I. Proynov,  R. M. Richard,  R. P. Steele,  E. J. Sundstrom,  
 H. L. Woodcock III,  P. M. Zimmerman,  D. Zuev,  B. Alam,  B. Albrecht,  
 E. Alguire,  S. A. Baeppler,  D. Barton,  Z. Benda,  Y. A. Bernard,  
 E. J. Berquist,  K. B. Bravaya,  H. Burton,  K. Carter-Fenk,  D. Casanova,  
 Chun-Min Chang,  Yunqing Chen,  A. Chien,  K. D. Closser,  M. P. Coons,  
 S. Coriani,  S. Dasgupta,  A. L. Dempwolff,  M. Diedenhofen,  Hainam Do,  
 R. G. Edgar,  Po-Tung Fang,  S. Faraji,  S. Fatehi,  Qingguo Feng,  
 J. Fosso-Tande,  J. Gayvert,  Qinghui Ge,  A. Ghysels,  G. Gidofalvi,  
 J. Gomes,  J. Gonthier,  A. Gunina,  D. Hait,  M. W. D. Hanson-Heine,  
 P. H. P. Harbach,  A. W. Hauser,  M. F. Herbst,  J. E. Herr,  
 E. G. Hohenstein,  Z. C. Holden,  Kerwin Hui,  B. C. Huynh,  T.-C. Jagau,  
 Hyunjun Ji,  B. Kaduk,  K. Khistyaev,  Jaehoon Kim,  P. Klunzinger,  K. Koh,  
 D. Kosenkov,  L. Koulias,  T. Kowalczyk,  C. M. Krauter,  A. Kunitsa,  
 Ka Un Lao,  A. Laurent,  K. V. Lawler,  Joonho Lee,  D. Lefrancois,  
 S. Lehtola,  D. S. Levine,  Yi-Pei Li,  You-Sheng Lin,  Fenglai Liu,  
 Kuan-Yu Liu,  E. Livshits,  M. Loipersberger,  A. Luenser,  P. Manohar,  
 E. Mansoor,  S. F. Manzer,  Shan-Ping Mao,  Yuezhi Mao,  N. Mardirossian,  
 A. V. Marenich,  T. Markovich,  L. A. Martinez-Martinez,  S. A. Maurer,  
 N. J. Mayhall,  S. C. McKenzie,  J.-M. Mewes,  P. Morgante,  A. F. Morrison,  
 J. W. Mullinax,  K. Nanda,  T. S. Nguyen-Beck,  R. Olivares-Amaya,  
 J. A. Parkhill,  S. K. Paul,  F. Pavosevic,  Zheng Pei,  T. M. Perrine,  
 F. Plasser,  P. Pokhilko,  S. Prager,  A. Prociuk,  E. Ramos,  B. Rana,  
 D. R. Rehn,  F. Rob,  M. Scheurer,  M. Schneider,  N. Sergueev,  
 S. M. Sharada,  S. Sharma,  D. W. Small,  T. Stauch,  C. J. Stein,  
 T. Stein,  Yu-Chuan Su,  S. P. Veccham,  Zhen Tao,  A. J. W. Thom,  
 A. Tkatchenko,  T. Tsuchimochi,  N. M. Tubman,  L. Vogt,  M. L. Vidal,  
 O. Vydrov,  M. A. Watson,  J. Wenzel,  M. de Wergifosse,  T. A. Wesolowski,  
 A. White,  J. Witte,  A. Yamada,  Jun Yang,  K. Yao,  S. Yeganeh,  
 S. R. Yost,  Zhi-Qiang You,  A. Zech,  Igor Ying Zhang,  Xing Zhang,  
 Yan Zhao,  Ying Zhu,  B. R. Brooks,  G. K. L. Chan,  C. J. Cramer,  
 M. S. Gordon,  W. J. Hehre,  A. Klamt,  M. W. Schmidt,  C. D. Sherrill,  
 D. G. Truhlar,  A. Aspuru-Guzik,  R. Baer,  A. T. Bell,  N. A. Besley,  
 Jeng-Da Chai,  A. E. DePrince, III,  R. A. DiStasio Jr.,  A. Dreuw,  
 B. D. Dunietz,  T. R. Furlani,  Chao-Ping Hsu,  Yousung Jung,  Jing Kong,  
 D. S. Lambrecht,  WanZhen Liang,  C. Ochsenfeld,  V. A. Rassolov,  
 L. V. Slipchenko,  J. E. Subotnik,  T. Van Voorhis,  J. M. Herbert,  
 A. I. Krylov,  P. M. W. Gill,  M. Head-Gordon

 Contributors to earlier versions of Q-Chem not listed above: 
 R. D. Adamson,  B. Austin,  J. Baker,  G. J. O. Beran,  K. Brandhorst,  
 S. T. Brown,  E. F. C. Byrd,  A. K. Chakraborty,  C.-L. Cheng,  
 Siu Hung Chien,  D. M. Chipman,  D. L. Crittenden,  H. Dachsel,  
 R. J. Doerksen,  A. D. Dutoi,  L. Fusti-Molnar,  W. A. Goddard III,  
 A. Golubeva-Zadorozhnaya,  S. R. Gwaltney,  G. Hawkins,  A. Heyden,  
 S. Hirata,  G. Kedziora,  F. J. Keil,  C. Kelley,  Jihan Kim,  R. A. King,  
 R. Z. Khaliullin,  P. P. Korambath,  W. Kurlancheek,  A. M. Lee,  M. S. Lee,  
 S. V. Levchenko,  Ching Yeh Lin,  D. Liotard,  R. C. Lochan,  I. Lotan,  
 P. E. Maslen,  N. Nair,  D. P. O'Neill,  D. Neuhauser,  E. Neuscamman,  
 C. M. Oana,  R. Olson,  B. Peters,  R. Peverati,  P. A. Pieniazek,  
 Y. M. Rhee,  J. Ritchie,  M. A. Rohrdanz,  E. Rosta,  N. J. Russ,  
 H. F. Schaefer III,  N. E. Schultz,  N. Shenvi,  A. C. Simmonett,  A. Sodt,  
 D. Stuck,  K. S. Thanthiriwatte,  V. Vanovschi,  Tao Wang,  A. Warshel,  
 C. F. Williams,  Q. Wu,  X. Xu,  W. Zhang

 Please cite Q-Chem as follows:
 Y. Shao et al., Mol. Phys. 113, 184-215 (2015)
 DOI: 10.1080/00268976.2014.952696

 Q-Chem 5.2.2 for Intel X86 EM64T Linux

 Parts of Q-Chem use Armadillo 9.800.1 (Horizon Scraper).
 http://arma.sourceforge.net/

 Q-Chem begins on Thu Mar 11 13:37:48 2021  

Host: n0099.mhg0
0

     Scratch files written to /local/scratch/users/ymao/r7.00_frame_0037_almo_B3LYP_dp.in20210311133745//

Checking the input file for inconsistencies... 	...done.

--------------------------------------------------------------
User input:
--------------------------------------------------------------
$molecule
0 1
--
0 1
C    22.68800   15.06600   27.35100  
C    22.52400   14.87800   28.86800  
C    23.64500   15.62300   29.61100  
C    23.78900   17.11500   29.26900  
C    23.92600   17.36700   27.75900  
C    22.92200   16.53100   26.94800  
H    23.59800   15.46900   30.69600  
H    21.61000   15.35000   29.24800  
H    23.52600   14.42300   27.05100  
H    21.80000   14.71900   26.80900  
H    22.92100   17.62000   29.71000  
H    24.65500   17.46700   29.84300  
H    23.99900   18.43000   27.49700  
H    24.98100   17.12400   27.58000  
H    21.99200   17.10900   27.02600  
H    23.06500   16.54300   25.86100  
H    24.52100   15.06700   29.25500  
N    22.61100   13.43800   29.10700  
H    23.35400   12.90500   28.67200  
C    21.79300   12.76700   29.99200  
H    21.97200   11.67600   29.98700  
O    21.04700   13.33100   30.77200  
--
0 1
C    16.04600   18.92200   32.86000  
H    16.06200   19.59500   33.72100  
H    16.09200   19.68900   32.08300  
H    15.16700   18.28500   32.73700  
S    17.51200   17.87300   32.99300  
C    17.01800   17.13000   34.56500  
H    17.80500   16.42500   34.84600  
H    16.86300   17.92300   35.30100  
H    16.06900   16.62100   34.37800  
O    18.61800   18.84600   33.26300  
C    21.07300   16.97600   21.81200  
H    20.17200   17.43800   22.22200  
H    20.87400   16.77400   20.75600  
H    21.18700   16.01700   22.32300  
S    22.59700   17.87000   22.18700  
C    23.72600   16.80300   21.26400  
H    23.33900   16.30500   20.37200  
H    24.54400   17.40800   20.86300  
H    24.16000   16.07100   21.95100  
O    22.74800   17.22000   23.52700  
C    26.10700   20.37400   31.08700  
H    26.03500   19.32300   31.37900  
H    27.17700   20.53600   30.93200  
H    25.81900   21.03700   31.90600  
S    25.08000   20.51100   29.60600  
C    25.37600   22.26900   29.31300  
H    25.09200   22.87600   30.17600  
H    26.39600   22.51600   29.00700  
H    24.72000   22.51400   28.47400  
O    23.70800   20.54600   30.20300  
C    29.39400   11.74300   24.03000  
H    28.35100   11.49300   24.23900  
H    29.35700   12.37800   23.14100  
H    30.06700   10.90800   23.82000  
S    30.18400   12.63000   25.39200  
C    30.16300   11.25200   26.56100  
H    30.79600   10.42100   26.23900  
H    30.45400   11.66700   27.52900  
H    29.13400   10.88700   26.61600  
O    29.04300   13.47700   25.86300  
C    29.64400   19.49300   31.71800  
H    28.79100   18.98400   32.17200  
H    29.43100   20.55600   31.85800  
H    29.65500   19.27900   30.64600  
S    31.20500   19.17100   32.57000  
C    31.05500   17.38100   32.37100  
H    31.29600   17.19100   31.32200  
H    31.78100   16.95000   33.06400  
H    30.04200   17.10800   32.68000  
O    30.91000   19.47500   34.00600  
C    21.94300   19.44700   34.41400  
H    21.58400   19.69700   33.41300  
H    21.55500   18.48000   34.74400  
H    21.69300   20.23200   35.13300  
S    23.74100   19.30700   34.30500  
C    23.87000   18.05300   33.01000  
H    23.44100   18.45000   32.08700  
H    24.87500   17.69100   32.78000  
H    23.29600   17.16700   33.29300  
O    24.04400   18.68700   35.63300  
C    23.37100   9.61200    32.68100  
H    23.17500   9.27600    31.66000  
H    24.16400   10.36400   32.72600  
H    23.70500   8.80400    33.33700  
S    21.96200   10.48600   33.40000  
C    22.49300   10.67700   35.11700  
H    21.91800   11.44800   35.63700  
H    22.25200   9.71400    35.57400  
H    23.57700   10.81000   35.14300  
O    20.85300   9.49400    33.56500  
C    20.77100   12.27000   25.73900  
H    20.82200   11.29400   26.22900  
H    21.71800   12.59900   25.30400  
H    20.39200   13.05500   26.39700  
S    19.54100   12.17300   24.42000  
C    19.66100   13.92400   23.98900  
H    19.01700   14.16200   23.13900  
H    19.33700   14.57900   24.80200  
H    20.67400   14.13300   23.63600  
O    18.31200   12.27100   25.26900  
C    20.59000   7.19900    30.97900  
H    20.33900   8.04600    30.33600  
H    20.19400   7.55100    31.93500  
H    21.65700   7.02000    31.13700  
S    19.84700   5.61300    30.53300  
C    18.14500   6.19800    30.69800  
H    17.46300   5.34500    30.65300  
H    17.99700   6.64000    31.68700  
H    17.83100   6.85400    29.88200  
O    20.07200   4.68800    31.68900  
C    29.13400   16.95000   26.96000  
H    28.05600   17.07900   26.83600  
H    29.72200   17.87100   26.96400  
H    29.39800   16.27000   26.14600  
S    29.33700   16.22600   28.60300  
C    28.15300   17.38800   29.32000  
H    27.15400   16.95500   29.41800  
H    28.60900   17.57500   30.29500  
H    28.10600   18.29800   28.71600  
O    30.70600   16.59600   29.08200  
C    18.08800   14.69100   30.70600  
H    17.61100   15.48600   31.28600  
H    17.73500   13.80500   31.23900  
H    19.15200   14.92700   30.61800  
S    17.26900   14.71500   29.09600  
C    18.65000   14.06900   28.12600  
H    19.30700   14.92900   27.97400  
H    19.15200   13.31600   28.73800  
H    18.24700   13.74500   27.16300  
O    17.30500   16.20200   28.92200  
C    20.82700   16.01900   33.13700  
H    20.37100   17.01000   33.06500  
H    21.68400   15.79100   32.49800  
H    20.05000   15.28400   32.91100  
S    21.19500   15.79100   34.89100  
C    21.43700   14.01300   34.67700  
H    22.20400   14.01400   33.89800  
H    21.89000   13.53000   35.54600  
H    20.45200   13.66300   34.35900  
O    19.87700   15.79900   35.59900  
C    27.54600   8.71200    31.33800  
H    27.73500   7.97400    32.12200  
H    27.25400   9.66200    31.79200  
H    26.72600   8.18300    30.84600  
S    28.99900   8.81300    30.26800  
C    30.13500   9.48800    31.50100  
H    30.42400   8.73900    32.24200  
H    31.05800   9.82400    31.02200  
H    29.63600   10.28900   32.05200  
O    28.71400   10.03900   29.45700  
C    18.93200   17.36400   26.34900  
H    19.82500   17.99400   26.35100  
H    18.56000   17.47000   27.37100  
H    19.09000   16.31000   26.10700  
S    17.75400   17.98100   25.12500  
C    16.66500   16.57600   25.44700  
H    16.19700   16.78800   26.41200  
H    15.93900   16.51000   24.63200  
H    17.27700   15.67100   25.46900  
O    18.33000   17.42400   23.86000  
C    18.43800   19.19300   29.30800  
H    17.97600   19.42800   28.34500  
H    18.39000   18.16300   29.67000  
H    18.03000   19.85100   30.08000  
S    20.21400   19.51100   29.21100  
C    20.45100   19.83500   30.97300  
H    21.46600   20.22700   31.08100  
H    19.78100   20.67900   31.15300  
H    20.27500   19.08800   31.75100  
O    20.24200   20.90800   28.67200  
C    27.82800   13.73000   33.25900  
H    28.06800   13.71600   34.32500  
H    27.20300   12.87000   33.00300  
H    28.79800   13.72300   32.75600  
S    26.89800   15.23700   32.89700  
C    25.47800   14.73800   33.89600  
H    25.17500   13.73000   33.60300  
H    25.76900   14.74000   34.95000  
H    24.64000   15.41900   33.73100  
O    26.64500   15.11200   31.42700  
C    29.47100   22.92800   27.44900  
H    30.40300   23.01300   28.01400  
H    29.65200   23.17900   26.40100  
H    28.64400   23.44900   27.93900  
S    29.16000   21.14800   27.46100  
C    27.67800   21.25900   26.43300  
H    26.89400   21.79200   26.97700  
H    27.94000   21.77100   25.50300  
H    27.42900   20.20200   26.31100  
O    28.55800   20.85900   28.80100  
C    29.71900   16.93800   22.11400  
H    29.94200   15.94900   21.70700  
H    29.30800   17.65900   21.40200  
H    30.64000   17.27400   22.59600  
S    28.44700   16.75600   23.38500  
C    27.15100   16.77300   22.12600  
H    27.22500   17.69800   21.54800  
H    27.27300   15.86000   21.53700  
H    26.21200   16.79100   22.68600  
O    28.39700   18.11700   24.00700  
C    18.37900   11.58400   34.53000  
H    17.64500   10.79500   34.71200  
H    18.95700   11.33800   33.63600  
H    19.08000   11.77300   35.34800  
S    17.45800   13.10300   34.20200  
C    16.54900   13.52600   35.70600  
H    16.60000   12.66200   36.37300  
H    16.89800   14.41500   36.23800  
H    15.50600   13.72900   35.45200  
O    16.42500   12.51300   33.29300  
C    24.13700   12.64000   24.04200  
H    23.32300   13.22100   23.60200  
H    24.20500   11.66700   23.54700  
H    24.02400   12.51500   25.12200  
S    25.66900   13.55000   23.74300  
C    25.16700   15.03500   24.64300  
H    24.81900   14.66900   25.61200  
H    26.00200   15.73800   24.70300  
H    24.38700   15.44200   23.99500  
O    25.57600   13.92500   22.29700  
C    25.15000   25.07700   23.20300  
H    24.19000   25.43200   23.58800  
H    25.80300   25.95300   23.18100  
H    25.04400   24.67100   22.19400  
S    25.84700   23.85700   24.34000  
C    25.64700   24.79900   25.86900  
H    26.28300   24.35800   26.64100  
H    25.87400   25.85100   25.67800  
H    24.63300   24.69200   26.26100  
O    27.31800   23.90100   24.07000  
C    17.92900   9.82500    30.78200  
H    17.73700   10.62100   31.50500  
H    17.09400   9.13300    30.64600  
H    18.89600   9.37000    31.01200  
S    18.14700   10.84600   29.30700  
C    17.28700   9.66900    28.24000  
H    16.22100   9.73000    28.47300  
H    17.48900   9.97400    27.21000  
H    17.54200   8.61300    28.36800  
O    19.61300   10.75300   29.01500  
C    29.45000   17.93800   36.43000  
H    30.47000   17.90700   36.04000  
H    29.05400   18.95300   36.34000  
H    29.30500   17.54600   37.44000  
S    28.36500   16.95900   35.36700  
C    26.85600   17.75800   35.95700  
H    27.04900   17.97800   37.01000  
H    26.57900   18.60000   35.31700  
H    25.98100   17.10300   35.96800  
O    28.21400   15.59600   35.96900  
C    23.09200   21.33300   26.43000  
H    22.03800   21.60400   26.52800  
H    23.43400   20.64000   27.20200  
H    23.63200   22.28300   26.40200  
S    23.13600   20.54900   24.80200  
C    24.88200   20.08300   24.79900  
H    25.38000   21.03200   25.01500  
H    25.02200   19.19900   25.42700  
H    25.14900   19.73700   23.79800  
O    23.09300   21.73600   23.89200  
C    21.37800   23.36700   29.77500  
H    20.55000   23.28000   29.06700  
H    22.01800   22.48700   29.67400  
H    20.98100   23.64200   30.75600  
S    22.20400   24.86500   29.19300  
C    20.85600   26.06800   29.23200  
H    20.29500   25.97400   28.29800  
H    20.31600   25.87800   30.16400  
H    21.31900   27.04600   29.07800  
O    22.48000   24.62800   27.74100  
C    19.17000   21.78300   25.25000  
H    19.41800   21.82100   26.31400  
H    18.08600   21.88000   25.14000  
H    19.37800   20.90200   24.63800  
S    20.12400   23.04000   24.37000  
C    19.42400   24.46900   25.22600  
H    19.78800   25.30900   24.62800  
H    18.33600   24.37200   25.24000  
H    19.81100   24.52900   26.24600  
O    19.40000   23.18400   23.06800  
C    25.91300   12.14000   30.18300  
H    25.52900   13.14900   30.35400  
H    25.24600   11.32100   30.46600  
H    26.90900   12.13900   30.63200  
S    26.14800   11.85000   28.41500  
C    26.92500   13.40300   27.91500  
H    27.96300   13.48900   28.24700  
H    26.99400   13.34100   26.82500  
H    26.26000   14.24100   28.13800  
O    24.74100   12.01800   27.93100  
C    25.57300   9.49600    23.69600  
H    25.82100   9.69400    22.65000  
H    24.55600   9.09900    23.75500  
H    25.73600   10.39400   24.29600  
S    26.82400   8.32100    24.26000  
C    26.41100   8.37100    26.01800  
H    25.40200   7.95400    26.07400  
H    27.17700   7.81600    26.56500  
H    26.33800   9.43200    26.27200  
O    28.12800   9.05600    24.22300  
C    20.75100   7.58900    27.04800  
H    20.20100   8.17200    27.79100  
H    20.69400   8.02300    26.04600  
H    20.29600   6.60000    26.94800  
S    22.43900   7.71700    27.68100  
C    22.60800   9.40400    27.05800  
H    22.38700   9.42300    25.98700  
H    21.94500   10.08200   27.60100  
H    23.65300   9.67400    27.23000  
O    23.20600   6.78800    26.79200  
$end

$rem
JOBTYPE  SP
METHOD  B3LYP
BASIS  6-31+G(D)
SYMMETRY  FALSE
SYM_IGNORE  TRUE
MEM_TOTAL  16000
MEM_STATIC  8000
MAX_SUB_FILE_NUM  16000
BASIS_LIN_DEP_THRESH  6
THRESH  14
SCF_CONVERGENCE  8
GEN_SCFMAN  TRUE
SCF_GUESS  FRAGMO
FD_MAT_VEC_PROD  FALSE
XC_GRID  000075000302
NL_GRID  1
MAX_SCF_CYCLES  200
FRGM_METHOD  STOLL
SCFMI_MODE  1
$end

$development
almo_efield  1
$end

$rem_frgm
SCF_CONVERGENCE  4
$end

--------------------------------------------------------------
 ----------------------------------------------------------------
             Standard Nuclear Orientation (Angstroms)
    I     Atom           X                Y                Z
 ----------------------------------------------------------------
    1      C      22.6880000000    15.0660000000    27.3510000000
    2      C      22.5240000000    14.8780000000    28.8680000000
    3      C      23.6450000000    15.6230000000    29.6110000000
    4      C      23.7890000000    17.1150000000    29.2690000000
    5      C      23.9260000000    17.3670000000    27.7590000000
    6      C      22.9220000000    16.5310000000    26.9480000000
    7      H      23.5980000000    15.4690000000    30.6960000000
    8      H      21.6100000000    15.3500000000    29.2480000000
    9      H      23.5260000000    14.4230000000    27.0510000000
   10      H      21.8000000000    14.7190000000    26.8090000000
   11      H      22.9210000000    17.6200000000    29.7100000000
   12      H      24.6550000000    17.4670000000    29.8430000000
   13      H      23.9990000000    18.4300000000    27.4970000000
   14      H      24.9810000000    17.1240000000    27.5800000000
   15      H      21.9920000000    17.1090000000    27.0260000000
   16      H      23.0650000000    16.5430000000    25.8610000000
   17      H      24.5210000000    15.0670000000    29.2550000000
   18      N      22.6110000000    13.4380000000    29.1070000000
   19      H      23.3540000000    12.9050000000    28.6720000000
   20      C      21.7930000000    12.7670000000    29.9920000000
   21      H      21.9720000000    11.6760000000    29.9870000000
   22      O      21.0470000000    13.3310000000    30.7720000000
   23      C      16.0460000000    18.9220000000    32.8600000000
   24      H      16.0620000000    19.5950000000    33.7210000000
   25      H      16.0920000000    19.6890000000    32.0830000000
   26      H      15.1670000000    18.2850000000    32.7370000000
   27      S      17.5120000000    17.8730000000    32.9930000000
   28      C      17.0180000000    17.1300000000    34.5650000000
   29      H      17.8050000000    16.4250000000    34.8460000000
   30      H      16.8630000000    17.9230000000    35.3010000000
   31      H      16.0690000000    16.6210000000    34.3780000000
   32      O      18.6180000000    18.8460000000    33.2630000000
   33      C      21.0730000000    16.9760000000    21.8120000000
   34      H      20.1720000000    17.4380000000    22.2220000000
   35      H      20.8740000000    16.7740000000    20.7560000000
   36      H      21.1870000000    16.0170000000    22.3230000000
   37      S      22.5970000000    17.8700000000    22.1870000000
   38      C      23.7260000000    16.8030000000    21.2640000000
   39      H      23.3390000000    16.3050000000    20.3720000000
   40      H      24.5440000000    17.4080000000    20.8630000000
   41      H      24.1600000000    16.0710000000    21.9510000000
   42      O      22.7480000000    17.2200000000    23.5270000000
   43      C      26.1070000000    20.3740000000    31.0870000000
   44      H      26.0350000000    19.3230000000    31.3790000000
   45      H      27.1770000000    20.5360000000    30.9320000000
   46      H      25.8190000000    21.0370000000    31.9060000000
   47      S      25.0800000000    20.5110000000    29.6060000000
   48      C      25.3760000000    22.2690000000    29.3130000000
   49      H      25.0920000000    22.8760000000    30.1760000000
   50      H      26.3960000000    22.5160000000    29.0070000000
   51      H      24.7200000000    22.5140000000    28.4740000000
   52      O      23.7080000000    20.5460000000    30.2030000000
   53      C      29.3940000000    11.7430000000    24.0300000000
   54      H      28.3510000000    11.4930000000    24.2390000000
   55      H      29.3570000000    12.3780000000    23.1410000000
   56      H      30.0670000000    10.9080000000    23.8200000000
   57      S      30.1840000000    12.6300000000    25.3920000000
   58      C      30.1630000000    11.2520000000    26.5610000000
   59      H      30.7960000000    10.4210000000    26.2390000000
   60      H      30.4540000000    11.6670000000    27.5290000000
   61      H      29.1340000000    10.8870000000    26.6160000000
   62      O      29.0430000000    13.4770000000    25.8630000000
   63      C      29.6440000000    19.4930000000    31.7180000000
   64      H      28.7910000000    18.9840000000    32.1720000000
   65      H      29.4310000000    20.5560000000    31.8580000000
   66      H      29.6550000000    19.2790000000    30.6460000000
   67      S      31.2050000000    19.1710000000    32.5700000000
   68      C      31.0550000000    17.3810000000    32.3710000000
   69      H      31.2960000000    17.1910000000    31.3220000000
   70      H      31.7810000000    16.9500000000    33.0640000000
   71      H      30.0420000000    17.1080000000    32.6800000000
   72      O      30.9100000000    19.4750000000    34.0060000000
   73      C      21.9430000000    19.4470000000    34.4140000000
   74      H      21.5840000000    19.6970000000    33.4130000000
   75      H      21.5550000000    18.4800000000    34.7440000000
   76      H      21.6930000000    20.2320000000    35.1330000000
   77      S      23.7410000000    19.3070000000    34.3050000000
   78      C      23.8700000000    18.0530000000    33.0100000000
   79      H      23.4410000000    18.4500000000    32.0870000000
   80      H      24.8750000000    17.6910000000    32.7800000000
   81      H      23.2960000000    17.1670000000    33.2930000000
   82      O      24.0440000000    18.6870000000    35.6330000000
   83      C      23.3710000000     9.6120000000    32.6810000000
   84      H      23.1750000000     9.2760000000    31.6600000000
   85      H      24.1640000000    10.3640000000    32.7260000000
   86      H      23.7050000000     8.8040000000    33.3370000000
   87      S      21.9620000000    10.4860000000    33.4000000000
   88      C      22.4930000000    10.6770000000    35.1170000000
   89      H      21.9180000000    11.4480000000    35.6370000000
   90      H      22.2520000000     9.7140000000    35.5740000000
   91      H      23.5770000000    10.8100000000    35.1430000000
   92      O      20.8530000000     9.4940000000    33.5650000000
   93      C      20.7710000000    12.2700000000    25.7390000000
   94      H      20.8220000000    11.2940000000    26.2290000000
   95      H      21.7180000000    12.5990000000    25.3040000000
   96      H      20.3920000000    13.0550000000    26.3970000000
   97      S      19.5410000000    12.1730000000    24.4200000000
   98      C      19.6610000000    13.9240000000    23.9890000000
   99      H      19.0170000000    14.1620000000    23.1390000000
  100      H      19.3370000000    14.5790000000    24.8020000000
  101      H      20.6740000000    14.1330000000    23.6360000000
  102      O      18.3120000000    12.2710000000    25.2690000000
  103      C      20.5900000000     7.1990000000    30.9790000000
  104      H      20.3390000000     8.0460000000    30.3360000000
  105      H      20.1940000000     7.5510000000    31.9350000000
  106      H      21.6570000000     7.0200000000    31.1370000000
  107      S      19.8470000000     5.6130000000    30.5330000000
  108      C      18.1450000000     6.1980000000    30.6980000000
  109      H      17.4630000000     5.3450000000    30.6530000000
  110      H      17.9970000000     6.6400000000    31.6870000000
  111      H      17.8310000000     6.8540000000    29.8820000000
  112      O      20.0720000000     4.6880000000    31.6890000000
  113      C      29.1340000000    16.9500000000    26.9600000000
  114      H      28.0560000000    17.0790000000    26.8360000000
  115      H      29.7220000000    17.8710000000    26.9640000000
  116      H      29.3980000000    16.2700000000    26.1460000000
  117      S      29.3370000000    16.2260000000    28.6030000000
  118      C      28.1530000000    17.3880000000    29.3200000000
  119      H      27.1540000000    16.9550000000    29.4180000000
  120      H      28.6090000000    17.5750000000    30.2950000000
  121      H      28.1060000000    18.2980000000    28.7160000000
  122      O      30.7060000000    16.5960000000    29.0820000000
  123      C      18.0880000000    14.6910000000    30.7060000000
  124      H      17.6110000000    15.4860000000    31.2860000000
  125      H      17.7350000000    13.8050000000    31.2390000000
  126      H      19.1520000000    14.9270000000    30.6180000000
  127      S      17.2690000000    14.7150000000    29.0960000000
  128      C      18.6500000000    14.0690000000    28.1260000000
  129      H      19.3070000000    14.9290000000    27.9740000000
  130      H      19.1520000000    13.3160000000    28.7380000000
  131      H      18.2470000000    13.7450000000    27.1630000000
  132      O      17.3050000000    16.2020000000    28.9220000000
  133      C      20.8270000000    16.0190000000    33.1370000000
  134      H      20.3710000000    17.0100000000    33.0650000000
  135      H      21.6840000000    15.7910000000    32.4980000000
  136      H      20.0500000000    15.2840000000    32.9110000000
  137      S      21.1950000000    15.7910000000    34.8910000000
  138      C      21.4370000000    14.0130000000    34.6770000000
  139      H      22.2040000000    14.0140000000    33.8980000000
  140      H      21.8900000000    13.5300000000    35.5460000000
  141      H      20.4520000000    13.6630000000    34.3590000000
  142      O      19.8770000000    15.7990000000    35.5990000000
  143      C      27.5460000000     8.7120000000    31.3380000000
  144      H      27.7350000000     7.9740000000    32.1220000000
  145      H      27.2540000000     9.6620000000    31.7920000000
  146      H      26.7260000000     8.1830000000    30.8460000000
  147      S      28.9990000000     8.8130000000    30.2680000000
  148      C      30.1350000000     9.4880000000    31.5010000000
  149      H      30.4240000000     8.7390000000    32.2420000000
  150      H      31.0580000000     9.8240000000    31.0220000000
  151      H      29.6360000000    10.2890000000    32.0520000000
  152      O      28.7140000000    10.0390000000    29.4570000000
  153      C      18.9320000000    17.3640000000    26.3490000000
  154      H      19.8250000000    17.9940000000    26.3510000000
  155      H      18.5600000000    17.4700000000    27.3710000000
  156      H      19.0900000000    16.3100000000    26.1070000000
  157      S      17.7540000000    17.9810000000    25.1250000000
  158      C      16.6650000000    16.5760000000    25.4470000000
  159      H      16.1970000000    16.7880000000    26.4120000000
  160      H      15.9390000000    16.5100000000    24.6320000000
  161      H      17.2770000000    15.6710000000    25.4690000000
  162      O      18.3300000000    17.4240000000    23.8600000000
  163      C      18.4380000000    19.1930000000    29.3080000000
  164      H      17.9760000000    19.4280000000    28.3450000000
  165      H      18.3900000000    18.1630000000    29.6700000000
  166      H      18.0300000000    19.8510000000    30.0800000000
  167      S      20.2140000000    19.5110000000    29.2110000000
  168      C      20.4510000000    19.8350000000    30.9730000000
  169      H      21.4660000000    20.2270000000    31.0810000000
  170      H      19.7810000000    20.6790000000    31.1530000000
  171      H      20.2750000000    19.0880000000    31.7510000000
  172      O      20.2420000000    20.9080000000    28.6720000000
  173      C      27.8280000000    13.7300000000    33.2590000000
  174      H      28.0680000000    13.7160000000    34.3250000000
  175      H      27.2030000000    12.8700000000    33.0030000000
  176      H      28.7980000000    13.7230000000    32.7560000000
  177      S      26.8980000000    15.2370000000    32.8970000000
  178      C      25.4780000000    14.7380000000    33.8960000000
  179      H      25.1750000000    13.7300000000    33.6030000000
  180      H      25.7690000000    14.7400000000    34.9500000000
  181      H      24.6400000000    15.4190000000    33.7310000000
  182      O      26.6450000000    15.1120000000    31.4270000000
  183      C      29.4710000000    22.9280000000    27.4490000000
  184      H      30.4030000000    23.0130000000    28.0140000000
  185      H      29.6520000000    23.1790000000    26.4010000000
  186      H      28.6440000000    23.4490000000    27.9390000000
  187      S      29.1600000000    21.1480000000    27.4610000000
  188      C      27.6780000000    21.2590000000    26.4330000000
  189      H      26.8940000000    21.7920000000    26.9770000000
  190      H      27.9400000000    21.7710000000    25.5030000000
  191      H      27.4290000000    20.2020000000    26.3110000000
  192      O      28.5580000000    20.8590000000    28.8010000000
  193      C      29.7190000000    16.9380000000    22.1140000000
  194      H      29.9420000000    15.9490000000    21.7070000000
  195      H      29.3080000000    17.6590000000    21.4020000000
  196      H      30.6400000000    17.2740000000    22.5960000000
  197      S      28.4470000000    16.7560000000    23.3850000000
  198      C      27.1510000000    16.7730000000    22.1260000000
  199      H      27.2250000000    17.6980000000    21.5480000000
  200      H      27.2730000000    15.8600000000    21.5370000000
  201      H      26.2120000000    16.7910000000    22.6860000000
  202      O      28.3970000000    18.1170000000    24.0070000000
  203      C      18.3790000000    11.5840000000    34.5300000000
  204      H      17.6450000000    10.7950000000    34.7120000000
  205      H      18.9570000000    11.3380000000    33.6360000000
  206      H      19.0800000000    11.7730000000    35.3480000000
  207      S      17.4580000000    13.1030000000    34.2020000000
  208      C      16.5490000000    13.5260000000    35.7060000000
  209      H      16.6000000000    12.6620000000    36.3730000000
  210      H      16.8980000000    14.4150000000    36.2380000000
  211      H      15.5060000000    13.7290000000    35.4520000000
  212      O      16.4250000000    12.5130000000    33.2930000000
  213      C      24.1370000000    12.6400000000    24.0420000000
  214      H      23.3230000000    13.2210000000    23.6020000000
  215      H      24.2050000000    11.6670000000    23.5470000000
  216      H      24.0240000000    12.5150000000    25.1220000000
  217      S      25.6690000000    13.5500000000    23.7430000000
  218      C      25.1670000000    15.0350000000    24.6430000000
  219      H      24.8190000000    14.6690000000    25.6120000000
  220      H      26.0020000000    15.7380000000    24.7030000000
  221      H      24.3870000000    15.4420000000    23.9950000000
  222      O      25.5760000000    13.9250000000    22.2970000000
  223      C      25.1500000000    25.0770000000    23.2030000000
  224      H      24.1900000000    25.4320000000    23.5880000000
  225      H      25.8030000000    25.9530000000    23.1810000000
  226      H      25.0440000000    24.6710000000    22.1940000000
  227      S      25.8470000000    23.8570000000    24.3400000000
  228      C      25.6470000000    24.7990000000    25.8690000000
  229      H      26.2830000000    24.3580000000    26.6410000000
  230      H      25.8740000000    25.8510000000    25.6780000000
  231      H      24.6330000000    24.6920000000    26.2610000000
  232      O      27.3180000000    23.9010000000    24.0700000000
  233      C      17.9290000000     9.8250000000    30.7820000000
  234      H      17.7370000000    10.6210000000    31.5050000000
  235      H      17.0940000000     9.1330000000    30.6460000000
  236      H      18.8960000000     9.3700000000    31.0120000000
  237      S      18.1470000000    10.8460000000    29.3070000000
  238      C      17.2870000000     9.6690000000    28.2400000000
  239      H      16.2210000000     9.7300000000    28.4730000000
  240      H      17.4890000000     9.9740000000    27.2100000000
  241      H      17.5420000000     8.6130000000    28.3680000000
  242      O      19.6130000000    10.7530000000    29.0150000000
  243      C      29.4500000000    17.9380000000    36.4300000000
  244      H      30.4700000000    17.9070000000    36.0400000000
  245      H      29.0540000000    18.9530000000    36.3400000000
  246      H      29.3050000000    17.5460000000    37.4400000000
  247      S      28.3650000000    16.9590000000    35.3670000000
  248      C      26.8560000000    17.7580000000    35.9570000000
  249      H      27.0490000000    17.9780000000    37.0100000000
  250      H      26.5790000000    18.6000000000    35.3170000000
  251      H      25.9810000000    17.1030000000    35.9680000000
  252      O      28.2140000000    15.5960000000    35.9690000000
  253      C      23.0920000000    21.3330000000    26.4300000000
  254      H      22.0380000000    21.6040000000    26.5280000000
  255      H      23.4340000000    20.6400000000    27.2020000000
  256      H      23.6320000000    22.2830000000    26.4020000000
  257      S      23.1360000000    20.5490000000    24.8020000000
  258      C      24.8820000000    20.0830000000    24.7990000000
  259      H      25.3800000000    21.0320000000    25.0150000000
  260      H      25.0220000000    19.1990000000    25.4270000000
  261      H      25.1490000000    19.7370000000    23.7980000000
  262      O      23.0930000000    21.7360000000    23.8920000000
  263      C      21.3780000000    23.3670000000    29.7750000000
  264      H      20.5500000000    23.2800000000    29.0670000000
  265      H      22.0180000000    22.4870000000    29.6740000000
  266      H      20.9810000000    23.6420000000    30.7560000000
  267      S      22.2040000000    24.8650000000    29.1930000000
  268      C      20.8560000000    26.0680000000    29.2320000000
  269      H      20.2950000000    25.9740000000    28.2980000000
  270      H      20.3160000000    25.8780000000    30.1640000000
  271      H      21.3190000000    27.0460000000    29.0780000000
  272      O      22.4800000000    24.6280000000    27.7410000000
  273      C      19.1700000000    21.7830000000    25.2500000000
  274      H      19.4180000000    21.8210000000    26.3140000000
  275      H      18.0860000000    21.8800000000    25.1400000000
  276      H      19.3780000000    20.9020000000    24.6380000000
  277      S      20.1240000000    23.0400000000    24.3700000000
  278      C      19.4240000000    24.4690000000    25.2260000000
  279      H      19.7880000000    25.3090000000    24.6280000000
  280      H      18.3360000000    24.3720000000    25.2400000000
  281      H      19.8110000000    24.5290000000    26.2460000000
  282      O      19.4000000000    23.1840000000    23.0680000000
  283      C      25.9130000000    12.1400000000    30.1830000000
  284      H      25.5290000000    13.1490000000    30.3540000000
  285      H      25.2460000000    11.3210000000    30.4660000000
  286      H      26.9090000000    12.1390000000    30.6320000000
  287      S      26.1480000000    11.8500000000    28.4150000000
  288      C      26.9250000000    13.4030000000    27.9150000000
  289      H      27.9630000000    13.4890000000    28.2470000000
  290      H      26.9940000000    13.3410000000    26.8250000000
  291      H      26.2600000000    14.2410000000    28.1380000000
  292      O      24.7410000000    12.0180000000    27.9310000000
  293      C      25.5730000000     9.4960000000    23.6960000000
  294      H      25.8210000000     9.6940000000    22.6500000000
  295      H      24.5560000000     9.0990000000    23.7550000000
  296      H      25.7360000000    10.3940000000    24.2960000000
  297      S      26.8240000000     8.3210000000    24.2600000000
  298      C      26.4110000000     8.3710000000    26.0180000000
  299      H      25.4020000000     7.9540000000    26.0740000000
  300      H      27.1770000000     7.8160000000    26.5650000000
  301      H      26.3380000000     9.4320000000    26.2720000000
  302      O      28.1280000000     9.0560000000    24.2230000000
  303      C      20.7510000000     7.5890000000    27.0480000000
  304      H      20.2010000000     8.1720000000    27.7910000000
  305      H      20.6940000000     8.0230000000    26.0460000000
  306      H      20.2960000000     6.6000000000    26.9480000000
  307      S      22.4390000000     7.7170000000    27.6810000000
  308      C      22.6080000000     9.4040000000    27.0580000000
  309      H      22.3870000000     9.4230000000    25.9870000000
  310      H      21.9450000000    10.0820000000    27.6010000000
  311      H      23.6530000000     9.6740000000    27.2300000000
  312      O      23.2060000000     6.7880000000    26.7920000000
 ----------------------------------------------------------------
 Nuclear Repulsion Energy =       53813.94036214 hartrees
 There are      644 alpha and      644 beta electrons
 Requested basis set is 6-31+G(d)
 There are 1028 shells and 2865 basis functions

 Total QAlloc Memory Limit  16000 MB
 Mega-Array Size      7821 MB
 MEM_STATIC part      8000 MB
 A cutoff of  1.0D-14 yielded 195276 shell pairs
 There are   1693022 function pairs
 Smallest overlap matrix eigenvalue = 3.36E-07
 Linear dependence detected in AO basis
 Tighter screening thresholds may be required for diffuse basis sets
 Use S2THRESH > 14 and THRESH = 14 in case of SCF convergence issues
 Number of orthogonalized atomic orbitals = 2862
 Maximum deviation from orthogonality = 1.301E-10

 Scale SEOQF with 1.000000e-03/1.000000e-03/1.000000e-03

 Standard Electronic Orientation quadrupole field applied
 Nucleus-field energy     =    -0.0000006525 hartrees
Attempting to make child job directory: /local/scratch/users/ymao/r7.00_frame_0037_almo_B3LYP_dp.in20210311133745//Frg1/
Attempting to make child job directory: /local/scratch/users/ymao/r7.00_frame_0037_almo_B3LYP_dp.in20210311133745//Frg2/
Creating input file /local/scratch/users/ymao/r7.00_frame_0037_almo_B3LYP_dp.in20210311133745/Frg1.input
using default PutDataFrgm: nothing
calling putenv with: QCSCRATCH=/local/scratch/users/ymao/r7.00_frame_0037_almo_B3LYP_dp.in20210311133745/ 
Spawning Job For Fragment 0
Done Job For Fragment 0
calling putenv with: QCSCRATCH=/local/scratch/users/ymao 
calling putenv with: QCTHREADS=8 
Creating input file /local/scratch/users/ymao/r7.00_frame_0037_almo_B3LYP_dp.in20210311133745/Frg2.input
using default PutDataFrgm: nothing
calling putenv with: QCSCRATCH=/local/scratch/users/ymao/r7.00_frame_0037_almo_B3LYP_dp.in20210311133745/ 
Spawning Job For Fragment 1
Done Job For Fragment 1
calling putenv with: QCSCRATCH=/local/scratch/users/ymao 
calling putenv with: QCTHREADS=8 
 Time for running child jobs:  CPU 0.98 s  wall 25569.37 s

 -----------------------------------------------------------------------
  General SCF calculation program by
  Eric Jon Sundstrom, Paul Horn, Yuezhi Mao, Dmitri Zuev, Alec White,
  David Stuck, Shaama M.S., Shane Yost, Joonho Lee, David Small,
  Daniel Levine, Susi Lehtola, Hugh Burton, Evgeny Epifanovsky,
  Bang C. Huynh
 -----------------------------------------------------------------------
Performing Restricted Closed Shell SCFMI
Doing General SCFMI
 Exchange:     0.2000 Hartree-Fock + 0.0800 Slater + 0.7200 B88
 Correlation:  0.1900 VWN1RPA + 0.8100 LYP
 Using Euler-Maclaurin-Lebedev (75,302) quadrature formula
performing fock build before subrot guess so that all methods have access
Printing subrot_rss_gen Method Specification:
Occupied Subspace Method is 0
Virtual Subspace Method is 0
Energy prior to optimization (guess energy) = -16447.117398738948
Begin Timing: Total SCF Calculation
begin iterations for algorithm: DIIS         
the SCF tolerance is set to 1.00e-08
    1  -16447.1173987389      4.37e-05     00000 
    2  -16447.1188702035      6.11e-05     00000 
    3  -16447.1289264254      1.90e-05     00000 
    4  -16447.1299609416      6.20e-06     00000 
    5  -16447.1300972521      3.24e-06     00000 
    6  -16447.1301302033      1.96e-06     00000 
    7  -16447.1301425288      1.16e-06     00000 
    8  -16447.1301475392      6.28e-07     00000 
    9  -16447.1301485917      4.47e-07     00000 
   10  -16447.1301490034      3.09e-07     00000 
   11  -16447.1301492350      1.73e-07     00000 
   12  -16447.1301493240      1.02e-07     00000 
   13  -16447.1301493605      5.69e-08     00000 
   14  -16447.1301493704      4.03e-08     00000 
   15  -16447.1301493750      2.55e-08     00000 
   16  -16447.1301493769      1.28e-08     00000 
   17  -16447.1301493774      7.93e-09     00000 Convergence criterion met
write pseudocanon occs and virts to disk
write pseudocanon orbital energies to disk
Timing for Total SCF: 63488.00s (wall), 503093.81s (cpu)
SCFMI Energy  -16447.1301493774
<S^2>            0.00000
 Total energy in the final basis set =   -16447.1301493774
    ==================================================
        The end of Object-Oriented SCFman: SCFMI      
    ==================================================
 
 --------------------------------------------------------------
 
                    Orbital Energies (a.u.)
 --------------------------------------------------------------
 
 Alpha MOs
 -- Occupied --
-89.0307 -89.0276 -89.0168 -89.0154 -89.0142 -89.0141 -89.0115 -89.0108
-89.0103 -89.0093 -89.0061 -89.0058 -89.0051 -89.0023 -88.9990 -88.9990
-88.9971 -88.9961 -88.9949 -88.9943 -88.9929 -88.9915 -88.9906 -88.9887
-88.9866 -88.9823 -88.9804 -88.9723 -88.9643 -19.1400 -19.1366 -19.1356
-19.1354 -19.1342 -19.1339 -19.1316 -19.1273 -19.1259 -19.1227 -19.1224
-19.1201 -19.1195 -19.1194 -19.1167 -19.1159 -19.1148 -19.1140 -19.1120
-19.1117 -19.1082 -19.1072 -19.1063 -19.1062 -19.1057 -19.0990 -19.0990
-19.0983 -19.0855 -19.0760 -14.3593 -10.2941 -10.2550 -10.2494 -10.2481
-10.2424 -10.2381 -10.2375 -10.2324 -10.2313 -10.2309 -10.2299 -10.2295
-10.2291 -10.2283 -10.2274 -10.2270 -10.2263 -10.2261 -10.2255 -10.2251
-10.2250 -10.2249 -10.2249 -10.2236 -10.2226 -10.2199 -10.2196 -10.2186
-10.2183 -10.2180 -10.2170 -10.2168 -10.2158 -10.2156 -10.2121 -10.2087
-10.2075 -10.2074 -10.2074 -10.2050 -10.2048 -10.2047 -10.2038 -10.2035
-10.2028 -10.2026 -10.2022 -10.2018 -10.2016 -10.2005 -10.2001 -10.1999
-10.1998 -10.1981 -10.1963 -10.1960 -10.1957 -10.1954 -10.1919 -10.1918
-10.1916 -10.1899 -10.1870 -10.1857 -10.1830  -8.0762  -8.0736  -8.0619
 -8.0614  -8.0603  -8.0598  -8.0570  -8.0567  -8.0559  -8.0556  -8.0518
 -8.0516  -8.0508  -8.0483  -8.0456  -8.0454  -8.0433  -8.0423  -8.0405
 -8.0404  -8.0392  -8.0378  -8.0375  -8.0354  -8.0327  -8.0283  -8.0263
 -8.0183  -8.0104  -6.0404  -6.0394  -6.0381  -6.0369  -6.0337  -6.0307
 -6.0263  -6.0258  -6.0250  -6.0247  -6.0244  -6.0243  -6.0233  -6.0228
 -6.0214  -6.0209  -6.0202  -6.0201  -6.0199  -6.0196  -6.0192  -6.0191
 -6.0189  -6.0189  -6.0177  -6.0172  -6.0165  -6.0158  -6.0153  -6.0149
 -6.0147  -6.0146  -6.0145  -6.0141  -6.0133  -6.0129  -6.0128  -6.0114
 -6.0098  -6.0098  -6.0090  -6.0089  -6.0087  -6.0083  -6.0081  -6.0076
 -6.0064  -6.0062  -6.0057  -6.0053  -6.0049  -6.0048  -6.0035  -6.0035
 -6.0033  -6.0029  -6.0028  -6.0022  -6.0021  -6.0020  -6.0009  -6.0008
 -6.0006  -5.9999  -5.9999  -5.9982  -5.9980  -5.9980  -5.9971  -5.9970
 -5.9957  -5.9954  -5.9946  -5.9928  -5.9927  -5.9915  -5.9907  -5.9902
 -5.9892  -5.9855  -5.9837  -5.9825  -5.9814  -5.9756  -5.9745  -5.9737
 -5.9677  -1.0506  -1.0484  -1.0479  -1.0427  -1.0424  -1.0421  -1.0417
 -1.0407  -1.0345  -1.0327  -1.0326  -1.0324  -1.0297  -1.0297  -1.0272
 -1.0263  -1.0253  -1.0227  -1.0224  -1.0201  -1.0198  -1.0196  -1.0194
 -1.0179  -1.0149  -1.0126  -1.0108  -1.0075  -0.9974  -0.9876  -0.9276
 -0.8324  -0.8299  -0.8250  -0.8244  -0.8219  -0.8200  -0.8174  -0.8161
 -0.8104  -0.8075  -0.8069  -0.8061  -0.8047  -0.8044  -0.8035  -0.8026
 -0.8019  -0.7994  -0.7992  -0.7945  -0.7928  -0.7914  -0.7911  -0.7897
 -0.7885  -0.7872  -0.7837  -0.7792  -0.7755  -0.7659  -0.7657  -0.7576
 -0.7552  -0.7485  -0.7481  -0.7427  -0.7419  -0.7393  -0.7385  -0.7376
 -0.7375  -0.7355  -0.7342  -0.7331  -0.7320  -0.7319  -0.7315  -0.7282
 -0.7254  -0.7227  -0.7222  -0.7187  -0.7153  -0.7140  -0.7139  -0.7127
 -0.7112  -0.7105  -0.7083  -0.7058  -0.7003  -0.6445  -0.6444  -0.6423
 -0.6313  -0.6292  -0.6286  -0.6272  -0.6259  -0.6247  -0.6236  -0.6221
 -0.6216  -0.6203  -0.6196  -0.6190  -0.6165  -0.6131  -0.6104  -0.6090
 -0.6083  -0.6080  -0.6073  -0.6028  -0.6007  -0.6004  -0.6001  -0.5996
 -0.5974  -0.5924  -0.5905  -0.5852  -0.5792  -0.5732  -0.5314  -0.5155
 -0.5115  -0.5081  -0.5024  -0.5008  -0.4989  -0.4967  -0.4957  -0.4945
 -0.4937  -0.4936  -0.4920  -0.4918  -0.4913  -0.4910  -0.4904  -0.4897
 -0.4890  -0.4877  -0.4872  -0.4864  -0.4863  -0.4851  -0.4845  -0.4838
 -0.4834  -0.4828  -0.4826  -0.4815  -0.4811  -0.4798  -0.4792  -0.4790
 -0.4784  -0.4780  -0.4771  -0.4761  -0.4757  -0.4748  -0.4743  -0.4740
 -0.4727  -0.4723  -0.4721  -0.4708  -0.4702  -0.4701  -0.4690  -0.4685
 -0.4675  -0.4668  -0.4666  -0.4661  -0.4658  -0.4648  -0.4642  -0.4641
 -0.4637  -0.4634  -0.4629  -0.4627  -0.4623  -0.4619  -0.4616  -0.4609
 -0.4606  -0.4599  -0.4595  -0.4594  -0.4587  -0.4586  -0.4580  -0.4568
 -0.4559  -0.4549  -0.4542  -0.4527  -0.4512  -0.4511  -0.4503  -0.4498
 -0.4491  -0.4479  -0.4469  -0.4466  -0.4463  -0.4456  -0.4451  -0.4446
 -0.4440  -0.4435  -0.4432  -0.4418  -0.4416  -0.4414  -0.4409  -0.4399
 -0.4392  -0.4386  -0.4375  -0.4374  -0.4362  -0.4358  -0.4356  -0.4351
 -0.4348  -0.4344  -0.4340  -0.4323  -0.4308  -0.4303  -0.4294  -0.4287
 -0.4281  -0.4273  -0.4265  -0.4256  -0.4252  -0.4247  -0.4246  -0.4234
 -0.4225  -0.4221  -0.4218  -0.4212  -0.4206  -0.4202  -0.4181  -0.4180
 -0.4175  -0.4169  -0.4164  -0.4151  -0.4143  -0.4140  -0.4129  -0.4120
 -0.4118  -0.4105  -0.4102  -0.4100  -0.4095  -0.4091  -0.4089  -0.4085
 -0.4069  -0.4068  -0.4052  -0.4045  -0.4044  -0.4036  -0.4030  -0.4024
 -0.4017  -0.4015  -0.4010  -0.4007  -0.4003  -0.3995  -0.3985  -0.3978
 -0.3964  -0.3951  -0.3942  -0.3923  -0.3915  -0.3911  -0.3906  -0.3900
 -0.3890  -0.3887  -0.3879  -0.3856  -0.3845  -0.3843  -0.3830  -0.3811
 -0.3806  -0.3803  -0.3797  -0.3789  -0.3781  -0.3773  -0.3764  -0.3761
 -0.3756  -0.3744  -0.3733  -0.3718  -0.3716  -0.3708  -0.3705  -0.3698
 -0.3677  -0.3667  -0.3659  -0.3654  -0.3640  -0.3623  -0.3616  -0.3605
 -0.3598  -0.3588  -0.3562  -0.3554  -0.3546  -0.3538  -0.3524  -0.3515
 -0.3490  -0.3455  -0.3419  -0.3374  -0.3279  -0.3259  -0.3234  -0.3101
 -0.3033  -0.2979  -0.2977  -0.2963  -0.2930  -0.2925  -0.2885  -0.2853
 -0.2848  -0.2831  -0.2823  -0.2817  -0.2808  -0.2776  -0.2768  -0.2745
 -0.2733  -0.2727  -0.2714  -0.2698  -0.2690  -0.2681  -0.2671  -0.2669
 -0.2654  -0.2642  -0.2638  -0.2624  -0.2613  -0.2608  -0.2601  -0.2587
 -0.2565  -0.2560  -0.2557  -0.2540  -0.2517  -0.2505  -0.2497  -0.2482
 -0.2468  -0.2451  -0.2438  -0.2422  -0.2420  -0.2404  -0.2396  -0.2391
 -0.2367  -0.2364  -0.2361  -0.2357  -0.2341  -0.2337  -0.2294  -0.2284
 -0.2256  -0.2243  -0.2082  -0.2028
 -- Virtual --
 -0.0479  -0.0324  -0.0289  -0.0246  -0.0222  -0.0207  -0.0193  -0.0183
 -0.0173  -0.0167  -0.0155  -0.0135  -0.0129  -0.0122  -0.0106  -0.0088
 -0.0084  -0.0078  -0.0072  -0.0065  -0.0060  -0.0057  -0.0050  -0.0034
 -0.0034  -0.0029  -0.0021  -0.0013  -0.0010   0.0005   0.0008   0.0013
  0.0020   0.0023   0.0030   0.0045   0.0054   0.0066   0.0074   0.0078
  0.0084   0.0088   0.0098   0.0105   0.0108   0.0110   0.0114   0.0124
  0.0127   0.0132   0.0135   0.0143   0.0150   0.0151   0.0164   0.0167
  0.0173   0.0178   0.0184   0.0196   0.0197   0.0200   0.0205   0.0215
  0.0230   0.0235   0.0239   0.0242   0.0248   0.0252   0.0261   0.0268
  0.0271   0.0275   0.0280   0.0282   0.0282   0.0287   0.0305   0.0313
  0.0318   0.0323   0.0329   0.0329   0.0340   0.0350   0.0352   0.0359
  0.0367   0.0372   0.0374   0.0376   0.0385   0.0394   0.0398   0.0400
  0.0414   0.0414   0.0422   0.0428   0.0438   0.0442   0.0448   0.0453
  0.0461   0.0468   0.0475   0.0476   0.0482   0.0491   0.0493   0.0499
  0.0503   0.0514   0.0520   0.0521   0.0535   0.0536   0.0543   0.0545
  0.0555   0.0559   0.0561   0.0572   0.0577   0.0584   0.0589   0.0596
  0.0602   0.0605   0.0614   0.0623   0.0627   0.0637   0.0643   0.0647
  0.0651   0.0658   0.0660   0.0663   0.0674   0.0680   0.0690   0.0694
  0.0698   0.0700   0.0708   0.0711   0.0718   0.0723   0.0729   0.0738
  0.0747   0.0750   0.0752   0.0763   0.0770   0.0774   0.0780   0.0786
  0.0788   0.0801   0.0803   0.0814   0.0818   0.0829   0.0829   0.0837
  0.0844   0.0846   0.0857   0.0862   0.0866   0.0877   0.0881   0.0892
  0.0893   0.0897   0.0901   0.0910   0.0914   0.0922   0.0930   0.0935
  0.0938   0.0947   0.0948   0.0957   0.0966   0.0972   0.0974   0.0981
  0.0987   0.0993   0.0997   0.1006   0.1012   0.1018   0.1022   0.1026
  0.1033   0.1036   0.1046   0.1056   0.1057   0.1059   0.1066   0.1069
  0.1074   0.1082   0.1091   0.1095   0.1101   0.1105   0.1111   0.1115
  0.1121   0.1125   0.1127   0.1134   0.1150   0.1154   0.1163   0.1174
  0.1179   0.1181   0.1189   0.1192   0.1202   0.1211   0.1218   0.1226
  0.1227   0.1231   0.1233   0.1236   0.1246   0.1255   0.1258   0.1268
  0.1278   0.1279   0.1287   0.1293   0.1295   0.1298   0.1299   0.1306
  0.1312   0.1314   0.1328   0.1330   0.1338   0.1347   0.1353   0.1358
  0.1365   0.1370   0.1374   0.1381   0.1390   0.1394   0.1397   0.1406
  0.1411   0.1414   0.1417   0.1424   0.1427   0.1432   0.1437   0.1439
  0.1440   0.1449   0.1455   0.1457   0.1469   0.1471   0.1475   0.1480
  0.1492   0.1497   0.1503   0.1505   0.1512   0.1518   0.1530   0.1531
  0.1537   0.1543   0.1549   0.1553   0.1557   0.1564   0.1572   0.1579
  0.1583   0.1589   0.1592   0.1594   0.1599   0.1604   0.1610   0.1619
  0.1626   0.1634   0.1642   0.1645   0.1647   0.1652   0.1659   0.1664
  0.1672   0.1679   0.1683   0.1685   0.1692   0.1701   0.1706   0.1711
  0.1717   0.1721   0.1724   0.1732   0.1742   0.1749   0.1753   0.1760
  0.1766   0.1779   0.1783   0.1786   0.1792   0.1793   0.1809   0.1812
  0.1816   0.1823   0.1830   0.1831   0.1834   0.1841   0.1843   0.1851
  0.1855   0.1864   0.1876   0.1881   0.1887   0.1888   0.1893   0.1900
  0.1901   0.1907   0.1908   0.1917   0.1923   0.1928   0.1934   0.1939
  0.1945   0.1945   0.1948   0.1954   0.1966   0.1970   0.1975   0.1984
  0.1989   0.1993   0.1994   0.1999   0.2009   0.2012   0.2019   0.2023
  0.2033   0.2037   0.2045   0.2050   0.2054   0.2058   0.2063   0.2072
  0.2076   0.2081   0.2082   0.2086   0.2100   0.2104   0.2110   0.2111
  0.2120   0.2122   0.2129   0.2137   0.2141   0.2153   0.2166   0.2169
  0.2171   0.2176   0.2182   0.2186   0.2191   0.2194   0.2195   0.2208
  0.2215   0.2219   0.2221   0.2230   0.2238   0.2250   0.2251   0.2259
  0.2269   0.2277   0.2279   0.2283   0.2291   0.2292   0.2301   0.2308
  0.2311   0.2319   0.2323   0.2336   0.2337   0.2343   0.2347   0.2360
  0.2365   0.2370   0.2378   0.2383   0.2385   0.2390   0.2403   0.2407
  0.2413   0.2418   0.2430   0.2438   0.2441   0.2449   0.2454   0.2460
  0.2464   0.2472   0.2475   0.2481   0.2481   0.2485   0.2502   0.2508
  0.2511   0.2521   0.2530   0.2532   0.2540   0.2549   0.2555   0.2558
  0.2566   0.2572   0.2592   0.2599   0.2604   0.2607   0.2609   0.2622
  0.2627   0.2634   0.2638   0.2646   0.2657   0.2667   0.2678   0.2680
  0.2692   0.2693   0.2697   0.2710   0.2715   0.2718   0.2724   0.2726
  0.2734   0.2742   0.2745   0.2752   0.2761   0.2774   0.2778   0.2787
  0.2797   0.2808   0.2810   0.2817   0.2825   0.2832   0.2842   0.2849
  0.2854   0.2857   0.2869   0.2874   0.2877   0.2889   0.2895   0.2899
  0.2910   0.2912   0.2920   0.2927   0.2934   0.2943   0.2949   0.2959
  0.2966   0.2971   0.2978   0.2986   0.2993   0.3004   0.3012   0.3016
  0.3026   0.3028   0.3039   0.3042   0.3060   0.3065   0.3066   0.3084
  0.3087   0.3096   0.3106   0.3113   0.3121   0.3124   0.3138   0.3140
  0.3152   0.3163   0.3170   0.3178   0.3183   0.3190   0.3203   0.3205
  0.3210   0.3222   0.3228   0.3236   0.3243   0.3246   0.3251   0.3263
  0.3270   0.3281   0.3285   0.3292   0.3299   0.3306   0.3315   0.3322
  0.3333   0.3339   0.3339   0.3354   0.3359   0.3368   0.3387   0.3393
  0.3398   0.3407   0.3409   0.3416   0.3429   0.3430   0.3439   0.3447
  0.3450   0.3459   0.3468   0.3474   0.3475   0.3491   0.3499   0.3511
  0.3520   0.3525   0.3530   0.3531   0.3535   0.3542   0.3561   0.3566
  0.3573   0.3578   0.3593   0.3602   0.3608   0.3615   0.3621   0.3629
  0.3635   0.3645   0.3653   0.3661   0.3668   0.3685   0.3686   0.3691
  0.3707   0.3710   0.3718   0.3723   0.3724   0.3732   0.3742   0.3758
  0.3764   0.3775   0.3779   0.3782   0.3792   0.3799   0.3807   0.3812
  0.3827   0.3834   0.3840   0.3846   0.3852   0.3864   0.3866   0.3876
  0.3880   0.3884   0.3904   0.3909   0.3920   0.3931   0.3937   0.3946
  0.3950   0.3964   0.3968   0.3971   0.3981   0.3996   0.4005   0.4011
  0.4012   0.4029   0.4035   0.4038   0.4049   0.4054   0.4059   0.4070
  0.4081   0.4090   0.4096   0.4100   0.4108   0.4121   0.4125   0.4132
  0.4138   0.4152   0.4165   0.4176   0.4179   0.4196   0.4202   0.4206
  0.4215   0.4233   0.4242   0.4252   0.4260   0.4270   0.4280   0.4284
  0.4286   0.4294   0.4300   0.4313   0.4332   0.4336   0.4347   0.4350
  0.4360   0.4370   0.4381   0.4407   0.4409   0.4417   0.4424   0.4427
  0.4445   0.4453   0.4460   0.4465   0.4490   0.4500   0.4512   0.4523
  0.4525   0.4545   0.4559   0.4568   0.4580   0.4589   0.4597   0.4598
  0.4628   0.4632   0.4640   0.4646   0.4662   0.4676   0.4708   0.4715
  0.4726   0.4739   0.4748   0.4770   0.4784   0.4790   0.4803   0.4812
  0.4821   0.4839   0.4864   0.4874   0.4879   0.4897   0.4918   0.4923
  0.4945   0.4954   0.4959   0.4979   0.5000   0.5009   0.5023   0.5039
  0.5047   0.5053   0.5056   0.5080   0.5096   0.5111   0.5132   0.5161
  0.5162   0.5166   0.5180   0.5193   0.5223   0.5239   0.5247   0.5258
  0.5285   0.5302   0.5311   0.5317   0.5332   0.5350   0.5377   0.5397
  0.5402   0.5407   0.5414   0.5445   0.5456   0.5482   0.5502   0.5509
  0.5525   0.5540   0.5543   0.5554   0.5567   0.5573   0.5597   0.5606
  0.5614   0.5635   0.5640   0.5653   0.5672   0.5685   0.5692   0.5703
  0.5715   0.5733   0.5743   0.5756   0.5775   0.5780   0.5804   0.5808
  0.5827   0.5836   0.5851   0.5868   0.5881   0.5886   0.5889   0.5901
  0.5912   0.5923   0.5939   0.5961   0.5973   0.5987   0.5992   0.6018
  0.6037   0.6047   0.6057   0.6072   0.6077   0.6088   0.6100   0.6103
  0.6121   0.6139   0.6151   0.6162   0.6172   0.6185   0.6190   0.6199
  0.6214   0.6223   0.6226   0.6248   0.6251   0.6265   0.6270   0.6284
  0.6298   0.6305   0.6311   0.6324   0.6327   0.6344   0.6353   0.6374
  0.6384   0.6411   0.6418   0.6433   0.6447   0.6453   0.6466   0.6472
  0.6488   0.6500   0.6518   0.6519   0.6530   0.6547   0.6557   0.6562
  0.6569   0.6577   0.6597   0.6601   0.6608   0.6617   0.6622   0.6642
  0.6647   0.6652   0.6657   0.6672   0.6682   0.6688   0.6692   0.6706
  0.6715   0.6731   0.6744   0.6754   0.6771   0.6775   0.6780   0.6798
  0.6803   0.6814   0.6822   0.6828   0.6849   0.6857   0.6861   0.6871
  0.6885   0.6891   0.6898   0.6916   0.6934   0.6941   0.6947   0.6961
  0.6972   0.6975   0.6991   0.6993   0.7009   0.7017   0.7025   0.7036
  0.7062   0.7072   0.7087   0.7100   0.7114   0.7122   0.7131   0.7139
  0.7141   0.7154   0.7168   0.7178   0.7192   0.7196   0.7202   0.7222
  0.7232   0.7239   0.7247   0.7266   0.7271   0.7290   0.7304   0.7327
  0.7349   0.7355   0.7361   0.7379   0.7382   0.7391   0.7411   0.7417
  0.7435   0.7442   0.7453   0.7458   0.7477   0.7483   0.7490   0.7506
  0.7517   0.7533   0.7555   0.7564   0.7569   0.7594   0.7617   0.7628
  0.7634   0.7649   0.7673   0.7678   0.7690   0.7699   0.7712   0.7731
  0.7748   0.7775   0.7786   0.7809   0.7822   0.7833   0.7840   0.7862
  0.7877   0.7893   0.7900   0.7902   0.7923   0.7937   0.7952   0.7971
  0.7978   0.8000   0.8011   0.8015   0.8029   0.8055   0.8070   0.8076
  0.8082   0.8090   0.8098   0.8118   0.8131   0.8139   0.8163   0.8184
  0.8200   0.8214   0.8231   0.8235   0.8250   0.8260   0.8282   0.8290
  0.8305   0.8308   0.8323   0.8337   0.8343   0.8363   0.8368   0.8380
  0.8390   0.8397   0.8412   0.8429   0.8436   0.8452   0.8470   0.8493
  0.8499   0.8507   0.8521   0.8532   0.8541   0.8572   0.8578   0.8590
  0.8597   0.8608   0.8616   0.8620   0.8632   0.8653   0.8673   0.8689
  0.8692   0.8706   0.8711   0.8725   0.8751   0.8758   0.8770   0.8786
  0.8796   0.8807   0.8816   0.8824   0.8835   0.8845   0.8858   0.8874
  0.8880   0.8899   0.8908   0.8911   0.8927   0.8947   0.8953   0.8958
  0.8973   0.8982   0.9000   0.9008   0.9021   0.9046   0.9058   0.9066
  0.9070   0.9077   0.9088   0.9102   0.9107   0.9118   0.9122   0.9141
  0.9145   0.9153   0.9167   0.9177   0.9190   0.9191   0.9218   0.9223
  0.9228   0.9249   0.9263   0.9265   0.9285   0.9296   0.9300   0.9317
  0.9332   0.9342   0.9350   0.9359   0.9376   0.9381   0.9386   0.9405
  0.9417   0.9418   0.9429   0.9444   0.9447   0.9456   0.9461   0.9490
  0.9502   0.9507   0.9513   0.9523   0.9529   0.9542   0.9561   0.9563
  0.9571   0.9591   0.9613   0.9618   0.9622   0.9629   0.9640   0.9649
  0.9657   0.9666   0.9673   0.9686   0.9696   0.9701   0.9709   0.9720
  0.9732   0.9748   0.9758   0.9762   0.9769   0.9784   0.9790   0.9796
  0.9810   0.9817   0.9834   0.9838   0.9850   0.9862   0.9870   0.9892
  0.9897   0.9908   0.9917   0.9935   0.9943   0.9948   0.9962   0.9969
  0.9977   0.9995   0.9995   1.0013   1.0017   1.0027   1.0029   1.0038
  1.0053   1.0060   1.0087   1.0089   1.0103   1.0121   1.0126   1.0142
  1.0149   1.0158   1.0173   1.0184   1.0194   1.0211   1.0217   1.0221
  1.0232   1.0246   1.0253   1.0263   1.0273   1.0286   1.0299   1.0301
  1.0312   1.0331   1.0340   1.0355   1.0364   1.0374   1.0391   1.0392
  1.0412   1.0417   1.0424   1.0424   1.0442   1.0449   1.0471   1.0477
  1.0509   1.0514   1.0523   1.0534   1.0542   1.0564   1.0573   1.0578
  1.0602   1.0606   1.0612   1.0626   1.0643   1.0654   1.0661   1.0680
  1.0688   1.0698   1.0707   1.0712   1.0724   1.0735   1.0761   1.0765
  1.0777   1.0786   1.0796   1.0816   1.0821   1.0839   1.0850   1.0862
  1.0877   1.0899   1.0910   1.0913   1.0922   1.0932   1.0940   1.0964
  1.0978   1.0985   1.1002   1.1013   1.1026   1.1050   1.1060   1.1074
  1.1092   1.1110   1.1125   1.1126   1.1142   1.1147   1.1154   1.1157
  1.1169   1.1189   1.1207   1.1217   1.1222   1.1236   1.1248   1.1255
  1.1263   1.1277   1.1295   1.1301   1.1307   1.1322   1.1343   1.1357
  1.1374   1.1381   1.1390   1.1411   1.1416   1.1433   1.1436   1.1453
  1.1470   1.1476   1.1491   1.1499   1.1508   1.1517   1.1535   1.1537
  1.1559   1.1562   1.1584   1.1593   1.1603   1.1606   1.1613   1.1627
  1.1648   1.1670   1.1675   1.1689   1.1705   1.1710   1.1722   1.1737
  1.1752   1.1771   1.1774   1.1783   1.1802   1.1828   1.1845   1.1852
  1.1865   1.1882   1.1903   1.1924   1.1932   1.1947   1.1963   1.1968
  1.1973   1.1981   1.2002   1.2013   1.2025   1.2041   1.2054   1.2066
  1.2099   1.2114   1.2128   1.2140   1.2162   1.2164   1.2182   1.2203
  1.2232   1.2249   1.2263   1.2271   1.2288   1.2302   1.2348   1.2357
  1.2369   1.2383   1.2404   1.2414   1.2444   1.2453   1.2476   1.2488
  1.2503   1.2530   1.2543   1.2565   1.2579   1.2609   1.2620   1.2659
  1.2666   1.2669   1.2688   1.2729   1.2735   1.2758   1.2778   1.2820
  1.2839   1.2851   1.2865   1.2881   1.2901   1.2914   1.2939   1.2979
  1.2981   1.3004   1.3030   1.3042   1.3065   1.3079   1.3084   1.3117
  1.3145   1.3156   1.3180   1.3186   1.3211   1.3221   1.3251   1.3272
  1.3285   1.3304   1.3323   1.3334   1.3344   1.3377   1.3384   1.3401
  1.3413   1.3417   1.3433   1.3460   1.3482   1.3489   1.3506   1.3528
  1.3552   1.3555   1.3579   1.3585   1.3604   1.3617   1.3634   1.3641
  1.3656   1.3667   1.3682   1.3695   1.3714   1.3730   1.3754   1.3755
  1.3767   1.3789   1.3797   1.3801   1.3816   1.3829   1.3837   1.3871
  1.3890   1.3911   1.3931   1.3933   1.3946   1.3971   1.3977   1.4004
  1.4018   1.4031   1.4043   1.4052   1.4069   1.4079   1.4087   1.4099
  1.4114   1.4123   1.4133   1.4153   1.4161   1.4169   1.4188   1.4209
  1.4225   1.4233   1.4241   1.4252   1.4261   1.4279   1.4303   1.4309
  1.4322   1.4347   1.4355   1.4365   1.4399   1.4402   1.4417   1.4426
  1.4440   1.4452   1.4464   1.4492   1.4496   1.4525   1.4547   1.4549
  1.4559   1.4576   1.4604   1.4617   1.4640   1.4654   1.4660   1.4686
  1.4698   1.4715   1.4722   1.4756   1.4770   1.4783   1.4790   1.4799
  1.4816   1.4824   1.4849   1.4870   1.4884   1.4910   1.4916   1.4935
  1.4949   1.4969   1.4981   1.4983   1.5022   1.5036   1.5043   1.5089
  1.5103   1.5134   1.5151   1.5175   1.5181   1.5191   1.5203   1.5223
  1.5265   1.5274   1.5278   1.5308   1.5320   1.5379   1.5394   1.5419
  1.5447   1.5472   1.5513   1.5523   1.5554   1.5574   1.5604   1.5629
  1.5642   1.5657   1.5697   1.5713   1.5740   1.5771   1.5782   1.5838
  1.5859   1.5915   1.5934   1.5960   1.5964   1.5981   1.6021   1.6107
  1.6131   1.6156   1.6199   1.6236   1.6264   1.6330   1.6343   1.6364
  1.6408   1.6414   1.6450   1.6459   1.6470   1.6482   1.6518   1.6523
  1.6559   1.6608   1.6628   1.6632   1.6653   1.6666   1.6685   1.6696
  1.6718   1.6726   1.6730   1.6742   1.6753   1.6780   1.6786   1.6794
  1.6807   1.6817   1.6827   1.6837   1.6849   1.6866   1.6876   1.6877
  1.6901   1.6913   1.6919   1.6925   1.6942   1.6953   1.6959   1.6975
  1.6991   1.7022   1.7029   1.7038   1.7045   1.7072   1.7082   1.7107
  1.7117   1.7144   1.7150   1.7163   1.7173   1.7178   1.7183   1.7214
  1.7219   1.7234   1.7250   1.7258   1.7261   1.7285   1.7294   1.7298
  1.7325   1.7337   1.7348   1.7354   1.7372   1.7388   1.7406   1.7417
  1.7426   1.7450   1.7458   1.7469   1.7484   1.7488   1.7503   1.7513
  1.7536   1.7546   1.7557   1.7564   1.7570   1.7600   1.7611   1.7627
  1.7635   1.7640   1.7649   1.7670   1.7680   1.7689   1.7708   1.7709
  1.7739   1.7757   1.7761   1.7765   1.7787   1.7819   1.7834   1.7849
  1.7860   1.7886   1.7896   1.7898   1.7925   1.7934   1.7948   1.7976
  1.7995   1.8003   1.8008   1.8017   1.8054   1.8069   1.8086   1.8118
  1.8134   1.8144   1.8160   1.8211   1.8226   1.8253   1.8284   1.8313
  1.8322   1.8352   1.8362   1.8377   1.8416   1.8473   1.8498   1.8548
  1.8562   1.8570   1.8584   1.8628   1.8638   1.8659   1.8680   1.8692
  1.8702   1.8708   1.8738   1.8756   1.8772   1.8786   1.8795   1.8803
  1.8818   1.8837   1.8851   1.8864   1.8867   1.8886   1.8900   1.8910
  1.8925   1.8926   1.8934   1.8953   1.8961   1.8969   1.8983   1.8998
  1.9005   1.9020   1.9025   1.9033   1.9040   1.9054   1.9073   1.9090
  1.9103   1.9111   1.9127   1.9131   1.9144   1.9174   1.9176   1.9185
  1.9201   1.9210   1.9226   1.9231   1.9247   1.9288   1.9292   1.9314
  1.9324   1.9342   1.9349   1.9385   1.9395   1.9406   1.9412   1.9420
  1.9447   1.9480   1.9491   1.9511   1.9519   1.9547   1.9570   1.9590
  1.9601   1.9650   1.9671   1.9732   1.9747   1.9766   1.9826   1.9869
  1.9908   1.9974   2.0082   2.0142   2.0188   2.0266   2.0341   2.0416
  2.0437   2.0462   2.0483   2.0528   2.0538   2.0548   2.0561   2.0573
  2.0578   2.0596   2.0604   2.0611   2.0620   2.0634   2.0639   2.0649
  2.0652   2.0679   2.0698   2.0709   2.0716   2.0721   2.0734   2.0736
  2.0756   2.0765   2.0772   2.0787   2.0801   2.0817   2.0823   2.0834
  2.0842   2.0874   2.0919   2.0924   2.0936   2.0947   2.0949   2.0963
  2.0974   2.0988   2.1014   2.1037   2.1047   2.1051   2.1063   2.1074
  2.1087   2.1117   2.1119   2.1136   2.1141   2.1165   2.1226   2.1231
  2.1252   2.1286   2.1299   2.1304   2.1378   2.1420   2.1473   2.1496
  2.1533   2.1600   2.1625   2.1730   2.1735   2.1741   2.1807   2.1821
  2.1836   2.1849   2.1871   2.1882   2.1925   2.1965   2.2000   2.2037
  2.2040   2.2061   2.2073   2.2087   2.2106   2.2120   2.2126   2.2138
  2.2156   2.2188   2.2190   2.2238   2.2245   2.2249   2.2254   2.2261
  2.2271   2.2281   2.2292   2.2302   2.2314   2.2322   2.2330   2.2341
  2.2353   2.2374   2.2390   2.2407   2.2415   2.2419   2.2428   2.2442
  2.2455   2.2461   2.2495   2.2500   2.2506   2.2513   2.2521   2.2527
  2.2536   2.2544   2.2552   2.2564   2.2571   2.2571   2.2583   2.2584
  2.2600   2.2605   2.2613   2.2620   2.2638   2.2644   2.2652   2.2653
  2.2662   2.2672   2.2685   2.2698   2.2701   2.2711   2.2726   2.2728
  2.2736   2.2751   2.2753   2.2758   2.2765   2.2774   2.2790   2.2800
  2.2809   2.2815   2.2821   2.2830   2.2846   2.2850   2.2856   2.2863
  2.2867   2.2876   2.2882   2.2897   2.2904   2.2910   2.2918   2.2929
  2.2932   2.2942   2.2952   2.2957   2.2973   2.2979   2.2989   2.2997
  2.3001   2.3005   2.3030   2.3040   2.3045   2.3055   2.3067   2.3077
  2.3081   2.3090   2.3101   2.3114   2.3128   2.3137   2.3155   2.3180
  2.3199   2.3216   2.3233   2.3248   2.3255   2.3269   2.3286   2.3302
  2.3304   2.3320   2.3326   2.3356   2.3365   2.3379   2.3401   2.3405
  2.3425   2.3435   2.3445   2.3459   2.3467   2.3478   2.3499   2.3500
  2.3513   2.3541   2.3548   2.3570   2.3578   2.3592   2.3603   2.3624
  2.3642   2.3658   2.3677   2.3690   2.3718   2.3732   2.3769   2.3777
  2.3797   2.3834   2.3851   2.3877   2.3887   2.3913   2.3939   2.3943
  2.3985   2.3993   2.4033   2.4074   2.4150   2.4241   2.4312   2.4434
  2.4674   2.4839   2.5210   2.5583   2.6004   2.6744   2.7238   2.7686
  2.7741   2.8201   2.8208   2.8274   2.8316   2.8322   2.8340   2.8368
  2.8371   2.8404   2.8433   2.8439   2.8450   2.8468   2.8488   2.8506
  2.8525   2.8540   2.8551   2.8567   2.8579   2.8607   2.8629   2.8658
  2.8667   2.8678   2.8704   2.8710   2.8745   2.8820   2.8873   2.8905
  2.8910   2.9065   2.9490   3.0903   3.2352   3.9460   3.9495   3.9541
  3.9622   3.9661   3.9688   3.9692   3.9695   3.9735   3.9745   3.9757
  3.9785   3.9820   3.9857   3.9861   3.9878   3.9920   3.9939   3.9947
  4.0008   4.0022   4.0104   4.0107   4.0131   4.0150   4.0227   4.0259
  4.0346   4.0486   4.1734   4.2268   4.2303   4.2366   4.2371   4.2379
  4.2433   4.2435   4.2470   4.2505   4.2510   4.2515   4.2533   4.2537
  4.2553   4.2597   4.2624   4.2643   4.2698   4.2710   4.2724   4.2748
  4.2788   4.2795   4.2847   4.2891   4.2933   4.2957   4.2982   4.3018
  4.3029   4.3041   4.3052   4.3086   4.3100   4.3109   4.3150   4.3165
  4.3202   4.3213   4.3239   4.3247   4.3271   4.3281   4.3306   4.3340
  4.3350   4.3370   4.3397   4.3403   4.3424   4.3480   4.3514   4.3542
  4.3547   4.3564   4.3573   4.3607   4.3632   4.3679   4.3740   4.3754
  4.3773   4.3836   4.3874   4.3913   4.3949   4.4007   4.4025   4.4044
  4.4078   4.4126   4.4169   4.4240   4.4344   4.4385   4.4503   4.4524
  4.4617   4.4639   4.4710   4.4773   4.4934   4.5208   4.5287   4.5429
  4.5602   4.5963   4.5979   4.6165   4.6472   4.7083   4.7247   4.7486
  4.7769   4.9190
 --------------------------------------------------------------
 
          Ground-State Mulliken Net Atomic Charges

     Atom                 Charge (a.u.)
  ----------------------------------------
      1 C                    -0.310345
      2 C                    -0.547910
      3 C                    -0.090602
      4 C                    -0.658168
      5 C                    -0.328307
      6 C                    -0.488057
      7 H                     0.194653
      8 H                     0.216559
      9 H                     0.182928
     10 H                     0.195842
     11 H                     0.219033
     12 H                     0.199691
     13 H                     0.189146
     14 H                     0.192903
     15 H                     0.208396
     16 H                     0.267512
     17 H                     0.192649
     18 N                    -0.350593
     19 H                     0.525643
     20 C                     0.370659
     21 H                     0.150686
     22 O                    -0.532316
     23 C                    -0.893282
     24 H                     0.254733
     25 H                     0.258878
     26 H                     0.236144
     27 S                     1.012824
     28 C                    -0.860133
     29 H                     0.313164
     30 H                     0.254441
     31 H                     0.230753
     32 O                    -0.683688
     33 C                    -0.907642
     34 H                     0.322339
     35 H                     0.220434
     36 H                     0.241845
     37 S                     1.148398
     38 C                    -0.925880
     39 H                     0.240431
     40 H                     0.237970
     41 H                     0.293050
     42 O                    -0.793379
     43 C                    -0.893324
     44 H                     0.238249
     45 H                     0.300464
     46 H                     0.270227
     47 S                     0.934668
     48 C                    -0.997696
     49 H                     0.266285
     50 H                     0.260968
     51 H                     0.276505
     52 O                    -0.675487
     53 C                    -0.932282
     54 H                     0.280914
     55 H                     0.238866
     56 H                     0.247326
     57 S                     0.985425
     58 C                    -0.821812
     59 H                     0.239264
     60 H                     0.257806
     61 H                     0.289888
     62 O                    -0.761980
     63 C                    -0.908801
     64 H                     0.248166
     65 H                     0.252326
     66 H                     0.299760
     67 S                     0.811917
     68 C                    -0.865121
     69 H                     0.310349
     70 H                     0.243618
     71 H                     0.239310
     72 O                    -0.710119
     73 C                    -0.812874
     74 H                     0.239180
     75 H                     0.260453
     76 H                     0.259078
     77 S                     0.947783
     78 C                    -1.041784
     79 H                     0.301709
     80 H                     0.259654
     81 H                     0.220162
     82 O                    -0.649836
     83 C                    -0.894980
     84 H                     0.268736
     85 H                     0.225535
     86 H                     0.264785
     87 S                     1.028133
     88 C                    -0.846003
     89 H                     0.246037
     90 H                     0.284336
     91 H                     0.234446
     92 O                    -0.689022
     93 C                    -0.770653
     94 H                     0.249085
     95 H                     0.223330
     96 H                     0.265502
     97 S                     0.954119
     98 C                    -0.802212
     99 H                     0.268235
    100 H                     0.246462
    101 H                     0.213354
    102 O                    -0.782571
    103 C                    -0.898019
    104 H                     0.246073
    105 H                     0.300076
    106 H                     0.246680
    107 S                     0.923999
    108 C                    -0.853066
    109 H                     0.257564
    110 H                     0.259902
    111 H                     0.213167
    112 O                    -0.698343
    113 C                    -0.934214
    114 H                     0.243134
    115 H                     0.274543
    116 H                     0.279199
    117 S                     1.087567
    118 C                    -1.066047
    119 H                     0.278204
    120 H                     0.232752
    121 H                     0.284023
    122 O                    -0.690455
    123 C                    -0.862490
    124 H                     0.260322
    125 H                     0.252649
    126 H                     0.291760
    127 S                     0.872251
    128 C                    -0.962900
    129 H                     0.266968
    130 H                     0.285452
    131 H                     0.312924
    132 O                    -0.748009
    133 C                    -1.027516
    134 H                     0.287434
    135 H                     0.264280
    136 H                     0.281220
    137 S                     0.645418
    138 C                    -0.612683
    139 H                     0.224519
    140 H                     0.236708
    141 H                     0.259932
    142 O                    -0.693475
    143 C                    -0.766883
    144 H                     0.237639
    145 H                     0.249917
    146 H                     0.259793
    147 S                     0.849246
    148 C                    -0.802766
    149 H                     0.237569
    150 H                     0.261076
    151 H                     0.239135
    152 O                    -0.723498
    153 C                    -0.777079
    154 H                     0.261199
    155 H                     0.296127
    156 H                     0.203956
    157 S                     0.934921
    158 C                    -0.853039
    159 H                     0.258551
    160 H                     0.249194
    161 H                     0.231061
    162 O                    -0.747243
    163 C                    -0.969476
    164 H                     0.261917
    165 H                     0.292788
    166 H                     0.232709
    167 S                     1.158234
    168 C                    -1.162388
    169 H                     0.301615
    170 H                     0.264117
    171 H                     0.268566
    172 O                    -0.691026
    173 C                    -0.935813
    174 H                     0.308672
    175 H                     0.220679
    176 H                     0.264126
    177 S                     0.689276
    178 C                    -0.777983
    179 H                     0.218979
    180 H                     0.300951
    181 H                     0.238763
    182 O                    -0.556085
    183 C                    -0.838201
    184 H                     0.245856
    185 H                     0.264961
    186 H                     0.238858
    187 S                     0.944264
    188 C                    -0.923126
    189 H                     0.246869
    190 H                     0.293934
    191 H                     0.280870
    192 O                    -0.778314
    193 C                    -0.907609
    194 H                     0.242146
    195 H                     0.234698
    196 H                     0.257520
    197 S                     0.857308
    198 C                    -0.870499
    199 H                     0.248142
    200 H                     0.282879
    201 H                     0.254541
    202 O                    -0.669860
    203 C                    -0.892843
    204 H                     0.265353
    205 H                     0.295663
    206 H                     0.221935
    207 S                     1.055861
    208 C                    -1.016820
    209 H                     0.244550
    210 H                     0.266057
    211 H                     0.279720
    212 O                    -0.759780
    213 C                    -0.925032
    214 H                     0.248559
    215 H                     0.253854
    216 H                     0.277037
    217 S                     0.717583
    218 C                    -0.680113
    219 H                     0.228804
    220 H                     0.258976
    221 H                     0.301595
    222 O                    -0.653681
    223 C                    -1.038682
    224 H                     0.250071
    225 H                     0.253426
    226 H                     0.259623
    227 S                     1.164726
    228 C                    -0.928387
    229 H                     0.242485
    230 H                     0.238944
    231 H                     0.300280
    232 O                    -0.690983
    233 C                    -0.832387
    234 H                     0.282073
    235 H                     0.243556
    236 H                     0.266612
    237 S                     0.794504
    238 C                    -0.947847
    239 H                     0.255329
    240 H                     0.288395
    241 H                     0.238218
    242 O                    -0.651054
    243 C                    -1.032292
    244 H                     0.278575
    245 H                     0.264672
    246 H                     0.251729
    247 S                     1.156183
    248 C                    -0.945943
    249 H                     0.246213
    250 H                     0.245970
    251 H                     0.283636
    252 O                    -0.740530
    253 C                    -0.711048
    254 H                     0.287011
    255 H                     0.228618
    256 H                     0.271693
    257 S                     0.357518
    258 C                    -0.683506
    259 H                     0.243342
    260 H                     0.247152
    261 H                     0.263209
    262 O                    -0.517836
    263 C                    -0.681325
    264 H                     0.284794
    265 H                     0.323089
    266 H                     0.210081
    267 S                     0.779717
    268 C                    -0.845894
    269 H                     0.264408
    270 H                     0.224458
    271 H                     0.253795
    272 O                    -0.708150
    273 C                    -0.900595
    274 H                     0.270333
    275 H                     0.253170
    276 H                     0.251944
    277 S                     0.958633
    278 C                    -0.866219
    279 H                     0.242549
    280 H                     0.240984
    281 H                     0.227357
    282 O                    -0.722121
    283 C                    -1.047095
    284 H                     0.310338
    285 H                     0.220976
    286 H                     0.263948
    287 S                     1.343180
    288 C                    -1.218931
    289 H                     0.294098
    290 H                     0.320000
    291 H                     0.257940
    292 O                    -0.827860
    293 C                    -0.797978
    294 H                     0.270443
    295 H                     0.251235
    296 H                     0.240792
[...]
    2   0.0104809   0.0249914  -0.0238966   0.1009744  -0.0067810   0.0028106
    3  -0.0043168   0.0095545   0.0153823  -0.0400631   0.0060055   0.0348170
          175         176         177         178         179         180
    1  -0.0128654   0.0236693   0.0291496  -0.0047041  -0.0100858   0.0120643
    2  -0.0255986   0.0014156   0.0488431  -0.0030789  -0.0299886   0.0024123
    3  -0.0128570  -0.0225377   0.0246936   0.0041500  -0.0094734   0.0307497
          181         182         183         184         185         186
    1  -0.0194586  -0.0135918   0.0025794   0.0256764   0.0024370  -0.0207183
    2   0.0207830  -0.0064667   0.0049828   0.0153534   0.0209340   0.0176906
    3  -0.0028066  -0.1092540   0.0000089   0.0173129  -0.0292787   0.0116573
          187         188         189         190         191         192
    1   0.0381312  -0.0050237  -0.0204306  -0.0020748  -0.0176176  -0.0421700
    2  -0.0261146  -0.0013041   0.0116626   0.0104438  -0.0260521  -0.0227264
    3  -0.0278697  -0.0070421   0.0151323  -0.0343978  -0.0169141   0.0972971
          193         194         195         196         197         198
    1   0.0051948   0.0053035   0.0013017   0.0245594   0.0013209  -0.0068410
    2   0.0018019  -0.0274197   0.0208531   0.0169533  -0.0479102  -0.0005673
    3  -0.0031981  -0.0214797  -0.0232556   0.0128137   0.0258165  -0.0031797
          199         200         201         202         203         204
    1   0.0014631  -0.0111036  -0.0291778  -0.0026706   0.0014407  -0.0199281
    2   0.0261160  -0.0267940  -0.0035363   0.0989933  -0.0094686  -0.0257692
    3  -0.0159869  -0.0196123   0.0063116   0.0471887   0.0040597   0.0080405
          205         206         207         208         209         210
    1   0.0129699   0.0196700   0.0348533  -0.0067697  -0.0061356   0.0199249
    2  -0.0128435  -0.0073810   0.0428753   0.0007776  -0.0235280   0.0242791
    3  -0.0223219   0.0306532  -0.0181620   0.0102058   0.0253802   0.0137999
          211         212         213         214         215         216
    1  -0.0306664  -0.0789543  -0.0058822  -0.0230213  -0.0007977  -0.0073129
    2  -0.0021307  -0.0444006  -0.0015833   0.0173085  -0.0226777  -0.0078296
    3  -0.0144164  -0.0662520   0.0032132  -0.0125384  -0.0132534   0.0372005
          217         218         219         220         221         222
    1   0.0456640  -0.0077856  -0.0158450   0.0208429  -0.0325137  -0.0051731
    2  -0.0263949   0.0072812   0.0019943   0.0178264   0.0236954   0.0255373
    3   0.0267474   0.0009949   0.0376612   0.0096986  -0.0035374  -0.1059271
          223         224         225         226         227         228
    1  -0.0028636  -0.0334668   0.0262615  -0.0042163  -0.0317550  -0.0045603
    2   0.0076668   0.0055035   0.0217445  -0.0147620  -0.0528457   0.0046109
    3  -0.0048195   0.0059739  -0.0028543  -0.0263848   0.0012448   0.0058968
          229         230         231         232         233         234
    1   0.0247886   0.0109241  -0.0360282   0.1078308   0.0011104  -0.0159683
    2  -0.0076624   0.0301941   0.0025587   0.0015753  -0.0028828   0.0054542
    3   0.0171926   0.0004226   0.0107816  -0.0217499   0.0078943   0.0370732
          235         236         237         238         239         240
    1  -0.0225244   0.0240999  -0.0319365  -0.0025832  -0.0348162   0.0002561
    2  -0.0204413  -0.0147200   0.0446052  -0.0042418   0.0058424   0.0083655
    3   0.0061255   0.0060231   0.0026176  -0.0095474  -0.0017701  -0.0333573
          241         242         243         244         245         246
    1   0.0175523   0.1106027   0.0060664   0.0297523   0.0008038   0.0031507
    2  -0.0282991  -0.0046757   0.0045377   0.0040581   0.0345228  -0.0114029
    3   0.0031332  -0.0231199   0.0039060  -0.0082316   0.0010208   0.0308552
          247         248         249         250         251         252
    1   0.0100993  -0.0089166  -0.0032440  -0.0086742  -0.0212059  -0.0105167
    2   0.0129645   0.0028601   0.0165462   0.0307203  -0.0198443  -0.0989347
    3  -0.0560763   0.0030156   0.0293688  -0.0062482  -0.0037317   0.0441449
          253         254         255         256         257         258
    1  -0.0023579  -0.0277102   0.0033135   0.0154858  -0.0353951   0.0050437
    2   0.0045447   0.0056888  -0.0196644   0.0257085  -0.0461091   0.0000862
    3   0.0038860   0.0186838   0.0284090  -0.0037177  -0.0024089  -0.0011859
          259         260         261         262         263         264
    1   0.0242408   0.0107055   0.0079690  -0.0059785  -0.0064640  -0.0257010
    2   0.0177844  -0.0213217  -0.0041206   0.0861636  -0.0085594  -0.0202074
    3   0.0061979   0.0268713  -0.0306683  -0.0679618  -0.0038860  -0.0167507
          265         266         267         268         269         270
    1   0.0159430  -0.0109088   0.0432185  -0.0044010  -0.0243862  -0.0246889
    2  -0.0259697  -0.0089022   0.0140473   0.0024600  -0.0136029   0.0098264
    3   0.0025847   0.0342564   0.0387321  -0.0047540  -0.0230010   0.0233356
          271         272         273         274         275         276
    1   0.0128137   0.0214804  -0.0043366   0.0120954  -0.0308211   0.0113828
    2   0.0317268  -0.0169684  -0.0034297  -0.0169216   0.0152741  -0.0364464
    3   0.0105994  -0.1065576   0.0020377   0.0324529  -0.0083959  -0.0041429
          277         278         279         280         281         282
    1   0.0554663  -0.0014247   0.0024188  -0.0311052   0.0149575  -0.0514537
    2  -0.0056312   0.0032416   0.0281993   0.0011420   0.0054609   0.0108880
    3   0.0075849   0.0028512  -0.0141012  -0.0071155   0.0302794  -0.0972793
          283         284         285         286         287         288
    1  -0.0024468  -0.0176462  -0.0211028   0.0261143   0.0325239   0.0026893
    2   0.0070393   0.0272646  -0.0174476  -0.0067998  -0.0425795   0.0075922
    3   0.0013083  -0.0014306   0.0119918   0.0163400  -0.0090539  -0.0067403
          289         290         291         292         293         294
    1   0.0261383   0.0082470  -0.0218374  -0.1185080  -0.0023630   0.0052708
    2   0.0086321  -0.0005788   0.0234403   0.0204926   0.0064329   0.0104620
    3   0.0098698  -0.0299557   0.0154602  -0.0283479  -0.0006502  -0.0295768
          295         296         297         298         299         300
    1  -0.0296274   0.0008785  -0.0076758  -0.0060882  -0.0291199   0.0178992
    2  -0.0110135   0.0283788  -0.0536650   0.0022337  -0.0217107  -0.0122522
    3   0.0051938   0.0153727  -0.0198002   0.0061184   0.0165632   0.0187766
          301         302         303         304         305         306
    1   0.0061950   0.0970024  -0.0071974  -0.0278268  -0.0011718  -0.0002327
    2   0.0297546   0.0515028   0.0012261   0.0223694   0.0153258  -0.0340463
    3   0.0182684  -0.0029904  -0.0027988   0.0118267  -0.0272237   0.0055662
          307         308         309         310         311         312
    1   0.0011523   0.0046976  -0.0017110  -0.0144418   0.0274089   0.0553951
    2  -0.0003677   0.0108880   0.0021684   0.0244836   0.0247938  -0.0712744
    3   0.0549320  -0.0008853  -0.0298092   0.0204177   0.0054224  -0.0623379
  --- DONE ESP SUMMARY ---
Archival summary:
1\1\n0099.mhg0\SP\ProcedureUnspecified\6-31+G*\292958h22\ymao\FriMar1216:50:252021FriMar1216:50:252021\0\\#,ProcedureUnspecified,6-31+G*,\\0,1\S\O,1,1.49737\Gh,2,1.80544,1,130.115\Gh,3,1.0126,2,176.975,1,33.2166,0\Gh,4,1.37934,3,117.046,2,-123.371,0\Gh,5,1.1056,4,112.403,3,-8.92063,0\Gh,5,1.21779,4,123.294,3,164.918,0\Gh,4,1.46229,3,119.458,2,51.3876,0\Gh,8,1.09662,4,114.633,3,171.123,0\Gh,8,1.53738,4,105.983,3,46.7806,0\Gh,10,1.09668,8,111.26,4,71.6215,0\Gh,10,1.09804,8,106.224,4,-44.8555,0\Gh,10,1.53733,8,113.044,4,-167.732,0\Gh,13,1.09643,10,106.868,8,177.736,0\Gh,13,1.09776,10,110.743,8,-74.1706,0\Gh,8,1.53744,4,110.782,3,-72.3496,0\Gh,16,1.09688,8,112.257,4,-60.0662,0\Gh,16,1.09693,8,100.36,4,52.6926,0\Gh,16,1.53745,8,115.533,4,171.109,0\Gh,19,1.09678,16,106.455,8,71.0024,0\Gh,19,1.09697,16,105.601,8,-177.213,0\Gh,19,1.537,16,112.706,8,-53.364,0\Gh,22,1.09724,19,113.538,16,178.244,0\Gh,22,1.09732,19,102.102,16,-79.1695,0\C,1,1.80697,2,100.14,3,22.843,0\H,25,1.09253,1,106.463,2,-174.498,0\H,25,1.09306,1,110.298,2,-61.2426,0\H,25,1.0935,1,102.26,2,62.5885,0\C,1,1.80708,2,102.601,3,-80.8326,0\H,29,1.09279,1,109.932,2,43.431,0\H,29,1.09319,1,113.069,2,176.36,0\H,29,1.09394,1,104.721,2,-70.7055,0\H,12,1.95015,10,129.327,8,-149.082,0\C,33,1.09271,12,155.197,10,-28.1592,0\H,34,1.09268,33,115.044,12,-11.0713,0\H,34,1.09318,33,114.204,12,117.2,0\S,34,1.80755,33,104.762,12,-122.274,0\O,37,1.49673,34,104.948,33,156.248,0\C,37,1.8068,34,95.5029,33,50.6794,0\H,39,1.09259,37,107.292,34,60.2385,0\H,39,1.09307,37,107.985,34,-61.1844,0\H,39,1.09379,37,108.689,34,178.795,0\H,42,2.12732,39,114.691,37,63.4705,0\C,43,1.09223,42,101.021,39,177.321,0\H,44,1.09308,43,110.053,42,67.854,0\H,44,1.09333,43,114.061,42,-55.2325,0\S,44,1.80658,43,105.064,42,-179.548,0\O,47,1.49733,44,106.026,43,-50.3897,0\C,47,1.80655,44,97.3248,43,54.4874,0\H,49,1.0927,47,108.229,44,-171.695,0\H,49,1.09321,47,104.495,44,64.9257,0\H,49,1.09342,47,105.556,44,-48.0277,0\H,35,2.15061,34,138.411,33,-169.12,0\C,53,1.09369,35,146.58,34,-140.186,0\H,54,1.09245,53,110.387,35,-138.95,0\H,54,1.09359,53,107.685,35,109.806,0\S,54,1.80695,53,108.802,35,-8.37147,0\O,57,1.49696,54,97.9217,53,-1.34146,0\C,57,1.80622,54,97.4038,53,-95.6506,0\H,59,1.0924,57,114.121,54,-177.373,0\H,59,1.09261,57,104.436,54,66.9048,0\H,59,1.09341,57,116.456,54,-52.0389,0\H,11,2.21836,10,147.464,8,-55.7817,0\C,63,1.09217,11,115.517,10,-75.8096,0\H,64,1.09283,63,108.913,11,-9.69607,0\H,64,1.09329,63,112.818,11,117.938,0\S,64,1.80612,63,104.02,11,-125.127,0\O,67,1.49695,64,98.1296,63,-42.5191,0\C,67,1.80725,64,94.411,63,55.4722,0\H,69,1.09265,67,110.942,64,177.538,0\H,69,1.09291,67,108.896,64,62.8451,0\H,69,1.09315,67,112.55,64,-64.0479,0\H,66,2.14766,64,144.538,63,-77.7258,0\C,73,1.09275,66,110.484,64,-97.8732,0\H,74,1.09294,73,110.404,66,112.718,0\H,74,1.09373,73,110.684,66,-9.39743,0\S,74,1.80628,73,110.568,66,-131.012,0\O,77,1.49721,74,109.074,73,171.908,0\C,77,1.80732,74,91.8756,73,67.3614,0\H,79,1.0929,77,101.194,74,-76.8531,0\H,79,1.09323,77,119.001,74,163.112,0\H,79,1.09344,77,109.97,74,42.4555,0\H,72,2.18183,69,162.51,67,155.59,0\C,83,1.09291,72,156.055,69,44.973,0\H,84,1.09275,83,110.479,72,159.079,0\H,84,1.09286,83,115.99,72,-84.5637,0\S,84,1.80736,83,105.873,72,37.3357,0\O,87,1.49741,84,101.211,83,-46.0715,0\C,87,1.80655,84,90.3831,83,49.4545,0\H,89,1.09273,87,108.065,84,-45.7414,0\H,89,1.09325,87,105.341,84,74.7078,0\H,89,1.09346,87,108.32,84,-164.509,0\H,85,2.26351,84,125.043,83,-176.997,0\C,93,1.09364,85,94.8205,84,-138.459,0\H,94,1.09282,93,118.402,85,-36.8494,0\H,94,1.09335,93,109.559,85,-161.914,0\S,94,1.80685,93,109.277,85,80.6877,0\O,97,1.49764,94,101.646,93,51.4537,0\C,97,1.80715,94,96.2068,93,153.49,0\H,99,1.09254,97,102.634,94,-59.0213,0\H,99,1.09283,97,123.398,94,63.0359,0\H,99,1.09341,97,106.399,94,-170.174,0\H,101,2.2015,99,104.632,97,153.77,0\C,103,1.09242,101,145.473,99,-177.136,0\H,104,1.09295,103,111.253,101,4.63562,0\H,104,1.09347,103,111.29,101,-119.483,0\S,104,1.80673,103,106.828,101,121.844,0\O,107,1.49659,104,100.373,103,-168.4,0\C,107,1.80726,104,99.6733,103,-56.3402,0\H,109,1.09251,107,108.978,104,63.0414,0\H,109,1.09269,107,116.51,104,-174.923,0\H,109,1.09296,107,109.844,104,-54.9519,0\H,112,2.24804,109,111.518,107,-111.315,0\C,113,1.09235,112,166.614,109,2.09632,0\H,114,1.09258,113,108.778,112,-148.136,0\H,114,1.09344,113,110.403,112,91.6745,0\S,114,1.80649,113,110.321,112,-28.7005,0\O,117,1.49684,114,112.778,113,-65.3654,0\C,117,1.80748,114,93.6342,113,-170.392,0\H,119,1.09268,117,111.71,114,179.397,0\H,119,1.09277,117,108.606,114,-65.6095,0\H,119,1.09351,117,108.346,114,53.9841,0\O,101,2.25618,99,131.966,97,-105.873,0\S,123,1.49762,101,119.422,99,99.4376,0\C,124,1.80755,123,103.602,101,-115.807,0\H,125,1.09249,124,108.811,123,-175.722,0\H,125,1.09276,124,115.183,123,58.5451,0\H,125,1.09293,124,106.71,123,-48.1967,0\C,124,1.80756,123,108.186,101,144.574,0\H,129,1.09296,124,109.036,123,48.9449,0\H,129,1.093,124,106.255,123,166.602,0\H,129,1.09332,124,106.969,123,-74.0257,0\H,112,2.26361,109,140.881,107,127.253,0\C,133,1.09305,112,103.075,109,-110.828,0\H,134,1.09317,133,107.228,112,-171.638,0\H,134,1.09325,133,118.529,112,66.6707,0\S,134,1.80663,133,112.429,112,-56.6007,0\O,137,1.49615,134,106.219,133,-166.183,0\C,137,1.80711,134,92.0903,133,-64.7955,0\H,139,1.09255,137,113.347,134,168.166,0\H,139,1.09263,137,103.233,134,-63.4966,0\H,139,1.09322,137,100.221,134,55.61,0\H,140,2.08418,139,118.811,137,168.567,0\C,143,1.09337,140,133.687,139,73.367,0\H,144,1.09244,143,115.129,140,52.2758,0\H,144,1.09284,143,107.85,140,173.468,0\S,144,1.80735,143,111.828,140,-72.962,0\O,147,1.49705,144,100.542,143,-87.3142,0\C,147,1.80724,144,101.537,143,162.173,0\H,149,1.09259,147,112.373,144,171.826,0\H,149,1.09305,147,110.913,144,44.4642,0\H,149,1.09379,147,102.497,144,-67.3732,0\O,32,2.26767,29,118.443,1,-120.874,0\S,153,1.49704,32,142.019,29,91.9286,0\C,154,1.80718,153,102.653,32,-33.0505,0\H,155,1.09267,154,106.282,153,-67.9215,0\H,155,1.09313,154,112.482,153,167.555,0\H,155,1.0932,154,107.342,153,49.1143,0\C,154,1.80718,153,100.465,32,65.8206,0\H,159,1.09272,154,112.668,153,-36.6265,0\H,159,1.09282,154,104.515,153,-164.333,0\H,159,1.09312,154,110.036,153,79.975,0\H,36,2.28499,34,108.548,33,-165.189,0\C,163,1.09346,36,121.561,34,-123.916,0\H,164,1.09325,163,108.359,36,-149.662,0\H,164,1.09333,163,112.673,36,82.6348,0\S,164,1.80693,163,105.025,36,-33.1319,0\O,167,1.49723,164,104.889,163,-69.753,0\C,167,1.80736,164,90.7935,163,-173.38,0\H,169,1.09246,167,108.302,164,162.392,0\H,169,1.09247,167,108.33,164,-83.4051,0\H,169,1.09348,167,105.056,164,40.6062,0\H,23,2.30008,22,160.932,19,-67.2541,0\C,173,1.09234,23,140.998,22,-97.8435,0\H,174,1.09269,173,113.326,23,105.664,0\H,174,1.09311,173,114.507,23,-133.562,0\S,174,1.80748,173,110.718,23,-8.52444,0\O,177,1.4963,174,101.712,173,-161.848,0\C,177,1.80712,174,97.8666,173,-56.3549,0\H,179,1.09225,177,108.626,174,-170.232,0\H,179,1.09328,177,102.471,174,-53.6762,0\H,179,1.09336,177,109.345,174,77.0873,0\H,83,2.33237,72,89.9136,69,-135.514,0\C,183,1.09286,83,121.422,72,-56.3958,0\H,184,1.0925,183,110.124,83,153.957,0\H,184,1.09305,183,109.413,83,23.6381,0\S,184,1.80704,183,104.642,83,-91.05,0\O,187,1.49758,184,105.916,183,18.7044,0\C,187,1.8065,184,97.3065,183,-79.7791,0\H,189,1.09256,187,107.402,184,-101.016,0\H,189,1.09341,187,111.505,184,34.9564,0\H,189,1.0936,187,105.383,184,151.971,0\H,176,2.35166,174,106.939,173,-18.3694,0\C,193,1.09283,176,158.769,174,56.8279,0\H,194,1.09265,193,109.014,176,-162.502,0\H,194,1.09318,193,107.13,176,78.7861,0\S,194,1.80666,193,104.141,176,-43.1424,0\O,197,1.49667,194,101.077,193,-71.864,0\C,197,1.80745,194,96.5199,193,-174.761,0\H,199,1.09237,197,114.741,194,58.3616,0\H,199,1.09318,197,104.733,194,-179.108,0\H,199,1.09324,197,115.386,194,-65.2193,0\H,196,2.21203,194,113.141,193,-45.8773,0\C,203,1.09301,196,141.063,194,-132.809,0\H,204,1.09276,203,111.334,196,98.3255,0\H,204,1.09348,203,111.52,196,-132.617,0\S,204,1.80705,203,109.577,196,-12.5599,0\O,207,1.49717,204,101.026,203,40.4424,0\C,207,1.807,204,94.4083,203,-66.1825,0\H,209,1.09273,207,105.138,204,-62.5319,0\H,209,1.09319,207,102.703,204,-177.267,0\H,209,1.09338,207,109.647,204,63.3971,0\H,98,2.42431,97,148.916,94,103.197,0\C,213,1.09289,98,106.242,97,39.1758,0\H,214,1.0928,213,108.646,98,25.9497,0\H,214,1.09343,213,109.036,98,-106.311,0\S,214,1.80693,213,101.751,98,143.93,0\O,217,1.49688,214,105.394,213,-53.9582,0\C,217,1.80716,214,101.767,213,55.7311,0\H,219,1.09296,217,106.06,214,169.307,0\H,219,1.09358,217,107.879,214,-84.2539,0\H,219,1.09377,217,105.725,214,42.0791,0\H,202,2.43688,199,148.499,197,-175.755,0\C,223,1.09313,202,97.0989,199,85.5091,0\H,224,1.09216,223,104.346,202,-51.4683,0\H,224,1.09321,223,108.536,202,64.5566,0\S,224,1.80729,223,106.331,202,-171.496,0\O,227,1.49718,224,104.229,223,62.6199,0\C,227,1.80726,224,93.0306,223,170.884,0\H,229,1.09228,227,105.414,224,-164.896,0\H,229,1.09297,227,105.044,224,75.2976,0\H,229,1.0937,227,107.037,224,-48.0848,0\H,226,2.03001,224,109.189,223,-135.031,0\C,233,1.09249,226,120.868,224,155.186,0\H,234,1.0932,233,111.668,226,-138.605,0\H,234,1.09322,233,111.626,226,-15.1696,0\S,234,1.80726,233,100.992,226,101.841,0\O,237,1.49683,234,108.258,233,-34.3788,0\C,237,1.80689,234,91.6915,233,-143.053,0\H,239,1.0927,237,105.899,234,78.0573,0\H,239,1.09275,237,105.148,234,-44.7771,0\H,239,1.09302,237,113.626,234,-156.823,0\O,121,2.50169,119,130.109,117,-22.3344,0\S,243,1.49766,121,115.192,119,-18.6175,0\C,244,1.80654,243,100.779,121,118.096,0\H,245,1.09291,244,104.844,243,75.7219,0\H,245,1.09306,244,114.011,243,-38.0935,0\H,245,1.09329,244,111.166,243,-156.98,0\C,244,1.80711,243,108.489,121,-143.938,0\H,249,1.09246,244,109.586,243,96.7811,0\H,249,1.09306,244,105.64,243,-29.2695,0\H,249,1.09323,244,103.714,243,-146.282,0\H,141,2.53626,139,127.798,137,-128.067,0\C,253,1.09373,141,100.594,139,-161.868,0\H,254,1.09263,253,108.167,141,58.0111,0\H,254,1.09289,253,115.51,141,-179.288,0\S,254,1.80643,253,108.498,141,-59.0112,0\O,257,1.49715,254,97.507,253,-169.008,0\C,257,1.80755,254,107.584,253,-61.1456,0\H,259,1.09251,257,109.277,254,-130.59,0\H,259,1.0927,257,107.421,254,-11.9095,0\H,259,1.09323,257,115.764,254,110.55,0\H,80,2.55185,79,128.643,77,-47.5095,0\C,263,1.09264,80,129.613,79,-28.8133,0\H,264,1.093,263,100.477,80,-162.104,0\H,264,1.09339,263,115.857,80,83.9473,0\S,264,1.80731,263,116.142,80,-42.9794,0\O,267,1.49753,264,106.845,263,-167.848,0\C,267,1.80728,264,94.6217,263,-59.8785,0\H,269,1.09305,267,109.344,264,-169.524,0\H,269,1.09306,267,113.368,264,73.7333,0\H,269,1.09334,267,109.933,264,-54.073,0\H,263,2.07176,80,104.844,79,-176.127,0\C,273,1.09317,263,144.436,80,30.0518,0\H,274,1.09234,273,108.634,263,-170.883,0\H,274,1.09297,273,116.005,263,58.9299,0\S,274,1.80709,273,107.469,263,-65.1133,0\O,277,1.49769,274,104.013,273,-3.87486,0\C,277,1.80649,274,93.2422,273,105.67,0\H,279,1.09287,277,107.582,274,73.0649,0\H,279,1.09304,277,106.666,274,-167.253,0\H,279,1.09387,277,116.673,274,-44.3272,0\H,221,2.55597,219,146.244,217,16.2634,0\C,283,1.0926,221,147.952,219,-161.156,0\H,284,1.09241,283,110.224,221,-82.5576,0\H,284,1.09348,283,110.515,221,44.3611,0\S,284,1.80687,283,110.394,221,157.262,0\O,287,1.4967,284,98.5473,283,178.057,0\C,287,1.80681,284,96.599,283,73.1751,0\H,289,1.09269,287,100.814,284,168.218,0\H,289,1.09318,287,109.274,284,-62.1097,0\H,289,1.09388,287,114.366,284,59.8999,0\H,176,2.6125,174,172.77,173,-143.188,0\C,293,1.09239,176,117.733,174,-144.976,0\H,294,1.09303,293,110.472,176,168.91,0\H,294,1.09314,293,104.307,176,-69.3699,0\S,294,1.80699,293,110.813,176,47.5927,0\O,297,1.49622,294,104.252,293,-170.201,0\C,297,1.80748,294,97.9164,293,82.8624,0\H,299,1.09277,297,111.559,294,-172.661,0\H,299,1.09283,297,108.862,294,66.1332,0\H,299,1.09355,297,109.644,294,-49.1127,0\H,26,2.75684,25,106.728,1,-100.645,0\C,303,1.09265,26,129.777,25,81.3658,0\H,304,1.09284,303,114.042,26,-81.0603,0\H,304,1.09317,303,109.583,26,171.186,0\S,304,1.80729,303,114.347,26,48.6611,0\O,307,1.49734,304,102.322,303,-45.3354,0\C,307,1.80732,304,97.0248,303,57.1392,0\H,309,1.09252,307,111.897,304,72.7679,0\H,309,1.0928,307,109.313,304,-44.7567,0\H,309,1.09282,307,110.284,304,-168.832,0\\\@

 Total job time:  79.01s(wall), 272.33s(cpu) 
 Fri Mar 12 16:50:25 2021

        *************************************************************
        *                                                           *
        *  Thank you very much for using Q-Chem.  Have a nice day.  *
        *                                                           *
        *************************************************************


