                  Welcome to Q-Chem
     A Quantum Leap Into The Future Of Chemistry


 Q-Chem 6.0 (devel), Q-Chem, Inc., Pleasanton, CA (2022)

 E. Epifanovsky,  A. T. B. Gilbert,  Xintian Feng,  Joonho Lee,  Yuezhi Mao,  
 N. Mardirossian,  P. Pokhilko,  A. White,  M. Wormit,  M. P. Coons,  
 A. L. Dempwolff,  Zhengting Gan,  D. Hait,  P. R. Horn,  L. D. Jacobson,  
 I. Kaliman,  J. Kussmann,  A. W. Lange,  Ka Un Lao,  D. S. Levine,  Jie Liu,  
 S. C. McKenzie,  A. F. Morrison,  K. Nanda,  F. Plasser,  D. R. Rehn,  
 M. L. Vidal,  Zhi-Qiang You,  Ying Zhu,  B. Alam,  B. Albrecht,  
 A. Aldossary,  E. Alguire,  J. H. Andersen,  V. Athavale,  D. Barton,  
 K. Begam,  A. Behn,  N. Bellonzi,  Y. A. Bernard,  E. J. Berquist,  
 H. Burton,  A. Carreras,  K. Carter-Fenk,  Romit Chakraborty,  
 Chandrima Chakravarty,  Junhan Chen,  A. D. Chien,  K. D. Closser,  
 V. Cofer-Shabica,  L. Cunha,  S. Dasgupta,  Jia Deng,  M. de Wergifosse,  
 M. Diedenhofen,  Hainam Do,  S. Ehlert,  Po-Tung Fang,  S. Fatehi,  
 Qingguo Feng,  T. Friedhoff,  B. Ganoe,  J. Gayvert,  Qinghui Ge,  
 G. Gidofalvi,  M. Goldey,  J. Gomes,  C. Gonzalez-Espinoza,  S. Gulania,  
 A. Gunina,  J. A. Gyamfi,  M. W. D. Hanson-Heine,  P. H. P. Harbach,  
 A. W. Hauser,  M. F. Herbst,  M. Hernandez Vera,  M. Hodecker,  
 Z. C. Holden,  S. Houck,  Xunkun Huang,  Kerwin Hui,  B. C. Huynh,  
 K. Ikeda,  M. Ivanov,  Hyunjun Ji,  Zuxin Jin,  Hanjie Jiang,  B. Kaduk,  
 S. Kaehler,  R. Kang,  K. Khistyaev,  Jaehoon Kim,  Yongbin Kim,  
 P. Klunzinger,  Z. Koczor-Benda,  Joong Hoon Koh,  D. Kosenkov,  
 Saikiran Kotaru,  L. Koulias,  T. Kowalczyk,  C. M. Krauter,  K. Kue,  
 A. Kunitsa,  T. Kus,  A. Landau,  K. V. Lawler,  D. Lefrancois,  S. Lehtola,  
 Rain Li,  Shaozhi Li,  Yi-Pei Li,  Jiashu Liang,  M. Liebenthal,  
 Hung-Hsuan Lin,  You-Sheng Lin,  Fenglai Liu,  Kuan-Yu Liu,  
 M. Loipersberger,  A. Luenser,  C. Malbon,  A. Manjanath,  P. Manohar,  
 E. Mansoor,  S. F. Manzer,  Shan-Ping Mao,  A. V. Marenich,  T. Markovich,  
 S. Mason,  F. Matz,  S. A. Maurer,  P. F. McLaughlin,  M. F. S. J. Menger,  
 J.-M. Mewes,  S. A. Mewes,  P. Morgante,  Mohammad Mostafanejad,  
 J. W. Mullinax,  K. J. Oosterbaan,  G. Paran,  V. Parravicini,  
 Alexander C. Paul,  Suranjan K. Paul,  F. Pavosevic,  Zheng Pei,  S. Prager,  
 E. I. Proynov,  E. Ramos,  B. Rana,  A. E. Rask,  A. Rettig,  R. M. Richard,  
 F. Rob,  E. Rossomme,  T. Scheele,  M. Scheurer,  M. Schneider,  
 P. E. Schneider,  N. Sergueev,  S. M. Sharada,  Hengyuan Shen,  
 W. Skomorowski,  D. W. Small,  C. J. Stein,  Yingli Su,  Yu-Chuan Su,  
 E. J. Sundstrom,  Zhen Tao,  J. Thirman,  Hung-Yi Tsai,  T. Tsuchimochi,  
 N. M. Tubman,  C. Utku,  S. P. Veccham,  O. Vydrov,  J. Wenzel,  
 Jonathan Wong,  J. Witte,  A. Yamada,  Chou-Hsun Yang,  Kun Yao,  
 S. Yeganeh,  S. R. Yost,  A. Zech,  F. Zeller,  Igor Ying Zhang,  
 Xing Zhang,  Yu Zhang,  D. Zuev,  A. Aspuru-Guzik,  A. T. Bell,  
 N. A. Besley,  K. B. Bravaya,  B. R. Brooks,  D. Casanova,  Jeng-Da Chai,  
 Hsing-Ta Chen,  S. Coriani,  C. J. Cramer,  A. E. DePrince, III,  
 R. A. DiStasio Jr.,  A. Dreuw,  B. D. Dunietz,  T. R. Furlani,  
 W. A. Goddard III,  S. Grimme,  S. Hammes-Schiffer,  T. Head-Gordon,  
 W. J. Hehre,  Chao-Ping Hsu,  T.-C. Jagau,  Yousung Jung,  A. Klamt,  
 Jing Kong,  D. S. Lambrecht,  Xiangyuan Li,  WanZhen Liang,  N. J. Mayhall,  
 C. W. McCurdy,  J. B. Neaton,  T. Neudecker,  C. Ochsenfeld,  
 J. A. Parkhill,  R. Peverati,  V. A. Rassolov,  Haisheng Ren,  Yihan Shao,  
 L. V. Slipchenko,  R. P. Steele,  J. E. Subotnik,  A. J. W. Thom,  
 A. Tkatchenko,  D. G. Truhlar,  T. Van Voorhis,  Fan Wang,  
 T. A. Wesolowski,  K. B. Whaley,  H. L. Woodcock III,  P. M. Zimmerman,  
 S. Faraji,  P. M. W. Gill,  M. Head-Gordon,  J. M. Herbert,  A. I. Krylov

 Contributors to earlier versions of Q-Chem not listed above: 
 R. D. Adamson,  B. Austin,  R. Baer,  J. Baker,  G. J. O. Beran,  
 K. Brandhorst,  S. T. Brown,  E. F. C. Byrd,  Arup K. Chakraborty,  
 G. K. L. Chan,  Chun-Min Chang,  Yunqing Chen,  C.-L. Cheng,  
 Siu Hung Chien,  D. M. Chipman,  D. L. Crittenden,  H. Dachsel,  
 R. J. Doerksen,  A. D. Dutoi,  R. G. Edgar,  J. Fosso-Tande,  
 L. Fusti-Molnar,  D. Ghosh,  A. Ghysels,  A. Golubeva-Zadorozhnaya,  
 J. Gonthier,  M. S. Gordon,  S. R. Gwaltney,  G. Hawkins,  J. E. Herr,  
 A. Heyden,  S. Hirata,  E. G. Hohenstein,  G. Kedziora,  F. J. Keil,  
 C. Kelley,  Jihan Kim,  R. A. King,  R. Z. Khaliullin,  P. P. Korambath,  
 W. Kurlancheek,  A. Laurent,  A. M. Lee,  M. S. Lee,  S. V. Levchenko,  
 Ching Yeh Lin,  D. Liotard,  E. Livshits,  R. C. Lochan,  I. Lotan,  
 L. A. Martinez-Martinez,  P. E. Maslen,  N. Nair,  D. P. O'Neill,  
 D. Neuhauser,  E. Neuscamman,  C. M. Oana,  R. Olivares-Amaya,  R. Olson,  
 T. M. Perrine,  B. Peters,  P. A. Pieniazek,  A. Prociuk,  Y. M. Rhee,  
 J. Ritchie,  M. A. Rohrdanz,  E. Rosta,  N. J. Russ,  H. F. Schaefer III,  
 M. W. Schmidt,  N. E. Schultz,  S. Sharma,  N. Shenvi,  C. D. Sherrill,  
 A. C. Simmonett,  A. Sodt,  T. Stein,  D. Stuck,  K. S. Thanthiriwatte,  
 V. Vanovschi,  L. Vogt,  Tao Wang,  A. Warshel,  M. A. Watson,  
 C. F. Williams,  Q. Wu,  X. Xu,  Jun Yang,  W. Zhang,  Yan Zhao

   Please cite Q-Chem as follows:
  "Software for the frontiers of quantum chemistry:
   An overview of developments in the Q-Chem 5 package"
   J. Chem. Phys. 155, 084801 (2021)
   https://doi.org/10.1063/5.0055522 (open access)

 Q-Chem 6.0.0 for Intel X86 EM64T Linux

 Parts of Q-Chem use Armadillo 9.900.5 (Nocturnal Misbehaviour).
 http://arma.sourceforge.net/

 Q-Chem begins on Thu Jul 21 04:32:06 2022  

 Host: nid00551
0

     Scratch files written to /global/cscratch1/sd/ymao90/r7.00_frame_0035_almo_B3LYP_dp20220721031450//
 Processing $rem in /global/homes/y/ymao90/my_qchem/qchem_embedding_5p4/config/preferences:
 Processing $rem in /global/homes/y/ymao90/.qchemrc:

 Checking the input file for inconsistencies... 	...done.

--------------------------------------------------------------
User input:
--------------------------------------------------------------
$molecule
0 1
--
0 1
C    21.47800   17.19000   28.62500  
C    22.39300   16.22200   29.39300  
C    23.75400   16.85800   29.72300  
C    23.55400   18.24000   30.36700  
C    22.81700   19.16400   29.38300  
C    21.39400   18.63500   29.14500  
H    24.33200   16.28400   30.45700  
H    21.84000   16.06800   30.32800  
H    21.91100   17.27900   27.62100  
H    20.46400   16.77300   28.59500  
H    22.94000   18.16500   31.27300  
H    24.52200   18.70700   30.58700  
H    22.73000   20.16600   29.81900  
H    23.34300   19.32300   28.43400  
H    20.75100   18.94400   29.97800  
H    20.95300   19.15100   28.28300  
H    24.42600   16.86100   28.85600  
N    22.49200   14.92200   28.73200  
H    22.54700   14.74600   27.73600  
C    22.62900   13.79200   29.51000  
H    22.79100   12.92700   28.84100  
O    22.54300   13.73600   30.72400  
--
0 1
C    23.05300   21.09300   24.51000  
H    23.51300   20.68300   23.60700  
H    23.80500   21.70400   25.01600  
H    22.49000   20.33000   25.05400  
S    21.84000   22.25800   23.85000  
C    21.28900   22.76700   25.49400  
H    20.95800   21.93200   26.11700  
H    22.12900   23.36500   25.85600  
H    20.45200   23.46500   25.40600  
O    20.85600   21.25500   23.33400  
C    18.16700   18.76500   34.74300  
H    18.57900   18.73300   35.75500  
H    19.12600   18.58700   34.24900  
H    17.75400   19.76800   34.60500  
S    16.92000   17.46600   34.60100  
C    16.88400   17.38500   32.79600  
H    16.97700   18.39800   32.39500  
H    17.70000   16.83200   32.32500  
H    15.96400   16.89900   32.46000  
O    15.73600   18.33300   34.89600  
C    20.05300   19.56100   20.29000  
H    20.93900   20.19900   20.22500  
H    20.08100   19.09100   19.30400  
H    19.10900   20.10700   20.36300  
S    20.42700   18.43000   21.64900  
C    21.83300   17.68700   20.79200  
H    22.64600   18.41500   20.73100  
H    22.11100   16.82600   21.40500  
H    21.47300   17.34000   19.82000  
O    19.44300   17.30700   21.54300  
C    27.68000   21.41200   30.66800  
H    28.60200   21.93900   30.92700  
H    27.65400   20.35500   30.94400  
H    27.55800   21.48500   29.58400  
S    26.32200   22.30800   31.45300  
C    26.85900   21.65600   33.05000  
H    27.02300   20.58800   32.88500  
H    27.65300   22.26100   33.49500  
H    25.99100   21.66000   33.71500  
O    25.14500   21.45500   31.09400  
C    27.28400   17.67800   32.12500  
H    26.81800   18.66100   32.23300  
H    27.42900   17.38000   31.08300  
H    26.73600   17.00600   32.79000  
S    28.96600   17.77000   32.77900  
C    28.55500   18.48200   34.38800  
H    27.91400   19.34100   34.17300  
H    28.03700   17.77400   35.04000  
H    29.44800   18.86100   34.89200  
O    29.35800   19.05800   32.12400  
C    17.55900   12.27400   34.56800  
H    16.63000   12.82200   34.74100  
H    18.05200   12.11200   35.53100  
H    18.27800   12.93600   34.07900  
S    17.41900   10.75500   33.59900  
C    16.34300   9.80800    34.70000  
H    16.81200   9.82400    35.68700  
H    15.27100   10.02000   34.72200  
H    16.46600   8.75500    34.43500  
O    18.78100   10.14900   33.74400  
C    23.94900   19.82100   33.97700  
H    24.03100   19.97600   35.05600  
H    24.16200   18.77000   33.76400  
H    24.53100   20.42800   33.27900  
S    22.21900   20.16200   33.58400  
C    22.26600   21.85400   34.21600  
H    22.85900   21.86800   35.13400  
H    22.83400   22.32400   33.40900  
H    21.31700   22.36300   34.40200  
O    21.58300   19.39200   34.69900  
C    25.31600   9.47300    31.15200  
H    24.52400   10.21800   31.04000  
H    26.23400   10.02500   30.93400  
H    25.23400   8.62400    30.46900  
S    25.33700   8.90100    32.86600  
C    26.45200   7.48200    32.95700  
H    27.36800   7.86000    33.41700  
H    25.98900   6.80200    33.67500  
H    26.53300   7.00600    31.97700  
O    23.99800   8.35400    33.25200  
C    20.02600   16.80300   25.37900  
H    20.84500   17.52600   25.40400  
H    19.37200   17.04000   24.53600  
H    19.46100   16.88800   26.31100  
S    20.43100   15.04300   25.33200  
C    20.87000   15.20400   23.58600  
H    21.57700   16.01200   23.38000  
H    21.35300   14.25900   23.32300  
H    19.94800   15.32200   23.01200  
O    19.06900   14.43200   25.44200  
C    20.73400   8.06200    26.44200  
H    20.45800   8.98200    26.96300  
H    21.41300   8.28300    25.61400  
H    19.95400   7.49900    25.92300  
S    21.70900   7.07900    27.60400  
C    22.53100   5.90900    26.49900  
H    21.77700   5.43200    25.86700  
H    23.26000   6.46000    25.90000  
H    22.99900   5.15500    27.13800  
O    20.71100   6.14900    28.22100  
C    29.78200   18.84100   27.98800  
H    29.85600   19.18700   29.02200  
H    30.82600   18.61400   27.75600  
H    29.59100   19.71900   27.36600  
S    28.69200   17.40700   27.84400  
C    27.27200   18.31300   28.49700  
H    27.03400   19.17300   27.86600  
H    26.39100   17.66900   28.56200  
H    27.55400   18.66000   29.49500  
O    29.08800   16.51900   28.98200  
C    17.22300   13.08500   30.93600  
H    16.42300   12.36200   31.11100  
H    17.92500   13.19200   31.76700  
H    16.72500   14.02700   30.69200  
S    18.05200   12.57500   29.41400  
C    18.83900   14.18300   29.17000  
H    19.46800   14.19700   28.27700  
H    18.12200   15.00800   29.17300  
H    19.53800   14.29900   30.00200  
O    16.93900   12.37200   28.43300  
C    21.42200   16.21500   33.28700  
H    22.51000   16.10600   33.27500  
H    20.98500   15.68800   32.43500  
H    21.07400   17.25000   33.24300  
S    20.85200   15.47500   34.83400  
C    21.02800   13.74800   34.33200  
H    22.01400   13.32900   34.54800  
H    20.38600   13.25700   35.06700  
H    20.84400   13.52900   33.27700  
O    19.39200   15.72200   35.05800  
C    29.72700   14.31000   31.75600  
H    30.70900   14.13300   32.20200  
H    29.83400   14.84200   30.80700  
H    29.02900   14.83300   32.41400  
S    29.19100   12.62700   31.37900  
C    29.64400   11.74500   32.89000  
H    29.89400   10.68300   32.83000  
H    30.54800   12.23400   33.26000  
H    28.82100   11.91600   33.58800  
O    30.20900   12.31900   30.32500  
C    13.07400   21.72400   31.24100  
H    12.62500   20.73600   31.37100  
H    12.82600   22.39300   32.06900  
H    12.93500   22.23100   30.28300  
S    14.87900   21.63700   31.20400  
C    15.03600   21.20100   32.95100  
H    14.63000   20.18600   32.96600  
H    16.07900   21.21300   33.27700  
H    14.37100   21.74600   33.62700  
O    15.28400   23.06900   31.04800  
C    17.79800   21.20500   25.30300  
H    17.84400   22.07400   24.64100  
H    16.78400   21.11300   25.70000  
H    18.47200   21.01100   26.14100  
S    18.05500   19.74400   24.27000  
C    17.20800   20.39600   22.81300  
H    17.16800   19.71600   21.95800  
H    16.29700   20.92300   23.10700  
H    17.92900   21.19000   22.60400  
O    17.00300   18.75700   24.67100  
C    21.71200   23.30800   30.54300  
H    20.95500   22.55600   30.78100  
H    22.71000   22.93300   30.78700  
H    21.55200   24.15900   31.21000  
S    21.78000   23.88700   28.83300  
C    23.28200   24.85000   29.11600  
H    23.16100   25.66200   29.83800  
H    24.08000   24.19400   29.47600  
H    23.63200   25.28900   28.17800  
O    20.67700   24.89300   28.72300  
C    24.83700   12.76600   32.62600  
H    24.24200   12.43600   31.77100  
H    25.67500   12.07700   32.75700  
H    24.26100   12.76900   33.55500  
S    25.52800   14.40700   32.31600  
C    25.94800   14.09700   30.58600  
H    25.02300   14.27800   30.03300  
H    26.80300   14.75700   30.41500  
H    26.30800   13.07800   30.42400  
O    26.76800   14.34800   33.15300  
C    27.77700   17.90200   23.33200  
H    28.04300   16.95800   23.81500  
H    26.75400   17.83700   22.95300  
H    28.49600   17.85500   22.51000  
S    28.28200   19.17800   24.50700  
C    27.85800   20.47600   23.32400  
H    26.79500   20.71000   23.42400  
H    28.51600   21.29800   23.61800  
H    28.18400   20.27900   22.30000  
O    29.77600   19.18300   24.41400  
C    25.32700   16.02700   25.95200  
H    26.00100   16.06300   25.09200  
H    25.96700   15.84100   26.81900  
H    24.65200   15.17100   25.87200  
S    24.43700   17.59700   26.02500  
C    23.90400   17.53000   24.30000  
H    23.98000   18.45300   23.72000  
H    24.53700   16.86800   23.70300  
H    22.82400   17.41700   24.17200  
O    25.56000   18.58500   25.95800  
C    17.47300   10.41000   25.63100  
H    16.70500   9.94400    25.00700  
H    17.56400   9.74900    26.49700  
H    17.21700   11.38600   26.05100  
S    18.98200   10.48600   24.64000  
C    18.21200   11.44200   23.31400  
H    18.09900   12.47300   23.65800  
H    18.78700   11.37000   22.38800  
H    17.27800   10.91100   23.11500  
O    18.98900   9.10900    24.05200  
C    20.73000   8.35000    30.88500  
H    21.18600   7.84700    31.74200  
H    19.74700   8.74700    31.14900  
H    20.54600   7.63100    30.08300  
S    21.69300   9.77400    30.32500  
C    21.54300   10.60200   31.92400  
H    22.19600   10.16100   32.68200  
H    21.87400   11.63800   31.81500  
H    20.52400   10.62500   32.31700  
O    20.73600   10.56700   29.49000  
C    15.77500   18.95900   28.27300  
H    15.41000   19.24400   27.28300  
H    14.97400   18.51500   28.87100  
H    16.34200   19.80100   28.67800  
S    16.95600   17.65900   27.84600  
C    15.92800   16.18400   27.66500  
H    15.48700   16.23900   26.66600  
H    16.60500   15.32800   27.71600  
H    15.16000   16.21900   28.44200  
O    17.70800   17.30600   29.09100  
C    26.38900   14.24900   22.84400  
H    25.83400   15.00900   23.39900  
H    26.55300   13.44300   23.56500  
H    27.27900   14.70100   22.39900  
S    25.20500   13.59200   21.64700  
C    25.08400   15.18100   20.79400  
H    24.38400   15.24200   19.95700  
H    24.87000   15.96600   21.52400  
H    25.98200   15.33000   20.18800  
O    24.04000   13.58700   22.58800  
C    25.18700   10.63800   37.56300  
H    26.22700   10.54000   37.88600  
H    24.75000   11.43000   38.17700  
H    24.67900   9.67300    37.62000  
S    24.99000   11.22000   35.86300  
C    26.32700   12.38100   36.22200  
H    26.37000   13.12700   35.42400  
H    26.19300   12.87400   37.18800  
H    27.25400   11.80200   36.23000  
O    23.78600   12.09900   36.00200  
C    25.19500   21.94900   27.48800  
H    25.31400   21.59500   28.51500  
H    24.16400   22.26300   27.30200  
H    25.31000   21.08400   26.82900  
S    26.39000   23.22900   27.04200  
C    27.91400   22.27200   26.87700  
H    28.67900   22.98900   27.18700  
H    28.09400   21.48800   27.61700  
H    28.03800   22.04900   25.81400  
O    26.60600   23.93400   28.34400  
C    27.78000   11.58300   26.05800  
H    28.61200   12.01000   25.49300  
H    28.16000   10.85400   26.77800  
H    27.05800   11.01000   25.47000  
S    26.75600   12.69000   27.05400  
C    28.26500   13.42700   27.72000  
H    28.80000   13.92300   26.90600  
H    28.06900   14.26900   28.38800  
H    28.83600   12.54600   28.02600  
O    26.04700   11.78000   28.00900  
C    22.35900   10.97400   26.67800  
H    23.15300   11.22300   27.38700  
H    21.39300   11.10000   27.17400  
H    22.48800   9.92700    26.39300  
S    22.73400   12.12600   25.33800  
C    24.43000   11.56900   25.06000  
H    24.79700   10.78900   25.73300  
H    24.57100   11.05800   24.10400  
H    25.09500   12.43500   25.02300  
O    22.84700   13.38100   26.14600  
$end

$rem
JOBTYPE  SP
METHOD  B3LYP
BASIS  6-31+G(D)
SYMMETRY  FALSE
SYM_IGNORE  TRUE
MEM_TOTAL  12000
MEM_STATIC  4000
BASIS_LIN_DEP_THRESH  6
THRESH  14
SCF_CONVERGENCE  8
FD_MAT_VEC_PROD  FALSE
XC_GRID  000075000302
NL_GRID  1
MAX_SCF_CYCLES  200
FRGM_METHOD  STOLL
SCFMI_MODE  1
ALMO_EFIELD  TRUE
$end

$rem_frgm
SCF_CONVERGENCE  4
$end


--------------------------------------------------------------
 ----------------------------------------------------------------
             Standard Nuclear Orientation (Angstroms)
    I     Atom           X                Y                Z
 ----------------------------------------------------------------
    1      C      21.4780000000    17.1900000000    28.6250000000
    2      C      22.3930000000    16.2220000000    29.3930000000
    3      C      23.7540000000    16.8580000000    29.7230000000
    4      C      23.5540000000    18.2400000000    30.3670000000
    5      C      22.8170000000    19.1640000000    29.3830000000
    6      C      21.3940000000    18.6350000000    29.1450000000
    7      H      24.3320000000    16.2840000000    30.4570000000
    8      H      21.8400000000    16.0680000000    30.3280000000
    9      H      21.9110000000    17.2790000000    27.6210000000
   10      H      20.4640000000    16.7730000000    28.5950000000
   11      H      22.9400000000    18.1650000000    31.2730000000
   12      H      24.5220000000    18.7070000000    30.5870000000
   13      H      22.7300000000    20.1660000000    29.8190000000
   14      H      23.3430000000    19.3230000000    28.4340000000
   15      H      20.7510000000    18.9440000000    29.9780000000
   16      H      20.9530000000    19.1510000000    28.2830000000
   17      H      24.4260000000    16.8610000000    28.8560000000
   18      N      22.4920000000    14.9220000000    28.7320000000
   19      H      22.5470000000    14.7460000000    27.7360000000
   20      C      22.6290000000    13.7920000000    29.5100000000
   21      H      22.7910000000    12.9270000000    28.8410000000
   22      O      22.5430000000    13.7360000000    30.7240000000
   23      C      23.0530000000    21.0930000000    24.5100000000
   24      H      23.5130000000    20.6830000000    23.6070000000
   25      H      23.8050000000    21.7040000000    25.0160000000
   26      H      22.4900000000    20.3300000000    25.0540000000
   27      S      21.8400000000    22.2580000000    23.8500000000
   28      C      21.2890000000    22.7670000000    25.4940000000
   29      H      20.9580000000    21.9320000000    26.1170000000
   30      H      22.1290000000    23.3650000000    25.8560000000
   31      H      20.4520000000    23.4650000000    25.4060000000
   32      O      20.8560000000    21.2550000000    23.3340000000
   33      C      18.1670000000    18.7650000000    34.7430000000
   34      H      18.5790000000    18.7330000000    35.7550000000
   35      H      19.1260000000    18.5870000000    34.2490000000
   36      H      17.7540000000    19.7680000000    34.6050000000
   37      S      16.9200000000    17.4660000000    34.6010000000
   38      C      16.8840000000    17.3850000000    32.7960000000
   39      H      16.9770000000    18.3980000000    32.3950000000
   40      H      17.7000000000    16.8320000000    32.3250000000
   41      H      15.9640000000    16.8990000000    32.4600000000
   42      O      15.7360000000    18.3330000000    34.8960000000
   43      C      20.0530000000    19.5610000000    20.2900000000
   44      H      20.9390000000    20.1990000000    20.2250000000
   45      H      20.0810000000    19.0910000000    19.3040000000
   46      H      19.1090000000    20.1070000000    20.3630000000
   47      S      20.4270000000    18.4300000000    21.6490000000
   48      C      21.8330000000    17.6870000000    20.7920000000
   49      H      22.6460000000    18.4150000000    20.7310000000
   50      H      22.1110000000    16.8260000000    21.4050000000
   51      H      21.4730000000    17.3400000000    19.8200000000
   52      O      19.4430000000    17.3070000000    21.5430000000
   53      C      27.6800000000    21.4120000000    30.6680000000
   54      H      28.6020000000    21.9390000000    30.9270000000
   55      H      27.6540000000    20.3550000000    30.9440000000
   56      H      27.5580000000    21.4850000000    29.5840000000
   57      S      26.3220000000    22.3080000000    31.4530000000
   58      C      26.8590000000    21.6560000000    33.0500000000
   59      H      27.0230000000    20.5880000000    32.8850000000
   60      H      27.6530000000    22.2610000000    33.4950000000
   61      H      25.9910000000    21.6600000000    33.7150000000
   62      O      25.1450000000    21.4550000000    31.0940000000
   63      C      27.2840000000    17.6780000000    32.1250000000
   64      H      26.8180000000    18.6610000000    32.2330000000
   65      H      27.4290000000    17.3800000000    31.0830000000
   66      H      26.7360000000    17.0060000000    32.7900000000
   67      S      28.9660000000    17.7700000000    32.7790000000
   68      C      28.5550000000    18.4820000000    34.3880000000
   69      H      27.9140000000    19.3410000000    34.1730000000
   70      H      28.0370000000    17.7740000000    35.0400000000
   71      H      29.4480000000    18.8610000000    34.8920000000
   72      O      29.3580000000    19.0580000000    32.1240000000
   73      C      17.5590000000    12.2740000000    34.5680000000
   74      H      16.6300000000    12.8220000000    34.7410000000
   75      H      18.0520000000    12.1120000000    35.5310000000
   76      H      18.2780000000    12.9360000000    34.0790000000
   77      S      17.4190000000    10.7550000000    33.5990000000
   78      C      16.3430000000     9.8080000000    34.7000000000
   79      H      16.8120000000     9.8240000000    35.6870000000
   80      H      15.2710000000    10.0200000000    34.7220000000
   81      H      16.4660000000     8.7550000000    34.4350000000
   82      O      18.7810000000    10.1490000000    33.7440000000
   83      C      23.9490000000    19.8210000000    33.9770000000
   84      H      24.0310000000    19.9760000000    35.0560000000
   85      H      24.1620000000    18.7700000000    33.7640000000
   86      H      24.5310000000    20.4280000000    33.2790000000
   87      S      22.2190000000    20.1620000000    33.5840000000
   88      C      22.2660000000    21.8540000000    34.2160000000
   89      H      22.8590000000    21.8680000000    35.1340000000
   90      H      22.8340000000    22.3240000000    33.4090000000
   91      H      21.3170000000    22.3630000000    34.4020000000
   92      O      21.5830000000    19.3920000000    34.6990000000
   93      C      25.3160000000     9.4730000000    31.1520000000
   94      H      24.5240000000    10.2180000000    31.0400000000
   95      H      26.2340000000    10.0250000000    30.9340000000
   96      H      25.2340000000     8.6240000000    30.4690000000
   97      S      25.3370000000     8.9010000000    32.8660000000
   98      C      26.4520000000     7.4820000000    32.9570000000
   99      H      27.3680000000     7.8600000000    33.4170000000
  100      H      25.9890000000     6.8020000000    33.6750000000
  101      H      26.5330000000     7.0060000000    31.9770000000
  102      O      23.9980000000     8.3540000000    33.2520000000
  103      C      20.0260000000    16.8030000000    25.3790000000
  104      H      20.8450000000    17.5260000000    25.4040000000
  105      H      19.3720000000    17.0400000000    24.5360000000
  106      H      19.4610000000    16.8880000000    26.3110000000
  107      S      20.4310000000    15.0430000000    25.3320000000
  108      C      20.8700000000    15.2040000000    23.5860000000
  109      H      21.5770000000    16.0120000000    23.3800000000
  110      H      21.3530000000    14.2590000000    23.3230000000
  111      H      19.9480000000    15.3220000000    23.0120000000
  112      O      19.0690000000    14.4320000000    25.4420000000
  113      C      20.7340000000     8.0620000000    26.4420000000
  114      H      20.4580000000     8.9820000000    26.9630000000
  115      H      21.4130000000     8.2830000000    25.6140000000
  116      H      19.9540000000     7.4990000000    25.9230000000
  117      S      21.7090000000     7.0790000000    27.6040000000
  118      C      22.5310000000     5.9090000000    26.4990000000
  119      H      21.7770000000     5.4320000000    25.8670000000
  120      H      23.2600000000     6.4600000000    25.9000000000
  121      H      22.9990000000     5.1550000000    27.1380000000
  122      O      20.7110000000     6.1490000000    28.2210000000
  123      C      29.7820000000    18.8410000000    27.9880000000
  124      H      29.8560000000    19.1870000000    29.0220000000
  125      H      30.8260000000    18.6140000000    27.7560000000
  126      H      29.5910000000    19.7190000000    27.3660000000
  127      S      28.6920000000    17.4070000000    27.8440000000
  128      C      27.2720000000    18.3130000000    28.4970000000
  129      H      27.0340000000    19.1730000000    27.8660000000
  130      H      26.3910000000    17.6690000000    28.5620000000
  131      H      27.5540000000    18.6600000000    29.4950000000
  132      O      29.0880000000    16.5190000000    28.9820000000
  133      C      17.2230000000    13.0850000000    30.9360000000
  134      H      16.4230000000    12.3620000000    31.1110000000
  135      H      17.9250000000    13.1920000000    31.7670000000
  136      H      16.7250000000    14.0270000000    30.6920000000
  137      S      18.0520000000    12.5750000000    29.4140000000
  138      C      18.8390000000    14.1830000000    29.1700000000
  139      H      19.4680000000    14.1970000000    28.2770000000
  140      H      18.1220000000    15.0080000000    29.1730000000
  141      H      19.5380000000    14.2990000000    30.0020000000
  142      O      16.9390000000    12.3720000000    28.4330000000
  143      C      21.4220000000    16.2150000000    33.2870000000
  144      H      22.5100000000    16.1060000000    33.2750000000
  145      H      20.9850000000    15.6880000000    32.4350000000
  146      H      21.0740000000    17.2500000000    33.2430000000
  147      S      20.8520000000    15.4750000000    34.8340000000
  148      C      21.0280000000    13.7480000000    34.3320000000
  149      H      22.0140000000    13.3290000000    34.5480000000
  150      H      20.3860000000    13.2570000000    35.0670000000
  151      H      20.8440000000    13.5290000000    33.2770000000
  152      O      19.3920000000    15.7220000000    35.0580000000
  153      C      29.7270000000    14.3100000000    31.7560000000
  154      H      30.7090000000    14.1330000000    32.2020000000
  155      H      29.8340000000    14.8420000000    30.8070000000
  156      H      29.0290000000    14.8330000000    32.4140000000
  157      S      29.1910000000    12.6270000000    31.3790000000
  158      C      29.6440000000    11.7450000000    32.8900000000
  159      H      29.8940000000    10.6830000000    32.8300000000
  160      H      30.5480000000    12.2340000000    33.2600000000
  161      H      28.8210000000    11.9160000000    33.5880000000
  162      O      30.2090000000    12.3190000000    30.3250000000
  163      C      13.0740000000    21.7240000000    31.2410000000
  164      H      12.6250000000    20.7360000000    31.3710000000
  165      H      12.8260000000    22.3930000000    32.0690000000
  166      H      12.9350000000    22.2310000000    30.2830000000
  167      S      14.8790000000    21.6370000000    31.2040000000
  168      C      15.0360000000    21.2010000000    32.9510000000
  169      H      14.6300000000    20.1860000000    32.9660000000
  170      H      16.0790000000    21.2130000000    33.2770000000
  171      H      14.3710000000    21.7460000000    33.6270000000
  172      O      15.2840000000    23.0690000000    31.0480000000
  173      C      17.7980000000    21.2050000000    25.3030000000
  174      H      17.8440000000    22.0740000000    24.6410000000
  175      H      16.7840000000    21.1130000000    25.7000000000
  176      H      18.4720000000    21.0110000000    26.1410000000
  177      S      18.0550000000    19.7440000000    24.2700000000
  178      C      17.2080000000    20.3960000000    22.8130000000
  179      H      17.1680000000    19.7160000000    21.9580000000
  180      H      16.2970000000    20.9230000000    23.1070000000
  181      H      17.9290000000    21.1900000000    22.6040000000
  182      O      17.0030000000    18.7570000000    24.6710000000
  183      C      21.7120000000    23.3080000000    30.5430000000
  184      H      20.9550000000    22.5560000000    30.7810000000
  185      H      22.7100000000    22.9330000000    30.7870000000
  186      H      21.5520000000    24.1590000000    31.2100000000
  187      S      21.7800000000    23.8870000000    28.8330000000
  188      C      23.2820000000    24.8500000000    29.1160000000
  189      H      23.1610000000    25.6620000000    29.8380000000
  190      H      24.0800000000    24.1940000000    29.4760000000
  191      H      23.6320000000    25.2890000000    28.1780000000
  192      O      20.6770000000    24.8930000000    28.7230000000
  193      C      24.8370000000    12.7660000000    32.6260000000
  194      H      24.2420000000    12.4360000000    31.7710000000
  195      H      25.6750000000    12.0770000000    32.7570000000
  196      H      24.2610000000    12.7690000000    33.5550000000
  197      S      25.5280000000    14.4070000000    32.3160000000
  198      C      25.9480000000    14.0970000000    30.5860000000
  199      H      25.0230000000    14.2780000000    30.0330000000
  200      H      26.8030000000    14.7570000000    30.4150000000
  201      H      26.3080000000    13.0780000000    30.4240000000
  202      O      26.7680000000    14.3480000000    33.1530000000
  203      C      27.7770000000    17.9020000000    23.3320000000
  204      H      28.0430000000    16.9580000000    23.8150000000
  205      H      26.7540000000    17.8370000000    22.9530000000
  206      H      28.4960000000    17.8550000000    22.5100000000
  207      S      28.2820000000    19.1780000000    24.5070000000
  208      C      27.8580000000    20.4760000000    23.3240000000
  209      H      26.7950000000    20.7100000000    23.4240000000
  210      H      28.5160000000    21.2980000000    23.6180000000
  211      H      28.1840000000    20.2790000000    22.3000000000
  212      O      29.7760000000    19.1830000000    24.4140000000
  213      C      25.3270000000    16.0270000000    25.9520000000
  214      H      26.0010000000    16.0630000000    25.0920000000
  215      H      25.9670000000    15.8410000000    26.8190000000
  216      H      24.6520000000    15.1710000000    25.8720000000
  217      S      24.4370000000    17.5970000000    26.0250000000
  218      C      23.9040000000    17.5300000000    24.3000000000
  219      H      23.9800000000    18.4530000000    23.7200000000
  220      H      24.5370000000    16.8680000000    23.7030000000
  221      H      22.8240000000    17.4170000000    24.1720000000
  222      O      25.5600000000    18.5850000000    25.9580000000
  223      C      17.4730000000    10.4100000000    25.6310000000
  224      H      16.7050000000     9.9440000000    25.0070000000
  225      H      17.5640000000     9.7490000000    26.4970000000
  226      H      17.2170000000    11.3860000000    26.0510000000
  227      S      18.9820000000    10.4860000000    24.6400000000
  228      C      18.2120000000    11.4420000000    23.3140000000
  229      H      18.0990000000    12.4730000000    23.6580000000
  230      H      18.7870000000    11.3700000000    22.3880000000
  231      H      17.2780000000    10.9110000000    23.1150000000
  232      O      18.9890000000     9.1090000000    24.0520000000
  233      C      20.7300000000     8.3500000000    30.8850000000
  234      H      21.1860000000     7.8470000000    31.7420000000
  235      H      19.7470000000     8.7470000000    31.1490000000
  236      H      20.5460000000     7.6310000000    30.0830000000
  237      S      21.6930000000     9.7740000000    30.3250000000
  238      C      21.5430000000    10.6020000000    31.9240000000
  239      H      22.1960000000    10.1610000000    32.6820000000
  240      H      21.8740000000    11.6380000000    31.8150000000
  241      H      20.5240000000    10.6250000000    32.3170000000
  242      O      20.7360000000    10.5670000000    29.4900000000
  243      C      15.7750000000    18.9590000000    28.2730000000
  244      H      15.4100000000    19.2440000000    27.2830000000
  245      H      14.9740000000    18.5150000000    28.8710000000
  246      H      16.3420000000    19.8010000000    28.6780000000
  247      S      16.9560000000    17.6590000000    27.8460000000
  248      C      15.9280000000    16.1840000000    27.6650000000
  249      H      15.4870000000    16.2390000000    26.6660000000
  250      H      16.6050000000    15.3280000000    27.7160000000
  251      H      15.1600000000    16.2190000000    28.4420000000
  252      O      17.7080000000    17.3060000000    29.0910000000
  253      C      26.3890000000    14.2490000000    22.8440000000
  254      H      25.8340000000    15.0090000000    23.3990000000
  255      H      26.5530000000    13.4430000000    23.5650000000
  256      H      27.2790000000    14.7010000000    22.3990000000
  257      S      25.2050000000    13.5920000000    21.6470000000
  258      C      25.0840000000    15.1810000000    20.7940000000
  259      H      24.3840000000    15.2420000000    19.9570000000
  260      H      24.8700000000    15.9660000000    21.5240000000
  261      H      25.9820000000    15.3300000000    20.1880000000
  262      O      24.0400000000    13.5870000000    22.5880000000
  263      C      25.1870000000    10.6380000000    37.5630000000
  264      H      26.2270000000    10.5400000000    37.8860000000
  265      H      24.7500000000    11.4300000000    38.1770000000
  266      H      24.6790000000     9.6730000000    37.6200000000
  267      S      24.9900000000    11.2200000000    35.8630000000
  268      C      26.3270000000    12.3810000000    36.2220000000
  269      H      26.3700000000    13.1270000000    35.4240000000
  270      H      26.1930000000    12.8740000000    37.1880000000
  271      H      27.2540000000    11.8020000000    36.2300000000
  272      O      23.7860000000    12.0990000000    36.0020000000
  273      C      25.1950000000    21.9490000000    27.4880000000
  274      H      25.3140000000    21.5950000000    28.5150000000
  275      H      24.1640000000    22.2630000000    27.3020000000
  276      H      25.3100000000    21.0840000000    26.8290000000
  277      S      26.3900000000    23.2290000000    27.0420000000
  278      C      27.9140000000    22.2720000000    26.8770000000
  279      H      28.6790000000    22.9890000000    27.1870000000
  280      H      28.0940000000    21.4880000000    27.6170000000
  281      H      28.0380000000    22.0490000000    25.8140000000
  282      O      26.6060000000    23.9340000000    28.3440000000
  283      C      27.7800000000    11.5830000000    26.0580000000
  284      H      28.6120000000    12.0100000000    25.4930000000
  285      H      28.1600000000    10.8540000000    26.7780000000
  286      H      27.0580000000    11.0100000000    25.4700000000
  287      S      26.7560000000    12.6900000000    27.0540000000
  288      C      28.2650000000    13.4270000000    27.7200000000
  289      H      28.8000000000    13.9230000000    26.9060000000
  290      H      28.0690000000    14.2690000000    28.3880000000
  291      H      28.8360000000    12.5460000000    28.0260000000
  292      O      26.0470000000    11.7800000000    28.0090000000
  293      C      22.3590000000    10.9740000000    26.6780000000
  294      H      23.1530000000    11.2230000000    27.3870000000
  295      H      21.3930000000    11.1000000000    27.1740000000
  296      H      22.4880000000     9.9270000000    26.3930000000
  297      S      22.7340000000    12.1260000000    25.3380000000
  298      C      24.4300000000    11.5690000000    25.0600000000
  299      H      24.7970000000    10.7890000000    25.7330000000
  300      H      24.5710000000    11.0580000000    24.1040000000
  301      H      25.0950000000    12.4350000000    25.0230000000
  302      O      22.8470000000    13.3810000000    26.1460000000
 ----------------------------------------------------------------
 Nuclear Repulsion Energy =       51066.83713246 hartrees
 There are      623 alpha and      623 beta electrons
 Requested basis set is 6-31+G(d)
 There are 995 shells and 2773 basis functions

 Total QAlloc Memory Limit  12000 MB
 Mega-Array Size      3911 MB
 MEM_STATIC part      4000 MB

 A cutoff of  1.0D-14 yielded 184230 shell pairs
 There are   1610065 function pairs
 Smallest overlap matrix eigenvalue = 3.81E-07
 Linear dependence detected in AO basis
 Tighter screening thresholds may be required for diffuse basis sets
 Use S2THRESH > 14 and THRESH = 14 in case of SCF convergence issues
 Number of orthogonalized atomic orbitals = 2771
 Maximum deviation from orthogonality = 1.332E-10

 Scale SEOQF with 1.000000e-03/1.000000e-03/1.000000e-03

 Standard Electronic Orientation quadrupole field applied
 Nucleus-field energy     =    -0.0000006586 hartrees
 Attempting to make child job directory: /global/cscratch1/sd/ymao90/r7.00_frame_0035_almo_B3LYP_dp20220721031450//Frg1/
 Attempting to make child job directory: /global/cscratch1/sd/ymao90/r7.00_frame_0035_almo_B3LYP_dp20220721031450//Frg2/
 Creating input file /global/cscratch1/sd/ymao90/r7.00_frame_0035_almo_B3LYP_dp20220721031450/Frg1.input
 using default PutDataFrgm: nothing
 calling putenv with: QCSCRATCH=/global/cscratch1/sd/ymao90/r7.00_frame_0035_almo_B3LYP_dp20220721031450/ 
 Spawning Job For Fragment 0
 Done Job For Fragment 0
 calling putenv with: QCSCRATCH=/global/cscratch1/sd/ymao90 
 calling putenv with: QCTHREADS=16 
 Creating input file /global/cscratch1/sd/ymao90/r7.00_frame_0035_almo_B3LYP_dp20220721031450/Frg2.input
 using default PutDataFrgm: nothing
 calling putenv with: QCSCRATCH=/global/cscratch1/sd/ymao90/r7.00_frame_0035_almo_B3LYP_dp20220721031450/ 
 Spawning Job For Fragment 1
 Done Job For Fragment 1
 calling putenv with: QCSCRATCH=/global/cscratch1/sd/ymao90 
 calling putenv with: QCTHREADS=16 
 Time for running child jobs:  CPU 0.47 s  wall 15647.16 s

 -----------------------------------------------------------------------
  General SCF calculation program by
  Eric Jon Sundstrom, Paul Horn, Yuezhi Mao, Dmitri Zuev, Alec White,
  David Stuck, Shaama M.S., Shane Yost, Joonho Lee, David Small,
  Daniel Levine, Susi Lehtola, Hugh Burton, Evgeny Epifanovsky,
  Bang C. Huynh
 -----------------------------------------------------------------------
Performing Restricted Closed Shell SCFMI
Doing General SCFMI
 Exchange:     0.2000 Hartree-Fock + 0.0800 Slater + 0.7200 B88
 Correlation:  0.1900 VWN1RPA + 0.8100 LYP
 Using Euler-Maclaurin-Lebedev (75,302) quadrature formula
performing fock build before subrot guess so that all methods have access
 using 16 threads for integral computing
 -------------------------------------------------------
 OpenMP Integral computing Module                
 Release: version 1.0, May 2013, Q-Chem Inc. Pittsburgh 
 -------------------------------------------------------
Printing subrot_rss_gen Method Specification:
Occupied Subspace Method is 0
Virtual Subspace Method is 0
Energy prior to optimization (guess energy) = -15893.839555137522
Begin Timing: Total SCF Calculation
begin iterations for algorithm: DIIS         
the SCF tolerance is set to 1.00e-08
    1  -15893.8395551375      3.41e-05     00000 
    2  -15893.8473888109      2.45e-05     00000 
    3  -15893.8488176025      1.72e-05     00000 
    4  -15893.8495635466      7.09e-06     00000 
    5  -15893.8497005287      2.85e-06     00000 
    6  -15893.8497255257      1.62e-06     00000 
    7  -15893.8497325776      1.25e-06     00000 
    8  -15893.8497369592      6.84e-07     00000 
    9  -15893.8497384002      4.05e-07     00000 
   10  -15893.8497388773      2.91e-07     00000 
   11  -15893.8497390603      2.30e-07     00000 
   12  -15893.8497391851      1.34e-07     00000 
   13  -15893.8497392285      7.86e-08     00000 
   14  -15893.8497392440      4.98e-08     00000 
   15  -15893.8497392489      3.81e-08     00000 
   16  -15893.8497392526      2.12e-08     00000 
   17  -15893.8497392542      1.13e-08     00000 
   18  -15893.8497392547      7.20e-09     00000 Convergence criterion met
write pseudocanon occs and virts to disk
write pseudocanon orbital energies to disk
Timing for Total SCF: 21329.00s (wall), 289914.81s (cpu)
SCFMI Energy  -15893.8497392547
<S^2>            0.00000
 Total energy in the final basis set =   -15893.8497392547
    ==================================================
        The end of Object-Oriented SCFman: SCFMI      
    ==================================================

 --------------------------------------------------------------

                    Orbital Energies (a.u.)
 --------------------------------------------------------------

 Alpha MOs
 -- Occupied --
-89.0446 -89.0428 -89.0298 -89.0298 -89.0266 -89.0233 -89.0195 -89.0137
-89.0133 -89.0131 -89.0072 -89.0062 -89.0036 -89.0022 -88.9991 -88.9935
-88.9929 -88.9916 -88.9883 -88.9804 -88.9796 -88.9794 -88.9729 -88.9720
-88.9703 -88.9661 -88.9610 -88.9577 -19.1530 -19.1471 -19.1426 -19.1426
-19.1420 -19.1406 -19.1383 -19.1326 -19.1325 -19.1246 -19.1216 -19.1180
-19.1169 -19.1162 -19.1122 -19.1117 -19.1107 -19.1045 -19.1043 -19.1042
-19.0985 -19.0960 -19.0960 -19.0894 -19.0877 -19.0829 -19.0823 -19.0810
-19.0681 -14.3636 -10.2864 -10.2584 -10.2568 -10.2553 -10.2532 -10.2469
-10.2462 -10.2449 -10.2442 -10.2432 -10.2382 -10.2358 -10.2345 -10.2333
-10.2304 -10.2304 -10.2299 -10.2299 -10.2293 -10.2266 -10.2265 -10.2259
-10.2241 -10.2235 -10.2218 -10.2212 -10.2205 -10.2202 -10.2198 -10.2169
-10.2169 -10.2161 -10.2135 -10.2117 -10.2104 -10.2072 -10.2066 -10.2063
-10.2057 -10.2054 -10.2046 -10.2003 -10.1987 -10.1976 -10.1973 -10.1962
-10.1943 -10.1939 -10.1929 -10.1924 -10.1917 -10.1880 -10.1877 -10.1870
-10.1866 -10.1856 -10.1854 -10.1778 -10.1746 -10.1737 -10.1698 -10.1667
-10.1626  -8.0896  -8.0885  -8.0761  -8.0752  -8.0724  -8.0681  -8.0656
 -8.0596  -8.0593  -8.0586  -8.0532  -8.0519  -8.0484  -8.0482  -8.0454
 -8.0403  -8.0389  -8.0377  -8.0340  -8.0269  -8.0262  -8.0252  -8.0188
 -8.0187  -8.0161  -8.0116  -8.0064  -8.0033  -6.0541  -6.0527  -6.0526
 -6.0516  -6.0471  -6.0463  -6.0403  -6.0393  -6.0390  -6.0383  -6.0367
 -6.0357  -6.0337  -6.0328  -6.0325  -6.0312  -6.0300  -6.0298  -6.0283
 -6.0257  -6.0238  -6.0237  -6.0232  -6.0229  -6.0227  -6.0223  -6.0218
 -6.0176  -6.0172  -6.0169  -6.0162  -6.0162  -6.0160  -6.0151  -6.0130
 -6.0127  -6.0114  -6.0111  -6.0108  -6.0096  -6.0095  -6.0081  -6.0057
 -6.0055  -6.0047  -6.0037  -6.0034  -6.0032  -6.0020  -6.0020  -6.0009
 -5.9983  -5.9973  -5.9970  -5.9961  -5.9951  -5.9912  -5.9911  -5.9904
 -5.9901  -5.9894  -5.9892  -5.9882  -5.9843  -5.9837  -5.9833  -5.9832
 -5.9827  -5.9819  -5.9819  -5.9805  -5.9791  -5.9760  -5.9758  -5.9757
 -5.9746  -5.9739  -5.9707  -5.9696  -5.9694  -5.9678  -5.9664  -5.9639
 -5.9603  -1.0665  -1.0620  -1.0546  -1.0522  -1.0501  -1.0462  -1.0460
 -1.0457  -1.0436  -1.0362  -1.0334  -1.0331  -1.0304  -1.0262  -1.0239
 -1.0234  -1.0182  -1.0155  -1.0111  -1.0111  -1.0089  -1.0038  -1.0013
 -1.0012  -1.0011  -0.9936  -0.9920  -0.9860  -0.9826  -0.9276  -0.8396
 -0.8371  -0.8348  -0.8341  -0.8289  -0.8260  -0.8237  -0.8197  -0.8173
 -0.8163  -0.8096  -0.8072  -0.8049  -0.8041  -0.8034  -0.8008  -0.8001
 -0.7986  -0.7945  -0.7866  -0.7863  -0.7833  -0.7803  -0.7801  -0.7790
 -0.7689  -0.7687  -0.7651  -0.7650  -0.7594  -0.7581  -0.7578  -0.7565
 -0.7551  -0.7509  -0.7487  -0.7446  -0.7433  -0.7410  -0.7407  -0.7375
 -0.7367  -0.7346  -0.7273  -0.7272  -0.7258  -0.7248  -0.7245  -0.7174
 -0.7162  -0.7142  -0.7136  -0.7090  -0.7052  -0.7046  -0.6909  -0.6893
 -0.6879  -0.6774  -0.6645  -0.6572  -0.6468  -0.6421  -0.6412  -0.6402
 -0.6371  -0.6334  -0.6289  -0.6267  -0.6248  -0.6243  -0.6192  -0.6190
 -0.6186  -0.6152  -0.6132  -0.6089  -0.6069  -0.6049  -0.6039  -0.5965
 -0.5918  -0.5905  -0.5895  -0.5874  -0.5852  -0.5809  -0.5770  -0.5753
 -0.5732  -0.5724  -0.5342  -0.5293  -0.5246  -0.5184  -0.5141  -0.5133
 -0.5093  -0.5089  -0.5064  -0.5048  -0.5022  -0.5002  -0.4982  -0.4968
 -0.4960  -0.4944  -0.4936  -0.4921  -0.4908  -0.4906  -0.4901  -0.4896
 -0.4889  -0.4883  -0.4877  -0.4862  -0.4857  -0.4842  -0.4833  -0.4819
 -0.4813  -0.4807  -0.4797  -0.4791  -0.4783  -0.4780  -0.4771  -0.4764
 -0.4760  -0.4750  -0.4742  -0.4738  -0.4735  -0.4730  -0.4716  -0.4708
 -0.4697  -0.4681  -0.4668  -0.4661  -0.4659  -0.4653  -0.4645  -0.4640
 -0.4639  -0.4638  -0.4635  -0.4631  -0.4627  -0.4612  -0.4607  -0.4585
 -0.4582  -0.4579  -0.4567  -0.4562  -0.4554  -0.4551  -0.4549  -0.4546
 -0.4542  -0.4540  -0.4536  -0.4526  -0.4505  -0.4497  -0.4481  -0.4475
 -0.4474  -0.4461  -0.4454  -0.4450  -0.4448  -0.4440  -0.4433  -0.4427
 -0.4423  -0.4420  -0.4401  -0.4399  -0.4399  -0.4394  -0.4386  -0.4381
 -0.4371  -0.4359  -0.4352  -0.4350  -0.4345  -0.4324  -0.4319  -0.4316
 -0.4309  -0.4299  -0.4287  -0.4285  -0.4273  -0.4261  -0.4240  -0.4239
 -0.4234  -0.4230  -0.4224  -0.4222  -0.4217  -0.4211  -0.4207  -0.4204
 -0.4190  -0.4189  -0.4174  -0.4172  -0.4159  -0.4157  -0.4151  -0.4148
 -0.4145  -0.4130  -0.4128  -0.4121  -0.4117  -0.4115  -0.4112  -0.4101
 -0.4078  -0.4076  -0.4067  -0.4059  -0.4051  -0.4045  -0.4042  -0.4035
 -0.4031  -0.4026  -0.4022  -0.4015  -0.4010  -0.4001  -0.3995  -0.3989
 -0.3979  -0.3973  -0.3965  -0.3958  -0.3955  -0.3949  -0.3945  -0.3940
 -0.3922  -0.3921  -0.3915  -0.3903  -0.3898  -0.3870  -0.3868  -0.3863
 -0.3849  -0.3832  -0.3823  -0.3810  -0.3805  -0.3797  -0.3788  -0.3781
 -0.3774  -0.3748  -0.3747  -0.3745  -0.3739  -0.3736  -0.3715  -0.3705
 -0.3688  -0.3672  -0.3665  -0.3662  -0.3653  -0.3641  -0.3621  -0.3616
 -0.3599  -0.3571  -0.3563  -0.3556  -0.3533  -0.3515  -0.3511  -0.3467
 -0.3456  -0.3440  -0.3415  -0.3402  -0.3386  -0.3365  -0.3348  -0.3338
 -0.3289  -0.3244  -0.3201  -0.3152  -0.3145  -0.3074  -0.3068  -0.3024
 -0.3019  -0.3010  -0.2989  -0.2984  -0.2951  -0.2870  -0.2849  -0.2833
 -0.2825  -0.2802  -0.2781  -0.2755  -0.2753  -0.2738  -0.2713  -0.2702
 -0.2694  -0.2676  -0.2673  -0.2673  -0.2669  -0.2638  -0.2626  -0.2613
 -0.2610  -0.2604  -0.2590  -0.2568  -0.2553  -0.2531  -0.2508  -0.2506
 -0.2496  -0.2486  -0.2469  -0.2468  -0.2449  -0.2439  -0.2435  -0.2419
 -0.2398  -0.2305  -0.2277  -0.2266  -0.2263  -0.2243  -0.2223  -0.2222
 -0.2181  -0.2140  -0.2126  -0.2112  -0.2090  -0.1979  -0.1965
 -- Virtual --
 -0.0570  -0.0471  -0.0421  -0.0407  -0.0328  -0.0303  -0.0301  -0.0270
 -0.0259  -0.0250  -0.0230  -0.0222  -0.0209  -0.0196  -0.0182  -0.0165
 -0.0154  -0.0140  -0.0125  -0.0122  -0.0097  -0.0089  -0.0083  -0.0066
 -0.0063  -0.0046  -0.0045  -0.0030  -0.0019  -0.0013  -0.0004  -0.0001
  0.0015   0.0020   0.0027   0.0036   0.0043   0.0045   0.0064   0.0075
  0.0077   0.0088   0.0094   0.0096   0.0105   0.0108   0.0109   0.0128
  0.0135   0.0140   0.0146   0.0152   0.0155   0.0162   0.0165   0.0179
  0.0180   0.0187   0.0199   0.0207   0.0211   0.0222   0.0234   0.0238
  0.0249   0.0261   0.0270   0.0272   0.0279   0.0282   0.0288   0.0295
  0.0302   0.0306   0.0317   0.0319   0.0333   0.0337   0.0343   0.0351
  0.0355   0.0358   0.0363   0.0373   0.0379   0.0385   0.0387   0.0398
  0.0405   0.0414   0.0422   0.0429   0.0431   0.0434   0.0442   0.0448
  0.0450   0.0455   0.0460   0.0467   0.0472   0.0475   0.0477   0.0486
  0.0494   0.0503   0.0505   0.0512   0.0519   0.0523   0.0525   0.0534
  0.0542   0.0548   0.0551   0.0557   0.0571   0.0575   0.0577   0.0583
  0.0595   0.0601   0.0607   0.0611   0.0621   0.0630   0.0630   0.0638
  0.0642   0.0644   0.0649   0.0659   0.0665   0.0672   0.0676   0.0679
  0.0684   0.0692   0.0700   0.0704   0.0713   0.0714   0.0720   0.0724
  0.0726   0.0737   0.0746   0.0750   0.0751   0.0759   0.0764   0.0771
  0.0772   0.0778   0.0796   0.0796   0.0800   0.0804   0.0815   0.0820
  0.0823   0.0832   0.0835   0.0844   0.0853   0.0854   0.0863   0.0869
  0.0872   0.0875   0.0884   0.0890   0.0896   0.0897   0.0902   0.0906
  0.0922   0.0925   0.0933   0.0940   0.0942   0.0948   0.0955   0.0960
  0.0962   0.0974   0.0975   0.0984   0.0991   0.1000   0.1004   0.1014
  0.1025   0.1028   0.1034   0.1041   0.1048   0.1051   0.1058   0.1061
  0.1071   0.1073   0.1079   0.1087   0.1090   0.1095   0.1102   0.1106
  0.1117   0.1122   0.1123   0.1135   0.1139   0.1144   0.1150   0.1156
  0.1162   0.1169   0.1178   0.1189   0.1193   0.1200   0.1202   0.1207
  0.1225   0.1227   0.1234   0.1237   0.1242   0.1252   0.1254   0.1263
  0.1268   0.1276   0.1285   0.1292   0.1296   0.1299   0.1303   0.1314
  0.1325   0.1332   0.1335   0.1337   0.1343   0.1346   0.1358   0.1362
  0.1366   0.1371   0.1377   0.1379   0.1391   0.1396   0.1399   0.1405
  0.1413   0.1415   0.1426   0.1431   0.1440   0.1445   0.1452   0.1456
  0.1460   0.1467   0.1469   0.1485   0.1489   0.1497   0.1501   0.1509
  0.1513   0.1520   0.1526   0.1527   0.1531   0.1533   0.1547   0.1548
  0.1560   0.1563   0.1568   0.1570   0.1578   0.1581   0.1592   0.1594
  0.1600   0.1607   0.1619   0.1625   0.1630   0.1634   0.1637   0.1645
  0.1649   0.1652   0.1655   0.1658   0.1671   0.1675   0.1677   0.1687
  0.1697   0.1699   0.1706   0.1710   0.1714   0.1724   0.1730   0.1737
  0.1742   0.1745   0.1750   0.1754   0.1766   0.1770   0.1771   0.1782
  0.1789   0.1792   0.1801   0.1804   0.1809   0.1811   0.1815   0.1826
  0.1830   0.1836   0.1839   0.1849   0.1857   0.1860   0.1861   0.1866
  0.1869   0.1878   0.1887   0.1892   0.1897   0.1909   0.1916   0.1920
  0.1921   0.1924   0.1926   0.1937   0.1942   0.1944   0.1953   0.1962
  0.1968   0.1975   0.1982   0.1989   0.1993   0.1999   0.2003   0.2013
  0.2018   0.2026   0.2030   0.2034   0.2038   0.2050   0.2058   0.2061
  0.2068   0.2071   0.2075   0.2085   0.2087   0.2094   0.2098   0.2105
  0.2106   0.2116   0.2120   0.2128   0.2135   0.2140   0.2152   0.2152
  0.2165   0.2167   0.2176   0.2181   0.2185   0.2188   0.2192   0.2199
  0.2205   0.2211   0.2214   0.2218   0.2226   0.2231   0.2235   0.2236
  0.2247   0.2256   0.2265   0.2270   0.2277   0.2281   0.2289   0.2294
  0.2303   0.2308   0.2312   0.2316   0.2322   0.2327   0.2339   0.2345
  0.2359   0.2362   0.2370   0.2377   0.2383   0.2386   0.2395   0.2398
  0.2401   0.2409   0.2421   0.2428   0.2434   0.2435   0.2445   0.2448
  0.2456   0.2464   0.2468   0.2476   0.2484   0.2490   0.2491   0.2498
  0.2508   0.2515   0.2520   0.2523   0.2532   0.2536   0.2549   0.2558
  0.2563   0.2569   0.2576   0.2591   0.2597   0.2602   0.2607   0.2611
  0.2620   0.2623   0.2635   0.2640   0.2644   0.2649   0.2662   0.2663
  0.2675   0.2676   0.2683   0.2691   0.2698   0.2705   0.2716   0.2721
  0.2730   0.2733   0.2744   0.2754   0.2760   0.2765   0.2774   0.2778
  0.2789   0.2796   0.2800   0.2808   0.2817   0.2832   0.2840   0.2843
  0.2857   0.2858   0.2872   0.2875   0.2883   0.2887   0.2898   0.2902
  0.2915   0.2917   0.2921   0.2935   0.2938   0.2943   0.2949   0.2957
  0.2964   0.2981   0.2992   0.2994   0.3001   0.3007   0.3014   0.3023
  0.3034   0.3035   0.3039   0.3048   0.3061   0.3069   0.3081   0.3083
  0.3090   0.3102   0.3111   0.3116   0.3121   0.3131   0.3142   0.3146
  0.3152   0.3158   0.3173   0.3177   0.3181   0.3193   0.3197   0.3203
  0.3211   0.3219   0.3225   0.3232   0.3245   0.3256   0.3264   0.3268
  0.3281   0.3287   0.3291   0.3298   0.3317   0.3320   0.3325   0.3334
  0.3343   0.3348   0.3352   0.3365   0.3374   0.3375   0.3379   0.3396
  0.3401   0.3412   0.3420   0.3428   0.3439   0.3446   0.3455   0.3461
  0.3472   0.3490   0.3493   0.3499   0.3508   0.3514   0.3517   0.3532
  0.3533   0.3546   0.3550   0.3558   0.3566   0.3579   0.3585   0.3591
  0.3600   0.3609   0.3617   0.3630   0.3631   0.3644   0.3652   0.3657
  0.3668   0.3673   0.3677   0.3680   0.3693   0.3704   0.3717   0.3720
  0.3727   0.3734   0.3745   0.3748   0.3763   0.3764   0.3780   0.3785
  0.3788   0.3804   0.3811   0.3816   0.3825   0.3830   0.3838   0.3850
  0.3852   0.3855   0.3873   0.3874   0.3887   0.3896   0.3909   0.3911
  0.3912   0.3926   0.3926   0.3940   0.3948   0.3950   0.3967   0.3979
  0.3984   0.3992   0.3994   0.4012   0.4014   0.4021   0.4034   0.4050
  0.4056   0.4062   0.4073   0.4081   0.4088   0.4097   0.4115   0.4118
  0.4123   0.4125   0.4136   0.4138   0.4153   0.4158   0.4167   0.4186
  0.4192   0.4199   0.4209   0.4225   0.4237   0.4246   0.4255   0.4272
  0.4272   0.4286   0.4288   0.4303   0.4311   0.4324   0.4327   0.4346
  0.4355   0.4369   0.4371   0.4390   0.4400   0.4406   0.4415   0.4419
  0.4450   0.4458   0.4474   0.4476   0.4489   0.4491   0.4514   0.4530
  0.4532   0.4558   0.4571   0.4578   0.4594   0.4611   0.4612   0.4620
  0.4632   0.4648   0.4660   0.4672   0.4683   0.4693   0.4709   0.4716
  0.4735   0.4737   0.4769   0.4781   0.4785   0.4792   0.4814   0.4823
  0.4829   0.4849   0.4861   0.4874   0.4889   0.4891   0.4909   0.4920
  0.4926   0.4939   0.4952   0.4974   0.4994   0.5003   0.5020   0.5031
  0.5050   0.5060   0.5082   0.5086   0.5135   0.5146   0.5163   0.5175
  0.5187   0.5190   0.5199   0.5210   0.5222   0.5228   0.5235   0.5253
  0.5282   0.5291   0.5321   0.5341   0.5356   0.5379   0.5398   0.5416
  0.5426   0.5434   0.5446   0.5453   0.5466   0.5481   0.5497   0.5521
  0.5533   0.5555   0.5567   0.5574   0.5594   0.5611   0.5631   0.5634
  0.5655   0.5664   0.5676   0.5687   0.5700   0.5722   0.5747   0.5762
  0.5789   0.5808   0.5814   0.5821   0.5831   0.5840   0.5858   0.5873
  0.5883   0.5895   0.5904   0.5913   0.5928   0.5940   0.5964   0.5968
  0.5982   0.5987   0.6011   0.6019   0.6027   0.6033   0.6049   0.6056
  0.6072   0.6088   0.6099   0.6109   0.6132   0.6144   0.6156   0.6170
  0.6175   0.6186   0.6201   0.6219   0.6233   0.6255   0.6257   0.6269
  0.6285   0.6291   0.6302   0.6312   0.6326   0.6328   0.6353   0.6356
  0.6372   0.6387   0.6391   0.6403   0.6408   0.6415   0.6425   0.6428
  0.6441   0.6453   0.6467   0.6483   0.6489   0.6505   0.6514   0.6525
  0.6536   0.6552   0.6555   0.6575   0.6584   0.6590   0.6600   0.6606
  0.6630   0.6635   0.6641   0.6659   0.6665   0.6671   0.6681   0.6690
  0.6703   0.6713   0.6719   0.6730   0.6743   0.6752   0.6765   0.6778
  0.6788   0.6798   0.6799   0.6804   0.6820   0.6832   0.6841   0.6868
  0.6875   0.6885   0.6897   0.6901   0.6929   0.6935   0.6941   0.6951
  0.6957   0.6965   0.6989   0.6999   0.7008   0.7027   0.7034   0.7045
  0.7047   0.7055   0.7063   0.7083   0.7089   0.7096   0.7100   0.7108
  0.7117   0.7130   0.7141   0.7165   0.7177   0.7182   0.7197   0.7216
  0.7231   0.7254   0.7259   0.7268   0.7276   0.7282   0.7300   0.7313
  0.7332   0.7337   0.7349   0.7360   0.7382   0.7386   0.7396   0.7417
  0.7422   0.7438   0.7444   0.7451   0.7463   0.7481   0.7498   0.7506
  0.7522   0.7539   0.7553   0.7563   0.7577   0.7594   0.7601   0.7604
  0.7625   0.7637   0.7650   0.7668   0.7671   0.7692   0.7719   0.7726
  0.7736   0.7748   0.7788   0.7793   0.7804   0.7826   0.7846   0.7852
  0.7857   0.7874   0.7880   0.7903   0.7915   0.7933   0.7936   0.7945
  0.7969   0.7978   0.7991   0.8006   0.8014   0.8042   0.8054   0.8067
  0.8076   0.8084   0.8102   0.8111   0.8130   0.8136   0.8142   0.8164
  0.8172   0.8190   0.8196   0.8219   0.8230   0.8250   0.8262   0.8263
  0.8294   0.8306   0.8330   0.8336   0.8340   0.8355   0.8370   0.8381
  0.8386   0.8406   0.8420   0.8431   0.8439   0.8443   0.8460   0.8465
  0.8491   0.8502   0.8512   0.8528   0.8537   0.8541   0.8550   0.8568
  0.8580   0.8591   0.8608   0.8632   0.8637   0.8663   0.8672   0.8688
  0.8698   0.8712   0.8725   0.8734   0.8743   0.8749   0.8776   0.8780
  0.8795   0.8806   0.8823   0.8834   0.8851   0.8867   0.8875   0.8882
  0.8903   0.8915   0.8922   0.8929   0.8936   0.8947   0.8956   0.8967
  0.8972   0.8983   0.9017   0.9020   0.9028   0.9039   0.9048   0.9055
  0.9068   0.9071   0.9085   0.9093   0.9095   0.9115   0.9124   0.9134
  0.9157   0.9164   0.9174   0.9187   0.9193   0.9204   0.9218   0.9227
  0.9239   0.9253   0.9272   0.9291   0.9297   0.9317   0.9322   0.9345
  0.9357   0.9367   0.9379   0.9390   0.9409   0.9420   0.9439   0.9443
  0.9449   0.9454   0.9462   0.9481   0.9487   0.9493   0.9509   0.9518
  0.9529   0.9542   0.9552   0.9566   0.9576   0.9595   0.9605   0.9609
  0.9630   0.9638   0.9649   0.9663   0.9670   0.9677   0.9686   0.9703
  0.9722   0.9727   0.9736   0.9750   0.9756   0.9758   0.9765   0.9783
  0.9787   0.9802   0.9807   0.9819   0.9835   0.9838   0.9844   0.9865
  0.9870   0.9881   0.9893   0.9899   0.9917   0.9931   0.9942   0.9950
  0.9959   0.9971   0.9978   0.9983   0.9989   0.9998   1.0015   1.0028
  1.0037   1.0039   1.0063   1.0066   1.0075   1.0085   1.0088   1.0106
  1.0118   1.0122   1.0133   1.0145   1.0154   1.0171   1.0175   1.0194
  1.0198   1.0204   1.0221   1.0238   1.0242   1.0246   1.0260   1.0262
  1.0282   1.0296   1.0298   1.0317   1.0330   1.0341   1.0353   1.0358
  1.0370   1.0371   1.0396   1.0401   1.0409   1.0422   1.0436   1.0441
  1.0453   1.0459   1.0484   1.0491   1.0500   1.0521   1.0533   1.0543
  1.0544   1.0556   1.0563   1.0573   1.0581   1.0589   1.0604   1.0614
  1.0640   1.0645   1.0660   1.0671   1.0676   1.0692   1.0708   1.0728
  1.0737   1.0754   1.0774   1.0774   1.0783   1.0795   1.0812   1.0824
  1.0838   1.0847   1.0858   1.0866   1.0879   1.0897   1.0909   1.0919
  1.0929   1.0945   1.0969   1.0975   1.0993   1.0998   1.1012   1.1027
  1.1033   1.1042   1.1068   1.1073   1.1088   1.1093   1.1108   1.1122
  1.1132   1.1142   1.1155   1.1157   1.1177   1.1192   1.1202   1.1213
  1.1232   1.1248   1.1255   1.1265   1.1293   1.1299   1.1308   1.1319
  1.1325   1.1356   1.1363   1.1385   1.1401   1.1410   1.1419   1.1424
  1.1446   1.1462   1.1464   1.1476   1.1487   1.1510   1.1523   1.1534
  1.1542   1.1555   1.1564   1.1569   1.1597   1.1602   1.1619   1.1637
  1.1641   1.1653   1.1670   1.1671   1.1695   1.1701   1.1726   1.1729
  1.1756   1.1766   1.1774   1.1788   1.1807   1.1810   1.1838   1.1841
  1.1849   1.1883   1.1893   1.1902   1.1921   1.1935   1.1950   1.1976
  1.1982   1.1989   1.2013   1.2016   1.2033   1.2035   1.2058   1.2075
  1.2085   1.2108   1.2129   1.2156   1.2164   1.2169   1.2209   1.2215
  1.2231   1.2249   1.2276   1.2285   1.2314   1.2325   1.2333   1.2347
  1.2369   1.2377   1.2385   1.2412   1.2437   1.2463   1.2481   1.2519
  1.2534   1.2553   1.2583   1.2598   1.2609   1.2637   1.2642   1.2658
  1.2680   1.2713   1.2721   1.2743   1.2763   1.2788   1.2807   1.2824
  1.2848   1.2878   1.2887   1.2901   1.2913   1.2967   1.2977   1.2994
  1.3030   1.3045   1.3054   1.3065   1.3090   1.3099   1.3134   1.3143
  1.3171   1.3193   1.3210   1.3237   1.3267   1.3283   1.3312   1.3324
  1.3336   1.3350   1.3383   1.3401   1.3418   1.3425   1.3456   1.3484
  1.3499   1.3531   1.3562   1.3571   1.3576   1.3607   1.3612   1.3629
  1.3675   1.3676   1.3690   1.3713   1.3717   1.3740   1.3745   1.3757
  1.3764   1.3769   1.3787   1.3800   1.3809   1.3834   1.3842   1.3852
  1.3861   1.3885   1.3912   1.3914   1.3919   1.3938   1.3943   1.3950
  1.3976   1.3992   1.4006   1.4008   1.4029   1.4043   1.4047   1.4057
  1.4078   1.4088   1.4114   1.4132   1.4145   1.4167   1.4176   1.4180
  1.4192   1.4212   1.4225   1.4243   1.4247   1.4259   1.4295   1.4310
  1.4320   1.4333   1.4342   1.4357   1.4376   1.4385   1.4394   1.4409
  1.4420   1.4442   1.4461   1.4479   1.4493   1.4504   1.4514   1.4531
  1.4535   1.4557   1.4570   1.4595   1.4602   1.4617   1.4640   1.4650
  1.4662   1.4678   1.4726   1.4737   1.4752   1.4770   1.4772   1.4790
  1.4825   1.4832   1.4867   1.4887   1.4905   1.4910   1.4948   1.4959
  1.4979   1.4992   1.5030   1.5043   1.5056   1.5075   1.5090   1.5113
  1.5120   1.5147   1.5163   1.5192   1.5210   1.5229   1.5250   1.5269
  1.5289   1.5321   1.5341   1.5364   1.5401   1.5410   1.5421   1.5428
  1.5451   1.5464   1.5497   1.5545   1.5573   1.5606   1.5631   1.5657
  1.5723   1.5733   1.5753   1.5794   1.5802   1.5828   1.5863   1.5889
  1.5924   1.5972   1.5995   1.6027   1.6039   1.6062   1.6124   1.6165
  1.6173   1.6248   1.6262   1.6333   1.6353   1.6369   1.6432   1.6470
  1.6508   1.6526   1.6536   1.6553   1.6575   1.6597   1.6616   1.6644
  1.6647   1.6664   1.6672   1.6688   1.6722   1.6737   1.6744   1.6773
  1.6783   1.6803   1.6805   1.6817   1.6830   1.6841   1.6853   1.6858
  1.6880   1.6895   1.6902   1.6915   1.6938   1.6952   1.6958   1.6970
  1.6979   1.6986   1.7002   1.7010   1.7032   1.7033   1.7041   1.7065
  1.7070   1.7077   1.7088   1.7099   1.7109   1.7114   1.7125   1.7145
  1.7168   1.7178   1.7187   1.7195   1.7226   1.7238   1.7247   1.7257
  1.7270   1.7275   1.7298   1.7301   1.7328   1.7357   1.7364   1.7387
  1.7401   1.7405   1.7411   1.7417   1.7437   1.7457   1.7473   1.7474
  1.7484   1.7502   1.7516   1.7544   1.7560   1.7577   1.7583   1.7587
  1.7604   1.7616   1.7630   1.7642   1.7655   1.7662   1.7681   1.7701
  1.7711   1.7721   1.7735   1.7754   1.7766   1.7791   1.7808   1.7827
  1.7838   1.7863   1.7887   1.7902   1.7924   1.7959   1.7973   1.7989
  1.8002   1.8021   1.8025   1.8046   1.8060   1.8074   1.8084   1.8088
  1.8121   1.8151   1.8160   1.8206   1.8211   1.8236   1.8254   1.8305
  1.8341   1.8352   1.8366   1.8378   1.8409   1.8416   1.8456   1.8477
  1.8486   1.8504   1.8526   1.8544   1.8559   1.8596   1.8606   1.8631
  1.8657   1.8663   1.8672   1.8717   1.8730   1.8738   1.8748   1.8759
  1.8778   1.8792   1.8805   1.8814   1.8842   1.8845   1.8878   1.8880
  1.8894   1.8917   1.8938   1.8951   1.8957   1.8991   1.9004   1.9015
  1.9024   1.9032   1.9042   1.9049   1.9058   1.9069   1.9080   1.9090
  1.9096   1.9123   1.9130   1.9147   1.9167   1.9177   1.9185   1.9205
  1.9224   1.9230   1.9242   1.9279   1.9284   1.9293   1.9306   1.9322
  1.9342   1.9351   1.9385   1.9388   1.9407   1.9422   1.9442   1.9455
  1.9464   1.9510   1.9528   1.9543   1.9560   1.9591   1.9602   1.9610
  1.9654   1.9717   1.9768   1.9788   1.9814   1.9858   1.9883   1.9917
  2.0011   2.0037   2.0081   2.0202   2.0292   2.0302   2.0332   2.0373
  2.0387   2.0419   2.0436   2.0447   2.0453   2.0471   2.0486   2.0539
  2.0571   2.0605   2.0608   2.0625   2.0640   2.0651   2.0655   2.0673
  2.0697   2.0710   2.0732   2.0744   2.0766   2.0772   2.0784   2.0822
  2.0842   2.0866   2.0874   2.0900   2.0907   2.0923   2.0938   2.0951
  2.0957   2.0963   2.0988   2.1013   2.1023   2.1037   2.1050   2.1064
  2.1071   2.1074   2.1095   2.1112   2.1122   2.1127   2.1142   2.1148
  2.1167   2.1173   2.1214   2.1262   2.1291   2.1299   2.1323   2.1334
  2.1360   2.1390   2.1479   2.1543   2.1570   2.1602   2.1637   2.1671
  2.1690   2.1707   2.1726   2.1733   2.1754   2.1781   2.1790   2.1804
  2.1836   2.1851   2.1868   2.1894   2.1907   2.1926   2.1942   2.1950
  2.2015   2.2029   2.2038   2.2061   2.2066   2.2083   2.2110   2.2125
  2.2132   2.2150   2.2155   2.2191   2.2210   2.2240   2.2242   2.2255
  2.2271   2.2283   2.2296   2.2313   2.2322   2.2346   2.2355   2.2370
  2.2385   2.2389   2.2400   2.2409   2.2414   2.2418   2.2440   2.2449
  2.2455   2.2457   2.2472   2.2487   2.2492   2.2508   2.2514   2.2523
  2.2533   2.2539   2.2554   2.2558   2.2566   2.2577   2.2580   2.2592
  2.2607   2.2618   2.2631   2.2643   2.2654   2.2672   2.2688   2.2693
  2.2698   2.2715   2.2721   2.2732   2.2754   2.2758   2.2767   2.2774
  2.2787   2.2793   2.2806   2.2811   2.2820   2.2828   2.2833   2.2842
  2.2855   2.2860   2.2864   2.2879   2.2884   2.2888   2.2901   2.2914
  2.2924   2.2952   2.2972   2.2977   2.2986   2.2995   2.3003   2.3005
  2.3018   2.3025   2.3035   2.3039   2.3043   2.3058   2.3069   2.3079
  2.3101   2.3108   2.3120   2.3130   2.3134   2.3147   2.3155   2.3163
  2.3187   2.3198   2.3203   2.3204   2.3215   2.3231   2.3253   2.3264
  2.3274   2.3290   2.3300   2.3322   2.3327   2.3345   2.3359   2.3378
  2.3390   2.3406   2.3413   2.3420   2.3436   2.3463   2.3492   2.3507
  2.3540   2.3544   2.3552   2.3559   2.3590   2.3608   2.3634   2.3650
  2.3661   2.3673   2.3703   2.3712   2.3743   2.3790   2.3804   2.3819
  2.3850   2.3901   2.3917   2.3974   2.4016   2.4042   2.4089   2.4147
  2.4169   2.4178   2.4221   2.4331   2.4362   2.4433   2.4659   2.4878
  2.4956   2.5145   2.5291   2.6069   2.6731   2.7043   2.7522   2.7725
  2.8117   2.8178   2.8218   2.8239   2.8280   2.8326   2.8358   2.8392
  2.8424   2.8442   2.8468   2.8500   2.8505   2.8516   2.8529   2.8540
  2.8570   2.8600   2.8623   2.8636   2.8655   2.8695   2.8730   2.8746
  2.8785   2.8844   2.8917   2.8931   2.8940   2.9009   2.9135   2.9216
  2.9613   3.0959   3.2646   3.9473   3.9496   3.9550   3.9612   3.9623
  3.9656   3.9698   3.9738   3.9761   3.9764   3.9785   3.9796   3.9826
  3.9852   3.9866   3.9908   3.9954   4.0025   4.0062   4.0090   4.0106
  4.0111   4.0174   4.0183   4.0279   4.0414   4.0566   4.0604   4.1951
  4.2132   4.2261   4.2339   4.2357   4.2394   4.2469   4.2487   4.2497
  4.2502   4.2526   4.2536   4.2549   4.2574   4.2609   4.2626   4.2650
  4.2688   4.2712   4.2731   4.2752   4.2772   4.2782   4.2834   4.2844
  4.2855   4.2868   4.2893   4.2933   4.2938   4.2989   4.2999   4.3025
  4.3038   4.3048   4.3083   4.3095   4.3114   4.3157   4.3182   4.3188
  4.3227   4.3247   4.3276   4.3314   4.3367   4.3390   4.3414   4.3429
  4.3465   4.3484   4.3507   4.3537   4.3562   4.3610   4.3647   4.3653
  4.3669   4.3717   4.3727   4.3743   4.3840   4.3858   4.3960   4.3990
  4.4034   4.4066   4.4081   4.4171   4.4262   4.4333   4.4390   4.4511
  4.4530   4.4622   4.4694   4.4736   4.4955   4.5069   4.5136   4.5294
  4.5448   4.5556   4.5705   4.6016   4.6100   4.6378   4.6642   4.6905
  4.7364   4.7938   4.8074   4.9684
 --------------------------------------------------------------

          Ground-State Mulliken Net Atomic Charges

     Atom                 Charge (a.u.)
  ----------------------------------------
      1 C                    -0.471147
      2 C                    -0.536277
      3 C                    -0.209170
      4 C                    -0.468026
      5 C                    -0.371622
      6 C                    -0.355861
      7 H                     0.194811
      8 H                     0.228139
      9 H                     0.185250
     10 H                     0.262260
     11 H                     0.203190
     12 H                     0.217256
     13 H                     0.211637
     14 H                     0.187751
     15 H                     0.221543
     16 H                     0.186491
     17 H                     0.165686
     18 N                    -0.358601
     19 H                     0.479878
     20 C                     0.380329
     21 H                     0.179649
     22 O                    -0.533164
     23 C                    -0.827709
     24 H                     0.234232
     25 H                     0.224483
     26 H                     0.269258
     27 S                     0.851047
     28 C                    -0.807828
     29 H                     0.264150
     30 H                     0.230661
     31 H                     0.283336
     32 O                    -0.719883
     33 C                    -0.799302
     34 H                     0.265448
     35 H                     0.258534
     36 H                     0.238814
     37 S                     0.809334
     38 C                    -0.766748
     39 H                     0.245846
     40 H                     0.256524
     41 H                     0.237559
     42 O                    -0.749520
     43 C                    -0.972269
     44 H                     0.241088
     45 H                     0.248495
     46 H                     0.260104
     47 S                     1.108118
     48 C                    -0.918244
     49 H                     0.217430
     50 H                     0.254521
     51 H                     0.262264
     52 O                    -0.660259
     53 C                    -0.789709
     54 H                     0.252327
     55 H                     0.267868
     56 H                     0.228133
     57 S                     0.851435
     58 C                    -0.748874
     59 H                     0.219782
     60 H                     0.249665
     61 H                     0.242688
     62 O                    -0.694494
     63 C                    -1.010065
     64 H                     0.248726
     65 H                     0.269512
     66 H                     0.263417
     67 S                     1.108689
     68 C                    -0.866161
     69 H                     0.226897
     70 H                     0.240455
     71 H                     0.258476
     72 O                    -0.740860
     73 C                    -0.861034
     74 H                     0.245708
     75 H                     0.265854
     76 H                     0.274612
     77 S                     0.919516
     78 C                    -0.883846
     79 H                     0.248958
     80 H                     0.236430
     81 H                     0.261421
     82 O                    -0.698076
     83 C                    -0.839091
     84 H                     0.250419
     85 H                     0.256505
     86 H                     0.233418
     87 S                     1.073131
     88 C                    -0.946091
     89 H                     0.245293
     90 H                     0.223900
     91 H                     0.267785
     92 O                    -0.733301
     93 C                    -0.857239
     94 H                     0.281180
     95 H                     0.268714
     96 H                     0.252740
     97 S                     0.836485
     98 C                    -0.936578
     99 H                     0.237491
    100 H                     0.283632
    101 H                     0.240957
    102 O                    -0.628974
    103 C                    -1.067987
    104 H                     0.214913
    105 H                     0.294312
    106 H                     0.268361
    107 S                     0.940011
    108 C                    -0.913297
    109 H                     0.172847
    110 H                     0.272445
    111 H                     0.324878
    112 O                    -0.597132
    113 C                    -0.896030
    114 H                     0.277802
    115 H                     0.236930
    116 H                     0.306315
    117 S                     0.829574
    118 C                    -0.869913
    119 H                     0.263494
    120 H                     0.210925
    121 H                     0.253347
    122 O                    -0.703416
    123 C                    -1.073427
    124 H                     0.297704
    125 H                     0.274463
    126 H                     0.251890
    127 S                     1.242455
    128 C                    -1.211407
    129 H                     0.291318
    130 H                     0.259675
    131 H                     0.267397
    132 O                    -0.688111
    133 C                    -0.935219
    134 H                     0.258510
    135 H                     0.217832
    136 H                     0.242383
    137 S                     0.983955
    138 C                    -0.843437
    139 H                     0.270327
    140 H                     0.272808
    141 H                     0.235358
    142 O                    -0.645161
    143 C                    -0.805056
    144 H                     0.238456
    145 H                     0.253731
    146 H                     0.267374
    147 S                     0.775994
    148 C                    -0.848933
    149 H                     0.296685
    150 H                     0.247537
    151 H                     0.256051
    152 O                    -0.667998
    153 C                    -0.890862
    154 H                     0.227425
    155 H                     0.316862
    156 H                     0.267016
    157 S                     1.207628
    158 C                    -1.068301
    159 H                     0.258236
    160 H                     0.236905
    161 H                     0.251124
    162 O                    -0.696877
    163 C                    -0.807406
    164 H                     0.232024
    165 H                     0.247478
    166 H                     0.242054
    167 S                     0.885042
    168 C                    -0.820023
    169 H                     0.259348
    170 H                     0.247208
    171 H                     0.240581
    172 O                    -0.720072
    173 C                    -0.855344
    174 H                     0.241435
    175 H                     0.278135
    176 H                     0.243883
    177 S                     0.843473
    178 C                    -0.811912
    179 H                     0.267610
    180 H                     0.257132
    181 H                     0.227851
    182 O                    -0.692380
    183 C                    -0.883896
    184 H                     0.251930
    185 H                     0.255804
    186 H                     0.263700
    187 S                     0.878931
    188 C                    -0.896464
    189 H                     0.265140
    190 H                     0.272914
    191 H                     0.248976
    192 O                    -0.684882
    193 C                    -0.940271
    194 H                     0.283329
    195 H                     0.271801
    196 H                     0.285432
    197 S                     0.493440
    198 C                    -0.838794
    199 H                     0.275046
    200 H                     0.258710
    201 H                     0.315324
    202 O                    -0.595056
    203 C                    -1.049886
    204 H                     0.249493
    205 H                     0.241644
    206 H                     0.273546
    207 S                     1.264813
    208 C                    -1.020410
    209 H                     0.235583
    210 H                     0.250289
    211 H                     0.256867
    212 O                    -0.699313
    213 C                    -0.653483
    214 H                     0.230179
    215 H                     0.272688
    216 H                     0.336339
    217 S                     0.418151
    218 C                    -0.850500
    219 H                     0.274368
    220 H                     0.228751
    221 H                     0.252086
    222 O                    -0.507935
    223 C                    -0.906413
    224 H                     0.235780
    225 H                     0.266931
    226 H                     0.301215
    227 S                     1.195421
    228 C                    -1.031460
    229 H                     0.277710
    230 H                     0.246114
    231 H                     0.237218
    232 O                    -0.734531
    233 C                    -0.791547
    234 H                     0.257897
    235 H                     0.274516
    236 H                     0.286066
    237 S                     0.812047
    238 C                    -1.072198
    239 H                     0.288651
    240 H                     0.283931
    241 H                     0.318549
    242 O                    -0.622951
    243 C                    -0.805731
    244 H                     0.257238
    245 H                     0.234580
    246 H                     0.264631
    247 S                     0.632862
    248 C                    -0.747873
    249 H                     0.256707
    250 H                     0.296447
    251 H                     0.232096
    252 O                    -0.627053
    253 C                    -0.861780
    254 H                     0.239800
    255 H                     0.260664
    256 H                     0.239629
    257 S                     0.963767
    258 C                    -0.800467
    259 H                     0.262021
    260 H                     0.233394
    261 H                     0.240483
    262 O                    -0.722386
    263 C                    -1.017078
    264 H                     0.231509
    265 H                     0.275622
    266 H                     0.240498
    267 S                     1.256811
    268 C                    -0.952413
    269 H                     0.295254
    270 H                     0.247821
    271 H                     0.223224
    272 O                    -0.716922
    273 C                    -0.993145
    274 H                     0.320311
    275 H                     0.246176
    276 H                     0.279480
    277 S                     0.938088
    278 C                    -0.901376
    279 H                     0.286960
    280 H                     0.243515
    281 H                     0.224996
    282 O                    -0.711907
    283 C                    -0.858606
    284 H                     0.247553
    285 H                     0.284761
    286 H                     0.242394
    287 S                     0.853153
    288 C                    -1.005620
    289 H                     0.248687
    290 H                     0.281690
    291 H                     0.292848
    292 O                    -0.521746
    293 C                    -1.116220
    294 H                     0.286319
    295 H                     0.336314
    296 H                     0.219138
    297 S                     1.276825
    298 C                    -1.210942
    299 H                     0.265399
    300 H                     0.265234
    301 H                     0.247850
    302 O                    -0.662925
  ----------------------------------------
[...]
    2  -1.5570228  -2.2875170  -2.8946150   0.1480866  -1.0228321  -0.3826156
    3  -0.2691987  -1.6819152   0.9576961  -0.1883162  -1.2172610  -2.9637430
          229         230         231         232         233         234
    1  -2.2915024  -0.4747037  -3.5991645  -1.0299677  -1.3812494  -0.1760973
    2   0.9097998  -0.9632058  -1.5842913  -3.8180762  -3.4305469  -3.8062530
    3  -1.9054952  -4.1622739  -2.7278013  -2.5741716   1.1690320   2.4724003
          235         236         237         238         239         240
    1  -3.1222929  -1.5191969   0.4846717  -0.4681166   0.4111497   0.1177442
    2  -2.2774375  -3.8771028  -2.0808915  -0.8782707  -2.0236859   0.8636747
    3   1.2989194  -0.1204856   0.4310107   2.0812247   2.8748802   1.1535604
          241         242         243         244         245         246
    1  -2.0500129  -1.8764844  -2.9888714  -3.4505944  -4.0998787  -1.1633693
    2  -1.1791266  -0.4534941   1.7506347   1.7881432   0.2374154   2.8641171
    3   2.1185171  -0.9090645   0.1495728  -1.8094102   1.0145559   0.6953712
          247         248         249         250         251         252
    1  -1.8319716  -3.3505709  -3.7296642  -1.9031574  -4.3467835  -0.3424551
    2   0.8015599  -1.0576112  -0.5175410  -1.8485400  -0.5409849   0.2665843
    3  -0.8004898  -0.6163694  -2.4455253  -0.5546744   1.0334340   1.9823493
          253         254         255         256         257         258
    1   2.6201090   1.0616246   2.5279690   3.6393712   1.3357422   0.7458043
    2  -0.4663662   0.8307808  -2.1790646   0.1191703  -1.6158703   0.6928947
    3  -1.5160148  -0.9611647  -0.7399756  -2.6369138  -3.2521818  -3.4607369
          259         260         261         262         263         264
    1  -0.6096144   0.4606741   2.4857895  -1.1447502   0.6167979   2.5511549
    2   0.1051977   1.7302361   0.4319815  -1.1680006  -1.6721583  -1.4828335
    3  -4.3880278  -1.9935410  -3.9352592  -1.4895788   3.5300638   3.2480196
          265         266         267         268         269         270
    1  -0.3721343  -0.4987700   0.8256895   2.1526784   1.6989109   1.2484382
    2   0.2927436  -3.1739234  -1.7296266   0.2734754   1.1073105   1.0366888
    3   4.2126545   2.7981406   1.7580160   2.5666226   1.4878740   4.1277137
          271         272         273         274         275         276
    1   3.4295502  -1.7103831  -0.3116569   0.1685863  -1.5540579   0.3576196
    2  -1.3637848   0.4006800   1.0402025   0.6427699   1.9699862   0.1927929
    3   2.2789175   2.5881551  -0.2517448   1.3665053  -0.6517730  -1.4257193
          277         278         279         280         281         282
    1   0.8869785   2.7794106   3.8185350   2.6328213   2.3243747   1.5221146
    2   2.5666245   1.5086117   3.0233916   0.5697761   1.7143222   3.7567666
    3  -1.5945938  -0.9115274  -0.1568122   0.6137772  -2.6705322   1.4747498
          283         284         285         286         287         288
    1   2.7579109   3.7958341   3.0520341   1.1200999   1.4716775   3.1325916
    2  -2.4649368  -1.0955802  -3.6204833  -3.2925334  -0.6917162  -0.4899953
    3  -2.0107546  -2.5634228  -0.1780167  -2.6586378  -1.2030738  -0.3663214
          289         290         291         292         293         294
    1   3.7510029   1.9755718   3.8008589   0.2802143  -0.2080836   1.4277000
    2   0.0893268   0.5510338  -2.4649410  -2.8591308  -2.3613112  -1.5899235
    3  -2.2102831   0.5399251  -0.1110919   0.9078985  -0.0939663   1.1164870
          295         296         297         298         299         300
    1  -1.8429450   0.5760515  -0.3079541   1.6939478   1.7801619   1.3633416
    2  -1.3184049  -3.6585393  -1.8158445  -2.3820864  -3.7234582  -3.1992045
    3   0.2513160  -1.3348327  -2.0777988  -1.8910830  -0.5748584  -3.4730008
          301         302
    1   2.2537319   0.1927141
    2  -0.4785142   0.8555166
    3  -1.8449582   0.4103981
 EField
            1           2           3           4           5           6
    1  -0.0070233  -0.0063078  -0.0063823  -0.0030493  -0.0014501  -0.0061098
    2  -0.0021481  -0.0004481   0.0020937   0.0045223   0.0007926  -0.0033403
    3   0.0000460  -0.0051916  -0.0011421  -0.0006707   0.0029304   0.0016026
            7           8           9          10          11          12
    1  -0.0047520  -0.0048561  -0.0036425  -0.0125292  -0.0037105  -0.0025058
    2   0.0056641   0.0033555  -0.0044340   0.0012221   0.0029353   0.0107061
    3  -0.0001891  -0.0064029   0.0024500   0.0033661  -0.0042271  -0.0002066
           13          14          15          16          17          18
    1   0.0033669  -0.0014097  -0.0069476  -0.0052780  -0.0104541  -0.0054828
    2   0.0004466  -0.0007581  -0.0044503  -0.0061190  -0.0004348  -0.0075991
    3   0.0047948   0.0042748  -0.0007151   0.0049325   0.0027231  -0.0144094
           19          20          21          22          23          24
    1  -0.0034977  -0.0081425  -0.0068422  -0.0093300   0.0033995   0.0148390
    2  -0.0225684  -0.0043584  -0.0005960   0.0006454  -0.0021946  -0.0181988
    3  -0.0218220  -0.0174301  -0.0197566  -0.0124946   0.0012056  -0.0210333
           25          26          27          28          29          30
    1   0.0256299  -0.0117019   0.0215297  -0.0047284  -0.0036690   0.0197240
    2   0.0033461  -0.0206578   0.0386860   0.0033160  -0.0237758   0.0156379
    3   0.0240314   0.0188379  -0.0249050   0.0064246   0.0199407   0.0262184
           31          32          33          34          35          36
    1  -0.0253096  -0.0710442   0.0098987   0.0023911   0.0247377  -0.0195658
    2   0.0196781  -0.0746297   0.0056937  -0.0002926  -0.0023679   0.0222301
    3  -0.0007239  -0.0388693   0.0010263   0.0360613  -0.0267947  -0.0093475
           37          38          39          40          41          42
    1   0.0123337   0.0020004  -0.0049690   0.0270341  -0.0291652  -0.0865574
    2  -0.0480645   0.0015138   0.0291259  -0.0179531  -0.0083688   0.0633658
    3   0.0268870  -0.0091025  -0.0129440  -0.0102556  -0.0076937   0.0243223
           43          44          45          46          47          48
    1  -0.0005681   0.0169879  -0.0087919  -0.0221434   0.0126874   0.0016143
    2   0.0041639   0.0355543  -0.0265980   0.0173159   0.0253475  -0.0038660
    3  -0.0078101   0.0031841  -0.0254437   0.0101657   0.0493857  -0.0025746
           49          50          51          52          53          54
    1   0.0284908   0.0096698  -0.0085539  -0.0729181   0.0061066   0.0339635
    2   0.0174576  -0.0270665  -0.0121897  -0.0828885  -0.0062303   0.0042591
    3  -0.0071787   0.0126206  -0.0265787  -0.0053665  -0.0052495   0.0074241
           55          56          57          58          59          60
    1   0.0091479  -0.0045795   0.0071506  -0.0012608   0.0193181   0.0288070
    2  -0.0247421   0.0064999   0.0554301  -0.0052447  -0.0225393   0.0092090
    3   0.0120001  -0.0268947  -0.0051591   0.0063549  -0.0007698   0.0125229
           61          62          63          64          65          66
    1  -0.0215024  -0.0866640  -0.0069249  -0.0107417  -0.0046420  -0.0213278
    2   0.0096624  -0.0610376  -0.0004524   0.0278639  -0.0130549  -0.0290712
    3   0.0227478  -0.0289385  -0.0006396  -0.0050096  -0.0265993   0.0068397
           67          68          69          70          71          72
    1   0.0257254  -0.0038903  -0.0144781  -0.0156786   0.0285307   0.0305008
    2  -0.0442766   0.0040420   0.0244366  -0.0201256   0.0086966   0.0950972
    3  -0.0007357   0.0067421  -0.0024573   0.0228185   0.0100123  -0.0476427
           73          74          75          76          77          78
    1   0.0021694  -0.0295562   0.0097335   0.0132592  -0.0261760  -0.0017031
    2   0.0087672   0.0168196  -0.0145891   0.0213795   0.0112766  -0.0071790
    3   0.0071401   0.0028638   0.0299811  -0.0173237  -0.0543209   0.0080195
           79          80          81          82          83          84
    1   0.0083370  -0.0302164   0.0024082   0.0991517   0.0065487   0.0070099
    2   0.0055874   0.0135654  -0.0312633  -0.0458311   0.0010274   0.0062261
    3   0.0336635  -0.0004547  -0.0155053   0.0091422  -0.0009337   0.0297281
           85          86          87          88          89          90
    1   0.0014718   0.0229900  -0.0136798   0.0025425   0.0133177   0.0153611
    2  -0.0294309   0.0162586  -0.0047960   0.0067228   0.0012618   0.0330516
    3  -0.0062224  -0.0169383  -0.0501386   0.0024168   0.0283630  -0.0192506
           91          92          93          94          95          96
    1  -0.0311083  -0.0473671   0.0004935  -0.0262249   0.0312774  -0.0108842
    2   0.0067983  -0.0561977  -0.0004575   0.0083138   0.0124633  -0.0203105
    3  -0.0001995   0.0820800  -0.0117462  -0.0081331  -0.0102413  -0.0274600
           97          98          99         100         101         102
    1   0.0248459   0.0024100   0.0340763  -0.0182758   0.0110370  -0.0983446
    2   0.0464914  -0.0076248   0.0039253  -0.0205663  -0.0198460  -0.0409895
    3   0.0368371   0.0004983   0.0053951   0.0175444  -0.0259550   0.0325461
          103         104         105         106         107         108
    1  -0.0071326   0.0287232  -0.0243787  -0.0196988   0.0530396  -0.0019971
    2   0.0042142   0.0174649   0.0045400   0.0105813  -0.0128780  -0.0055602
    3   0.0024794   0.0044159  -0.0194650   0.0253878   0.0375566  -0.0080291
          109         110         111         112         113         114
    1   0.0178564   0.0168362  -0.0249858  -0.0966724  -0.0061839  -0.0175973
    2   0.0191024  -0.0249119   0.0082412  -0.0446744   0.0030129   0.0235132
    3  -0.0010107  -0.0143914  -0.0173033   0.0125135  -0.0082975   0.0114515
          115         116         117         118         119         120
    1   0.0133963  -0.0317072   0.0328593   0.0004873  -0.0228128   0.0268328
    2   0.0178814  -0.0130827   0.0309269  -0.0038486  -0.0144271   0.0088886
    3  -0.0301016  -0.0038732   0.0270280  -0.0051946  -0.0165319  -0.0224833
          121         122         123         124         125         126
    1   0.0129137  -0.0740998   0.0102619  -0.0047062   0.0278199  -0.0130614
    2  -0.0209628  -0.0692466   0.0101566   0.0034642  -0.0180481   0.0193736
    3   0.0165274   0.0449460   0.0041612   0.0356820  -0.0121286  -0.0249359
          127         128         129         130         131         132
    1  -0.0091203  -0.0063860  -0.0134877  -0.0260067   0.0071320   0.0314369
    2  -0.0159337   0.0081609   0.0192724  -0.0166886   0.0093505  -0.0656083
    3  -0.0545190   0.0033893  -0.0216789   0.0013341   0.0257072   0.0806009
          133         134         135         136         137         138
    1  -0.0069271  -0.0192197   0.0146177  -0.0154841   0.0461251   0.0008798
    2   0.0032057  -0.0234351   0.0037550   0.0306477  -0.0451989   0.0123003
    3   0.0012122   0.0082572   0.0230880  -0.0019168   0.0094863  -0.0061996
          139         140         141         142         143         144
    1   0.0125332  -0.0140148   0.0190153  -0.0795951  -0.0035464   0.0313683
    2  -0.0010396   0.0308564   0.0107625  -0.0186449   0.0091949   0.0076676
    3  -0.0346529  -0.0017097   0.0213752  -0.0730388  -0.0073381  -0.0025577
          145         146         147         148         149         150
    1  -0.0155950  -0.0039930   0.0430104  -0.0004774   0.0316814  -0.0237121
    2  -0.0083806   0.0357929   0.0141013  -0.0094837  -0.0080536  -0.0241387
    3  -0.0276998   0.0041255   0.0468400   0.0036961   0.0179553   0.0141377
          151         152         153         154         155         156
    1  -0.0215945  -0.1064370   0.0030946   0.0325977   0.0037752  -0.0192182
    2  -0.0061072   0.0202161   0.0101291   0.0087143   0.0128883   0.0117120
    3  -0.0222986   0.0232323   0.0026955   0.0110465  -0.0292422   0.0220103
          157         158         159         160         161         162
    1  -0.0583716   0.0047194   0.0019712   0.0283684  -0.0214257   0.0746466
    2  -0.0025886   0.0002599  -0.0306598   0.0120842   0.0039737  -0.0211948
    3  -0.0143529   0.0077991  -0.0155730   0.0169235   0.0251324  -0.0794005
          163         164         165         166         167         168
    1  -0.0040242  -0.0190065  -0.0124583  -0.0241344   0.0191159  -0.0003004
    2   0.0037755  -0.0267340   0.0223137   0.0128566  -0.0413943  -0.0038861
    3   0.0007607  -0.0023159   0.0193514  -0.0263503  -0.0298930   0.0078363
          169         170         171         172         173         174
    1   0.0009013   0.0262027  -0.0119878   0.0324778  -0.0054834   0.0125423
    2  -0.0384373  -0.0011043   0.0256829   0.1053972   0.0003407   0.0335796
    3   0.0157034   0.0113560   0.0185823  -0.0132907   0.0032721  -0.0033887
          175         176         177         178         179         180
    1  -0.0307393   0.0226120   0.0511718   0.0004650  -0.0076061  -0.0334695
    2  -0.0038880   0.0149586  -0.0151117   0.0053963  -0.0255853   0.0011825
    3   0.0094531   0.0259105  -0.0096405  -0.0036954  -0.0147564   0.0065808
          181         182         183         184         185         186
    1   0.0181567  -0.0755036   0.0018484  -0.0232969   0.0275004  -0.0112229
    2   0.0308181  -0.0747857  -0.0019249  -0.0222616  -0.0217470   0.0287311
    3  -0.0292394   0.0262317   0.0100521  -0.0017973   0.0099112   0.0141081
          187         188         189         190         191         192
    1   0.0076937   0.0092499  -0.0120320   0.0283561   0.0094548  -0.0831172
    2  -0.0394785   0.0042071   0.0231636  -0.0155910   0.0146438   0.0734970
    3  -0.0348333   0.0028138   0.0197626   0.0076364  -0.0258323  -0.0086968
          193         194         195         196         197         198
    1   0.0019312  -0.0144775   0.0323835  -0.0178910  -0.0361780   0.0084947
    2  -0.0123479  -0.0137743  -0.0180010  -0.0017896   0.0419360  -0.0040292
    3   0.0059879  -0.0183180   0.0048052   0.0299204   0.0027696  -0.0096621
          199         200         201         202         203         204
    1  -0.0197406   0.0220673   0.0105745   0.0905316   0.0025821  -0.0005242
    2   0.0090720   0.0247252  -0.0310438  -0.0027780  -0.0080647  -0.0306916
    3  -0.0342304  -0.0195894  -0.0094399   0.0637381  -0.0051692   0.0191916
          205         206         207         208         209         210
    1  -0.0304257   0.0218270  -0.0306772   0.0008796  -0.0305633   0.0129550
    2   0.0064477   0.0135401   0.0035048   0.0056796   0.0128098   0.0302285
    3  -0.0053196  -0.0260627   0.0480011  -0.0032560  -0.0023157   0.0089042
          211         212         213         214         215         216
    1   0.0060810   0.1099696  -0.0000587   0.0181865   0.0106117  -0.0295536
    2  -0.0148191   0.0011369  -0.0146624   0.0025369  -0.0001013  -0.0301063
    3  -0.0290889  -0.0045135  -0.0009156  -0.0203299   0.0273677  -0.0010254
          217         218         219         220         221         222
    1  -0.0435194  -0.0053690   0.0149392   0.0054071  -0.0302344   0.0805930
    2  -0.0015824  -0.0020478   0.0391169  -0.0304901  -0.0249456   0.0711807
    3   0.0377530  -0.0101838   0.0028024  -0.0109233   0.0034970  -0.0033968
          223         224         225         226         227         228
    1  -0.0090171  -0.0230871   0.0114098  -0.0130840   0.0405924  -0.0048185
    2   0.0023630  -0.0090063  -0.0178110   0.0301723   0.0250397   0.0047438
    3   0.0066466  -0.0189015   0.0246096   0.0136047   0.0246154  -0.0040022
          229         230         231         232         233         234
    1  -0.0075949   0.0229556  -0.0300400   0.0008628  -0.0099740   0.0135600
    2   0.0338288  -0.0004774  -0.0086062  -0.1006436  -0.0103005  -0.0147238
    3   0.0062714  -0.0230165  -0.0073579  -0.0429730   0.0005182   0.0252708
          235         236         237         238         239         240
    1  -0.0285176  -0.0018685   0.0505271  -0.0055225   0.0160116   0.0025367
    2   0.0111868  -0.0252739  -0.0148619  -0.0013231  -0.0251776   0.0186651
    3   0.0113535  -0.0243094  -0.0129191   0.0117582   0.0247827  -0.0074764
          241         242         243         244         245         246
    1  -0.0354878  -0.0708748  -0.0040661  -0.0187063  -0.0218044   0.0112223
    2  -0.0104066   0.0587557   0.0020081   0.0139897  -0.0011328   0.0211029
    3   0.0086757  -0.0630465  -0.0008217  -0.0279528   0.0246202   0.0207433
          247         248         249         250         251         252
    1   0.0318236  -0.0034075  -0.0153841   0.0141559  -0.0207016   0.0592563
    2   0.0126628  -0.0066075  -0.0062132  -0.0263138  -0.0101341  -0.0261608
    3  -0.0535400  -0.0033333  -0.0301851   0.0005747   0.0232085   0.0887478
          253         254         255         256         257         258
    1   0.0020185  -0.0198974   0.0138075   0.0314407   0.0158958  -0.0015450
    2   0.0041385   0.0168496  -0.0204792   0.0068803  -0.0399838   0.0067793
    3   0.0066866   0.0133083   0.0185599  -0.0089752  -0.0275869  -0.0040568
          259         260         261         262         263         264
    1  -0.0377632  -0.0062347   0.0378251  -0.0866413  -0.0017866   0.0309701
    2  -0.0078325   0.0222854   0.0120314  -0.0020451  -0.0025295  -0.0089597
    3  -0.0132621   0.0174677  -0.0062041   0.0701195   0.0087013   0.0076510
          265         266         267         268         269         270
    1  -0.0230940  -0.0184448   0.0133264   0.0056141   0.0060036  -0.0084912
    2   0.0167713  -0.0265717  -0.0343882   0.0076841   0.0240117   0.0162409
    3   0.0168444   0.0144416  -0.0352866  -0.0016790  -0.0213363   0.0257403
          271         272         273         274         275         276
    1   0.0340501  -0.0888038  -0.0049056   0.0012077  -0.0285423   0.0057355
    2  -0.0110318   0.0627415  -0.0116469  -0.0033847   0.0150941  -0.0335773
    3   0.0006002   0.0124413   0.0043255   0.0331865   0.0038178  -0.0173678
          277         278         279         280         281         282
    1  -0.0134865   0.0073983   0.0222104  -0.0058528   0.0108789   0.0160270
    2   0.0250269  -0.0013488   0.0268635  -0.0304896  -0.0160468   0.0544816
    3  -0.0461016   0.0000811   0.0017205   0.0126920  -0.0263619   0.0950256
          283         284         285         286         287         288
    1   0.0010694   0.0198871   0.0139694  -0.0123184  -0.0288027   0.0082822
    2  -0.0086535   0.0140797  -0.0218746  -0.0172433   0.0438897   0.0017257
    3  -0.0010218  -0.0185458   0.0207228  -0.0260511  -0.0370254   0.0066697
          289         290         291         292         293         294
    1   0.0182640   0.0023913   0.0283766  -0.0574246  -0.0009538   0.0177742
    2   0.0112585   0.0146031  -0.0086757  -0.0642027  -0.0012271   0.0111257
    3  -0.0272148   0.0318573   0.0319568   0.0652738   0.0132991   0.0298056
          295         296         297         298         299         300
    1  -0.0253798   0.0031069  -0.0378502   0.0085504   0.0037236  -0.0092199
    2   0.0143864  -0.0257552  -0.0057360  -0.0019010  -0.0100335  -0.0063861
    3   0.0133683  -0.0082526  -0.0452387   0.0001800   0.0362252  -0.0363294
          301         302
    1   0.0076410   0.0013953
    2   0.0277474   0.0991952
    3   0.0057271   0.0684579
  --- DONE ESP SUMMARY ---
 Total job time:  30.55s(wall), 78.65s(cpu) 
 Thu Jul 21 15:23:34 2022

        *************************************************************
        *                                                           *
        *  Thank you very much for using Q-Chem.  Have a nice day.  *
        *                                                           *
        *************************************************************


