                  Welcome to Q-Chem
     A Quantum Leap Into The Future Of Chemistry


 Q-Chem 6.0 (devel), Q-Chem, Inc., Pleasanton, CA (2022)

 E. Epifanovsky,  A. T. B. Gilbert,  Xintian Feng,  Joonho Lee,  Yuezhi Mao,  
 N. Mardirossian,  P. Pokhilko,  A. White,  M. Wormit,  M. P. Coons,  
 A. L. Dempwolff,  Zhengting Gan,  D. Hait,  P. R. Horn,  L. D. Jacobson,  
 I. Kaliman,  J. Kussmann,  A. W. Lange,  Ka Un Lao,  D. S. Levine,  Jie Liu,  
 S. C. McKenzie,  A. F. Morrison,  K. Nanda,  F. Plasser,  D. R. Rehn,  
 M. L. Vidal,  Zhi-Qiang You,  Ying Zhu,  B. Alam,  B. Albrecht,  
 A. Aldossary,  E. Alguire,  J. H. Andersen,  V. Athavale,  D. Barton,  
 K. Begam,  A. Behn,  N. Bellonzi,  Y. A. Bernard,  E. J. Berquist,  
 H. Burton,  A. Carreras,  K. Carter-Fenk,  Romit Chakraborty,  
 Chandrima Chakravarty,  Junhan Chen,  A. D. Chien,  K. D. Closser,  
 V. Cofer-Shabica,  L. Cunha,  S. Dasgupta,  Jia Deng,  M. de Wergifosse,  
 M. Diedenhofen,  Hainam Do,  S. Ehlert,  Po-Tung Fang,  S. Fatehi,  
 Qingguo Feng,  T. Friedhoff,  B. Ganoe,  J. Gayvert,  Qinghui Ge,  
 G. Gidofalvi,  M. Goldey,  J. Gomes,  C. Gonzalez-Espinoza,  S. Gulania,  
 A. Gunina,  J. A. Gyamfi,  M. W. D. Hanson-Heine,  P. H. P. Harbach,  
 A. W. Hauser,  M. F. Herbst,  M. Hernandez Vera,  M. Hodecker,  
 Z. C. Holden,  S. Houck,  Xunkun Huang,  Kerwin Hui,  B. C. Huynh,  
 K. Ikeda,  M. Ivanov,  Hyunjun Ji,  Zuxin Jin,  Hanjie Jiang,  B. Kaduk,  
 S. Kaehler,  R. Kang,  K. Khistyaev,  Jaehoon Kim,  Yongbin Kim,  
 P. Klunzinger,  Z. Koczor-Benda,  Joong Hoon Koh,  D. Kosenkov,  
 Saikiran Kotaru,  L. Koulias,  T. Kowalczyk,  C. M. Krauter,  K. Kue,  
 A. Kunitsa,  T. Kus,  A. Landau,  K. V. Lawler,  D. Lefrancois,  S. Lehtola,  
 Rain Li,  Shaozhi Li,  Yi-Pei Li,  Jiashu Liang,  M. Liebenthal,  
 Hung-Hsuan Lin,  You-Sheng Lin,  Fenglai Liu,  Kuan-Yu Liu,  
 M. Loipersberger,  A. Luenser,  C. Malbon,  A. Manjanath,  P. Manohar,  
 E. Mansoor,  S. F. Manzer,  Shan-Ping Mao,  A. V. Marenich,  T. Markovich,  
 S. Mason,  F. Matz,  S. A. Maurer,  P. F. McLaughlin,  M. F. S. J. Menger,  
 J.-M. Mewes,  S. A. Mewes,  P. Morgante,  Mohammad Mostafanejad,  
 J. W. Mullinax,  K. J. Oosterbaan,  G. Paran,  V. Parravicini,  
 Alexander C. Paul,  Suranjan K. Paul,  F. Pavosevic,  Zheng Pei,  S. Prager,  
 E. I. Proynov,  E. Ramos,  B. Rana,  A. E. Rask,  A. Rettig,  R. M. Richard,  
 F. Rob,  E. Rossomme,  T. Scheele,  M. Scheurer,  M. Schneider,  
 P. E. Schneider,  N. Sergueev,  S. M. Sharada,  Hengyuan Shen,  
 W. Skomorowski,  D. W. Small,  C. J. Stein,  Yingli Su,  Yu-Chuan Su,  
 E. J. Sundstrom,  Zhen Tao,  J. Thirman,  Hung-Yi Tsai,  T. Tsuchimochi,  
 N. M. Tubman,  C. Utku,  S. P. Veccham,  O. Vydrov,  J. Wenzel,  
 Jonathan Wong,  J. Witte,  A. Yamada,  Chou-Hsun Yang,  Kun Yao,  
 S. Yeganeh,  S. R. Yost,  A. Zech,  F. Zeller,  Igor Ying Zhang,  
 Xing Zhang,  Yu Zhang,  D. Zuev,  A. Aspuru-Guzik,  A. T. Bell,  
 N. A. Besley,  K. B. Bravaya,  B. R. Brooks,  D. Casanova,  Jeng-Da Chai,  
 Hsing-Ta Chen,  S. Coriani,  C. J. Cramer,  A. E. DePrince, III,  
 R. A. DiStasio Jr.,  A. Dreuw,  B. D. Dunietz,  T. R. Furlani,  
 W. A. Goddard III,  S. Grimme,  S. Hammes-Schiffer,  T. Head-Gordon,  
 W. J. Hehre,  Chao-Ping Hsu,  T.-C. Jagau,  Yousung Jung,  A. Klamt,  
 Jing Kong,  D. S. Lambrecht,  Xiangyuan Li,  WanZhen Liang,  N. J. Mayhall,  
 C. W. McCurdy,  J. B. Neaton,  T. Neudecker,  C. Ochsenfeld,  
 J. A. Parkhill,  R. Peverati,  V. A. Rassolov,  Haisheng Ren,  Yihan Shao,  
 L. V. Slipchenko,  R. P. Steele,  J. E. Subotnik,  A. J. W. Thom,  
 A. Tkatchenko,  D. G. Truhlar,  T. Van Voorhis,  Fan Wang,  
 T. A. Wesolowski,  K. B. Whaley,  H. L. Woodcock III,  P. M. Zimmerman,  
 S. Faraji,  P. M. W. Gill,  M. Head-Gordon,  J. M. Herbert,  A. I. Krylov

 Contributors to earlier versions of Q-Chem not listed above: 
 R. D. Adamson,  B. Austin,  R. Baer,  J. Baker,  G. J. O. Beran,  
 K. Brandhorst,  S. T. Brown,  E. F. C. Byrd,  Arup K. Chakraborty,  
 G. K. L. Chan,  Chun-Min Chang,  Yunqing Chen,  C.-L. Cheng,  
 Siu Hung Chien,  D. M. Chipman,  D. L. Crittenden,  H. Dachsel,  
 R. J. Doerksen,  A. D. Dutoi,  R. G. Edgar,  J. Fosso-Tande,  
 L. Fusti-Molnar,  D. Ghosh,  A. Ghysels,  A. Golubeva-Zadorozhnaya,  
 J. Gonthier,  M. S. Gordon,  S. R. Gwaltney,  G. Hawkins,  J. E. Herr,  
 A. Heyden,  S. Hirata,  E. G. Hohenstein,  G. Kedziora,  F. J. Keil,  
 C. Kelley,  Jihan Kim,  R. A. King,  R. Z. Khaliullin,  P. P. Korambath,  
 W. Kurlancheek,  A. Laurent,  A. M. Lee,  M. S. Lee,  S. V. Levchenko,  
 Ching Yeh Lin,  D. Liotard,  E. Livshits,  R. C. Lochan,  I. Lotan,  
 L. A. Martinez-Martinez,  P. E. Maslen,  N. Nair,  D. P. O'Neill,  
 D. Neuhauser,  E. Neuscamman,  C. M. Oana,  R. Olivares-Amaya,  R. Olson,  
 T. M. Perrine,  B. Peters,  P. A. Pieniazek,  A. Prociuk,  Y. M. Rhee,  
 J. Ritchie,  M. A. Rohrdanz,  E. Rosta,  N. J. Russ,  H. F. Schaefer III,  
 M. W. Schmidt,  N. E. Schultz,  S. Sharma,  N. Shenvi,  C. D. Sherrill,  
 A. C. Simmonett,  A. Sodt,  T. Stein,  D. Stuck,  K. S. Thanthiriwatte,  
 V. Vanovschi,  L. Vogt,  Tao Wang,  A. Warshel,  M. A. Watson,  
 C. F. Williams,  Q. Wu,  X. Xu,  Jun Yang,  W. Zhang,  Yan Zhao

   Please cite Q-Chem as follows:
  "Software for the frontiers of quantum chemistry:
   An overview of developments in the Q-Chem 5 package"
   J. Chem. Phys. 155, 084801 (2021)
   https://doi.org/10.1063/5.0055522 (open access)

 Q-Chem 6.0.0 for Intel X86 EM64T Linux

 Parts of Q-Chem use Armadillo 9.900.5 (Nocturnal Misbehaviour).
 http://arma.sourceforge.net/

 Q-Chem begins on Thu Jul 21 03:52:49 2022  

 Host: nid00561
0

     Scratch files written to /global/cscratch1/sd/ymao90/r7.00_frame_0003_almo_B3LYP_dp20220721031447//
 Processing $rem in /global/homes/y/ymao90/my_qchem/qchem_embedding_5p4/config/preferences:
 Processing $rem in /global/homes/y/ymao90/.qchemrc:

 Checking the input file for inconsistencies... 	...done.

--------------------------------------------------------------
User input:
--------------------------------------------------------------
$molecule
0 1
--
0 1
C    19.32600   21.89900   28.35500  
C    19.68100   20.41700   28.55800  
C    19.35200   19.60300   27.29600  
C    19.97300   20.19600   26.02000  
C    19.57700   21.66700   25.81100  
C    19.96400   22.45700   27.07200  
H    19.62100   18.56900   27.54300  
H    20.75500   20.31500   28.75700  
H    18.24100   22.01400   28.24300  
H    19.61900   22.47700   29.24000  
H    21.06200   20.07100   26.04300  
H    19.62700   19.77800   25.06700  
H    19.96800   22.28000   24.99000  
H    18.48500   21.64900   25.71000  
H    21.04600   22.37000   27.22700  
H    19.79400   23.52800   26.90700  
H    18.26100   19.51800   27.22300  
N    18.76600   19.88500   29.56700  
H    17.77700   19.72100   29.41900  
C    19.22200   19.15500   30.64400  
H    18.42400   18.67000   31.23500  
O    20.40400   19.03200   30.91400  
--
0 1
C    22.80900   18.67600   28.68600  
H    22.98000   18.02400   29.54700  
H    23.19300   19.63600   29.04000  
H    21.73100   18.65800   28.50300  
S    23.68200   18.26100   27.16000  
C    25.22900   17.67500   27.88800  
H    25.63200   18.45000   28.54400  
H    24.88400   16.81500   28.46800  
H    25.85600   17.38200   27.04200  
O    23.98800   19.62900   26.63400  
C    22.24800   13.30500   29.57200  
H    21.75100   14.25700   29.36300  
H    23.32700   13.47500   29.60200  
H    21.90100   12.67100   28.75200  
S    21.48200   12.61300   31.05400  
C    21.99800   13.79700   32.31800  
H    23.04000   14.01100   32.06400  
H    21.43600   14.73400   32.26600  
H    21.77600   13.20000   33.20500  
O    22.21200   11.35700   31.41800  
C    18.44700   22.59600   37.10900  
H    18.46700   21.65900   37.67100  
H    18.91900   23.41700   37.65600  
H    17.42100   22.85400   36.83500  
S    19.32800   22.44400   35.53900  
C    18.13800   23.35100   34.52500  
H    18.62700   23.47200   33.55500  
H    17.22300   22.75300   34.51200  
H    17.93900   24.32000   34.99100  
O    18.93700   21.04100   35.19000  
C    15.76700   19.99000   33.72300  
H    16.76000   19.99400   34.17900  
H    15.29500   19.00400   33.72600  
H    15.69000   20.38200   32.70600  
S    14.66700   21.13200   34.58800  
C    15.18000   20.81700   36.29200  
H    14.88800   19.80900   36.59800  
H    16.26500   20.90700   36.38600  
H    14.66700   21.54200   36.92900  
O    13.35900   20.42100   34.43600  
C    14.68900   16.80600   29.67100  
H    14.29000   16.05800   30.36100  
H    13.92000   17.21500   29.01000  
H    15.45900   16.30200   29.08200  
S    15.38700   18.07000   30.75800  
C    13.78100   18.86300   30.99000  
H    13.85500   19.70500   31.68300  
H    13.39900   19.16900   30.01300  
H    13.13100   18.08000   31.38800  
O    15.96800   19.15900   29.91100  
C    21.94400   17.03000   21.97900  
H    22.59500   16.17200   22.16200  
H    21.82500   17.26200   20.91700  
H    22.37900   17.94300   22.39400  
S    20.33200   16.60500   22.67700  
C    20.80300   16.74700   24.41600  
H    21.61400   16.02400   24.53400  
H    21.15500   17.77200   24.55400  
H    19.99300   16.56500   25.12700  
O    20.20900   15.13700   22.41300  
C    25.41700   21.77200   28.45400  
H    25.40100   21.21400   27.51500  
H    26.02100   22.68300   28.43700  
H    25.78400   21.15200   29.27600  
S    23.76300   22.38500   28.84600  
C    23.56800   23.24300   27.26800  
H    23.64400   22.49900   26.47000  
H    22.59500   23.72000   27.12800  
H    24.36400   23.97500   27.10800  
O    24.02300   23.43300   29.88300  
C    21.24400   23.23800   31.70700  
H    21.47100   23.51500   32.74000  
H    20.64000   22.32800   31.66500  
H    22.22700   23.03000   31.27700  
S    20.59600   24.64300   30.77400  
C    21.87100   25.87900   31.10900  
H    22.73500   25.29600   30.77800  
H    21.74300   26.86600   30.65900  
H    21.92900   26.00500   32.19300  
O    19.48600   25.06800   31.68400  
C    19.92900   26.63100   27.62000  
H    19.39500   26.74000   26.67200  
H    19.68000   25.63300   27.99000  
H    19.65300   27.34900   28.39500  
S    21.66800   26.53700   27.13700  
C    21.69100   28.23400   26.51600  
H    21.15600   28.15400   25.56600  
H    21.13500   28.81800   27.25400  
H    22.70200   28.59900   26.31600  
O    21.77400   25.75300   25.86600  
C    12.17900   24.35000   28.28800  
H    11.23000   24.75400   28.65200  
H    13.01400   25.05200   28.34800  
H    12.00100   23.97300   27.27700  
S    12.63300   22.97000   29.36300  
C    11.06400   22.12600   29.05800  
H    10.99100   21.19700   29.62800  
H    10.22800   22.76700   29.34700  
H    11.02800   21.98800   27.97400  
O    12.33400   23.58200   30.69600  
C    16.34900   14.87300   33.70500  
H    16.45100   13.89000   34.17200  
H    16.82200   15.65300   34.30700  
H    15.27000   15.04700   33.70700  
S    17.03500   14.98200   32.03700  
C    16.22300   13.50400   31.38700  
H    16.49700   13.21700   30.36800  
H    16.45200   12.64100   32.01600  
H    15.16500   13.77600   31.42400  
O    18.44400   14.48800   32.15000  
C    23.54100   19.47500   32.28000  
H    24.39900   20.14000   32.41100  
H    22.98600   19.68000   31.36100  
H    22.93700   19.56500   33.18700  
S    24.22900   17.80900   32.15400  
C    25.28900   17.78100   33.61700  
H    25.82700   18.73100   33.67200  
H    24.61800   17.66300   34.47200  
H    26.03300   16.98100   33.59500  
O    25.15400   17.89000   30.98000  
C    20.03900   18.15500   34.55700  
H    20.56200   19.10900   34.66100  
H    19.44800   17.97900   33.65500  
H    19.38900   18.10200   35.43400  
S    21.23300   16.83900   34.88700  
C    20.20800   15.38800   35.21800  
H    19.74200   15.01900   34.30100  
H    20.83300   14.59900   35.64400  
H    19.39500   15.68200   35.88600  
O    21.80000   17.10900   36.24600  
C    22.23300   26.62300   22.47500  
H    22.44100   25.63500   22.05800  
H    22.91600   27.29700   21.95100  
H    22.48500   26.54900   23.53600  
S    20.51500   27.11900   22.21400  
C    19.82500   25.65400   23.01700  
H    18.74200   25.53600   22.93500  
H    20.19000   24.73700   22.54800  
H    19.96900   25.61900   24.10000  
O    20.35300   26.78800   20.76300  
C    25.50600   18.18800   23.86800  
H    26.35900   18.15900   24.55100  
H    24.87000   19.07400   23.93100  
H    25.04400   17.19800   23.91500  
S    26.17700   18.21700   22.19000  
C    27.38000   16.91300   22.53400  
H    28.24700   16.82300   21.87400  
H    27.72300   17.23100   23.52200  
H    26.83800   15.97300   22.65900  
O    27.00900   19.46000   22.13300  
C    21.36500   20.53500   20.36300  
H    21.78500   19.58500   20.02400  
H    21.42900   21.19200   19.49200  
H    21.96800   20.82600   21.22800  
S    19.64100   20.39300   20.88300  
C    19.49600   22.17000   21.17800  
H    20.33200   22.47200   21.81500  
H    19.65100   22.61700   20.19300  
H    18.47700   22.50500   21.38900  
O    19.71800   19.77400   22.24400  
C    16.42600   29.76300   24.28300  
H    15.62400   30.25200   24.84300  
H    16.97800   30.62200   23.89200  
H    16.08800   29.13000   23.45900  
S    17.41300   28.74800   25.40600  
C    18.15300   30.10900   26.33700  
H    18.71900   30.63900   25.56700  
H    17.39800   30.84300   26.63100  
H    18.83400   29.84500   27.15000  
O    18.68400   28.35900   24.71900  
C    25.12700   22.50400   23.94600  
H    25.54600   22.32600   24.93900  
H    25.45200   21.71100   23.26900  
H    25.53000   23.43600   23.54000  
S    23.34900   22.72000   23.70300  
C    22.95100   20.96200   23.82000  
H    23.14400   20.58000   24.82600  
H    21.86400   20.93900   23.70900  
H    23.43100   20.32200   23.07500  
O    23.13900   22.91300   22.23400  
C    15.40700   21.54800   27.32700  
H    16.17900   21.39700   26.56800  
H    15.23600   22.61100   27.51500  
H    15.76200   21.06100   28.23900  
S    13.97400   20.55600   26.85000  
C    14.77900   18.96400   26.55900  
H    14.02900   18.22200   26.27100  
H    15.49900   19.18600   25.76800  
H    15.32300   18.63200   27.44700  
O    13.55900   21.02500   25.49000  
C    17.19700   25.09000   26.10600  
H    18.21000   25.01200   25.70400  
H    17.19600   25.86300   26.87900  
H    16.97600   24.13700   26.59300  
S    16.10700   25.42500   24.70400  
C    14.52000   24.98300   25.44600  
H    14.65100   23.93000   25.71100  
H    14.26900   25.59100   26.31800  
H    13.67700   25.16000   24.77400  
O    16.27900   24.18700   23.88000  
C    18.45300   15.83500   28.81200  
H    18.77700   14.86200   29.18900  
H    19.27300   16.49400   28.52000  
H    17.75400   16.45200   29.38200  
S    17.69800   15.58700   27.18900  
C    19.05500   14.53600   26.62500  
H    19.20400   14.66600   25.55000  
H    19.97900   14.80000   27.14700  
H    18.75200   13.49300   26.74700  
O    17.89200   16.89600   26.48900  
C    16.64700   22.82000   31.05900  
H    17.19900   22.17900   30.36700  
H    17.04100   22.94300   32.07100  
H    15.65400   22.36400   31.10300  
S    16.73500   24.45900   30.30500  
C    15.36400   24.93900   31.38000  
H    15.15900   25.99600   31.18700  
H    14.55200   24.26300   31.10200  
H    15.69400   24.85300   32.41800  
O    16.12700   24.37200   28.94000  
C    16.98000   18.06800   23.50600  
H    16.19600   17.84700   24.23500  
H    17.14200   17.13300   22.96300  
H    17.89800   18.38400   24.00700  
S    16.51600   19.44200   22.42800  
C    16.82700   20.74200   23.64300  
H    17.87400   21.03900   23.74500  
H    16.49900   21.69400   23.21700  
H    16.36500   20.58500   24.62100  
O    15.06800   19.35600   22.05500  
$end

$rem
JOBTYPE  SP
METHOD  B3LYP
BASIS  6-31+G(D)
SYMMETRY  FALSE
SYM_IGNORE  TRUE
MEM_TOTAL  12000
MEM_STATIC  4000
BASIS_LIN_DEP_THRESH  6
THRESH  14
SCF_CONVERGENCE  8
FD_MAT_VEC_PROD  FALSE
XC_GRID  000075000302
NL_GRID  1
MAX_SCF_CYCLES  200
FRGM_METHOD  STOLL
SCFMI_MODE  1
ALMO_EFIELD  TRUE
$end

$rem_frgm
SCF_CONVERGENCE  4
$end


--------------------------------------------------------------
 ----------------------------------------------------------------
             Standard Nuclear Orientation (Angstroms)
    I     Atom           X                Y                Z
 ----------------------------------------------------------------
    1      C      19.3260000000    21.8990000000    28.3550000000
    2      C      19.6810000000    20.4170000000    28.5580000000
    3      C      19.3520000000    19.6030000000    27.2960000000
    4      C      19.9730000000    20.1960000000    26.0200000000
    5      C      19.5770000000    21.6670000000    25.8110000000
    6      C      19.9640000000    22.4570000000    27.0720000000
    7      H      19.6210000000    18.5690000000    27.5430000000
    8      H      20.7550000000    20.3150000000    28.7570000000
    9      H      18.2410000000    22.0140000000    28.2430000000
   10      H      19.6190000000    22.4770000000    29.2400000000
   11      H      21.0620000000    20.0710000000    26.0430000000
   12      H      19.6270000000    19.7780000000    25.0670000000
   13      H      19.9680000000    22.2800000000    24.9900000000
   14      H      18.4850000000    21.6490000000    25.7100000000
   15      H      21.0460000000    22.3700000000    27.2270000000
   16      H      19.7940000000    23.5280000000    26.9070000000
   17      H      18.2610000000    19.5180000000    27.2230000000
   18      N      18.7660000000    19.8850000000    29.5670000000
   19      H      17.7770000000    19.7210000000    29.4190000000
   20      C      19.2220000000    19.1550000000    30.6440000000
   21      H      18.4240000000    18.6700000000    31.2350000000
   22      O      20.4040000000    19.0320000000    30.9140000000
   23      C      22.8090000000    18.6760000000    28.6860000000
   24      H      22.9800000000    18.0240000000    29.5470000000
   25      H      23.1930000000    19.6360000000    29.0400000000
   26      H      21.7310000000    18.6580000000    28.5030000000
   27      S      23.6820000000    18.2610000000    27.1600000000
   28      C      25.2290000000    17.6750000000    27.8880000000
   29      H      25.6320000000    18.4500000000    28.5440000000
   30      H      24.8840000000    16.8150000000    28.4680000000
   31      H      25.8560000000    17.3820000000    27.0420000000
   32      O      23.9880000000    19.6290000000    26.6340000000
   33      C      22.2480000000    13.3050000000    29.5720000000
   34      H      21.7510000000    14.2570000000    29.3630000000
   35      H      23.3270000000    13.4750000000    29.6020000000
   36      H      21.9010000000    12.6710000000    28.7520000000
   37      S      21.4820000000    12.6130000000    31.0540000000
   38      C      21.9980000000    13.7970000000    32.3180000000
   39      H      23.0400000000    14.0110000000    32.0640000000
   40      H      21.4360000000    14.7340000000    32.2660000000
   41      H      21.7760000000    13.2000000000    33.2050000000
   42      O      22.2120000000    11.3570000000    31.4180000000
   43      C      18.4470000000    22.5960000000    37.1090000000
   44      H      18.4670000000    21.6590000000    37.6710000000
   45      H      18.9190000000    23.4170000000    37.6560000000
   46      H      17.4210000000    22.8540000000    36.8350000000
   47      S      19.3280000000    22.4440000000    35.5390000000
   48      C      18.1380000000    23.3510000000    34.5250000000
   49      H      18.6270000000    23.4720000000    33.5550000000
   50      H      17.2230000000    22.7530000000    34.5120000000
   51      H      17.9390000000    24.3200000000    34.9910000000
   52      O      18.9370000000    21.0410000000    35.1900000000
   53      C      15.7670000000    19.9900000000    33.7230000000
   54      H      16.7600000000    19.9940000000    34.1790000000
   55      H      15.2950000000    19.0040000000    33.7260000000
   56      H      15.6900000000    20.3820000000    32.7060000000
   57      S      14.6670000000    21.1320000000    34.5880000000
   58      C      15.1800000000    20.8170000000    36.2920000000
   59      H      14.8880000000    19.8090000000    36.5980000000
   60      H      16.2650000000    20.9070000000    36.3860000000
   61      H      14.6670000000    21.5420000000    36.9290000000
   62      O      13.3590000000    20.4210000000    34.4360000000
   63      C      14.6890000000    16.8060000000    29.6710000000
   64      H      14.2900000000    16.0580000000    30.3610000000
   65      H      13.9200000000    17.2150000000    29.0100000000
   66      H      15.4590000000    16.3020000000    29.0820000000
   67      S      15.3870000000    18.0700000000    30.7580000000
   68      C      13.7810000000    18.8630000000    30.9900000000
   69      H      13.8550000000    19.7050000000    31.6830000000
   70      H      13.3990000000    19.1690000000    30.0130000000
   71      H      13.1310000000    18.0800000000    31.3880000000
   72      O      15.9680000000    19.1590000000    29.9110000000
   73      C      21.9440000000    17.0300000000    21.9790000000
   74      H      22.5950000000    16.1720000000    22.1620000000
   75      H      21.8250000000    17.2620000000    20.9170000000
   76      H      22.3790000000    17.9430000000    22.3940000000
   77      S      20.3320000000    16.6050000000    22.6770000000
   78      C      20.8030000000    16.7470000000    24.4160000000
   79      H      21.6140000000    16.0240000000    24.5340000000
   80      H      21.1550000000    17.7720000000    24.5540000000
   81      H      19.9930000000    16.5650000000    25.1270000000
   82      O      20.2090000000    15.1370000000    22.4130000000
   83      C      25.4170000000    21.7720000000    28.4540000000
   84      H      25.4010000000    21.2140000000    27.5150000000
   85      H      26.0210000000    22.6830000000    28.4370000000
   86      H      25.7840000000    21.1520000000    29.2760000000
   87      S      23.7630000000    22.3850000000    28.8460000000
   88      C      23.5680000000    23.2430000000    27.2680000000
   89      H      23.6440000000    22.4990000000    26.4700000000
   90      H      22.5950000000    23.7200000000    27.1280000000
   91      H      24.3640000000    23.9750000000    27.1080000000
   92      O      24.0230000000    23.4330000000    29.8830000000
   93      C      21.2440000000    23.2380000000    31.7070000000
   94      H      21.4710000000    23.5150000000    32.7400000000
   95      H      20.6400000000    22.3280000000    31.6650000000
   96      H      22.2270000000    23.0300000000    31.2770000000
   97      S      20.5960000000    24.6430000000    30.7740000000
   98      C      21.8710000000    25.8790000000    31.1090000000
   99      H      22.7350000000    25.2960000000    30.7780000000
  100      H      21.7430000000    26.8660000000    30.6590000000
  101      H      21.9290000000    26.0050000000    32.1930000000
  102      O      19.4860000000    25.0680000000    31.6840000000
  103      C      19.9290000000    26.6310000000    27.6200000000
  104      H      19.3950000000    26.7400000000    26.6720000000
  105      H      19.6800000000    25.6330000000    27.9900000000
  106      H      19.6530000000    27.3490000000    28.3950000000
  107      S      21.6680000000    26.5370000000    27.1370000000
  108      C      21.6910000000    28.2340000000    26.5160000000
  109      H      21.1560000000    28.1540000000    25.5660000000
  110      H      21.1350000000    28.8180000000    27.2540000000
  111      H      22.7020000000    28.5990000000    26.3160000000
  112      O      21.7740000000    25.7530000000    25.8660000000
  113      C      12.1790000000    24.3500000000    28.2880000000
  114      H      11.2300000000    24.7540000000    28.6520000000
  115      H      13.0140000000    25.0520000000    28.3480000000
  116      H      12.0010000000    23.9730000000    27.2770000000
  117      S      12.6330000000    22.9700000000    29.3630000000
  118      C      11.0640000000    22.1260000000    29.0580000000
  119      H      10.9910000000    21.1970000000    29.6280000000
  120      H      10.2280000000    22.7670000000    29.3470000000
  121      H      11.0280000000    21.9880000000    27.9740000000
  122      O      12.3340000000    23.5820000000    30.6960000000
  123      C      16.3490000000    14.8730000000    33.7050000000
  124      H      16.4510000000    13.8900000000    34.1720000000
  125      H      16.8220000000    15.6530000000    34.3070000000
  126      H      15.2700000000    15.0470000000    33.7070000000
  127      S      17.0350000000    14.9820000000    32.0370000000
  128      C      16.2230000000    13.5040000000    31.3870000000
  129      H      16.4970000000    13.2170000000    30.3680000000
  130      H      16.4520000000    12.6410000000    32.0160000000
  131      H      15.1650000000    13.7760000000    31.4240000000
  132      O      18.4440000000    14.4880000000    32.1500000000
  133      C      23.5410000000    19.4750000000    32.2800000000
  134      H      24.3990000000    20.1400000000    32.4110000000
  135      H      22.9860000000    19.6800000000    31.3610000000
  136      H      22.9370000000    19.5650000000    33.1870000000
  137      S      24.2290000000    17.8090000000    32.1540000000
  138      C      25.2890000000    17.7810000000    33.6170000000
  139      H      25.8270000000    18.7310000000    33.6720000000
  140      H      24.6180000000    17.6630000000    34.4720000000
  141      H      26.0330000000    16.9810000000    33.5950000000
  142      O      25.1540000000    17.8900000000    30.9800000000
  143      C      20.0390000000    18.1550000000    34.5570000000
  144      H      20.5620000000    19.1090000000    34.6610000000
  145      H      19.4480000000    17.9790000000    33.6550000000
  146      H      19.3890000000    18.1020000000    35.4340000000
  147      S      21.2330000000    16.8390000000    34.8870000000
  148      C      20.2080000000    15.3880000000    35.2180000000
  149      H      19.7420000000    15.0190000000    34.3010000000
  150      H      20.8330000000    14.5990000000    35.6440000000
  151      H      19.3950000000    15.6820000000    35.8860000000
  152      O      21.8000000000    17.1090000000    36.2460000000
  153      C      22.2330000000    26.6230000000    22.4750000000
  154      H      22.4410000000    25.6350000000    22.0580000000
  155      H      22.9160000000    27.2970000000    21.9510000000
  156      H      22.4850000000    26.5490000000    23.5360000000
  157      S      20.5150000000    27.1190000000    22.2140000000
  158      C      19.8250000000    25.6540000000    23.0170000000
  159      H      18.7420000000    25.5360000000    22.9350000000
  160      H      20.1900000000    24.7370000000    22.5480000000
  161      H      19.9690000000    25.6190000000    24.1000000000
  162      O      20.3530000000    26.7880000000    20.7630000000
  163      C      25.5060000000    18.1880000000    23.8680000000
  164      H      26.3590000000    18.1590000000    24.5510000000
  165      H      24.8700000000    19.0740000000    23.9310000000
  166      H      25.0440000000    17.1980000000    23.9150000000
  167      S      26.1770000000    18.2170000000    22.1900000000
  168      C      27.3800000000    16.9130000000    22.5340000000
  169      H      28.2470000000    16.8230000000    21.8740000000
  170      H      27.7230000000    17.2310000000    23.5220000000
  171      H      26.8380000000    15.9730000000    22.6590000000
  172      O      27.0090000000    19.4600000000    22.1330000000
  173      C      21.3650000000    20.5350000000    20.3630000000
  174      H      21.7850000000    19.5850000000    20.0240000000
  175      H      21.4290000000    21.1920000000    19.4920000000
  176      H      21.9680000000    20.8260000000    21.2280000000
  177      S      19.6410000000    20.3930000000    20.8830000000
  178      C      19.4960000000    22.1700000000    21.1780000000
  179      H      20.3320000000    22.4720000000    21.8150000000
  180      H      19.6510000000    22.6170000000    20.1930000000
  181      H      18.4770000000    22.5050000000    21.3890000000
  182      O      19.7180000000    19.7740000000    22.2440000000
  183      C      16.4260000000    29.7630000000    24.2830000000
  184      H      15.6240000000    30.2520000000    24.8430000000
  185      H      16.9780000000    30.6220000000    23.8920000000
  186      H      16.0880000000    29.1300000000    23.4590000000
  187      S      17.4130000000    28.7480000000    25.4060000000
  188      C      18.1530000000    30.1090000000    26.3370000000
  189      H      18.7190000000    30.6390000000    25.5670000000
  190      H      17.3980000000    30.8430000000    26.6310000000
  191      H      18.8340000000    29.8450000000    27.1500000000
  192      O      18.6840000000    28.3590000000    24.7190000000
  193      C      25.1270000000    22.5040000000    23.9460000000
  194      H      25.5460000000    22.3260000000    24.9390000000
  195      H      25.4520000000    21.7110000000    23.2690000000
  196      H      25.5300000000    23.4360000000    23.5400000000
  197      S      23.3490000000    22.7200000000    23.7030000000
  198      C      22.9510000000    20.9620000000    23.8200000000
  199      H      23.1440000000    20.5800000000    24.8260000000
  200      H      21.8640000000    20.9390000000    23.7090000000
  201      H      23.4310000000    20.3220000000    23.0750000000
  202      O      23.1390000000    22.9130000000    22.2340000000
  203      C      15.4070000000    21.5480000000    27.3270000000
  204      H      16.1790000000    21.3970000000    26.5680000000
  205      H      15.2360000000    22.6110000000    27.5150000000
  206      H      15.7620000000    21.0610000000    28.2390000000
  207      S      13.9740000000    20.5560000000    26.8500000000
  208      C      14.7790000000    18.9640000000    26.5590000000
  209      H      14.0290000000    18.2220000000    26.2710000000
  210      H      15.4990000000    19.1860000000    25.7680000000
  211      H      15.3230000000    18.6320000000    27.4470000000
  212      O      13.5590000000    21.0250000000    25.4900000000
  213      C      17.1970000000    25.0900000000    26.1060000000
  214      H      18.2100000000    25.0120000000    25.7040000000
  215      H      17.1960000000    25.8630000000    26.8790000000
  216      H      16.9760000000    24.1370000000    26.5930000000
  217      S      16.1070000000    25.4250000000    24.7040000000
  218      C      14.5200000000    24.9830000000    25.4460000000
  219      H      14.6510000000    23.9300000000    25.7110000000
  220      H      14.2690000000    25.5910000000    26.3180000000
  221      H      13.6770000000    25.1600000000    24.7740000000
  222      O      16.2790000000    24.1870000000    23.8800000000
  223      C      18.4530000000    15.8350000000    28.8120000000
  224      H      18.7770000000    14.8620000000    29.1890000000
  225      H      19.2730000000    16.4940000000    28.5200000000
  226      H      17.7540000000    16.4520000000    29.3820000000
  227      S      17.6980000000    15.5870000000    27.1890000000
  228      C      19.0550000000    14.5360000000    26.6250000000
  229      H      19.2040000000    14.6660000000    25.5500000000
  230      H      19.9790000000    14.8000000000    27.1470000000
  231      H      18.7520000000    13.4930000000    26.7470000000
  232      O      17.8920000000    16.8960000000    26.4890000000
  233      C      16.6470000000    22.8200000000    31.0590000000
  234      H      17.1990000000    22.1790000000    30.3670000000
  235      H      17.0410000000    22.9430000000    32.0710000000
  236      H      15.6540000000    22.3640000000    31.1030000000
  237      S      16.7350000000    24.4590000000    30.3050000000
  238      C      15.3640000000    24.9390000000    31.3800000000
  239      H      15.1590000000    25.9960000000    31.1870000000
  240      H      14.5520000000    24.2630000000    31.1020000000
  241      H      15.6940000000    24.8530000000    32.4180000000
  242      O      16.1270000000    24.3720000000    28.9400000000
  243      C      16.9800000000    18.0680000000    23.5060000000
  244      H      16.1960000000    17.8470000000    24.2350000000
  245      H      17.1420000000    17.1330000000    22.9630000000
  246      H      17.8980000000    18.3840000000    24.0070000000
  247      S      16.5160000000    19.4420000000    22.4280000000
  248      C      16.8270000000    20.7420000000    23.6430000000
  249      H      17.8740000000    21.0390000000    23.7450000000
  250      H      16.4990000000    21.6940000000    23.2170000000
  251      H      16.3650000000    20.5850000000    24.6210000000
  252      O      15.0680000000    19.3560000000    22.0550000000
 ----------------------------------------------------------------
 Nuclear Repulsion Energy =       37707.92391035 hartrees
 There are      518 alpha and      518 beta electrons
 Requested basis set is 6-31+G(d)
 There are 830 shells and 2313 basis functions

 Total QAlloc Memory Limit  12000 MB
 Mega-Array Size      3911 MB
 MEM_STATIC part      4000 MB

 A cutoff of  1.0D-14 yielded 144256 shell pairs
 There are   1239130 function pairs
 Smallest overlap matrix eigenvalue = 3.25E-07
 Linear dependence detected in AO basis
 Tighter screening thresholds may be required for diffuse basis sets
 Use S2THRESH > 14 and THRESH = 14 in case of SCF convergence issues
 Number of orthogonalized atomic orbitals = 2311
 Maximum deviation from orthogonality = 8.499E-11

 Scale SEOQF with 1.000000e-03/1.000000e-03/1.000000e-03

 Standard Electronic Orientation quadrupole field applied
 Nucleus-field energy     =    -0.0000004188 hartrees
 Attempting to make child job directory: /global/cscratch1/sd/ymao90/r7.00_frame_0003_almo_B3LYP_dp20220721031447//Frg1/
 Attempting to make child job directory: /global/cscratch1/sd/ymao90/r7.00_frame_0003_almo_B3LYP_dp20220721031447//Frg2/
 Creating input file /global/cscratch1/sd/ymao90/r7.00_frame_0003_almo_B3LYP_dp20220721031447/Frg1.input
 using default PutDataFrgm: nothing
 calling putenv with: QCSCRATCH=/global/cscratch1/sd/ymao90/r7.00_frame_0003_almo_B3LYP_dp20220721031447/ 
 Spawning Job For Fragment 0
 Done Job For Fragment 0
 calling putenv with: QCSCRATCH=/global/cscratch1/sd/ymao90 
 calling putenv with: QCTHREADS=16 
 Creating input file /global/cscratch1/sd/ymao90/r7.00_frame_0003_almo_B3LYP_dp20220721031447/Frg2.input
 using default PutDataFrgm: nothing
 calling putenv with: QCSCRATCH=/global/cscratch1/sd/ymao90/r7.00_frame_0003_almo_B3LYP_dp20220721031447/ 
 Spawning Job For Fragment 1
 Done Job For Fragment 1
 calling putenv with: QCSCRATCH=/global/cscratch1/sd/ymao90 
 calling putenv with: QCTHREADS=16 
 Time for running child jobs:  CPU 0.35 s  wall 9791.32 s

 -----------------------------------------------------------------------
  General SCF calculation program by
  Eric Jon Sundstrom, Paul Horn, Yuezhi Mao, Dmitri Zuev, Alec White,
  David Stuck, Shaama M.S., Shane Yost, Joonho Lee, David Small,
  Daniel Levine, Susi Lehtola, Hugh Burton, Evgeny Epifanovsky,
  Bang C. Huynh
 -----------------------------------------------------------------------
Performing Restricted Closed Shell SCFMI
Doing General SCFMI
 Exchange:     0.2000 Hartree-Fock + 0.0800 Slater + 0.7200 B88
 Correlation:  0.1900 VWN1RPA + 0.8100 LYP
 Using Euler-Maclaurin-Lebedev (75,302) quadrature formula
performing fock build before subrot guess so that all methods have access
 using 16 threads for integral computing
 -------------------------------------------------------
 OpenMP Integral computing Module                
 Release: version 1.0, May 2013, Q-Chem Inc. Pittsburgh 
 -------------------------------------------------------
Printing subrot_rss_gen Method Specification:
Occupied Subspace Method is 0
Virtual Subspace Method is 0
Energy prior to optimization (guess energy) = -13127.941006440858
Begin Timing: Total SCF Calculation
begin iterations for algorithm: DIIS         
the SCF tolerance is set to 1.00e-08
    1  -13127.9410064409      3.85e-05     00000 
    2  -13127.9475769147      2.90e-05     00000 
    3  -13127.9488573837      2.08e-05     00000 
    4  -13127.9495871322      8.21e-06     00000 
    5  -13127.9497157381      3.22e-06     00000 
    6  -13127.9497388525      1.75e-06     00000 
    7  -13127.9497446287      1.32e-06     00000 
    8  -13127.9497477264      6.62e-07     00000 
    9  -13127.9497484963      3.51e-07     00000 
   10  -13127.9497486738      2.35e-07     00000 
   11  -13127.9497487540      1.50e-07     00000 
   12  -13127.9497487895      9.12e-08     00000 
   13  -13127.9497488050      4.63e-08     00000 
   14  -13127.9497488089      2.87e-08     00000 
   15  -13127.9497488102      1.85e-08     00000 
   16  -13127.9497488107      1.10e-08     00000 
   17  -13127.9497488109      5.22e-09     00000 Convergence criterion met
write pseudocanon occs and virts to disk
write pseudocanon orbital energies to disk
Timing for Total SCF: 12274.00s (wall), 171786.10s (cpu)
SCFMI Energy  -13127.9497488109
<S^2>            0.00000
 Total energy in the final basis set =   -13127.9497488109
    ==================================================
        The end of Object-Oriented SCFman: SCFMI      
    ==================================================

 --------------------------------------------------------------

                    Orbital Energies (a.u.)
 --------------------------------------------------------------

 Alpha MOs
 -- Occupied --
-89.0466 -89.0458 -89.0258 -89.0235 -89.0183 -89.0174 -89.0132 -89.0103
-89.0071 -89.0070 -89.0055 -89.0030 -89.0023 -88.9980 -88.9966 -88.9963
-88.9910 -88.9899 -88.9887 -88.9823 -88.9813 -88.9626 -88.9531 -19.1590
-19.1529 -19.1432 -19.1387 -19.1344 -19.1303 -19.1291 -19.1280 -19.1263
-19.1258 -19.1245 -19.1232 -19.1150 -19.1144 -19.1144 -19.1135 -19.1106
-19.1057 -19.1002 -19.0993 -19.0989 -19.0955 -19.0748 -19.0701 -14.3722
-10.3036 -10.2643 -10.2604 -10.2585 -10.2486 -10.2465 -10.2442 -10.2399
-10.2379 -10.2376 -10.2353 -10.2349 -10.2342 -10.2331 -10.2286 -10.2268
-10.2266 -10.2264 -10.2256 -10.2242 -10.2241 -10.2222 -10.2210 -10.2208
-10.2205 -10.2204 -10.2197 -10.2192 -10.2174 -10.2171 -10.2167 -10.2153
-10.2125 -10.2104 -10.2095 -10.2082 -10.2053 -10.2051 -10.2039 -10.2025
-10.2002 -10.1967 -10.1967 -10.1933 -10.1916 -10.1912 -10.1844 -10.1834
-10.1819 -10.1761 -10.1704 -10.1697 -10.1691  -8.0928  -8.0914  -8.0726
 -8.0697  -8.0639  -8.0637  -8.0593  -8.0560  -8.0533  -8.0531  -8.0513
 -8.0491  -8.0487  -8.0443  -8.0430  -8.0423  -8.0364  -8.0355  -8.0344
 -8.0280  -8.0271  -8.0078  -7.9981  -6.0572  -6.0557  -6.0555  -6.0546
 -6.0504  -6.0489  -6.0368  -6.0356  -6.0340  -6.0327  -6.0301  -6.0282
 -6.0279  -6.0273  -6.0272  -6.0271  -6.0238  -6.0223  -6.0214  -6.0211
 -6.0206  -6.0191  -6.0178  -6.0174  -6.0167  -6.0164  -6.0162  -6.0158
 -6.0142  -6.0134  -6.0133  -6.0130  -6.0121  -6.0118  -6.0106  -6.0104
 -6.0088  -6.0087  -6.0076  -6.0073  -6.0069  -6.0068  -6.0063  -6.0062
 -6.0050  -6.0015  -6.0006  -6.0001  -5.9997  -5.9997  -5.9997  -5.9988
 -5.9987  -5.9977  -5.9941  -5.9930  -5.9925  -5.9918  -5.9914  -5.9909
 -5.9903  -5.9854  -5.9841  -5.9721  -5.9710  -5.9654  -5.9626  -5.9615
 -5.9553  -1.0739  -1.0641  -1.0581  -1.0503  -1.0489  -1.0422  -1.0397
 -1.0396  -1.0355  -1.0339  -1.0337  -1.0303  -1.0294  -1.0257  -1.0242
 -1.0221  -1.0203  -1.0149  -1.0097  -1.0088  -1.0082  -1.0067  -0.9807
 -0.9750  -0.9394  -0.8484  -0.8427  -0.8327  -0.8320  -0.8250  -0.8170
 -0.8149  -0.8146  -0.8130  -0.8113  -0.8100  -0.8091  -0.8065  -0.8044
 -0.8038  -0.8017  -0.7986  -0.7926  -0.7884  -0.7864  -0.7853  -0.7800
 -0.7708  -0.7645  -0.7604  -0.7551  -0.7535  -0.7526  -0.7524  -0.7513
 -0.7491  -0.7439  -0.7399  -0.7395  -0.7365  -0.7355  -0.7349  -0.7336
 -0.7329  -0.7251  -0.7249  -0.7225  -0.7195  -0.7190  -0.7171  -0.7156
 -0.7045  -0.6858  -0.6828  -0.6597  -0.6570  -0.6417  -0.6392  -0.6359
 -0.6329  -0.6294  -0.6263  -0.6241  -0.6209  -0.6194  -0.6176  -0.6164
 -0.6159  -0.6157  -0.6126  -0.6109  -0.6100  -0.6036  -0.6034  -0.6012
 -0.5989  -0.5983  -0.5934  -0.5775  -0.5745  -0.5698  -0.5407  -0.5282
 -0.5186  -0.5175  -0.5136  -0.5110  -0.5098  -0.5051  -0.5017  -0.5007
 -0.4996  -0.4981  -0.4966  -0.4964  -0.4949  -0.4932  -0.4925  -0.4903
 -0.4901  -0.4881  -0.4880  -0.4867  -0.4859  -0.4852  -0.4843  -0.4832
 -0.4820  -0.4817  -0.4816  -0.4814  -0.4809  -0.4801  -0.4786  -0.4781
 -0.4771  -0.4766  -0.4764  -0.4753  -0.4741  -0.4732  -0.4729  -0.4722
 -0.4711  -0.4704  -0.4696  -0.4694  -0.4687  -0.4681  -0.4673  -0.4665
 -0.4662  -0.4648  -0.4644  -0.4638  -0.4637  -0.4633  -0.4629  -0.4615
 -0.4606  -0.4599  -0.4587  -0.4580  -0.4567  -0.4547  -0.4521  -0.4516
 -0.4510  -0.4497  -0.4493  -0.4477  -0.4467  -0.4444  -0.4441  -0.4423
 -0.4415  -0.4401  -0.4398  -0.4387  -0.4383  -0.4382  -0.4368  -0.4365
 -0.4357  -0.4351  -0.4332  -0.4329  -0.4323  -0.4316  -0.4314  -0.4300
 -0.4282  -0.4281  -0.4274  -0.4272  -0.4262  -0.4257  -0.4255  -0.4254
 -0.4249  -0.4239  -0.4236  -0.4225  -0.4217  -0.4211  -0.4209  -0.4207
 -0.4202  -0.4192  -0.4184  -0.4174  -0.4166  -0.4147  -0.4136  -0.4132
 -0.4129  -0.4123  -0.4121  -0.4112  -0.4106  -0.4104  -0.4083  -0.4076
 -0.4063  -0.4054  -0.4042  -0.4039  -0.4038  -0.4028  -0.4018  -0.4009
 -0.3994  -0.3988  -0.3988  -0.3940  -0.3934  -0.3930  -0.3911  -0.3897
 -0.3891  -0.3880  -0.3863  -0.3860  -0.3844  -0.3828  -0.3806  -0.3788
 -0.3778  -0.3776  -0.3760  -0.3751  -0.3748  -0.3712  -0.3695  -0.3681
 -0.3672  -0.3669  -0.3667  -0.3648  -0.3639  -0.3617  -0.3604  -0.3602
 -0.3590  -0.3552  -0.3530  -0.3512  -0.3483  -0.3474  -0.3457  -0.3425
 -0.3413  -0.3287  -0.3247  -0.3213  -0.3197  -0.3161  -0.3138  -0.3037
 -0.2984  -0.2951  -0.2942  -0.2927  -0.2888  -0.2886  -0.2877  -0.2871
 -0.2861  -0.2813  -0.2809  -0.2775  -0.2771  -0.2764  -0.2760  -0.2744
 -0.2685  -0.2676  -0.2673  -0.2669  -0.2630  -0.2626  -0.2619  -0.2610
 -0.2581  -0.2578  -0.2559  -0.2551  -0.2539  -0.2505  -0.2487  -0.2470
 -0.2457  -0.2411  -0.2377  -0.2361  -0.2336  -0.2319  -0.2314  -0.2305
 -0.2273  -0.2262  -0.2214  -0.2170  -0.1998  -0.1867
 -- Virtual --
 -0.0534  -0.0477  -0.0443  -0.0313  -0.0309  -0.0281  -0.0274  -0.0250
 -0.0232  -0.0202  -0.0198  -0.0163  -0.0152  -0.0148  -0.0132  -0.0127
 -0.0123  -0.0106  -0.0104  -0.0097  -0.0078  -0.0076  -0.0070  -0.0061
 -0.0051  -0.0050  -0.0044  -0.0033  -0.0021  -0.0005   0.0000   0.0006
  0.0018   0.0031   0.0036   0.0042   0.0058   0.0059   0.0072   0.0100
  0.0102   0.0111   0.0120   0.0134   0.0149   0.0154   0.0158   0.0166
  0.0172   0.0176   0.0186   0.0195   0.0200   0.0216   0.0217   0.0229
  0.0233   0.0244   0.0247   0.0261   0.0275   0.0283   0.0301   0.0307
  0.0309   0.0318   0.0321   0.0330   0.0344   0.0346   0.0355   0.0359
  0.0365   0.0372   0.0374   0.0386   0.0393   0.0408   0.0413   0.0422
  0.0430   0.0435   0.0441   0.0445   0.0450   0.0456   0.0457   0.0467
  0.0475   0.0476   0.0491   0.0501   0.0503   0.0514   0.0523   0.0534
  0.0536   0.0544   0.0549   0.0558   0.0560   0.0565   0.0571   0.0575
  0.0591   0.0593   0.0602   0.0610   0.0614   0.0616   0.0627   0.0629
  0.0643   0.0655   0.0658   0.0667   0.0670   0.0682   0.0690   0.0696
  0.0698   0.0705   0.0715   0.0729   0.0734   0.0743   0.0752   0.0754
  0.0763   0.0776   0.0777   0.0780   0.0791   0.0795   0.0802   0.0814
  0.0826   0.0832   0.0846   0.0854   0.0860   0.0863   0.0866   0.0872
  0.0878   0.0890   0.0894   0.0903   0.0911   0.0917   0.0922   0.0930
  0.0936   0.0943   0.0950   0.0957   0.0968   0.0971   0.0972   0.0995
  0.0999   0.1002   0.1011   0.1017   0.1018   0.1022   0.1041   0.1044
  0.1054   0.1060   0.1063   0.1071   0.1077   0.1084   0.1095   0.1109
  0.1111   0.1112   0.1120   0.1133   0.1141   0.1142   0.1152   0.1157
  0.1162   0.1167   0.1180   0.1184   0.1196   0.1202   0.1209   0.1215
  0.1220   0.1224   0.1237   0.1241   0.1244   0.1249   0.1259   0.1265
  0.1277   0.1280   0.1293   0.1296   0.1300   0.1312   0.1319   0.1325
  0.1327   0.1338   0.1344   0.1348   0.1354   0.1364   0.1367   0.1378
  0.1386   0.1393   0.1397   0.1408   0.1414   0.1422   0.1425   0.1430
  0.1442   0.1449   0.1464   0.1466   0.1471   0.1475   0.1482   0.1484
  0.1495   0.1509   0.1516   0.1519   0.1523   0.1536   0.1541   0.1543
  0.1554   0.1556   0.1564   0.1574   0.1575   0.1577   0.1589   0.1599
  0.1605   0.1612   0.1616   0.1618   0.1619   0.1629   0.1641   0.1644
  0.1648   0.1662   0.1674   0.1684   0.1688   0.1702   0.1709   0.1714
  0.1719   0.1724   0.1730   0.1733   0.1743   0.1745   0.1754   0.1755
  0.1765   0.1772   0.1775   0.1790   0.1795   0.1799   0.1813   0.1826
  0.1833   0.1836   0.1846   0.1848   0.1860   0.1861   0.1866   0.1870
  0.1881   0.1883   0.1889   0.1898   0.1903   0.1914   0.1917   0.1928
  0.1934   0.1939   0.1941   0.1947   0.1957   0.1963   0.1968   0.1972
  0.1985   0.1993   0.1997   0.2001   0.2011   0.2018   0.2029   0.2035
  0.2037   0.2048   0.2053   0.2053   0.2073   0.2082   0.2091   0.2104
  0.2104   0.2110   0.2120   0.2127   0.2133   0.2138   0.2141   0.2150
  0.2161   0.2167   0.2175   0.2180   0.2198   0.2200   0.2205   0.2215
  0.2215   0.2224   0.2232   0.2239   0.2242   0.2256   0.2261   0.2266
  0.2284   0.2292   0.2295   0.2306   0.2313   0.2320   0.2328   0.2330
  0.2348   0.2352   0.2359   0.2368   0.2369   0.2371   0.2382   0.2391
  0.2400   0.2408   0.2410   0.2421   0.2429   0.2434   0.2436   0.2461
  0.2470   0.2476   0.2478   0.2489   0.2499   0.2502   0.2512   0.2520
  0.2530   0.2541   0.2543   0.2549   0.2558   0.2567   0.2570   0.2583
  0.2592   0.2599   0.2605   0.2613   0.2619   0.2631   0.2645   0.2649
  0.2652   0.2661   0.2672   0.2677   0.2686   0.2695   0.2704   0.2707
  0.2733   0.2738   0.2748   0.2752   0.2765   0.2774   0.2778   0.2786
  0.2799   0.2811   0.2816   0.2821   0.2827   0.2843   0.2851   0.2862
  0.2867   0.2885   0.2890   0.2896   0.2910   0.2913   0.2919   0.2939
  0.2945   0.2947   0.2959   0.2974   0.2982   0.2999   0.3004   0.3014
  0.3018   0.3024   0.3034   0.3051   0.3057   0.3059   0.3073   0.3082
  0.3086   0.3095   0.3115   0.3127   0.3136   0.3146   0.3156   0.3162
  0.3173   0.3178   0.3182   0.3191   0.3197   0.3208   0.3221   0.3228
  0.3249   0.3250   0.3257   0.3268   0.3274   0.3285   0.3295   0.3315
  0.3325   0.3333   0.3335   0.3351   0.3358   0.3363   0.3371   0.3382
  0.3395   0.3404   0.3420   0.3424   0.3432   0.3435   0.3443   0.3451
  0.3463   0.3468   0.3493   0.3498   0.3510   0.3514   0.3520   0.3532
  0.3536   0.3545   0.3553   0.3563   0.3590   0.3597   0.3604   0.3613
  0.3614   0.3625   0.3638   0.3646   0.3654   0.3670   0.3686   0.3692
  0.3700   0.3702   0.3715   0.3719   0.3732   0.3744   0.3750   0.3765
  0.3773   0.3781   0.3790   0.3812   0.3818   0.3825   0.3837   0.3840
  0.3853   0.3870   0.3874   0.3879   0.3902   0.3910   0.3923   0.3930
  0.3932   0.3950   0.3968   0.3981   0.3993   0.4002   0.4008   0.4018
  0.4024   0.4045   0.4050   0.4067   0.4076   0.4083   0.4089   0.4104
  0.4120   0.4129   0.4139   0.4141   0.4160   0.4170   0.4177   0.4181
  0.4202   0.4221   0.4228   0.4233   0.4254   0.4270   0.4272   0.4281
  0.4291   0.4301   0.4313   0.4332   0.4344   0.4367   0.4370   0.4391
  0.4394   0.4418   0.4425   0.4433   0.4443   0.4453   0.4461   0.4477
  0.4487   0.4511   0.4527   0.4530   0.4542   0.4552   0.4570   0.4574
  0.4584   0.4611   0.4619   0.4642   0.4649   0.4668   0.4679   0.4696
  0.4711   0.4725   0.4743   0.4747   0.4766   0.4776   0.4790   0.4810
  0.4836   0.4845   0.4870   0.4884   0.4908   0.4937   0.4959   0.4972
  0.4979   0.4990   0.5021   0.5031   0.5061   0.5081   0.5098   0.5107
  0.5127   0.5153   0.5169   0.5183   0.5196   0.5231   0.5257   0.5274
  0.5284   0.5309   0.5342   0.5354   0.5377   0.5384   0.5399   0.5419
  0.5428   0.5436   0.5465   0.5481   0.5502   0.5527   0.5533   0.5537
  0.5559   0.5576   0.5586   0.5600   0.5621   0.5633   0.5638   0.5659
  0.5667   0.5689   0.5698   0.5714   0.5754   0.5763   0.5767   0.5798
  0.5804   0.5843   0.5852   0.5891   0.5906   0.5930   0.5935   0.5958
  0.5968   0.5978   0.5996   0.5997   0.6011   0.6017   0.6040   0.6067
  0.6074   0.6105   0.6113   0.6133   0.6166   0.6176   0.6183   0.6191
  0.6203   0.6215   0.6216   0.6234   0.6245   0.6255   0.6267   0.6282
  0.6286   0.6302   0.6313   0.6342   0.6356   0.6364   0.6394   0.6409
  0.6428   0.6439   0.6449   0.6465   0.6468   0.6482   0.6500   0.6509
  0.6513   0.6519   0.6542   0.6544   0.6566   0.6569   0.6588   0.6596
  0.6607   0.6622   0.6626   0.6654   0.6671   0.6684   0.6696   0.6702
  0.6718   0.6743   0.6750   0.6760   0.6771   0.6790   0.6805   0.6818
  0.6835   0.6836   0.6841   0.6864   0.6870   0.6878   0.6896   0.6908
  0.6919   0.6926   0.6934   0.6950   0.6963   0.6965   0.6988   0.7010
  0.7023   0.7046   0.7067   0.7090   0.7097   0.7109   0.7119   0.7141
  0.7148   0.7167   0.7179   0.7204   0.7212   0.7225   0.7245   0.7255
  0.7265   0.7277   0.7309   0.7321   0.7328   0.7340   0.7352   0.7381
  0.7397   0.7400   0.7406   0.7424   0.7435   0.7450   0.7475   0.7480
  0.7487   0.7497   0.7533   0.7552   0.7564   0.7578   0.7590   0.7616
  0.7642   0.7646   0.7653   0.7679   0.7709   0.7723   0.7731   0.7744
  0.7765   0.7781   0.7795   0.7820   0.7836   0.7850   0.7874   0.7881
  0.7911   0.7919   0.7922   0.7940   0.7962   0.7978   0.7988   0.8011
  0.8018   0.8036   0.8054   0.8070   0.8092   0.8107   0.8126   0.8144
  0.8158   0.8170   0.8193   0.8215   0.8229   0.8253   0.8265   0.8285
  0.8293   0.8327   0.8339   0.8346   0.8360   0.8373   0.8385   0.8415
  0.8430   0.8437   0.8444   0.8475   0.8487   0.8489   0.8503   0.8526
  0.8538   0.8547   0.8562   0.8578   0.8597   0.8601   0.8612   0.8639
  0.8657   0.8669   0.8688   0.8698   0.8716   0.8719   0.8730   0.8756
  0.8778   0.8793   0.8803   0.8814   0.8817   0.8838   0.8846   0.8871
  0.8878   0.8889   0.8907   0.8932   0.8937   0.8952   0.8964   0.8978
  0.8994   0.9019   0.9027   0.9028   0.9061   0.9075   0.9094   0.9105
  0.9128   0.9130   0.9150   0.9183   0.9195   0.9206   0.9219   0.9228
  0.9237   0.9266   0.9276   0.9294   0.9298   0.9307   0.9332   0.9339
  0.9365   0.9378   0.9380   0.9395   0.9404   0.9420   0.9440   0.9446
  0.9459   0.9472   0.9492   0.9502   0.9511   0.9523   0.9530   0.9545
  0.9551   0.9575   0.9593   0.9601   0.9619   0.9632   0.9641   0.9656
  0.9682   0.9692   0.9700   0.9724   0.9730   0.9732   0.9745   0.9751
  0.9755   0.9789   0.9792   0.9800   0.9816   0.9824   0.9828   0.9844
  0.9854   0.9867   0.9881   0.9887   0.9893   0.9905   0.9910   0.9924
  0.9931   0.9948   0.9960   0.9971   0.9981   0.9996   1.0002   1.0011
  1.0020   1.0042   1.0052   1.0061   1.0079   1.0085   1.0114   1.0122
  1.0132   1.0143   1.0159   1.0174   1.0176   1.0185   1.0206   1.0220
  1.0228   1.0236   1.0252   1.0263   1.0294   1.0308   1.0319   1.0326
  1.0341   1.0343   1.0350   1.0357   1.0390   1.0410   1.0423   1.0428
  1.0448   1.0458   1.0463   1.0481   1.0498   1.0525   1.0540   1.0570
  1.0583   1.0590   1.0607   1.0622   1.0640   1.0659   1.0675   1.0698
  1.0712   1.0715   1.0736   1.0748   1.0752   1.0768   1.0785   1.0800
  1.0810   1.0818   1.0841   1.0852   1.0853   1.0870   1.0886   1.0916
  1.0929   1.0939   1.0944   1.0960   1.0978   1.0978   1.0995   1.1003
  1.1036   1.1062   1.1074   1.1098   1.1120   1.1128   1.1136   1.1147
  1.1169   1.1181   1.1204   1.1225   1.1231   1.1258   1.1263   1.1279
  1.1293   1.1310   1.1322   1.1343   1.1344   1.1360   1.1378   1.1405
  1.1418   1.1445   1.1459   1.1475   1.1479   1.1492   1.1508   1.1514
  1.1521   1.1535   1.1544   1.1558   1.1579   1.1619   1.1630   1.1636
  1.1653   1.1658   1.1673   1.1683   1.1721   1.1750   1.1755   1.1774
  1.1777   1.1790   1.1794   1.1832   1.1843   1.1858   1.1872   1.1882
  1.1890   1.1910   1.1925   1.1941   1.1955   1.1972   1.2007   1.2016
  1.2029   1.2038   1.2043   1.2087   1.2113   1.2151   1.2162   1.2190
  1.2225   1.2256   1.2272   1.2303   1.2322   1.2330   1.2360   1.2371
  1.2384   1.2410   1.2424   1.2482   1.2514   1.2535   1.2589   1.2602
  1.2607   1.2638   1.2667   1.2695   1.2719   1.2768   1.2776   1.2793
  1.2861   1.2880   1.2910   1.2923   1.2977   1.3010   1.3050   1.3069
  1.3079   1.3100   1.3132   1.3154   1.3170   1.3184   1.3217   1.3247
  1.3283   1.3291   1.3316   1.3323   1.3337   1.3357   1.3390   1.3414
  1.3427   1.3461   1.3466   1.3478   1.3493   1.3512   1.3536   1.3561
  1.3563   1.3592   1.3604   1.3616   1.3643   1.3673   1.3680   1.3705
  1.3710   1.3728   1.3732   1.3760   1.3774   1.3787   1.3814   1.3818
  1.3841   1.3865   1.3875   1.3893   1.3909   1.3922   1.3942   1.3942
  1.3970   1.3982   1.4008   1.4010   1.4031   1.4042   1.4066   1.4067
  1.4081   1.4100   1.4115   1.4124   1.4149   1.4160   1.4195   1.4207
  1.4211   1.4229   1.4258   1.4270   1.4296   1.4297   1.4322   1.4324
  1.4358   1.4381   1.4406   1.4416   1.4425   1.4448   1.4465   1.4489
  1.4511   1.4527   1.4536   1.4568   1.4588   1.4613   1.4649   1.4660
  1.4679   1.4695   1.4712   1.4723   1.4741   1.4775   1.4783   1.4803
  1.4810   1.4836   1.4862   1.4874   1.4920   1.4927   1.4940   1.5001
  1.5030   1.5043   1.5051   1.5084   1.5112   1.5137   1.5162   1.5176
  1.5208   1.5218   1.5243   1.5275   1.5315   1.5354   1.5406   1.5449
  1.5454   1.5474   1.5524   1.5542   1.5563   1.5584   1.5615   1.5676
  1.5715   1.5779   1.5793   1.5838   1.5872   1.5920   1.5978   1.6008
  1.6030   1.6089   1.6093   1.6143   1.6188   1.6225   1.6260   1.6280
  1.6288   1.6323   1.6424   1.6489   1.6524   1.6536   1.6552   1.6572
  1.6574   1.6584   1.6606   1.6622   1.6636   1.6652   1.6676   1.6704
  1.6713   1.6728   1.6732   1.6748   1.6762   1.6776   1.6797   1.6800
  1.6821   1.6824   1.6838   1.6866   1.6871   1.6895   1.6912   1.6924
  1.6935   1.6944   1.6978   1.7010   1.7017   1.7040   1.7048   1.7052
  1.7079   1.7099   1.7126   1.7139   1.7155   1.7171   1.7188   1.7206
  1.7216   1.7252   1.7265   1.7270   1.7276   1.7280   1.7294   1.7328
  1.7343   1.7364   1.7372   1.7388   1.7403   1.7419   1.7444   1.7447
  1.7462   1.7466   1.7481   1.7516   1.7525   1.7543   1.7573   1.7586
  1.7596   1.7609   1.7618   1.7631   1.7657   1.7669   1.7697   1.7704
  1.7715   1.7754   1.7796   1.7812   1.7835   1.7853   1.7866   1.7877
  1.7922   1.7945   1.7970   1.7979   1.8001   1.8047   1.8073   1.8093
  1.8107   1.8120   1.8143   1.8160   1.8204   1.8244   1.8247   1.8289
  1.8337   1.8367   1.8392   1.8430   1.8438   1.8467   1.8543   1.8563
  1.8606   1.8650   1.8665   1.8679   1.8696   1.8708   1.8717   1.8738
  1.8768   1.8777   1.8791   1.8802   1.8808   1.8839   1.8874   1.8881
  1.8904   1.8916   1.8934   1.8939   1.8958   1.8982   1.8989   1.9007
  1.9019   1.9024   1.9040   1.9065   1.9082   1.9099   1.9110   1.9127
  1.9136   1.9146   1.9178   1.9183   1.9203   1.9212   1.9240   1.9259
  1.9286   1.9295   1.9319   1.9331   1.9376   1.9388   1.9393   1.9416
  1.9458   1.9485   1.9512   1.9534   1.9547   1.9562   1.9569   1.9608
  1.9645   1.9686   1.9724   1.9773   1.9816   1.9828   1.9917   1.9957
  1.9986   2.0050   2.0177   2.0186   2.0314   2.0336   2.0354   2.0381
  2.0439   2.0445   2.0466   2.0517   2.0533   2.0535   2.0563   2.0594
  2.0607   2.0632   2.0661   2.0669   2.0695   2.0719   2.0738   2.0758
  2.0773   2.0780   2.0789   2.0803   2.0814   2.0834   2.0861   2.0870
  2.0880   2.0886   2.0897   2.0915   2.0917   2.0938   2.0960   2.0997
  2.1001   2.1072   2.1095   2.1137   2.1147   2.1179   2.1231   2.1244
  2.1275   2.1291   2.1295   2.1350   2.1358   2.1387   2.1416   2.1439
  2.1452   2.1503   2.1559   2.1591   2.1660   2.1688   2.1724   2.1759
  2.1806   2.1843   2.1861   2.1870   2.1896   2.1931   2.1939   2.1960
  2.1969   2.1985   2.1993   2.2003   2.2042   2.2088   2.2112   2.2131
  2.2135   2.2147   2.2174   2.2185   2.2197   2.2218   2.2248   2.2255
  2.2265   2.2282   2.2292   2.2306   2.2315   2.2321   2.2328   2.2340
  2.2349   2.2361   2.2384   2.2396   2.2403   2.2427   2.2435   2.2450
  2.2457   2.2480   2.2487   2.2499   2.2506   2.2519   2.2523   2.2537
  2.2546   2.2572   2.2582   2.2588   2.2598   2.2603   2.2620   2.2633
  2.2641   2.2647   2.2653   2.2668   2.2676   2.2688   2.2701   2.2715
  2.2716   2.2736   2.2739   2.2758   2.2764   2.2766   2.2770   2.2781
  2.2792   2.2808   2.2816   2.2825   2.2841   2.2844   2.2871   2.2871
  2.2895   2.2908   2.2919   2.2924   2.2945   2.2966   2.2980   2.2984
  2.2993   2.3002   2.3017   2.3028   2.3031   2.3044   2.3062   2.3086
  2.3100   2.3117   2.3135   2.3139   2.3153   2.3178   2.3197   2.3209
  2.3241   2.3261   2.3271   2.3286   2.3298   2.3349   2.3394   2.3404
  2.3440   2.3449   2.3462   2.3503   2.3516   2.3541   2.3562   2.3602
  2.3636   2.3640   2.3678   2.3694   2.3739   2.3754   2.3788   2.3845
  2.3870   2.3885   2.3900   2.3950   2.3967   2.4004   2.4020   2.4044
  2.4064   2.4098   2.4185   2.4354   2.4764   2.4835   2.4862   2.5601
  2.5626   2.5875   2.6834   2.7141   2.7425   2.7705   2.8046   2.8176
  2.8212   2.8255   2.8274   2.8299   2.8308   2.8337   2.8343   2.8368
  2.8388   2.8459   2.8502   2.8514   2.8544   2.8598   2.8644   2.8650
  2.8710   2.8718   2.8750   2.8787   2.8827   2.8835   2.8881   2.8937
  2.9095   2.9610   3.0629   3.2205   3.9417   3.9451   3.9514   3.9540
  3.9578   3.9648   3.9680   3.9722   3.9755   3.9794   3.9812   3.9821
  3.9954   3.9985   4.0004   4.0024   4.0030   4.0154   4.0167   4.0236
  4.0246   4.0321   4.0424   4.1617   4.1867   4.2064   4.2106   4.2180
  4.2188   4.2276   4.2343   4.2397   4.2400   4.2425   4.2475   4.2496
  4.2574   4.2584   4.2655   4.2674   4.2696   4.2743   4.2781   4.2800
  4.2827   4.2854   4.2862   4.2879   4.2902   4.2946   4.2963   4.2991
  4.3014   4.3047   4.3062   4.3073   4.3122   4.3160   4.3208   4.3230
  4.3262   4.3277   4.3297   4.3351   4.3375   4.3440   4.3471   4.3545
  4.3553   4.3617   4.3710   4.3727   4.3795   4.3854   4.3880   4.3963
  4.4070   4.4113   4.4153   4.4195   4.4279   4.4373   4.4402   4.4483
  4.4570   4.4616   4.4714   4.4884   4.4973   4.5082   4.5248   4.5337
  4.5398   4.5530   4.5726   4.5844   4.6141   4.7180   4.7595   4.7651
  4.8227
 --------------------------------------------------------------

          Ground-State Mulliken Net Atomic Charges

     Atom                 Charge (a.u.)
  ----------------------------------------
      1 C                    -0.257068
      2 C                    -0.600961
      3 C                    -0.000371
      4 C                    -0.694278
      5 C                    -0.500631
      6 C                    -0.307358
      7 H                     0.200672
      8 H                     0.229905
      9 H                     0.213655
     10 H                     0.188265
     11 H                     0.210111
     12 H                     0.250504
     13 H                     0.219501
     14 H                     0.205415
     15 H                     0.172260
     16 H                     0.193777
     17 H                     0.228058
     18 N                    -0.387941
     19 H                     0.489505
     20 C                     0.311149
     21 H                     0.140537
     22 O                    -0.504708
     23 C                    -1.095745
     24 H                     0.262138
     25 H                     0.266023
     26 H                     0.253467
     27 S                     1.315691
     28 C                    -0.977621
     29 H                     0.290384
     30 H                     0.253365
     31 H                     0.230038
     32 O                    -0.746146
     33 C                    -0.847199
     34 H                     0.227640
     35 H                     0.254557
     36 H                     0.255678
     37 S                     0.836926
     38 C                    -0.762268
     39 H                     0.235345
     40 H                     0.259809
     41 H                     0.252926
     42 O                    -0.696225
     43 C                    -0.929859
     44 H                     0.276998
     45 H                     0.238741
     46 H                     0.241140
     47 S                     1.079520
     48 C                    -0.837437
     49 H                     0.296246
     50 H                     0.247391
     51 H                     0.244337
     52 O                    -0.807522
     53 C                    -1.076764
     54 H                     0.286097
     55 H                     0.263139
     56 H                     0.255401
     57 S                     1.049445
     58 C                    -0.895576
     59 H                     0.258523
     60 H                     0.247441
     61 H                     0.250280
     62 O                    -0.713935
     63 C                    -0.784750
     64 H                     0.236595
     65 H                     0.275261
     66 H                     0.266084
     67 S                     0.470865
     68 C                    -0.672784
     69 H                     0.290173
     70 H                     0.278069
     71 H                     0.236968
     72 O                    -0.668930
     73 C                    -0.857642
     74 H                     0.245600
     75 H                     0.251771
     76 H                     0.245880
     77 S                     0.805430
     78 C                    -0.798940
     79 H                     0.237435
     80 H                     0.255938
     81 H                     0.272679
     82 O                    -0.688744
     83 C                    -0.877693
     84 H                     0.295013
     85 H                     0.253780
     86 H                     0.260838
     87 S                     1.124215
     88 C                    -1.146005
     89 H                     0.244418
     90 H                     0.280753
     91 H                     0.262180
     92 O                    -0.716507
     93 C                    -0.984373
     94 H                     0.257308
     95 H                     0.284210
     96 H                     0.297289
     97 S                     0.991245
     98 C                    -0.924974
     99 H                     0.297718
    100 H                     0.244419
    101 H                     0.252362
    102 O                    -0.729516
    103 C                    -1.143852
    104 H                     0.295757
    105 H                     0.285456
    106 H                     0.242815
    107 S                     0.937311
    108 C                    -0.912770
    109 H                     0.317786
    110 H                     0.209578
    111 H                     0.249417
    112 O                    -0.628805
    113 C                    -0.903459
    114 H                     0.258123
    115 H                     0.254098
    116 H                     0.250213
    117 S                     0.983740
    118 C                    -0.906761
    119 H                     0.243138
    120 H                     0.259707
    121 H                     0.244788
    122 O                    -0.700996
    123 C                    -0.930023
    124 H                     0.270377
    125 H                     0.262921
    126 H                     0.245431
    127 S                     0.798793
    128 C                    -0.757306
    129 H                     0.266935
    130 H                     0.271541
    131 H                     0.219803
    132 O                    -0.633866
    133 C                    -0.773535
    134 H                     0.246463
    135 H                     0.277145
    136 H                     0.237016
    137 S                     0.939733
    138 C                    -0.909735
    139 H                     0.240738
    140 H                     0.265416
    141 H                     0.261537
    142 O                    -0.716784
    143 C                    -0.725218
    144 H                     0.285035
    145 H                     0.236436
    146 H                     0.245014
    147 S                     0.722841
    148 C                    -0.918459
    149 H                     0.279986
    150 H                     0.265326
    151 H                     0.232162
    152 O                    -0.703332
    153 C                    -0.902719
    154 H                     0.297238
    155 H                     0.234269
    156 H                     0.258768
    157 S                     0.970753
    158 C                    -0.862277
    159 H                     0.274117
    160 H                     0.248227
    161 H                     0.262578
    162 O                    -0.717737
    163 C                    -0.912622
    164 H                     0.237413
    165 H                     0.267103
    166 H                     0.230556
    167 S                     0.910192
    168 C                    -0.831715
    169 H                     0.262932
    170 H                     0.226082
    171 H                     0.228995
    172 O                    -0.724245
    173 C                    -0.812153
    174 H                     0.234671
    175 H                     0.236789
    176 H                     0.295614
    177 S                     0.755020
    178 C                    -0.724209
    179 H                     0.272599
    180 H                     0.246749
    181 H                     0.274492
    182 O                    -0.671426
    183 C                    -0.867183
    184 H                     0.243799
    185 H                     0.257120
    186 H                     0.271486
    187 S                     0.943584
    188 C                    -0.881528
    189 H                     0.272174
    190 H                     0.227944
    191 H                     0.243788
    192 O                    -0.650519
    193 C                    -0.969921
    194 H                     0.243482
    195 H                     0.284275
    196 H                     0.257651
    197 S                     1.270027
    198 C                    -1.271380
    199 H                     0.303462
    200 H                     0.302260
    201 H                     0.228014
    202 O                    -0.709713
    203 C                    -0.792235
    204 H                     0.253733
    205 H                     0.300390
    206 H                     0.267234
    207 S                     0.579981
    208 C                    -0.757715
    209 H                     0.250475
    210 H                     0.252272
    211 H                     0.265620
    212 O                    -0.582735
    213 C                    -0.885671
    214 H                     0.277672
    215 H                     0.256644
    216 H                     0.287909
    217 S                     0.821441
    218 C                    -0.796085
    219 H                     0.284261
    220 H                     0.224716
    221 H                     0.248043
    222 O                    -0.654676
    223 C                    -0.874035
    224 H                     0.262817
    225 H                     0.278027
    226 H                     0.239251
    227 S                     1.015049
    228 C                    -0.944762
    229 H                     0.301150
    230 H                     0.250013
    231 H                     0.251382
    232 O                    -0.701156
    233 C                    -0.987665
    234 H                     0.287021
    235 H                     0.228382
    236 H                     0.262402
    237 S                     0.893043
    238 C                    -0.785148
    239 H                     0.236536
    240 H                     0.285816
    241 H                     0.223283
    242 O                    -0.643125
    243 C                    -0.754238
    244 H                     0.246764
    245 H                     0.252877
    246 H                     0.264752
    247 S                     0.750708
    248 C                    -0.911138
    249 H                     0.275491
    250 H                     0.305976
    251 H                     0.205225
    252 O                    -0.624552
  ----------------------------------------
  Sum of atomic charges =     0.000000

 -----------------------------------------------------------------
                    Cartesian Multipole Moments
 -----------------------------------------------------------------
    Charge (ESU x 10^10)
                 0.0000
    Dipole Moment (Debye)
         X      -2.5334      Y       3.5889      Z      22.7062
       Tot      23.1272
    Quadrupole Moments (Debye-Ang)
        XX    -940.3862     XY      32.3021     YY    -611.1913
        XZ     311.1121     YZ     613.7345     ZZ     321.9334
    Octopole Moments (Debye-Ang^2)
       XXX  -51705.4883    XXY  -17736.9408    XYY  -13018.7020
       YYY  -41097.4523    XXZ  -19970.7893    XYZ   10308.8981
       YYZ   -5506.0820    XZZ     936.4795    YZZ   11825.7638
       ZZZ  -25245.3698
    Hexadecapole Moments (Debye-Ang^3)
      XXXX ************   XXXY ************   XXYY -666739.0263
      XYYY -836262.6068   YYYY ************   XXXZ ************
      XXYZ -320381.1147   XYYZ -136573.5115   YYYZ -877529.0339
      XXZZ -770356.6706   XYZZ  169760.7006   YYZZ -271292.9541
      XZZZ -682787.6378   YZZZ -333078.4320   ZZZZ ************
 -----------------------------------------------------------------
 Total job time:  23380.10s(wall), 190637.03s(cpu) 
 Thu Jul 21 10:22:29 2022

        *************************************************************
        *                                                           *
        *  Thank you very much for using Q-Chem.  Have a nice day.  *
        *                                                           *
        *************************************************************


 
User input: 2 of 2 
 
                  Welcome to Q-Chem
     A Quantum Leap Into The Future Of Chemistry


 Q-Chem 6.0 (devel), Q-Chem, Inc., Pleasanton, CA (2022)

 E. Epifanovsky,  A. T. B. Gilbert,  Xintian Feng,  Joonho Lee,  Yuezhi Mao,  
 N. Mardirossian,  P. Pokhilko,  A. White,  M. Wormit,  M. P. Coons,  
 A. L. Dempwolff,  Zhengting Gan,  D. Hait,  P. R. Horn,  L. D. Jacobson,  
 I. Kaliman,  J. Kussmann,  A. W. Lange,  Ka Un Lao,  D. S. Levine,  Jie Liu,  
 S. C. McKenzie,  A. F. Morrison,  K. Nanda,  F. Plasser,  D. R. Rehn,  
 M. L. Vidal,  Zhi-Qiang You,  Ying Zhu,  B. Alam,  B. Albrecht,  
 A. Aldossary,  E. Alguire,  J. H. Andersen,  V. Athavale,  D. Barton,  
 K. Begam,  A. Behn,  N. Bellonzi,  Y. A. Bernard,  E. J. Berquist,  
 H. Burton,  A. Carreras,  K. Carter-Fenk,  Romit Chakraborty,  
 Chandrima Chakravarty,  Junhan Chen,  A. D. Chien,  K. D. Closser,  
 V. Cofer-Shabica,  L. Cunha,  S. Dasgupta,  Jia Deng,  M. de Wergifosse,  
 M. Diedenhofen,  Hainam Do,  S. Ehlert,  Po-Tung Fang,  S. Fatehi,  
 Qingguo Feng,  T. Friedhoff,  B. Ganoe,  J. Gayvert,  Qinghui Ge,  
 G. Gidofalvi,  M. Goldey,  J. Gomes,  C. Gonzalez-Espinoza,  S. Gulania,  
 A. Gunina,  J. A. Gyamfi,  M. W. D. Hanson-Heine,  P. H. P. Harbach,  
 A. W. Hauser,  M. F. Herbst,  M. Hernandez Vera,  M. Hodecker,  
 Z. C. Holden,  S. Houck,  Xunkun Huang,  Kerwin Hui,  B. C. Huynh,  
 K. Ikeda,  M. Ivanov,  Hyunjun Ji,  Zuxin Jin,  Hanjie Jiang,  B. Kaduk,  
 S. Kaehler,  R. Kang,  K. Khistyaev,  Jaehoon Kim,  Yongbin Kim,  
 P. Klunzinger,  Z. Koczor-Benda,  Joong Hoon Koh,  D. Kosenkov,  
 Saikiran Kotaru,  L. Koulias,  T. Kowalczyk,  C. M. Krauter,  K. Kue,  
 A. Kunitsa,  T. Kus,  A. Landau,  K. V. Lawler,  D. Lefrancois,  S. Lehtola,  
 Rain Li,  Shaozhi Li,  Yi-Pei Li,  Jiashu Liang,  M. Liebenthal,  
 Hung-Hsuan Lin,  You-Sheng Lin,  Fenglai Liu,  Kuan-Yu Liu,  
 M. Loipersberger,  A. Luenser,  C. Malbon,  A. Manjanath,  P. Manohar,  
 E. Mansoor,  S. F. Manzer,  Shan-Ping Mao,  A. V. Marenich,  T. Markovich,  
 S. Mason,  F. Matz,  S. A. Maurer,  P. F. McLaughlin,  M. F. S. J. Menger,  
 J.-M. Mewes,  S. A. Mewes,  P. Morgante,  Mohammad Mostafanejad,  
 J. W. Mullinax,  K. J. Oosterbaan,  G. Paran,  V. Parravicini,  
 Alexander C. Paul,  Suranjan K. Paul,  F. Pavosevic,  Zheng Pei,  S. Prager,  
 E. I. Proynov,  E. Ramos,  B. Rana,  A. E. Rask,  A. Rettig,  R. M. Richard,  
 F. Rob,  E. Rossomme,  T. Scheele,  M. Scheurer,  M. Schneider,  
 P. E. Schneider,  N. Sergueev,  S. M. Sharada,  Hengyuan Shen,  
 W. Skomorowski,  D. W. Small,  C. J. Stein,  Yingli Su,  Yu-Chuan Su,  
 E. J. Sundstrom,  Zhen Tao,  J. Thirman,  Hung-Yi Tsai,  T. Tsuchimochi,  
 N. M. Tubman,  C. Utku,  S. P. Veccham,  O. Vydrov,  J. Wenzel,  
 Jonathan Wong,  J. Witte,  A. Yamada,  Chou-Hsun Yang,  Kun Yao,  
 S. Yeganeh,  S. R. Yost,  A. Zech,  F. Zeller,  Igor Ying Zhang,  
 Xing Zhang,  Yu Zhang,  D. Zuev,  A. Aspuru-Guzik,  A. T. Bell,  
 N. A. Besley,  K. B. Bravaya,  B. R. Brooks,  D. Casanova,  Jeng-Da Chai,  
 Hsing-Ta Chen,  S. Coriani,  C. J. Cramer,  A. E. DePrince, III,  
 R. A. DiStasio Jr.,  A. Dreuw,  B. D. Dunietz,  T. R. Furlani,  
 W. A. Goddard III,  S. Grimme,  S. Hammes-Schiffer,  T. Head-Gordon,  
 W. J. Hehre,  Chao-Ping Hsu,  T.-C. Jagau,  Yousung Jung,  A. Klamt,  
 Jing Kong,  D. S. Lambrecht,  Xiangyuan Li,  WanZhen Liang,  N. J. Mayhall,  
 C. W. McCurdy,  J. B. Neaton,  T. Neudecker,  C. Ochsenfeld,  
 J. A. Parkhill,  R. Peverati,  V. A. Rassolov,  Haisheng Ren,  Yihan Shao,  
 L. V. Slipchenko,  R. P. Steele,  J. E. Subotnik,  A. J. W. Thom,  
 A. Tkatchenko,  D. G. Truhlar,  T. Van Voorhis,  Fan Wang,  
 T. A. Wesolowski,  K. B. Whaley,  H. L. Woodcock III,  P. M. Zimmerman,  
 S. Faraji,  P. M. W. Gill,  M. Head-Gordon,  J. M. Herbert,  A. I. Krylov

 Contributors to earlier versions of Q-Chem not listed above: 
 R. D. Adamson,  B. Austin,  R. Baer,  J. Baker,  G. J. O. Beran,  
 K. Brandhorst,  S. T. Brown,  E. F. C. Byrd,  Arup K. Chakraborty,  
 G. K. L. Chan,  Chun-Min Chang,  Yunqing Chen,  C.-L. Cheng,  
 Siu Hung Chien,  D. M. Chipman,  D. L. Crittenden,  H. Dachsel,  
 R. J. Doerksen,  A. D. Dutoi,  R. G. Edgar,  J. Fosso-Tande,  
 L. Fusti-Molnar,  D. Ghosh,  A. Ghysels,  A. Golubeva-Zadorozhnaya,  
 J. Gonthier,  M. S. Gordon,  S. R. Gwaltney,  G. Hawkins,  J. E. Herr,  
 A. Heyden,  S. Hirata,  E. G. Hohenstein,  G. Kedziora,  F. J. Keil,  
 C. Kelley,  Jihan Kim,  R. A. King,  R. Z. Khaliullin,  P. P. Korambath,  
 W. Kurlancheek,  A. Laurent,  A. M. Lee,  M. S. Lee,  S. V. Levchenko,  
 Ching Yeh Lin,  D. Liotard,  E. Livshits,  R. C. Lochan,  I. Lotan,  
 L. A. Martinez-Martinez,  P. E. Maslen,  N. Nair,  D. P. O'Neill,  
 D. Neuhauser,  E. Neuscamman,  C. M. Oana,  R. Olivares-Amaya,  R. Olson,  
 T. M. Perrine,  B. Peters,  P. A. Pieniazek,  A. Prociuk,  Y. M. Rhee,  
 J. Ritchie,  M. A. Rohrdanz,  E. Rosta,  N. J. Russ,  H. F. Schaefer III,  
 M. W. Schmidt,  N. E. Schultz,  S. Sharma,  N. Shenvi,  C. D. Sherrill,  
 A. C. Simmonett,  A. Sodt,  T. Stein,  D. Stuck,  K. S. Thanthiriwatte,  
 V. Vanovschi,  L. Vogt,  Tao Wang,  A. Warshel,  M. A. Watson,  
 C. F. Williams,  Q. Wu,  X. Xu,  Jun Yang,  W. Zhang,  Yan Zhao

   Please cite Q-Chem as follows:
  "Software for the frontiers of quantum chemistry:
   An overview of developments in the Q-Chem 5 package"
   J. Chem. Phys. 155, 084801 (2021)
   https://doi.org/10.1063/5.0055522 (open access)

 Q-Chem 6.0.0 for Intel X86 EM64T Linux

 Parts of Q-Chem use Armadillo 9.900.5 (Nocturnal Misbehaviour).
 http://arma.sourceforge.net/

 Q-Chem begins on Thu Jul 21 10:22:30 2022  

 Host: nid00561
0

     Scratch files written to /global/cscratch1/sd/ymao90/r7.00_frame_0003_almo_B3LYP_dp20220721031447//
 Processing $rem in /global/homes/y/ymao90/my_qchem/qchem_embedding_5p4/config/preferences:
 Processing $rem in /global/homes/y/ymao90/.qchemrc:

 Checking the input file for inconsistencies... 	...done.

--------------------------------------------------------------
User input:
--------------------------------------------------------------

$molecule
0 1
@C    19.32600   21.89900   28.35500  
@C    19.68100   20.41700   28.55800  
@C    19.35200   19.60300   27.29600  
@C    19.97300   20.19600   26.02000  
@C    19.57700   21.66700   25.81100  
@C    19.96400   22.45700   27.07200  
@H    19.62100   18.56900   27.54300  
@H    20.75500   20.31500   28.75700  
@H    18.24100   22.01400   28.24300  
@H    19.61900   22.47700   29.24000  
@H    21.06200   20.07100   26.04300  
@H    19.62700   19.77800   25.06700  
@H    19.96800   22.28000   24.99000  
@H    18.48500   21.64900   25.71000  
@H    21.04600   22.37000   27.22700  
@H    19.79400   23.52800   26.90700  
@H    18.26100   19.51800   27.22300  
@N    18.76600   19.88500   29.56700  
@H    17.77700   19.72100   29.41900  
@C    19.22200   19.15500   30.64400  
@H    18.42400   18.67000   31.23500  
@O    20.40400   19.03200   30.91400  
C    22.80900   18.67600   28.68600  
H    22.98000   18.02400   29.54700  
H    23.19300   19.63600   29.04000  
H    21.73100   18.65800   28.50300  
S    23.68200   18.26100   27.16000  
C    25.22900   17.67500   27.88800  
H    25.63200   18.45000   28.54400  
H    24.88400   16.81500   28.46800  
H    25.85600   17.38200   27.04200  
O    23.98800   19.62900   26.63400  
C    22.24800   13.30500   29.57200  
H    21.75100   14.25700   29.36300  
H    23.32700   13.47500   29.60200  
H    21.90100   12.67100   28.75200  
S    21.48200   12.61300   31.05400  
C    21.99800   13.79700   32.31800  
H    23.04000   14.01100   32.06400  
H    21.43600   14.73400   32.26600  
H    21.77600   13.20000   33.20500  
O    22.21200   11.35700   31.41800  
C    18.44700   22.59600   37.10900  
H    18.46700   21.65900   37.67100  
H    18.91900   23.41700   37.65600  
H    17.42100   22.85400   36.83500  
S    19.32800   22.44400   35.53900  
C    18.13800   23.35100   34.52500  
H    18.62700   23.47200   33.55500  
H    17.22300   22.75300   34.51200  
H    17.93900   24.32000   34.99100  
O    18.93700   21.04100   35.19000  
C    15.76700   19.99000   33.72300  
H    16.76000   19.99400   34.17900  
H    15.29500   19.00400   33.72600  
H    15.69000   20.38200   32.70600  
S    14.66700   21.13200   34.58800  
C    15.18000   20.81700   36.29200  
H    14.88800   19.80900   36.59800  
H    16.26500   20.90700   36.38600  
H    14.66700   21.54200   36.92900  
O    13.35900   20.42100   34.43600  
C    14.68900   16.80600   29.67100  
H    14.29000   16.05800   30.36100  
H    13.92000   17.21500   29.01000  
H    15.45900   16.30200   29.08200  
S    15.38700   18.07000   30.75800  
C    13.78100   18.86300   30.99000  
H    13.85500   19.70500   31.68300  
H    13.39900   19.16900   30.01300  
H    13.13100   18.08000   31.38800  
O    15.96800   19.15900   29.91100  
C    21.94400   17.03000   21.97900  
H    22.59500   16.17200   22.16200  
H    21.82500   17.26200   20.91700  
H    22.37900   17.94300   22.39400  
S    20.33200   16.60500   22.67700  
C    20.80300   16.74700   24.41600  
H    21.61400   16.02400   24.53400  
H    21.15500   17.77200   24.55400  
H    19.99300   16.56500   25.12700  
O    20.20900   15.13700   22.41300  
C    25.41700   21.77200   28.45400  
H    25.40100   21.21400   27.51500  
H    26.02100   22.68300   28.43700  
H    25.78400   21.15200   29.27600  
S    23.76300   22.38500   28.84600  
C    23.56800   23.24300   27.26800  
H    23.64400   22.49900   26.47000  
H    22.59500   23.72000   27.12800  
H    24.36400   23.97500   27.10800  
O    24.02300   23.43300   29.88300  
C    21.24400   23.23800   31.70700  
[...]
    3  -2.0948121   2.8710208   2.7023451   2.8178896   3.2532408   1.9833311
          127         128         129         130         131         132
    1  -1.2181626  -1.7635144  -0.9016776  -0.9038455  -3.5274965   1.5445886
    2  -1.0533452  -3.1647754  -3.1750981  -4.1146097  -2.0973273  -2.3123291
    3   0.7177183   0.0025595  -1.6080261   1.4449820   0.3390864   1.0512623
          133         134         135         136         137         138
    1   0.8194882   2.8830821  -0.0793794   0.1283869   1.0364369   2.5958074
    2   1.1467830   1.9750112   0.7045578   0.8155676  -1.1375369  -0.5876584
    3   1.4837929   1.7818742  -0.0580332   2.9244029   1.3925571   2.4652971
          139         140         141         142         143         144
    1   3.2125085   1.0641492   3.3791221   3.3322991  -0.4564613   1.1954484
    2   1.4108053  -0.6768049  -2.0640915  -0.7738445   0.3696418   1.5474456
    3   2.0607047   3.4605154   1.6413436  -0.6694307   1.3540529   1.7397210
          145         146         147         148         149         150
    1  -1.0239589  -1.4762284   0.8657267  -0.4269927  -0.7231848   1.1117821
    2  -0.4554216  -0.2482622  -0.9226782  -2.3192056  -2.3597925  -3.1900572
    3  -0.1364620   3.3811274   1.0804658   2.1499330   0.6112658   2.6993046
          151         152         153         154         155         156
    1  -1.7377288   1.7133091   2.4153709   2.0827256   2.9221430   2.4006961
    2  -1.1990614  -0.2287155   1.4604451  -0.1635184   2.6683020   1.6200405
    3   3.3502207   4.0285960  -1.3692938  -2.4320294  -2.2277398   0.2991052
          157         158         159         160         161         162
    1   0.2580792  -0.4173864  -2.0610447   0.4098305   0.2105931  -0.1168431
    2   2.3742619   0.2396034   0.5836489  -0.8484595   0.6041663   1.0578837
    3  -1.2831355  -1.1400477  -1.9151796  -2.2235219   0.4309503  -4.1968425
          163         164         165         166         167         168
    1   1.2866939   3.3143132   0.6754114   0.5747496   1.0599058   2.5679345
    2  -0.9999065  -0.8776410   0.5486286  -3.0917075  -1.1000880  -2.0437060
    3   0.1586946   1.0986192  -0.5549218  -0.3469762  -1.9366038  -0.8794168
          169         170         171         172         173         174
    1   3.3405436   3.1654258   0.9967458   3.0879004   1.6442431   1.7266002
    2  -1.3759596  -1.0072026  -3.3450159   1.6418513  -0.0953753  -1.8656597
    3  -1.9889479   1.1402379  -0.7079592  -1.5341051  -3.0758426  -3.3692820
          175         176         177         178         179         180
    1   1.0950791   2.1615427  -0.5628677  -0.4860385   1.0984497  -0.1066690
    2   1.1222381   0.2954932  -0.2532613   1.6762852   1.5489807   1.8297434
    3  -4.2812634  -1.3907327  -3.2352773  -2.1284292  -0.9489585  -4.1209701
          181         182         183         184         185         186
    1  -2.2252341   0.0859831  -1.7989753  -2.8092150  -0.1385356  -2.0545803
    2   1.5562679  -1.1170498   2.7165627   3.0394838   3.8181000   1.1753898
    3  -1.9535021  -0.0013438  -1.5846937   0.0802372  -1.8967991  -2.8670114
          187         188         189         190         191         192
    1  -1.4797690   0.0943243   1.2017899  -1.5319198   1.0344075   1.3440058
    2   1.9530962   3.3909029   3.9984744   3.8784885   2.5293497   1.7108384
    3   0.0973003   0.9572625  -1.0723139   1.0710817   2.0435375  -1.6872853
          193         194         195         196         197         198
    1   3.3342921   3.4651572   3.2118558   3.4504061   1.1810366   0.7237359
    2   0.7781041   0.5275387  -0.5423745   2.5586195   1.1119184  -1.0177951
    3  -0.7313837   0.8398418  -2.1509974  -1.5780582  -0.4277719  -0.9096933
          199         200         201         202         203         204
    1   1.0128998  -1.1481468   1.7909213   1.0734312  -0.1687114   0.9626477
    2  -0.8768364  -0.4421148  -1.4880365   1.1571195   0.6183926   0.0392538
    3   0.5653033  -0.8697182  -2.4861749  -3.7598490  -0.0761461  -1.4431988
          205         206         207         208         209         210
    1  -1.1381757   0.1901845  -2.3470167  -1.3614220  -3.1716420  -0.1690604
    2   1.9176050  -0.5111793  -0.5906192  -2.0911453  -2.9209807  -1.0880654
    3  -0.0938166   1.3420094  -0.0183701  -0.8784236  -1.3658655  -1.9384373
          211         212         213         214         215         216
    1  -0.5074662  -2.9895960  -0.0161301   1.4432369  -0.6322475  -0.4758265
    2  -1.8364855   0.4508207   0.8995394   0.4980349   2.5974374  -0.7354868
    3   0.5059242  -2.9858634   0.3846496  -0.7965929   1.3969024   0.5202629
          217         218         219         220         221         222
    1  -1.3965501  -3.0048805  -2.1798012  -2.6989416  -3.8341034  -0.9886795
    2   2.0442656   1.1605298  -0.6435273   2.5941638   1.4583805  -0.7539986
    3  -1.2919547  -0.5717480  -0.4571827   0.8544827  -2.1309988  -2.8755971
          223         224         225         226         227         228
    1   0.3311377   0.5969232   1.8465417  -0.9537847  -1.3656871   0.6702655
    2  -1.3670941  -3.2614317   0.0365764  -0.2494219  -2.4542039  -3.0706064
    3   1.0217288   0.8214698   0.2456401   1.2354778  -0.4443129  -1.0226825
          229         230         231         232         233         234
    1   0.3189124   2.1714501  -0.4729202  -0.4119283  -0.4776042   0.7472256
    2  -2.5892494  -2.0394497  -4.4175873   0.3983900  -0.4561229  -1.2365596
    3  -2.5385741   0.1123195  -0.6629910  -1.4615257   1.4515553  -0.1970448
          235         236         237         238         239         240
    1   0.0897523  -2.3480266  -0.0254360  -2.0245092  -1.8644139  -2.9154825
    2   0.4766611  -0.5684270   1.8079144   2.3248353   4.0322844   0.8542208
    3   2.8751897   1.2745506   1.1588117   2.1081635   1.2320935   1.3826153
          241         242         243         244         245         246
    1  -0.9692358  -1.5089429  -0.9269086  -2.5291635  -1.0151621   0.7228377
    2   1.9335481   1.3433146  -2.1779581  -2.1719205  -3.3828660  -0.8380228
    3   3.5428390  -1.3631441  -0.8357011  -0.0297190  -2.2731110   0.0102186
          247         248         249         250         251         252
    1  -0.8551124  -0.7878905   1.0130078  -1.6355634  -1.3522744  -3.7068023
    2  -0.5890271   0.7593460   0.8628084   1.9514257  -0.0771909  -0.7457126
    3  -2.2471860  -0.6403591  -0.4924933  -2.1308785   0.4241438  -2.5793917
 EField
            1           2           3           4           5           6
    1  -0.0033621  -0.0072650  -0.0095440  -0.0049825  -0.0025041  -0.0024576
    2  -0.0010766   0.0006510  -0.0023067  -0.0000167  -0.0005990  -0.0006173
    3  -0.0051388  -0.0049418  -0.0056291  -0.0046284  -0.0039039  -0.0047820
            7           8           9          10          11          12
    1  -0.0176480  -0.0039124  -0.0040630  -0.0022557  -0.0016475  -0.0043945
    2   0.0006722   0.0064790  -0.0013595   0.0002488   0.0031714   0.0014240
    3  -0.0122903  -0.0058733  -0.0055855  -0.0075294  -0.0034402  -0.0085707
           13          14          15          16          17          18
    1  -0.0030415  -0.0008486  -0.0043611   0.0000386  -0.0056235  -0.0157081
    2   0.0010138  -0.0002986  -0.0020780  -0.0023573  -0.0090089  -0.0026601
    3  -0.0025079  -0.0038440  -0.0053362  -0.0067802  -0.0026217  -0.0037171
           19          20          21          22          23          24
    1  -0.0319507  -0.0114154  -0.0089608  -0.0087493  -0.0005228   0.0147878
    2  -0.0120091   0.0028764   0.0075482   0.0013040   0.0051719  -0.0297364
    3   0.0048560  -0.0048593  -0.0091559  -0.0017337   0.0041294   0.0131694
           25          26          27          28          29          30
    1   0.0066046  -0.0344461  -0.0238953   0.0063947   0.0170440   0.0092425
    2   0.0359615   0.0116815  -0.0421034  -0.0011470   0.0159630  -0.0279426
    3  -0.0064352  -0.0150616  -0.0295803   0.0051875   0.0200350   0.0243989
           31          32          33          34          35          36
    1   0.0260638   0.0204719   0.0026697  -0.0124461   0.0331678   0.0021872
    2  -0.0084684   0.0990828   0.0008127   0.0315338  -0.0054747  -0.0249213
    3  -0.0182287  -0.0404165  -0.0050007  -0.0044678   0.0014306  -0.0252211
           37          38          39          40          41          42
    1  -0.0618544   0.0024405   0.0353682  -0.0211245   0.0054071   0.0507364
    2  -0.0006147   0.0031321   0.0020939   0.0212217  -0.0090454  -0.0956370
    3  -0.0065881   0.0031810   0.0120130   0.0018168   0.0340551   0.0270496
           43          44          45          46          47          48
    1  -0.0042448   0.0058919   0.0075912  -0.0314897   0.0468833  -0.0049008
    2   0.0016642  -0.0271465   0.0232388   0.0073988   0.0208119   0.0042786
    3   0.0064514   0.0121832   0.0256512   0.0030879   0.0002002  -0.0055818
           49          50          51          52          53          54
    1   0.0048688  -0.0242439  -0.0081144  -0.0284341   0.0041875   0.0346607
    2   0.0126702  -0.0178980   0.0344536  -0.1028360  -0.0051749   0.0002473
    3  -0.0317466  -0.0059432   0.0046524  -0.0240125  -0.0030494   0.0013847
           55          56          57          58          59          60
    1  -0.0155668   0.0166499   0.0094242   0.0017766  -0.0136426   0.0313939
    2  -0.0265549   0.0046409   0.0513099  -0.0038309  -0.0293268   0.0016347
    3   0.0059880  -0.0354082  -0.0162219   0.0065403   0.0058038   0.0050585
           61          62          63          64          65          66
    1  -0.0149638  -0.0981058  -0.0016157  -0.0198352  -0.0189025   0.0213488
    2   0.0191364  -0.0508092  -0.0028366  -0.0245635   0.0103853  -0.0087735
    3   0.0205152  -0.0123207  -0.0078995   0.0123569  -0.0195422  -0.0199589
           67          68          69          70          71          72
    1   0.0223584  -0.0085655  -0.0032272  -0.0041552  -0.0308624   0.0557818
    2  -0.0175349   0.0050311   0.0210641   0.0145332  -0.0122536   0.0866628
    3   0.0434385   0.0006798   0.0178583  -0.0282888   0.0178595  -0.0656275
           73          74          75          76          77          78
    1   0.0061010   0.0179324  -0.0045180   0.0087296  -0.0480534   0.0007640
    2   0.0014614  -0.0269791  -0.0036879   0.0268119   0.0421579   0.0014708
    3  -0.0014306  -0.0015066  -0.0314323   0.0171938  -0.0163032   0.0058316
           79          80          81          82          83          84
    1   0.0236099   0.0102968  -0.0288110  -0.0125987   0.0094428   0.0002381
    2  -0.0210907   0.0316029   0.0005895  -0.1066925  -0.0016091  -0.0191924
    3   0.0100217   0.0091854   0.0123997  -0.0220794  -0.0056353  -0.0267358
           85          86          87          88          89          90
    1   0.0225219   0.0108914  -0.0383282  -0.0030760  -0.0016133  -0.0288100
    2   0.0248353  -0.0183429  -0.0422459   0.0045326  -0.0233659   0.0167968
    3  -0.0037092   0.0219584   0.0012740  -0.0112704  -0.0219282  -0.0041500
           91          92          93          94          95          96
    1   0.0208756   0.0204192   0.0107267  -0.0023409  -0.0242398   0.0332252
    2   0.0250331   0.0765230  -0.0034701   0.0142911  -0.0157886  -0.0098555
    3  -0.0013325   0.0748896   0.0025967   0.0314643  -0.0057841  -0.0149116
           97          98          99         100         101         102
    1  -0.0084686   0.0108306   0.0437602  -0.0061159  -0.0007990  -0.0820209
    2  -0.0092069   0.0011464   0.0020554   0.0229597   0.0045952   0.0330991
    3  -0.0529099   0.0043255  -0.0135577  -0.0203803   0.0323751   0.0652275
          103         104         105         106         107         108
    1  -0.0103373  -0.0190893  -0.0121930  -0.0061964   0.0355880  -0.0032959
    2  -0.0047284   0.0099550  -0.0295765   0.0234265  -0.0057681   0.0052451
    3  -0.0053660  -0.0255658   0.0113173   0.0205317   0.0460781  -0.0078444
          109         110         111         112         113         114
    1  -0.0209571  -0.0111247   0.0284034   0.0100079  -0.0020206  -0.0209010
    2   0.0042252   0.0293616   0.0105177  -0.0576689   0.0046934   0.0159540
    3  -0.0267650   0.0135781  -0.0021941  -0.0931891  -0.0043630   0.0170820
          115         116         117         118         119         120
    1   0.0195754   0.0015057   0.0410301  -0.0065701  -0.0005568  -0.0193618
    2   0.0238694  -0.0044257  -0.0264575  -0.0023187  -0.0279680   0.0214877
    3  -0.0021469  -0.0350995  -0.0147353  -0.0028931   0.0129715   0.0141113
          121         122         123         124         125         126
    1  -0.0091888  -0.0231682  -0.0041486   0.0145995   0.0126751  -0.0341189
    2  -0.0185473   0.0441941  -0.0019157  -0.0287905   0.0191972   0.0113828
    3  -0.0316207   0.0979993   0.0089444   0.0115161   0.0199979  -0.0002212
          127         128         129         130         131         132
    1  -0.0150556  -0.0045394   0.0110369   0.0068043  -0.0387747   0.1019149
    2   0.0451132  -0.0075520   0.0001825  -0.0232814  -0.0081313  -0.0377625
    3  -0.0279935  -0.0011699  -0.0294270   0.0207261  -0.0038278   0.0056457
          133         134         135         136         137         138
    1   0.0057335   0.0268868  -0.0093313  -0.0203389  -0.0390554   0.0064138
    2   0.0103860   0.0272702   0.0116675   0.0061528  -0.0439026   0.0018728
    3   0.0042119  -0.0027661  -0.0188266   0.0269386   0.0053104   0.0089014
          139         140         141         142         143         144
    1   0.0200462  -0.0123750   0.0183463   0.0707857  -0.0092933   0.0054336
    2   0.0272733  -0.0050279  -0.0265125   0.0025662   0.0059331   0.0308747
    3   0.0053912   0.0339502  -0.0052882  -0.0869558   0.0083272  -0.0001504
          145         146         147         148         149         150
    1  -0.0180136  -0.0266434   0.0362338  -0.0080790  -0.0144322   0.0182252
    2   0.0016827   0.0091933  -0.0113595  -0.0070463  -0.0155838  -0.0183241
    3  -0.0280640   0.0275378  -0.0447515   0.0002844  -0.0303030   0.0169117
          151         152         153         154         155         156
    1  -0.0200594   0.0440106   0.0079839  -0.0039102   0.0156554   0.0060631
    2   0.0047306   0.0175479  -0.0073718  -0.0319287   0.0236356  -0.0008935
    3   0.0295412   0.1022335   0.0020298  -0.0168746  -0.0143265   0.0340731
          157         158         159         160         161         162
    1  -0.0135795  -0.0042580  -0.0339053   0.0200423   0.0186801  -0.0121994
    2   0.0469264  -0.0113203   0.0084846  -0.0218239   0.0001869  -0.0236105
    3   0.0233213   0.0063103  -0.0128749  -0.0150990   0.0309965  -0.1069675
          163         164         165         166         167         168
    1  -0.0003616   0.0195722  -0.0197455  -0.0298707  -0.0388214   0.0057638
    2   0.0017501   0.0141856   0.0176349  -0.0230098  -0.0119915  -0.0034156
    3   0.0038745   0.0241684   0.0178652   0.0124912  -0.0380817   0.0045831
          169         170         171         172         173         174
    1   0.0181326   0.0258923  -0.0101400   0.0609618   0.0095094   0.0058183
    2   0.0027387   0.0013092  -0.0341044   0.0927368   0.0026505  -0.0313209
    3  -0.0250697   0.0252124  -0.0000015  -0.0077212   0.0011405  -0.0094105
          175         176         177         178         179         180
    1   0.0092230   0.0162973  -0.0352537   0.0007788   0.0163844   0.0104791
    2   0.0267056   0.0217214  -0.0162854   0.0090278   0.0140840   0.0224394
    3  -0.0194362   0.0181309  -0.0426707   0.0012940   0.0240775  -0.0277164
          181         182         183         184         185         186
    1  -0.0264847   0.0011410  -0.0024851  -0.0332951   0.0252920  -0.0132564
    2   0.0057901  -0.0462366   0.0061065   0.0051381   0.0179233  -0.0161843
    3   0.0230944   0.0996775  -0.0071435   0.0138154  -0.0187294  -0.0235682
          187         188         189         190         191         192
    1  -0.0301684   0.0026320   0.0251640  -0.0220748   0.0134520   0.0940524
    2  -0.0363232   0.0101846   0.0097216   0.0211728  -0.0140712  -0.0288440
    3   0.0308633  -0.0009138  -0.0214315   0.0206389   0.0213787  -0.0505277
          193         194         195         196         197         198
    1   0.0095535   0.0046899   0.0149332   0.0200169  -0.0274961  -0.0059248
    2  -0.0015122  -0.0052501  -0.0215503   0.0251804   0.0279517  -0.0072643
    3  -0.0059647   0.0305641  -0.0219248  -0.0111073   0.0426413   0.0067792
          199         200         201         202         203         204
    1   0.0083317  -0.0348356   0.0129141  -0.0179447   0.0123323   0.0261964
    2  -0.0158358  -0.0100993  -0.0070899   0.0153308   0.0010495   0.0012866
    3   0.0323451  -0.0088500  -0.0273859  -0.1074756   0.0036269  -0.0224358
          205         206         207         208         209         210
    1  -0.0063477   0.0199417  -0.0366800   0.0115857  -0.0182194   0.0192159
    2   0.0255278  -0.0136027  -0.0020831  -0.0034559  -0.0168410  -0.0062144
    3   0.0083523   0.0343858   0.0438936  -0.0013765  -0.0149476  -0.0232811
          211         212         213         214         215         216
    1   0.0241588  -0.0307199   0.0049262   0.0287450  -0.0057470  -0.0111684
    2  -0.0060187   0.0335515  -0.0059571  -0.0042747   0.0187460  -0.0268978
    3   0.0270466  -0.1007455   0.0095071  -0.0155997   0.0238896   0.0138210
          217         218         219         220         221         222
    1   0.0036989  -0.0056362  -0.0048149  -0.0013246  -0.0180802   0.0111448
    2   0.0488830  -0.0061408  -0.0313921   0.0146711  -0.0048982  -0.0918233
    3  -0.0186307   0.0059716   0.0006294   0.0331721  -0.0293199  -0.0611746
          223         224         225         226         227         228
    1   0.0015568   0.0079377   0.0262020  -0.0159309  -0.0491049   0.0054856
    2   0.0060270  -0.0207507   0.0223768   0.0174130  -0.0261573  -0.0035984
    3   0.0011232   0.0258199  -0.0005599   0.0261712   0.0025937  -0.0073687
          229         230         231         232         233         234
    1   0.0012830   0.0269398  -0.0025074   0.0097227  -0.0019438   0.0216851
    2   0.0050431   0.0033408  -0.0332122   0.0990749  -0.0087814  -0.0294337
    3  -0.0314078   0.0102138   0.0065080  -0.0521221  -0.0016654  -0.0110052
          235         236         237         238         239         240
    1   0.0173595  -0.0338111   0.0509147  -0.0093875  -0.0159881  -0.0357737
    2  -0.0081902  -0.0063784   0.0268200   0.0004283   0.0279472  -0.0089499
    3   0.0237949  -0.0039034   0.0152055   0.0006463  -0.0050030   0.0012871
          241         242         243         244         245         246
    1   0.0014984  -0.0402193   0.0015942  -0.0211674   0.0076273   0.0279899
    2  -0.0032383  -0.0044644  -0.0046935  -0.0021628  -0.0212287   0.0043675
    3   0.0324720  -0.1006061   0.0080614   0.0232493  -0.0207371   0.0176305
          247         248         249         250         251         252
    1   0.0458267   0.0001656   0.0409996  -0.0292905  -0.0163355  -0.1047547
    2   0.0050912   0.0099630  -0.0127740   0.0269494  -0.0003858  -0.0053782
    3  -0.0465132   0.0078014   0.0067924  -0.0058860   0.0233343  -0.0312230
  --- DONE ESP SUMMARY ---
 Total job time:  20.73s(wall), 62.45s(cpu) 
 Thu Jul 21 10:22:50 2022

        *************************************************************
        *                                                           *
        *  Thank you very much for using Q-Chem.  Have a nice day.  *
        *                                                           *
        *************************************************************


