                  Welcome to Q-Chem
     A Quantum Leap Into The Future Of Chemistry


 Q-Chem 6.0 (devel), Q-Chem, Inc., Pleasanton, CA (2022)

 E. Epifanovsky,  A. T. B. Gilbert,  Xintian Feng,  Joonho Lee,  Yuezhi Mao,  
 N. Mardirossian,  P. Pokhilko,  A. White,  M. Wormit,  M. P. Coons,  
 A. L. Dempwolff,  Zhengting Gan,  D. Hait,  P. R. Horn,  L. D. Jacobson,  
 I. Kaliman,  J. Kussmann,  A. W. Lange,  Ka Un Lao,  D. S. Levine,  Jie Liu,  
 S. C. McKenzie,  A. F. Morrison,  K. Nanda,  F. Plasser,  D. R. Rehn,  
 M. L. Vidal,  Zhi-Qiang You,  Ying Zhu,  B. Alam,  B. Albrecht,  
 A. Aldossary,  E. Alguire,  J. H. Andersen,  V. Athavale,  D. Barton,  
 K. Begam,  A. Behn,  N. Bellonzi,  Y. A. Bernard,  E. J. Berquist,  
 H. Burton,  A. Carreras,  K. Carter-Fenk,  Romit Chakraborty,  
 Chandrima Chakravarty,  Junhan Chen,  A. D. Chien,  K. D. Closser,  
 V. Cofer-Shabica,  L. Cunha,  S. Dasgupta,  Jia Deng,  M. de Wergifosse,  
 M. Diedenhofen,  Hainam Do,  S. Ehlert,  Po-Tung Fang,  S. Fatehi,  
 Qingguo Feng,  T. Friedhoff,  B. Ganoe,  J. Gayvert,  Qinghui Ge,  
 G. Gidofalvi,  M. Goldey,  J. Gomes,  C. Gonzalez-Espinoza,  S. Gulania,  
 A. Gunina,  J. A. Gyamfi,  M. W. D. Hanson-Heine,  P. H. P. Harbach,  
 A. W. Hauser,  M. F. Herbst,  M. Hernandez Vera,  M. Hodecker,  
 Z. C. Holden,  S. Houck,  Xunkun Huang,  Kerwin Hui,  B. C. Huynh,  
 K. Ikeda,  M. Ivanov,  Hyunjun Ji,  Zuxin Jin,  Hanjie Jiang,  B. Kaduk,  
 S. Kaehler,  R. Kang,  K. Khistyaev,  Jaehoon Kim,  Yongbin Kim,  
 P. Klunzinger,  Z. Koczor-Benda,  Joong Hoon Koh,  D. Kosenkov,  
 Saikiran Kotaru,  L. Koulias,  T. Kowalczyk,  C. M. Krauter,  K. Kue,  
 A. Kunitsa,  T. Kus,  A. Landau,  K. V. Lawler,  D. Lefrancois,  S. Lehtola,  
 Rain Li,  Shaozhi Li,  Yi-Pei Li,  Jiashu Liang,  M. Liebenthal,  
 Hung-Hsuan Lin,  You-Sheng Lin,  Fenglai Liu,  Kuan-Yu Liu,  
 M. Loipersberger,  A. Luenser,  C. Malbon,  A. Manjanath,  P. Manohar,  
 E. Mansoor,  S. F. Manzer,  Shan-Ping Mao,  A. V. Marenich,  T. Markovich,  
 S. Mason,  F. Matz,  S. A. Maurer,  P. F. McLaughlin,  M. F. S. J. Menger,  
 J.-M. Mewes,  S. A. Mewes,  P. Morgante,  Mohammad Mostafanejad,  
 J. W. Mullinax,  K. J. Oosterbaan,  G. Paran,  V. Parravicini,  
 Alexander C. Paul,  Suranjan K. Paul,  F. Pavosevic,  Zheng Pei,  S. Prager,  
 E. I. Proynov,  E. Ramos,  B. Rana,  A. E. Rask,  A. Rettig,  R. M. Richard,  
 F. Rob,  E. Rossomme,  T. Scheele,  M. Scheurer,  M. Schneider,  
 P. E. Schneider,  N. Sergueev,  S. M. Sharada,  Hengyuan Shen,  
 W. Skomorowski,  D. W. Small,  C. J. Stein,  Yingli Su,  Yu-Chuan Su,  
 E. J. Sundstrom,  Zhen Tao,  J. Thirman,  Hung-Yi Tsai,  T. Tsuchimochi,  
 N. M. Tubman,  C. Utku,  S. P. Veccham,  O. Vydrov,  J. Wenzel,  
 Jonathan Wong,  J. Witte,  A. Yamada,  Chou-Hsun Yang,  Kun Yao,  
 S. Yeganeh,  S. R. Yost,  A. Zech,  F. Zeller,  Igor Ying Zhang,  
 Xing Zhang,  Yu Zhang,  D. Zuev,  A. Aspuru-Guzik,  A. T. Bell,  
 N. A. Besley,  K. B. Bravaya,  B. R. Brooks,  D. Casanova,  Jeng-Da Chai,  
 Hsing-Ta Chen,  S. Coriani,  C. J. Cramer,  A. E. DePrince, III,  
 R. A. DiStasio Jr.,  A. Dreuw,  B. D. Dunietz,  T. R. Furlani,  
 W. A. Goddard III,  S. Grimme,  S. Hammes-Schiffer,  T. Head-Gordon,  
 W. J. Hehre,  Chao-Ping Hsu,  T.-C. Jagau,  Yousung Jung,  A. Klamt,  
 Jing Kong,  D. S. Lambrecht,  Xiangyuan Li,  WanZhen Liang,  N. J. Mayhall,  
 C. W. McCurdy,  J. B. Neaton,  T. Neudecker,  C. Ochsenfeld,  
 J. A. Parkhill,  R. Peverati,  V. A. Rassolov,  Haisheng Ren,  Yihan Shao,  
 L. V. Slipchenko,  R. P. Steele,  J. E. Subotnik,  A. J. W. Thom,  
 A. Tkatchenko,  D. G. Truhlar,  T. Van Voorhis,  Fan Wang,  
 T. A. Wesolowski,  K. B. Whaley,  H. L. Woodcock III,  P. M. Zimmerman,  
 S. Faraji,  P. M. W. Gill,  M. Head-Gordon,  J. M. Herbert,  A. I. Krylov

 Contributors to earlier versions of Q-Chem not listed above: 
 R. D. Adamson,  B. Austin,  R. Baer,  J. Baker,  G. J. O. Beran,  
 K. Brandhorst,  S. T. Brown,  E. F. C. Byrd,  Arup K. Chakraborty,  
 G. K. L. Chan,  Chun-Min Chang,  Yunqing Chen,  C.-L. Cheng,  
 Siu Hung Chien,  D. M. Chipman,  D. L. Crittenden,  H. Dachsel,  
 R. J. Doerksen,  A. D. Dutoi,  R. G. Edgar,  J. Fosso-Tande,  
 L. Fusti-Molnar,  D. Ghosh,  A. Ghysels,  A. Golubeva-Zadorozhnaya,  
 J. Gonthier,  M. S. Gordon,  S. R. Gwaltney,  G. Hawkins,  J. E. Herr,  
 A. Heyden,  S. Hirata,  E. G. Hohenstein,  G. Kedziora,  F. J. Keil,  
 C. Kelley,  Jihan Kim,  R. A. King,  R. Z. Khaliullin,  P. P. Korambath,  
 W. Kurlancheek,  A. Laurent,  A. M. Lee,  M. S. Lee,  S. V. Levchenko,  
 Ching Yeh Lin,  D. Liotard,  E. Livshits,  R. C. Lochan,  I. Lotan,  
 L. A. Martinez-Martinez,  P. E. Maslen,  N. Nair,  D. P. O'Neill,  
 D. Neuhauser,  E. Neuscamman,  C. M. Oana,  R. Olivares-Amaya,  R. Olson,  
 T. M. Perrine,  B. Peters,  P. A. Pieniazek,  A. Prociuk,  Y. M. Rhee,  
 J. Ritchie,  M. A. Rohrdanz,  E. Rosta,  N. J. Russ,  H. F. Schaefer III,  
 M. W. Schmidt,  N. E. Schultz,  S. Sharma,  N. Shenvi,  C. D. Sherrill,  
 A. C. Simmonett,  A. Sodt,  T. Stein,  D. Stuck,  K. S. Thanthiriwatte,  
 V. Vanovschi,  L. Vogt,  Tao Wang,  A. Warshel,  M. A. Watson,  
 C. F. Williams,  Q. Wu,  X. Xu,  Jun Yang,  W. Zhang,  Yan Zhao

   Please cite Q-Chem as follows:
  "Software for the frontiers of quantum chemistry:
   An overview of developments in the Q-Chem 5 package"
   J. Chem. Phys. 155, 084801 (2021)
   https://doi.org/10.1063/5.0055522 (open access)

 Q-Chem 6.0.0 for Intel X86 EM64T Linux

 Parts of Q-Chem use Armadillo 9.900.5 (Nocturnal Misbehaviour).
 http://arma.sourceforge.net/

 Q-Chem begins on Thu Jul 21 03:46:49 2022  

 Host: nid00510
0

     Scratch files written to /global/cscratch1/sd/ymao90/r7.00_frame_0050_almo_B3LYP_dp20220721031445//
 Processing $rem in /global/homes/y/ymao90/my_qchem/qchem_embedding_5p4/config/preferences:
 Processing $rem in /global/homes/y/ymao90/.qchemrc:

 Checking the input file for inconsistencies... 	...done.

--------------------------------------------------------------
User input:
--------------------------------------------------------------
$molecule
0 1
--
0 1
C    26.69000   20.41400   26.24200  
C    27.58400   21.25000   27.17400  
C    29.00700   20.76300   27.49300  
C    29.78800   20.24900   26.27300  
C    28.85400   19.27500   25.53500  
C    27.48000   19.79200   25.07900  
H    29.50200   21.65100   27.90500  
H    27.61600   22.23300   26.68900  
H    26.30600   19.63700   26.91500  
H    25.87300   21.01600   25.82700  
H    30.06300   21.13500   25.68700  
H    30.69500   19.70800   26.56900  
H    29.37900   18.96900   24.62200  
H    28.73800   18.34700   26.10700  
H    27.54800   20.50500   24.24800  
H    26.83400   18.94600   24.81400  
H    28.96000   19.92300   28.19600  
N    26.83900   21.37800   28.42500  
H    27.15300   20.85600   29.23500  
C    25.86000   22.30700   28.70500  
H    25.53400   22.31800   29.76100  
O    25.52900   23.07600   27.82000  
--
0 1
C    25.31100   28.48500   23.13400  
H    26.08000   27.94500   23.69200  
H    25.53400   28.31500   22.07700  
H    25.21000   29.56500   23.27400  
S    23.81400   27.57000   23.56400  
C    22.74200   28.76100   22.72700  
H    23.04300   29.75900   23.05300  
H    22.81400   28.64700   21.64200  
H    21.68700   28.56300   22.93200  
O    23.64500   27.85100   25.02400  
C    28.61400   22.76500   31.46600  
H    29.58200   22.85300   30.96600  
H    27.73100   22.82000   30.82500  
H    28.40900   23.50500   32.24400  
S    28.64400   21.22000   32.40300  
C    30.33200   21.60400   32.92000  
H    30.61900   20.76700   33.56100  
H    30.89400   21.52900   31.98500  
H    30.29600   22.47300   33.58100  
O    28.91400   20.37500   31.19700  
C    30.60800   25.18400   33.82300  
H    31.40300   24.49200   34.11400  
H    30.39000   25.97100   34.54900  
H    29.64100   24.69200   33.69500  
S    30.92800   26.12500   32.31400  
C    29.34900   26.99700   32.20000  
H    29.32200   27.55700   33.13800  
H    29.27800   27.68400   31.35300  
H    28.53800   26.26600   32.13900  
O    30.69000   25.09300   31.25600  
C    31.81300   23.25300   28.27400  
H    31.39100   23.71100   27.37600  
H    31.58500   22.18900   28.37600  
H    31.40600   23.80500   29.12600  
S    33.61900   23.23100   28.25500  
C    33.99000   24.99100   28.43400  
H    33.76100   25.34900   29.44100  
H    35.06300   25.09800   28.25800  
H    33.37400   25.61500   27.78100  
O    33.92200   22.80900   26.85200  
C    21.31500   22.11700   32.24100  
H    21.00600   22.88600   31.52900  
H    21.66800   22.66600   33.11700  
H    22.04700   21.44200   31.79000  
S    19.93500   21.06600   32.74800  
C    20.95900   19.78100   33.49900  
H    21.52500   20.11000   34.37400  
H    20.37500   18.91500   33.81900  
H    21.64700   19.50800   32.69500  
O    19.43600   20.45700   31.47400  
C    28.56700   13.12700   26.51900  
H    28.83500   12.08600   26.71500  
H    28.34600   13.57300   27.49200  
H    27.78300   13.27300   25.77200  
S    29.97600   13.98200   25.77700  
C    30.82200   14.03400   27.37300  
H    30.67900   13.06800   27.86300  
H    31.86900   14.30100   27.21000  
H    30.40600   14.83800   27.98600  
O    29.46300   15.35200   25.45800  
C    24.36800   18.27500   32.33100  
H    24.77800   17.56600   33.05500  
H    23.30500   18.52200   32.39400  
H    24.48900   17.79400   31.35700  
S    25.38700   19.76200   32.21200  
C    25.24800   20.13000   33.97600  
H    25.51400   19.17500   34.43600  
H    25.87300   21.00000   34.19500  
H    24.20900   20.29700   34.27300  
O    24.46600   20.77400   31.60600  
C    28.09600   25.54600   28.80800  
H    28.82600   26.33900   28.62700  
H    28.28800   25.23500   29.83800  
H    28.22300   24.67400   28.16100  
S    26.39900   26.15000   28.66000  
C    26.40500   26.07800   26.85500  
H    27.30500   26.51700   26.41700  
H    26.47400   25.01900   26.59200  
H    25.54300   26.61400   26.44900  
O    26.44000   27.63700   28.82600  
C    24.36300   22.16600   23.19700  
H    24.88700   23.12600   23.17500  
H    23.93400   22.10200   24.20000  
H    24.99100   21.32800   22.88400  
S    23.12000   22.63300   21.97100  
C    22.21800   21.08100   22.17400  
H    21.28200   21.09800   21.60900  
H    22.79500   20.21700   21.83500  
H    22.04700   20.82000   23.22100  
O    23.78300   22.46200   20.64000  
C    31.59900   15.77200   19.43700  
H    30.67000   16.29000   19.68900  
H    32.40800   16.44800   19.15000  
H    31.31500   15.02600   18.69100  
S    32.00800   14.70500   20.83700  
C    31.86800   16.13200   21.93700  
H    32.04800   15.74500   22.94300  
H    32.61400   16.87300   21.64000  
H    30.83200   16.48000   21.90900  
O    33.46300   14.48000   20.57000  
C    35.69800   18.76900   29.22400  
H    35.46100   17.79500   28.78900  
H    36.05800   18.52300   30.22600  
H    34.88700   19.50200   29.19900  
S    37.07200   19.47800   28.29000  
C    36.14600   19.71400   26.75700  
H    35.63200   20.67400   26.66700  
H    36.78000   19.54300   25.88300  
H    35.38500   18.93600   26.86200  
O    37.89400   18.24700   28.06400  
C    32.02900   17.52200   27.91900  
H    32.21800   18.47500   27.41800  
H    32.97100   17.21100   28.37600  
H    31.75800   16.75000   27.19500  
S    30.78400   17.64200   29.22300  
C    31.56700   18.96800   30.16700  
H    31.46600   19.96200   29.72400  
H    31.14200   19.13000   31.16100  
H    32.63000   18.74900   30.29800  
O    30.84700   16.33400   29.94800  
C    26.96800   24.39600   21.13600  
H    27.91100   24.02700   20.72400  
H    27.29700   24.89900   22.04900  
H    26.23000   23.59300   21.19900  
S    26.15800   25.55900   20.01500  
C    27.42200   26.84700   20.10700  
H    27.12100   27.88000   19.91800  
H    27.88100   26.74900   21.09400  
H    28.07200   26.63200   19.25400  
O    25.11000   26.13200   20.91800  
C    28.79400   24.52100   25.00100  
H    28.49700   23.70400   25.66400  
H    28.88600   25.49200   25.49600  
H    28.11100   24.65800   24.15900  
S    30.34400   23.94700   24.27100  
C    30.24400   25.06000   22.85100  
H    30.37600   26.11100   23.11900  
H    30.95000   24.81900   22.05200  
H    29.22600   25.07400   22.45400  
O    29.84600   22.65900   23.69400  
C    27.42700   16.40300   28.13800  
H    26.86200   15.54700   27.75900  
H    27.60600   17.06200   27.28500  
H    28.39700   16.00000   28.43900  
S    26.56200   17.48500   29.29800  
C    27.14300   16.53000   30.71800  
H    26.66200   15.55300   30.63300  
H    28.22600   16.40800   30.63400  
H    26.86200   17.07900   31.62100  
O    25.17400   16.95100   29.12500  
C    34.19300   23.90900   31.99600  
H    35.25300   24.07900   31.78800  
H    33.45800   24.18700   31.23600  
H    33.83900   24.41500   32.89800  
S    33.87700   22.14300   32.21400  
C    35.34500   21.70700   33.17300  
H    35.06500   22.06100   34.16900  
H    35.42000   20.61600   33.16000  
H    36.26400   22.14500   32.77600  
O    34.01200   21.65400   30.80600  
C    33.53400   21.74700   23.29700  
H    34.53200   21.62900   23.72900  
H    33.50100   22.08700   22.25900  
H    32.93100   22.34800   23.98300  
S    32.59400   20.20400   23.26600  
C    33.22700   19.60700   24.84900  
H    34.31300   19.64100   24.96500  
H    32.78400   20.28000   25.58800  
H    33.06000   18.53300   24.96400  
O    33.19700   19.20200   22.33100  
C    30.85100   19.74900   20.03200  
H    31.88700   19.81300   19.68900  
H    30.81000   19.27500   21.01600  
H    30.26200   19.27400   19.24400  
S    30.18500   21.38200   20.42500  
C    28.66800   20.77900   21.20000  
H    28.08200   20.22400   20.46300  
H    28.95900   20.10500   22.01000  
H    28.22900   21.70000   21.59200  
O    29.78400   22.05100   19.14700  
C    37.19300   15.83100   25.56300  
H    37.91100   15.75000   24.74200  
H    37.30200   16.82600   26.00300  
H    37.14500   14.99300   26.26200  
S    35.60700   15.96400   24.70600  
C    35.78400   17.41500   23.64400  
H    34.90100   17.48700   23.00400  
H    35.77600   18.30900   24.27300  
H    36.75700   17.38600   23.14600  
O    34.61200   16.34500   25.75800  
C    22.67900   25.52500   27.57800  
H    23.49600   25.83500   28.23500  
H    22.83900   24.50700   27.21400  
H    22.38400   26.14800   26.73000  
S    21.25300   25.27500   28.65900  
C    21.40300   26.76600   29.66900  
H    22.42900   26.78200   30.04500  
H    21.30200   27.69900   29.10900  
H    20.74800   26.65900   30.53800  
O    21.65700   24.06800   29.44700  
C    27.30700   16.34400   23.02100  
H    28.30200   16.76700   23.18200  
H    26.48000   17.05600   22.95800  
H    27.13800   15.65100   23.84800  
S    27.37300   15.47000   21.44000  
C    28.36600   14.10200   22.07700  
H    29.15900   14.51600   22.70500  
H    27.63200   13.59300   22.70700  
H    28.78600   13.53600   21.24200  
O    28.36100   16.28700   20.66800  
C    20.50300   20.45000   28.11700  
H    21.01700   21.00900   28.90400  
H    20.06400   21.14300   27.39400  
H    19.70700   19.83900   28.55000  
S    21.76600   19.57800   27.16300  
C    23.01600   20.84700   27.46200  
H    23.85200   20.58300   26.80900  
H    22.65000   21.84200   27.19600  
H    23.41900   20.74800   28.47300  
O    21.38300   20.01800   25.78400  
C    20.71900   23.31100   25.42900  
H    19.89500   22.59300   25.46000  
H    21.65900   22.75400   25.44800  
H    20.64400   23.93100   26.32600  
S    20.46600   24.32400   23.95400  
C    18.87500   25.11300   24.29000  
H    18.84600   25.73500   25.18800  
H    18.54800   25.68900   23.42000  
H    18.28600   24.20600   24.45000  
O    20.00600   23.24000   23.03000  
C    33.15500   27.16100   24.77400  
H    33.26800   28.24600   24.71500  
H    32.17800   26.83300   24.40800  
H    33.12300   26.91600   25.83800  
S    34.60700   26.47200   23.94700  
C    34.13300   24.72800   23.96800  
H    34.93700   24.14500   23.51200  
H    33.82500   24.37400   24.95500  
H    33.27300   24.62900   23.30100  
O    35.68100   26.66500   24.97100  
C    24.06200   24.57900   31.34500  
H    24.66400   24.37600   30.45600  
H    23.16100   23.96000   31.34100  
H    23.60600   25.57300   31.36200  
S    25.11700   24.43800   32.80500  
C    23.87000   25.20700   33.86300  
H    22.93100   24.65300   33.78300  
H    24.34900   25.29400   34.84100  
H    23.83300   26.25100   33.54200  
O    26.17100   25.49800   32.72800  
C    24.04000   16.90700   26.01300  
H    23.44800   16.12400   26.49500  
H    25.08200   16.63700   25.82700  
H    23.97600   17.83800   26.58100  
S    23.22900   17.14400   24.41600  
C    21.71000   16.24000   24.79200  
H    21.24000   16.68200   25.67500  
H    21.04600   16.36100   23.93300  
H    21.93100   15.18000   24.93800  
O    23.98400   16.08900   23.66800  
C    26.66300   16.78300   17.82500  
H    26.92900   16.26300   18.74900  
H    25.58100   16.66500   17.72300  
H    27.24800   16.61800   16.91600  
S    26.91400   18.54600   18.12700  
C    25.69700   18.59400   19.46300  
H    25.48300   19.63400   19.72300  
H    24.82500   18.04900   19.09200  
H    26.11300   18.00200   20.28200  
O    26.28500   19.16500   16.91800  
C    31.54200   28.19100   29.26800  
H    31.92200   29.05100   29.82600  
H    30.68700   27.72100   29.76000  
H    32.29000   27.39500   29.22200  
S    31.12300   28.55300   27.54800  
C    29.46400   29.19800   27.85900  
H    29.03300   29.48300   26.89600  
H    28.82100   28.40200   28.24400  
H    29.55100   30.07000   28.51300  
O    30.79400   27.16600   27.09100  
$end

$rem
JOBTYPE  SP
METHOD  B3LYP
BASIS  6-31+G(D)
SYMMETRY  FALSE
SYM_IGNORE  TRUE
MEM_TOTAL  12000
MEM_STATIC  4000
BASIS_LIN_DEP_THRESH  6
THRESH  14
SCF_CONVERGENCE  8
FD_MAT_VEC_PROD  FALSE
XC_GRID  000075000302
NL_GRID  1
MAX_SCF_CYCLES  200
FRGM_METHOD  STOLL
SCFMI_MODE  1
ALMO_EFIELD  TRUE
$end

$rem_frgm
SCF_CONVERGENCE  4
$end


--------------------------------------------------------------
 ----------------------------------------------------------------
             Standard Nuclear Orientation (Angstroms)
    I     Atom           X                Y                Z
 ----------------------------------------------------------------
    1      C      26.6900000000    20.4140000000    26.2420000000
    2      C      27.5840000000    21.2500000000    27.1740000000
    3      C      29.0070000000    20.7630000000    27.4930000000
    4      C      29.7880000000    20.2490000000    26.2730000000
    5      C      28.8540000000    19.2750000000    25.5350000000
    6      C      27.4800000000    19.7920000000    25.0790000000
    7      H      29.5020000000    21.6510000000    27.9050000000
    8      H      27.6160000000    22.2330000000    26.6890000000
    9      H      26.3060000000    19.6370000000    26.9150000000
   10      H      25.8730000000    21.0160000000    25.8270000000
   11      H      30.0630000000    21.1350000000    25.6870000000
   12      H      30.6950000000    19.7080000000    26.5690000000
   13      H      29.3790000000    18.9690000000    24.6220000000
   14      H      28.7380000000    18.3470000000    26.1070000000
   15      H      27.5480000000    20.5050000000    24.2480000000
   16      H      26.8340000000    18.9460000000    24.8140000000
   17      H      28.9600000000    19.9230000000    28.1960000000
   18      N      26.8390000000    21.3780000000    28.4250000000
   19      H      27.1530000000    20.8560000000    29.2350000000
   20      C      25.8600000000    22.3070000000    28.7050000000
   21      H      25.5340000000    22.3180000000    29.7610000000
   22      O      25.5290000000    23.0760000000    27.8200000000
   23      C      25.3110000000    28.4850000000    23.1340000000
   24      H      26.0800000000    27.9450000000    23.6920000000
   25      H      25.5340000000    28.3150000000    22.0770000000
   26      H      25.2100000000    29.5650000000    23.2740000000
   27      S      23.8140000000    27.5700000000    23.5640000000
   28      C      22.7420000000    28.7610000000    22.7270000000
   29      H      23.0430000000    29.7590000000    23.0530000000
   30      H      22.8140000000    28.6470000000    21.6420000000
   31      H      21.6870000000    28.5630000000    22.9320000000
   32      O      23.6450000000    27.8510000000    25.0240000000
   33      C      28.6140000000    22.7650000000    31.4660000000
   34      H      29.5820000000    22.8530000000    30.9660000000
   35      H      27.7310000000    22.8200000000    30.8250000000
   36      H      28.4090000000    23.5050000000    32.2440000000
   37      S      28.6440000000    21.2200000000    32.4030000000
   38      C      30.3320000000    21.6040000000    32.9200000000
   39      H      30.6190000000    20.7670000000    33.5610000000
   40      H      30.8940000000    21.5290000000    31.9850000000
   41      H      30.2960000000    22.4730000000    33.5810000000
   42      O      28.9140000000    20.3750000000    31.1970000000
   43      C      30.6080000000    25.1840000000    33.8230000000
   44      H      31.4030000000    24.4920000000    34.1140000000
   45      H      30.3900000000    25.9710000000    34.5490000000
   46      H      29.6410000000    24.6920000000    33.6950000000
   47      S      30.9280000000    26.1250000000    32.3140000000
   48      C      29.3490000000    26.9970000000    32.2000000000
   49      H      29.3220000000    27.5570000000    33.1380000000
   50      H      29.2780000000    27.6840000000    31.3530000000
   51      H      28.5380000000    26.2660000000    32.1390000000
   52      O      30.6900000000    25.0930000000    31.2560000000
   53      C      31.8130000000    23.2530000000    28.2740000000
   54      H      31.3910000000    23.7110000000    27.3760000000
   55      H      31.5850000000    22.1890000000    28.3760000000
   56      H      31.4060000000    23.8050000000    29.1260000000
   57      S      33.6190000000    23.2310000000    28.2550000000
   58      C      33.9900000000    24.9910000000    28.4340000000
   59      H      33.7610000000    25.3490000000    29.4410000000
   60      H      35.0630000000    25.0980000000    28.2580000000
   61      H      33.3740000000    25.6150000000    27.7810000000
   62      O      33.9220000000    22.8090000000    26.8520000000
   63      C      21.3150000000    22.1170000000    32.2410000000
   64      H      21.0060000000    22.8860000000    31.5290000000
   65      H      21.6680000000    22.6660000000    33.1170000000
   66      H      22.0470000000    21.4420000000    31.7900000000
   67      S      19.9350000000    21.0660000000    32.7480000000
   68      C      20.9590000000    19.7810000000    33.4990000000
   69      H      21.5250000000    20.1100000000    34.3740000000
   70      H      20.3750000000    18.9150000000    33.8190000000
   71      H      21.6470000000    19.5080000000    32.6950000000
   72      O      19.4360000000    20.4570000000    31.4740000000
   73      C      28.5670000000    13.1270000000    26.5190000000
   74      H      28.8350000000    12.0860000000    26.7150000000
   75      H      28.3460000000    13.5730000000    27.4920000000
   76      H      27.7830000000    13.2730000000    25.7720000000
   77      S      29.9760000000    13.9820000000    25.7770000000
   78      C      30.8220000000    14.0340000000    27.3730000000
   79      H      30.6790000000    13.0680000000    27.8630000000
   80      H      31.8690000000    14.3010000000    27.2100000000
   81      H      30.4060000000    14.8380000000    27.9860000000
   82      O      29.4630000000    15.3520000000    25.4580000000
   83      C      24.3680000000    18.2750000000    32.3310000000
   84      H      24.7780000000    17.5660000000    33.0550000000
   85      H      23.3050000000    18.5220000000    32.3940000000
   86      H      24.4890000000    17.7940000000    31.3570000000
   87      S      25.3870000000    19.7620000000    32.2120000000
   88      C      25.2480000000    20.1300000000    33.9760000000
   89      H      25.5140000000    19.1750000000    34.4360000000
   90      H      25.8730000000    21.0000000000    34.1950000000
   91      H      24.2090000000    20.2970000000    34.2730000000
   92      O      24.4660000000    20.7740000000    31.6060000000
   93      C      28.0960000000    25.5460000000    28.8080000000
   94      H      28.8260000000    26.3390000000    28.6270000000
   95      H      28.2880000000    25.2350000000    29.8380000000
   96      H      28.2230000000    24.6740000000    28.1610000000
   97      S      26.3990000000    26.1500000000    28.6600000000
   98      C      26.4050000000    26.0780000000    26.8550000000
   99      H      27.3050000000    26.5170000000    26.4170000000
  100      H      26.4740000000    25.0190000000    26.5920000000
  101      H      25.5430000000    26.6140000000    26.4490000000
  102      O      26.4400000000    27.6370000000    28.8260000000
  103      C      24.3630000000    22.1660000000    23.1970000000
  104      H      24.8870000000    23.1260000000    23.1750000000
  105      H      23.9340000000    22.1020000000    24.2000000000
  106      H      24.9910000000    21.3280000000    22.8840000000
  107      S      23.1200000000    22.6330000000    21.9710000000
  108      C      22.2180000000    21.0810000000    22.1740000000
  109      H      21.2820000000    21.0980000000    21.6090000000
  110      H      22.7950000000    20.2170000000    21.8350000000
  111      H      22.0470000000    20.8200000000    23.2210000000
  112      O      23.7830000000    22.4620000000    20.6400000000
  113      C      31.5990000000    15.7720000000    19.4370000000
  114      H      30.6700000000    16.2900000000    19.6890000000
  115      H      32.4080000000    16.4480000000    19.1500000000
  116      H      31.3150000000    15.0260000000    18.6910000000
  117      S      32.0080000000    14.7050000000    20.8370000000
  118      C      31.8680000000    16.1320000000    21.9370000000
  119      H      32.0480000000    15.7450000000    22.9430000000
  120      H      32.6140000000    16.8730000000    21.6400000000
  121      H      30.8320000000    16.4800000000    21.9090000000
  122      O      33.4630000000    14.4800000000    20.5700000000
  123      C      35.6980000000    18.7690000000    29.2240000000
  124      H      35.4610000000    17.7950000000    28.7890000000
  125      H      36.0580000000    18.5230000000    30.2260000000
  126      H      34.8870000000    19.5020000000    29.1990000000
  127      S      37.0720000000    19.4780000000    28.2900000000
  128      C      36.1460000000    19.7140000000    26.7570000000
  129      H      35.6320000000    20.6740000000    26.6670000000
  130      H      36.7800000000    19.5430000000    25.8830000000
  131      H      35.3850000000    18.9360000000    26.8620000000
  132      O      37.8940000000    18.2470000000    28.0640000000
  133      C      32.0290000000    17.5220000000    27.9190000000
  134      H      32.2180000000    18.4750000000    27.4180000000
  135      H      32.9710000000    17.2110000000    28.3760000000
  136      H      31.7580000000    16.7500000000    27.1950000000
  137      S      30.7840000000    17.6420000000    29.2230000000
  138      C      31.5670000000    18.9680000000    30.1670000000
  139      H      31.4660000000    19.9620000000    29.7240000000
  140      H      31.1420000000    19.1300000000    31.1610000000
  141      H      32.6300000000    18.7490000000    30.2980000000
  142      O      30.8470000000    16.3340000000    29.9480000000
  143      C      26.9680000000    24.3960000000    21.1360000000
  144      H      27.9110000000    24.0270000000    20.7240000000
  145      H      27.2970000000    24.8990000000    22.0490000000
  146      H      26.2300000000    23.5930000000    21.1990000000
  147      S      26.1580000000    25.5590000000    20.0150000000
  148      C      27.4220000000    26.8470000000    20.1070000000
  149      H      27.1210000000    27.8800000000    19.9180000000
  150      H      27.8810000000    26.7490000000    21.0940000000
  151      H      28.0720000000    26.6320000000    19.2540000000
  152      O      25.1100000000    26.1320000000    20.9180000000
  153      C      28.7940000000    24.5210000000    25.0010000000
  154      H      28.4970000000    23.7040000000    25.6640000000
  155      H      28.8860000000    25.4920000000    25.4960000000
  156      H      28.1110000000    24.6580000000    24.1590000000
  157      S      30.3440000000    23.9470000000    24.2710000000
  158      C      30.2440000000    25.0600000000    22.8510000000
  159      H      30.3760000000    26.1110000000    23.1190000000
  160      H      30.9500000000    24.8190000000    22.0520000000
  161      H      29.2260000000    25.0740000000    22.4540000000
  162      O      29.8460000000    22.6590000000    23.6940000000
  163      C      27.4270000000    16.4030000000    28.1380000000
  164      H      26.8620000000    15.5470000000    27.7590000000
  165      H      27.6060000000    17.0620000000    27.2850000000
  166      H      28.3970000000    16.0000000000    28.4390000000
  167      S      26.5620000000    17.4850000000    29.2980000000
  168      C      27.1430000000    16.5300000000    30.7180000000
  169      H      26.6620000000    15.5530000000    30.6330000000
  170      H      28.2260000000    16.4080000000    30.6340000000
  171      H      26.8620000000    17.0790000000    31.6210000000
  172      O      25.1740000000    16.9510000000    29.1250000000
  173      C      34.1930000000    23.9090000000    31.9960000000
  174      H      35.2530000000    24.0790000000    31.7880000000
  175      H      33.4580000000    24.1870000000    31.2360000000
  176      H      33.8390000000    24.4150000000    32.8980000000
  177      S      33.8770000000    22.1430000000    32.2140000000
  178      C      35.3450000000    21.7070000000    33.1730000000
  179      H      35.0650000000    22.0610000000    34.1690000000
  180      H      35.4200000000    20.6160000000    33.1600000000
  181      H      36.2640000000    22.1450000000    32.7760000000
  182      O      34.0120000000    21.6540000000    30.8060000000
  183      C      33.5340000000    21.7470000000    23.2970000000
  184      H      34.5320000000    21.6290000000    23.7290000000
  185      H      33.5010000000    22.0870000000    22.2590000000
  186      H      32.9310000000    22.3480000000    23.9830000000
  187      S      32.5940000000    20.2040000000    23.2660000000
  188      C      33.2270000000    19.6070000000    24.8490000000
  189      H      34.3130000000    19.6410000000    24.9650000000
  190      H      32.7840000000    20.2800000000    25.5880000000
  191      H      33.0600000000    18.5330000000    24.9640000000
  192      O      33.1970000000    19.2020000000    22.3310000000
  193      C      30.8510000000    19.7490000000    20.0320000000
  194      H      31.8870000000    19.8130000000    19.6890000000
  195      H      30.8100000000    19.2750000000    21.0160000000
  196      H      30.2620000000    19.2740000000    19.2440000000
  197      S      30.1850000000    21.3820000000    20.4250000000
  198      C      28.6680000000    20.7790000000    21.2000000000
  199      H      28.0820000000    20.2240000000    20.4630000000
  200      H      28.9590000000    20.1050000000    22.0100000000
  201      H      28.2290000000    21.7000000000    21.5920000000
  202      O      29.7840000000    22.0510000000    19.1470000000
  203      C      37.1930000000    15.8310000000    25.5630000000
  204      H      37.9110000000    15.7500000000    24.7420000000
  205      H      37.3020000000    16.8260000000    26.0030000000
  206      H      37.1450000000    14.9930000000    26.2620000000
  207      S      35.6070000000    15.9640000000    24.7060000000
  208      C      35.7840000000    17.4150000000    23.6440000000
  209      H      34.9010000000    17.4870000000    23.0040000000
  210      H      35.7760000000    18.3090000000    24.2730000000
  211      H      36.7570000000    17.3860000000    23.1460000000
  212      O      34.6120000000    16.3450000000    25.7580000000
  213      C      22.6790000000    25.5250000000    27.5780000000
  214      H      23.4960000000    25.8350000000    28.2350000000
  215      H      22.8390000000    24.5070000000    27.2140000000
  216      H      22.3840000000    26.1480000000    26.7300000000
  217      S      21.2530000000    25.2750000000    28.6590000000
  218      C      21.4030000000    26.7660000000    29.6690000000
  219      H      22.4290000000    26.7820000000    30.0450000000
  220      H      21.3020000000    27.6990000000    29.1090000000
  221      H      20.7480000000    26.6590000000    30.5380000000
  222      O      21.6570000000    24.0680000000    29.4470000000
  223      C      27.3070000000    16.3440000000    23.0210000000
  224      H      28.3020000000    16.7670000000    23.1820000000
  225      H      26.4800000000    17.0560000000    22.9580000000
  226      H      27.1380000000    15.6510000000    23.8480000000
  227      S      27.3730000000    15.4700000000    21.4400000000
  228      C      28.3660000000    14.1020000000    22.0770000000
  229      H      29.1590000000    14.5160000000    22.7050000000
  230      H      27.6320000000    13.5930000000    22.7070000000
  231      H      28.7860000000    13.5360000000    21.2420000000
  232      O      28.3610000000    16.2870000000    20.6680000000
  233      C      20.5030000000    20.4500000000    28.1170000000
  234      H      21.0170000000    21.0090000000    28.9040000000
  235      H      20.0640000000    21.1430000000    27.3940000000
  236      H      19.7070000000    19.8390000000    28.5500000000
  237      S      21.7660000000    19.5780000000    27.1630000000
  238      C      23.0160000000    20.8470000000    27.4620000000
  239      H      23.8520000000    20.5830000000    26.8090000000
  240      H      22.6500000000    21.8420000000    27.1960000000
  241      H      23.4190000000    20.7480000000    28.4730000000
  242      O      21.3830000000    20.0180000000    25.7840000000
  243      C      20.7190000000    23.3110000000    25.4290000000
  244      H      19.8950000000    22.5930000000    25.4600000000
  245      H      21.6590000000    22.7540000000    25.4480000000
  246      H      20.6440000000    23.9310000000    26.3260000000
  247      S      20.4660000000    24.3240000000    23.9540000000
  248      C      18.8750000000    25.1130000000    24.2900000000
  249      H      18.8460000000    25.7350000000    25.1880000000
  250      H      18.5480000000    25.6890000000    23.4200000000
  251      H      18.2860000000    24.2060000000    24.4500000000
  252      O      20.0060000000    23.2400000000    23.0300000000
  253      C      33.1550000000    27.1610000000    24.7740000000
  254      H      33.2680000000    28.2460000000    24.7150000000
  255      H      32.1780000000    26.8330000000    24.4080000000
  256      H      33.1230000000    26.9160000000    25.8380000000
  257      S      34.6070000000    26.4720000000    23.9470000000
  258      C      34.1330000000    24.7280000000    23.9680000000
  259      H      34.9370000000    24.1450000000    23.5120000000
  260      H      33.8250000000    24.3740000000    24.9550000000
  261      H      33.2730000000    24.6290000000    23.3010000000
  262      O      35.6810000000    26.6650000000    24.9710000000
  263      C      24.0620000000    24.5790000000    31.3450000000
  264      H      24.6640000000    24.3760000000    30.4560000000
  265      H      23.1610000000    23.9600000000    31.3410000000
  266      H      23.6060000000    25.5730000000    31.3620000000
  267      S      25.1170000000    24.4380000000    32.8050000000
  268      C      23.8700000000    25.2070000000    33.8630000000
  269      H      22.9310000000    24.6530000000    33.7830000000
  270      H      24.3490000000    25.2940000000    34.8410000000
  271      H      23.8330000000    26.2510000000    33.5420000000
  272      O      26.1710000000    25.4980000000    32.7280000000
  273      C      24.0400000000    16.9070000000    26.0130000000
  274      H      23.4480000000    16.1240000000    26.4950000000
  275      H      25.0820000000    16.6370000000    25.8270000000
  276      H      23.9760000000    17.8380000000    26.5810000000
  277      S      23.2290000000    17.1440000000    24.4160000000
  278      C      21.7100000000    16.2400000000    24.7920000000
  279      H      21.2400000000    16.6820000000    25.6750000000
  280      H      21.0460000000    16.3610000000    23.9330000000
  281      H      21.9310000000    15.1800000000    24.9380000000
  282      O      23.9840000000    16.0890000000    23.6680000000
  283      C      26.6630000000    16.7830000000    17.8250000000
  284      H      26.9290000000    16.2630000000    18.7490000000
  285      H      25.5810000000    16.6650000000    17.7230000000
  286      H      27.2480000000    16.6180000000    16.9160000000
  287      S      26.9140000000    18.5460000000    18.1270000000
  288      C      25.6970000000    18.5940000000    19.4630000000
  289      H      25.4830000000    19.6340000000    19.7230000000
  290      H      24.8250000000    18.0490000000    19.0920000000
  291      H      26.1130000000    18.0020000000    20.2820000000
  292      O      26.2850000000    19.1650000000    16.9180000000
  293      C      31.5420000000    28.1910000000    29.2680000000
  294      H      31.9220000000    29.0510000000    29.8260000000
  295      H      30.6870000000    27.7210000000    29.7600000000
  296      H      32.2900000000    27.3950000000    29.2220000000
  297      S      31.1230000000    28.5530000000    27.5480000000
  298      C      29.4640000000    29.1980000000    27.8590000000
  299      H      29.0330000000    29.4830000000    26.8960000000
  300      H      28.8210000000    28.4020000000    28.2440000000
  301      H      29.5510000000    30.0700000000    28.5130000000
  302      O      30.7940000000    27.1660000000    27.0910000000
 ----------------------------------------------------------------
 Nuclear Repulsion Energy =       50811.05746510 hartrees
 There are      623 alpha and      623 beta electrons
 Requested basis set is 6-31+G(d)
 There are 995 shells and 2773 basis functions

 Total QAlloc Memory Limit  12000 MB
 Mega-Array Size      3911 MB
 MEM_STATIC part      4000 MB

 A cutoff of  1.0D-14 yielded 185943 shell pairs
 There are   1612043 function pairs
 Smallest overlap matrix eigenvalue = 5.12E-07
 Linear dependence detected in AO basis
 Tighter screening thresholds may be required for diffuse basis sets
 Use S2THRESH > 14 and THRESH = 14 in case of SCF convergence issues
 Number of orthogonalized atomic orbitals = 2771
 Maximum deviation from orthogonality = 1.847E-10

 Scale SEOQF with 1.000000e-03/1.000000e-03/1.000000e-03

 Standard Electronic Orientation quadrupole field applied
 Nucleus-field energy     =    -0.0000001742 hartrees
 Attempting to make child job directory: /global/cscratch1/sd/ymao90/r7.00_frame_0050_almo_B3LYP_dp20220721031445//Frg1/
 Attempting to make child job directory: /global/cscratch1/sd/ymao90/r7.00_frame_0050_almo_B3LYP_dp20220721031445//Frg2/
 Creating input file /global/cscratch1/sd/ymao90/r7.00_frame_0050_almo_B3LYP_dp20220721031445/Frg1.input
 using default PutDataFrgm: nothing
 calling putenv with: QCSCRATCH=/global/cscratch1/sd/ymao90/r7.00_frame_0050_almo_B3LYP_dp20220721031445/ 
 Spawning Job For Fragment 0
 Done Job For Fragment 0
 calling putenv with: QCSCRATCH=/global/cscratch1/sd/ymao90 
 calling putenv with: QCTHREADS=16 
 Creating input file /global/cscratch1/sd/ymao90/r7.00_frame_0050_almo_B3LYP_dp20220721031445/Frg2.input
 using default PutDataFrgm: nothing
 calling putenv with: QCSCRATCH=/global/cscratch1/sd/ymao90/r7.00_frame_0050_almo_B3LYP_dp20220721031445/ 
 Spawning Job For Fragment 1
 Done Job For Fragment 1
 calling putenv with: QCSCRATCH=/global/cscratch1/sd/ymao90 
 calling putenv with: QCTHREADS=16 
 Time for running child jobs:  CPU 0.51 s  wall 17435.91 s

 -----------------------------------------------------------------------
  General SCF calculation program by
  Eric Jon Sundstrom, Paul Horn, Yuezhi Mao, Dmitri Zuev, Alec White,
  David Stuck, Shaama M.S., Shane Yost, Joonho Lee, David Small,
  Daniel Levine, Susi Lehtola, Hugh Burton, Evgeny Epifanovsky,
  Bang C. Huynh
 -----------------------------------------------------------------------
Performing Restricted Closed Shell SCFMI
Doing General SCFMI
 Exchange:     0.2000 Hartree-Fock + 0.0800 Slater + 0.7200 B88
 Correlation:  0.1900 VWN1RPA + 0.8100 LYP
 Using Euler-Maclaurin-Lebedev (75,302) quadrature formula
performing fock build before subrot guess so that all methods have access
 using 16 threads for integral computing
 -------------------------------------------------------
 OpenMP Integral computing Module                
 Release: version 1.0, May 2013, Q-Chem Inc. Pittsburgh 
 -------------------------------------------------------
Printing subrot_rss_gen Method Specification:
Occupied Subspace Method is 0
Virtual Subspace Method is 0
Energy prior to optimization (guess energy) = -15893.877204752847
Begin Timing: Total SCF Calculation
begin iterations for algorithm: DIIS         
the SCF tolerance is set to 1.00e-08
    1  -15893.8772047528      2.72e-05     00000 
    2  -15893.8823754026      1.94e-05     00000 
    3  -15893.8833279666      1.29e-05     00000 
    4  -15893.8837498029      5.95e-06     00000 
    5  -15893.8838414423      2.61e-06     00000 
    6  -15893.8838628123      1.28e-06     00000 
    7  -15893.8838676656      9.61e-07     00000 
    8  -15893.8838697309      6.16e-07     00000 
    9  -15893.8838706453      3.02e-07     00000 
   10  -15893.8838708631      1.88e-07     00000 
   11  -15893.8838709460      1.21e-07     00000 
   12  -15893.8838709781      7.64e-08     00000 
   13  -15893.8838709907      4.54e-08     00000 
   14  -15893.8838709960      2.20e-08     00000 
   15  -15893.8838709973      1.23e-08     00000 
   16  -15893.8838709977      8.40e-09     00000 Convergence criterion met
write pseudocanon occs and virts to disk
write pseudocanon orbital energies to disk
Timing for Total SCF: 19618.00s (wall), 269530.52s (cpu)
SCFMI Energy  -15893.8838709977
<S^2>            0.00000
 Total energy in the final basis set =   -15893.8838709977
    ==================================================
        The end of Object-Oriented SCFman: SCFMI      
    ==================================================

 --------------------------------------------------------------

                    Orbital Energies (a.u.)
 --------------------------------------------------------------

 Alpha MOs
 -- Occupied --
-89.0436 -89.0320 -89.0305 -89.0295 -89.0272 -89.0194 -89.0194 -89.0095
-89.0059 -89.0055 -89.0047 -89.0041 -89.0027 -88.9992 -88.9961 -88.9923
-88.9912 -88.9911 -88.9899 -88.9890 -88.9887 -88.9862 -88.9823 -88.9765
-88.9679 -88.9643 -88.9633 -88.9538 -19.1484 -19.1461 -19.1434 -19.1426
-19.1392 -19.1379 -19.1370 -19.1299 -19.1297 -19.1277 -19.1264 -19.1253
-19.1200 -19.1195 -19.1108 -19.1099 -19.1087 -19.1046 -19.1033 -19.1033
-19.1007 -19.0986 -19.0984 -19.0921 -19.0892 -19.0853 -19.0849 -19.0791
-19.0697 -14.3714 -10.3011 -10.2659 -10.2555 -10.2545 -10.2512 -10.2495
-10.2469 -10.2444 -10.2409 -10.2370 -10.2361 -10.2353 -10.2338 -10.2329
-10.2325 -10.2320 -10.2314 -10.2273 -10.2264 -10.2230 -10.2221 -10.2202
-10.2183 -10.2180 -10.2169 -10.2167 -10.2158 -10.2156 -10.2150 -10.2146
-10.2126 -10.2125 -10.2122 -10.2116 -10.2097 -10.2085 -10.2081 -10.2079
-10.2076 -10.2065 -10.2051 -10.2047 -10.2034 -10.2032 -10.2023 -10.2016
-10.2014 -10.2001 -10.1977 -10.1951 -10.1951 -10.1942 -10.1893 -10.1881
-10.1865 -10.1841 -10.1820 -10.1808 -10.1783 -10.1758 -10.1752 -10.1738
-10.1672  -8.0899  -8.0781  -8.0772  -8.0755  -8.0736  -8.0652  -8.0648
 -8.0557  -8.0523  -8.0516  -8.0510  -8.0497  -8.0485  -8.0447  -8.0420
 -8.0381  -8.0378  -8.0374  -8.0355  -8.0349  -8.0343  -8.0328  -8.0289
 -8.0236  -8.0133  -8.0103  -8.0099  -8.0001  -6.0543  -6.0529  -6.0473
 -6.0424  -6.0414  -6.0413  -6.0399  -6.0398  -6.0385  -6.0379  -6.0366
 -6.0354  -6.0353  -6.0330  -6.0311  -6.0296  -6.0290  -6.0282  -6.0279
 -6.0228  -6.0225  -6.0199  -6.0187  -6.0167  -6.0158  -6.0154  -6.0153
 -6.0147  -6.0143  -6.0139  -6.0134  -6.0129  -6.0129  -6.0118  -6.0095
 -6.0091  -6.0089  -6.0084  -6.0078  -6.0069  -6.0062  -6.0053  -6.0053
 -6.0024  -6.0023  -6.0019  -6.0017  -6.0013  -6.0006  -6.0005  -5.9998
 -5.9993  -5.9990  -5.9988  -5.9985  -5.9982  -5.9974  -5.9972  -5.9957
 -5.9956  -5.9955  -5.9948  -5.9931  -5.9928  -5.9923  -5.9920  -5.9916
 -5.9902  -5.9881  -5.9867  -5.9864  -5.9803  -5.9775  -5.9765  -5.9748
 -5.9740  -5.9735  -5.9727  -5.9708  -5.9677  -5.9677  -5.9643  -5.9632
 -5.9576  -1.0654  -1.0580  -1.0564  -1.0556  -1.0542  -1.0523  -1.0486
 -1.0405  -1.0366  -1.0335  -1.0333  -1.0327  -1.0326  -1.0270  -1.0217
 -1.0171  -1.0168  -1.0155  -1.0151  -1.0142  -1.0135  -1.0126  -1.0088
 -1.0074  -1.0060  -0.9919  -0.9896  -0.9880  -0.9774  -0.9344  -0.8419
 -0.8381  -0.8317  -0.8310  -0.8302  -0.8234  -0.8207  -0.8157  -0.8147
 -0.8117  -0.8102  -0.8069  -0.8049  -0.8042  -0.7980  -0.7977  -0.7947
 -0.7942  -0.7935  -0.7923  -0.7902  -0.7850  -0.7844  -0.7829  -0.7805
 -0.7736  -0.7704  -0.7699  -0.7682  -0.7676  -0.7647  -0.7589  -0.7531
 -0.7527  -0.7518  -0.7488  -0.7434  -0.7411  -0.7404  -0.7384  -0.7365
 -0.7311  -0.7295  -0.7288  -0.7272  -0.7244  -0.7235  -0.7223  -0.7210
 -0.7180  -0.7175  -0.7154  -0.7137  -0.7111  -0.7107  -0.6951  -0.6911
 -0.6850  -0.6842  -0.6553  -0.6447  -0.6431  -0.6413  -0.6397  -0.6395
 -0.6358  -0.6324  -0.6292  -0.6234  -0.6202  -0.6200  -0.6190  -0.6166
 -0.6161  -0.6127  -0.6121  -0.6079  -0.6072  -0.6066  -0.6036  -0.6003
 -0.5990  -0.5974  -0.5956  -0.5938  -0.5880  -0.5799  -0.5745  -0.5720
 -0.5669  -0.5665  -0.5363  -0.5294  -0.5279  -0.5190  -0.5105  -0.5079
 -0.5054  -0.5048  -0.5042  -0.5040  -0.5008  -0.4997  -0.4987  -0.4984
 -0.4966  -0.4959  -0.4939  -0.4935  -0.4925  -0.4918  -0.4908  -0.4894
 -0.4892  -0.4872  -0.4859  -0.4849  -0.4841  -0.4839  -0.4824  -0.4814
 -0.4808  -0.4801  -0.4787  -0.4783  -0.4774  -0.4765  -0.4757  -0.4743
 -0.4738  -0.4736  -0.4731  -0.4719  -0.4716  -0.4711  -0.4705  -0.4704
 -0.4702  -0.4695  -0.4692  -0.4671  -0.4669  -0.4660  -0.4650  -0.4647
 -0.4643  -0.4637  -0.4633  -0.4627  -0.4623  -0.4612  -0.4609  -0.4603
 -0.4598  -0.4598  -0.4589  -0.4579  -0.4576  -0.4560  -0.4554  -0.4551
 -0.4537  -0.4526  -0.4520  -0.4517  -0.4508  -0.4503  -0.4500  -0.4492
 -0.4492  -0.4479  -0.4475  -0.4472  -0.4470  -0.4467  -0.4460  -0.4453
 -0.4451  -0.4447  -0.4430  -0.4424  -0.4420  -0.4413  -0.4407  -0.4388
 -0.4373  -0.4354  -0.4345  -0.4332  -0.4325  -0.4323  -0.4315  -0.4306
 -0.4300  -0.4295  -0.4294  -0.4290  -0.4281  -0.4273  -0.4269  -0.4260
 -0.4259  -0.4253  -0.4251  -0.4248  -0.4242  -0.4235  -0.4231  -0.4227
 -0.4209  -0.4194  -0.4189  -0.4187  -0.4178  -0.4177  -0.4172  -0.4169
 -0.4163  -0.4150  -0.4144  -0.4135  -0.4124  -0.4115  -0.4110  -0.4107
 -0.4105  -0.4086  -0.4081  -0.4080  -0.4068  -0.4063  -0.4061  -0.4051
 -0.4045  -0.4024  -0.4023  -0.4016  -0.4014  -0.4005  -0.3996  -0.3989
 -0.3987  -0.3982  -0.3976  -0.3965  -0.3958  -0.3954  -0.3951  -0.3944
 -0.3937  -0.3930  -0.3920  -0.3909  -0.3907  -0.3900  -0.3899  -0.3891
 -0.3889  -0.3856  -0.3848  -0.3843  -0.3838  -0.3825  -0.3820  -0.3808
 -0.3802  -0.3794  -0.3788  -0.3769  -0.3754  -0.3747  -0.3728  -0.3726
 -0.3719  -0.3702  -0.3689  -0.3688  -0.3664  -0.3656  -0.3599  -0.3589
 -0.3582  -0.3581  -0.3563  -0.3543  -0.3537  -0.3534  -0.3526  -0.3520
 -0.3497  -0.3488  -0.3469  -0.3432  -0.3425  -0.3403  -0.3326  -0.3322
 -0.3279  -0.3247  -0.3221  -0.3188  -0.3100  -0.3085  -0.3072  -0.3022
 -0.3017  -0.2989  -0.2947  -0.2925  -0.2920  -0.2894  -0.2861  -0.2859
 -0.2822  -0.2812  -0.2803  -0.2764  -0.2733  -0.2728  -0.2719  -0.2709
 -0.2704  -0.2696  -0.2674  -0.2662  -0.2655  -0.2647  -0.2636  -0.2624
 -0.2622  -0.2605  -0.2586  -0.2575  -0.2555  -0.2543  -0.2495  -0.2487
 -0.2467  -0.2447  -0.2440  -0.2429  -0.2428  -0.2415  -0.2386  -0.2349
 -0.2342  -0.2337  -0.2328  -0.2323  -0.2315  -0.2284  -0.2283  -0.2281
 -0.2225  -0.2208  -0.2137  -0.2111  -0.2092  -0.2048  -0.1949
 -- Virtual --
 -0.0548  -0.0451  -0.0437  -0.0395  -0.0354  -0.0317  -0.0308  -0.0275
 -0.0265  -0.0262  -0.0223  -0.0208  -0.0184  -0.0177  -0.0158  -0.0151
 -0.0129  -0.0118  -0.0113  -0.0102  -0.0099  -0.0078  -0.0076  -0.0052
 -0.0047  -0.0040  -0.0028  -0.0021  -0.0013  -0.0007   0.0005   0.0015
  0.0022   0.0030   0.0035   0.0048   0.0053   0.0066   0.0074   0.0082
  0.0084   0.0087   0.0097   0.0103   0.0107   0.0118   0.0123   0.0128
  0.0137   0.0137   0.0145   0.0146   0.0155   0.0156   0.0159   0.0167
  0.0173   0.0175   0.0188   0.0195   0.0210   0.0216   0.0221   0.0227
  0.0234   0.0249   0.0253   0.0258   0.0260   0.0271   0.0274   0.0279
  0.0286   0.0291   0.0297   0.0302   0.0313   0.0323   0.0331   0.0337
  0.0341   0.0350   0.0353   0.0360   0.0365   0.0369   0.0379   0.0381
  0.0394   0.0408   0.0417   0.0418   0.0424   0.0427   0.0429   0.0437
  0.0440   0.0445   0.0455   0.0461   0.0464   0.0470   0.0480   0.0486
  0.0487   0.0494   0.0500   0.0509   0.0517   0.0522   0.0533   0.0535
  0.0537   0.0543   0.0556   0.0563   0.0568   0.0576   0.0582   0.0584
  0.0588   0.0599   0.0601   0.0603   0.0607   0.0614   0.0615   0.0628
  0.0642   0.0651   0.0654   0.0657   0.0659   0.0665   0.0669   0.0673
  0.0681   0.0685   0.0691   0.0696   0.0705   0.0706   0.0716   0.0723
  0.0726   0.0735   0.0742   0.0745   0.0755   0.0757   0.0761   0.0770
  0.0780   0.0788   0.0794   0.0798   0.0804   0.0806   0.0817   0.0825
  0.0832   0.0834   0.0843   0.0848   0.0852   0.0859   0.0864   0.0877
  0.0884   0.0889   0.0892   0.0900   0.0907   0.0913   0.0914   0.0923
  0.0926   0.0929   0.0943   0.0949   0.0958   0.0961   0.0964   0.0967
  0.0975   0.0980   0.0984   0.0990   0.0996   0.0998   0.1003   0.1011
  0.1017   0.1032   0.1033   0.1038   0.1045   0.1056   0.1057   0.1063
  0.1065   0.1079   0.1083   0.1092   0.1095   0.1102   0.1107   0.1110
  0.1112   0.1121   0.1122   0.1134   0.1142   0.1149   0.1151   0.1162
  0.1176   0.1179   0.1186   0.1189   0.1196   0.1200   0.1209   0.1212
  0.1215   0.1217   0.1223   0.1236   0.1239   0.1247   0.1255   0.1258
  0.1267   0.1269   0.1280   0.1282   0.1294   0.1296   0.1300   0.1304
  0.1313   0.1319   0.1322   0.1330   0.1335   0.1345   0.1349   0.1350
  0.1351   0.1360   0.1368   0.1371   0.1375   0.1377   0.1392   0.1398
  0.1406   0.1409   0.1418   0.1422   0.1427   0.1430   0.1438   0.1443
  0.1450   0.1452   0.1461   0.1468   0.1479   0.1479   0.1491   0.1493
  0.1505   0.1512   0.1516   0.1524   0.1527   0.1535   0.1540   0.1544
  0.1547   0.1556   0.1564   0.1565   0.1568   0.1579   0.1586   0.1588
  0.1589   0.1595   0.1604   0.1606   0.1610   0.1615   0.1618   0.1627
  0.1632   0.1640   0.1644   0.1647   0.1652   0.1662   0.1663   0.1671
  0.1680   0.1687   0.1695   0.1701   0.1706   0.1716   0.1720   0.1728
  0.1733   0.1735   0.1739   0.1746   0.1753   0.1758   0.1765   0.1769
  0.1776   0.1780   0.1782   0.1788   0.1793   0.1797   0.1801   0.1808
  0.1816   0.1818   0.1826   0.1838   0.1841   0.1850   0.1857   0.1866
  0.1872   0.1877   0.1886   0.1887   0.1897   0.1900   0.1908   0.1920
  0.1928   0.1932   0.1938   0.1940   0.1953   0.1956   0.1959   0.1961
  0.1975   0.1979   0.1981   0.1988   0.1998   0.2001   0.2005   0.2007
  0.2010   0.2015   0.2028   0.2033   0.2038   0.2042   0.2045   0.2055
  0.2057   0.2063   0.2066   0.2072   0.2074   0.2079   0.2086   0.2095
  0.2100   0.2109   0.2119   0.2121   0.2126   0.2138   0.2141   0.2146
  0.2152   0.2162   0.2170   0.2181   0.2183   0.2191   0.2195   0.2201
  0.2209   0.2215   0.2223   0.2225   0.2238   0.2245   0.2247   0.2252
  0.2259   0.2266   0.2271   0.2276   0.2280   0.2288   0.2292   0.2296
  0.2301   0.2306   0.2316   0.2324   0.2334   0.2339   0.2347   0.2350
  0.2360   0.2364   0.2377   0.2381   0.2382   0.2392   0.2396   0.2400
  0.2404   0.2412   0.2419   0.2431   0.2436   0.2441   0.2443   0.2456
  0.2458   0.2461   0.2465   0.2467   0.2476   0.2489   0.2496   0.2500
  0.2507   0.2519   0.2527   0.2529   0.2537   0.2542   0.2554   0.2559
  0.2566   0.2569   0.2580   0.2593   0.2597   0.2600   0.2612   0.2614
  0.2619   0.2624   0.2629   0.2638   0.2644   0.2648   0.2658   0.2664
  0.2668   0.2674   0.2681   0.2688   0.2699   0.2702   0.2710   0.2715
  0.2728   0.2730   0.2739   0.2744   0.2748   0.2758   0.2766   0.2775
  0.2789   0.2792   0.2798   0.2809   0.2818   0.2821   0.2829   0.2843
  0.2845   0.2848   0.2854   0.2865   0.2871   0.2885   0.2892   0.2896
  0.2905   0.2907   0.2913   0.2921   0.2926   0.2933   0.2940   0.2955
  0.2963   0.2967   0.2970   0.2980   0.2985   0.2995   0.3002   0.3006
  0.3026   0.3030   0.3037   0.3050   0.3052   0.3071   0.3073   0.3082
  0.3088   0.3097   0.3098   0.3105   0.3108   0.3116   0.3127   0.3135
  0.3137   0.3145   0.3155   0.3162   0.3165   0.3174   0.3184   0.3198
  0.3203   0.3206   0.3219   0.3224   0.3234   0.3238   0.3246   0.3249
  0.3269   0.3275   0.3280   0.3287   0.3292   0.3299   0.3305   0.3318
  0.3326   0.3341   0.3348   0.3358   0.3363   0.3369   0.3386   0.3389
  0.3394   0.3411   0.3416   0.3426   0.3429   0.3434   0.3443   0.3459
  0.3465   0.3475   0.3485   0.3490   0.3502   0.3508   0.3515   0.3523
  0.3534   0.3535   0.3550   0.3559   0.3571   0.3574   0.3578   0.3593
  0.3604   0.3606   0.3620   0.3626   0.3628   0.3638   0.3654   0.3666
  0.3675   0.3677   0.3692   0.3694   0.3701   0.3709   0.3725   0.3729
  0.3730   0.3748   0.3755   0.3760   0.3771   0.3775   0.3781   0.3791
  0.3800   0.3811   0.3818   0.3820   0.3826   0.3837   0.3850   0.3855
  0.3860   0.3869   0.3885   0.3886   0.3894   0.3906   0.3917   0.3921
  0.3932   0.3941   0.3945   0.3959   0.3962   0.3975   0.3979   0.3997
  0.4011   0.4019   0.4025   0.4031   0.4038   0.4054   0.4057   0.4073
  0.4075   0.4082   0.4096   0.4100   0.4111   0.4116   0.4135   0.4139
  0.4146   0.4150   0.4158   0.4163   0.4174   0.4182   0.4193   0.4197
  0.4203   0.4225   0.4232   0.4240   0.4245   0.4252   0.4264   0.4274
  0.4278   0.4287   0.4291   0.4303   0.4316   0.4328   0.4343   0.4354
  0.4376   0.4379   0.4385   0.4403   0.4420   0.4426   0.4433   0.4441
  0.4454   0.4456   0.4457   0.4472   0.4483   0.4494   0.4507   0.4516
  0.4523   0.4531   0.4538   0.4551   0.4566   0.4569   0.4586   0.4602
  0.4610   0.4629   0.4634   0.4649   0.4655   0.4674   0.4689   0.4694
  0.4708   0.4725   0.4735   0.4741   0.4747   0.4763   0.4773   0.4797
  0.4813   0.4829   0.4847   0.4855   0.4866   0.4871   0.4886   0.4909
  0.4924   0.4934   0.4943   0.4950   0.4957   0.4971   0.4977   0.4993
  0.5011   0.5017   0.5024   0.5037   0.5048   0.5081   0.5096   0.5098
  0.5114   0.5128   0.5166   0.5173   0.5187   0.5195   0.5211   0.5218
  0.5239   0.5256   0.5256   0.5272   0.5283   0.5303   0.5326   0.5353
  0.5363   0.5380   0.5392   0.5398   0.5411   0.5414   0.5450   0.5475
  0.5494   0.5508   0.5511   0.5537   0.5541   0.5550   0.5572   0.5577
  0.5588   0.5617   0.5632   0.5642   0.5649   0.5659   0.5661   0.5684
  0.5692   0.5718   0.5730   0.5731   0.5748   0.5771   0.5773   0.5792
  0.5809   0.5826   0.5832   0.5842   0.5872   0.5891   0.5903   0.5912
  0.5921   0.5932   0.5951   0.5962   0.5965   0.5996   0.6002   0.6015
  0.6018   0.6031   0.6055   0.6058   0.6085   0.6088   0.6101   0.6116
  0.6127   0.6135   0.6147   0.6162   0.6173   0.6191   0.6201   0.6207
  0.6223   0.6228   0.6254   0.6267   0.6277   0.6294   0.6299   0.6305
  0.6313   0.6338   0.6348   0.6359   0.6368   0.6386   0.6392   0.6405
  0.6413   0.6421   0.6429   0.6445   0.6452   0.6466   0.6483   0.6498
  0.6512   0.6523   0.6525   0.6535   0.6550   0.6552   0.6569   0.6580
  0.6586   0.6593   0.6603   0.6612   0.6626   0.6630   0.6643   0.6657
  0.6665   0.6672   0.6679   0.6693   0.6702   0.6712   0.6721   0.6730
  0.6735   0.6757   0.6779   0.6789   0.6797   0.6803   0.6815   0.6828
  0.6828   0.6840   0.6857   0.6879   0.6882   0.6887   0.6908   0.6920
  0.6926   0.6945   0.6961   0.6974   0.6984   0.6990   0.6999   0.7006
  0.7013   0.7024   0.7029   0.7044   0.7050   0.7058   0.7068   0.7079
  0.7089   0.7091   0.7106   0.7114   0.7131   0.7142   0.7145   0.7154
  0.7164   0.7178   0.7184   0.7198   0.7208   0.7234   0.7238   0.7243
  0.7269   0.7279   0.7284   0.7298   0.7303   0.7317   0.7332   0.7344
  0.7349   0.7360   0.7382   0.7396   0.7401   0.7412   0.7418   0.7439
  0.7453   0.7476   0.7484   0.7499   0.7511   0.7530   0.7541   0.7556
  0.7569   0.7579   0.7601   0.7610   0.7619   0.7633   0.7646   0.7658
  0.7668   0.7702   0.7709   0.7721   0.7753   0.7770   0.7772   0.7793
  0.7807   0.7817   0.7832   0.7839   0.7858   0.7881   0.7889   0.7908
  0.7925   0.7947   0.7966   0.7989   0.7992   0.7999   0.8008   0.8035
  0.8042   0.8059   0.8078   0.8095   0.8104   0.8115   0.8152   0.8154
  0.8164   0.8178   0.8184   0.8201   0.8210   0.8218   0.8229   0.8248
  0.8286   0.8301   0.8314   0.8323   0.8334   0.8349   0.8367   0.8380
  0.8401   0.8412   0.8416   0.8446   0.8464   0.8469   0.8482   0.8495
  0.8514   0.8525   0.8541   0.8545   0.8548   0.8580   0.8596   0.8615
  0.8616   0.8626   0.8638   0.8641   0.8663   0.8667   0.8687   0.8696
  0.8703   0.8717   0.8731   0.8734   0.8750   0.8765   0.8771   0.8781
  0.8789   0.8807   0.8807   0.8831   0.8849   0.8858   0.8871   0.8876
  0.8885   0.8905   0.8913   0.8918   0.8924   0.8931   0.8935   0.8944
  0.8958   0.8968   0.8986   0.8986   0.9010   0.9022   0.9026   0.9032
  0.9036   0.9056   0.9078   0.9084   0.9101   0.9119   0.9130   0.9140
  0.9145   0.9162   0.9173   0.9181   0.9203   0.9206   0.9212   0.9222
  0.9258   0.9278   0.9281   0.9293   0.9306   0.9322   0.9327   0.9331
  0.9343   0.9359   0.9367   0.9379   0.9385   0.9397   0.9403   0.9416
  0.9440   0.9450   0.9459   0.9465   0.9474   0.9487   0.9492   0.9499
  0.9509   0.9523   0.9536   0.9546   0.9553   0.9558   0.9575   0.9587
  0.9605   0.9607   0.9617   0.9628   0.9634   0.9639   0.9656   0.9664
  0.9673   0.9686   0.9691   0.9704   0.9717   0.9726   0.9738   0.9742
  0.9764   0.9779   0.9791   0.9793   0.9804   0.9809   0.9820   0.9829
  0.9837   0.9845   0.9859   0.9879   0.9884   0.9890   0.9899   0.9917
  0.9932   0.9939   0.9952   0.9957   0.9964   0.9976   0.9978   0.9991
  1.0013   1.0016   1.0023   1.0029   1.0033   1.0043   1.0056   1.0058
  1.0079   1.0091   1.0096   1.0107   1.0121   1.0126   1.0138   1.0142
  1.0159   1.0172   1.0190   1.0197   1.0207   1.0228   1.0232   1.0244
  1.0246   1.0260   1.0267   1.0275   1.0283   1.0295   1.0306   1.0314
  1.0337   1.0350   1.0362   1.0365   1.0377   1.0392   1.0396   1.0407
  1.0419   1.0445   1.0462   1.0474   1.0486   1.0497   1.0503   1.0521
  1.0539   1.0545   1.0556   1.0585   1.0594   1.0603   1.0610   1.0629
  1.0636   1.0655   1.0662   1.0676   1.0684   1.0693   1.0708   1.0714
  1.0727   1.0755   1.0763   1.0777   1.0783   1.0813   1.0827   1.0835
  1.0848   1.0858   1.0861   1.0868   1.0893   1.0901   1.0930   1.0943
  1.0955   1.0959   1.0981   1.0986   1.1000   1.1011   1.1015   1.1030
  1.1045   1.1054   1.1077   1.1087   1.1107   1.1121   1.1134   1.1140
  1.1146   1.1161   1.1169   1.1177   1.1184   1.1197   1.1216   1.1226
  1.1242   1.1252   1.1270   1.1282   1.1297   1.1307   1.1311   1.1327
  1.1335   1.1350   1.1357   1.1366   1.1369   1.1379   1.1389   1.1391
  1.1417   1.1420   1.1442   1.1456   1.1470   1.1485   1.1492   1.1499
  1.1515   1.1523   1.1542   1.1555   1.1563   1.1581   1.1581   1.1600
  1.1604   1.1612   1.1636   1.1665   1.1670   1.1690   1.1694   1.1703
  1.1724   1.1729   1.1743   1.1767   1.1770   1.1797   1.1799   1.1816
  1.1842   1.1851   1.1871   1.1897   1.1902   1.1916   1.1940   1.1950
  1.1967   1.1991   1.2006   1.2015   1.2041   1.2055   1.2062   1.2093
  1.2104   1.2108   1.2128   1.2152   1.2174   1.2188   1.2192   1.2208
  1.2221   1.2238   1.2264   1.2274   1.2290   1.2321   1.2347   1.2358
  1.2381   1.2394   1.2421   1.2450   1.2480   1.2492   1.2498   1.2515
  1.2542   1.2597   1.2615   1.2631   1.2646   1.2668   1.2688   1.2703
  1.2705   1.2730   1.2764   1.2778   1.2792   1.2811   1.2828   1.2869
  1.2879   1.2884   1.2892   1.2939   1.2952   1.2978   1.3014   1.3016
  1.3038   1.3058   1.3094   1.3119   1.3135   1.3154   1.3169   1.3208
  1.3219   1.3255   1.3272   1.3276   1.3288   1.3313   1.3344   1.3360
  1.3396   1.3404   1.3415   1.3429   1.3450   1.3477   1.3495   1.3502
  1.3530   1.3544   1.3562   1.3568   1.3584   1.3605   1.3619   1.3641
  1.3643   1.3661   1.3682   1.3693   1.3713   1.3744   1.3758   1.3772
  1.3790   1.3798   1.3810   1.3811   1.3832   1.3843   1.3860   1.3879
  1.3914   1.3916   1.3934   1.3942   1.3973   1.3988   1.4002   1.4020
  1.4044   1.4057   1.4081   1.4090   1.4105   1.4127   1.4146   1.4160
  1.4164   1.4170   1.4179   1.4197   1.4208   1.4229   1.4235   1.4244
  1.4269   1.4284   1.4286   1.4290   1.4314   1.4331   1.4341   1.4359
  1.4372   1.4387   1.4395   1.4400   1.4407   1.4436   1.4452   1.4460
  1.4469   1.4482   1.4502   1.4520   1.4523   1.4542   1.4555   1.4577
  1.4586   1.4594   1.4615   1.4624   1.4642   1.4663   1.4671   1.4681
  1.4707   1.4724   1.4735   1.4749   1.4764   1.4776   1.4793   1.4812
  1.4821   1.4849   1.4855   1.4869   1.4882   1.4904   1.4913   1.4947
  1.4955   1.4975   1.5014   1.5039   1.5049   1.5051   1.5073   1.5102
  1.5130   1.5132   1.5143   1.5153   1.5162   1.5187   1.5201   1.5233
  1.5254   1.5297   1.5298   1.5313   1.5338   1.5363   1.5379   1.5405
  1.5424   1.5451   1.5464   1.5477   1.5498   1.5546   1.5562   1.5578
  1.5591   1.5614   1.5655   1.5675   1.5710   1.5736   1.5765   1.5784
  1.5848   1.5863   1.5893   1.5926   1.5979   1.6001   1.6032   1.6090
  1.6108   1.6169   1.6200   1.6234   1.6297   1.6314   1.6315   1.6343
  1.6374   1.6396   1.6430   1.6469   1.6486   1.6511   1.6541   1.6598
  1.6600   1.6636   1.6671   1.6695   1.6709   1.6725   1.6742   1.6754
  1.6775   1.6785   1.6803   1.6809   1.6816   1.6849   1.6862   1.6881
  1.6886   1.6908   1.6910   1.6930   1.6948   1.6952   1.6967   1.6975
  1.6987   1.6993   1.7006   1.7015   1.7031   1.7038   1.7056   1.7075
  1.7091   1.7101   1.7108   1.7120   1.7132   1.7138   1.7148   1.7157
  1.7169   1.7193   1.7193   1.7207   1.7212   1.7217   1.7236   1.7241
  1.7249   1.7269   1.7276   1.7297   1.7304   1.7316   1.7331   1.7348
  1.7356   1.7373   1.7378   1.7387   1.7408   1.7421   1.7434   1.7444
  1.7451   1.7468   1.7486   1.7486   1.7504   1.7520   1.7537   1.7548
  1.7559   1.7570   1.7587   1.7596   1.7604   1.7617   1.7635   1.7659
  1.7665   1.7683   1.7693   1.7723   1.7767   1.7774   1.7785   1.7798
  1.7812   1.7822   1.7829   1.7851   1.7854   1.7874   1.7882   1.7901
  1.7907   1.7910   1.7938   1.7948   1.7962   1.7969   1.7994   1.8037
  1.8051   1.8072   1.8081   1.8132   1.8169   1.8192   1.8220   1.8268
  1.8297   1.8373   1.8395   1.8403   1.8429   1.8447   1.8484   1.8494
  1.8513   1.8558   1.8572   1.8582   1.8599   1.8646   1.8693   1.8710
  1.8722   1.8733   1.8737   1.8758   1.8770   1.8778   1.8784   1.8800
  1.8817   1.8823   1.8845   1.8857   1.8873   1.8889   1.8894   1.8900
  1.8922   1.8938   1.8945   1.8957   1.8970   1.8981   1.8987   1.9002
  1.9020   1.9031   1.9043   1.9052   1.9068   1.9078   1.9090   1.9096
  1.9106   1.9115   1.9120   1.9130   1.9155   1.9158   1.9178   1.9198
  1.9205   1.9228   1.9236   1.9245   1.9261   1.9265   1.9281   1.9300
  1.9307   1.9318   1.9324   1.9338   1.9353   1.9372   1.9384   1.9396
  1.9406   1.9417   1.9436   1.9442   1.9463   1.9492   1.9512   1.9538
  1.9589   1.9614   1.9638   1.9677   1.9685   1.9728   1.9734   1.9761
  1.9800   1.9853   1.9895   1.9915   1.9958   2.0103   2.0298   2.0315
  2.0377   2.0390   2.0408   2.0438   2.0481   2.0519   2.0527   2.0546
  2.0565   2.0572   2.0604   2.0616   2.0624   2.0639   2.0652   2.0664
  2.0673   2.0722   2.0752   2.0758   2.0779   2.0785   2.0787   2.0807
  2.0811   2.0818   2.0836   2.0846   2.0858   2.0873   2.0885   2.0902
  2.0932   2.0937   2.0944   2.0960   2.0963   2.0980   2.1001   2.1010
  2.1027   2.1040   2.1055   2.1065   2.1072   2.1074   2.1084   2.1100
  2.1125   2.1136   2.1162   2.1171   2.1199   2.1236   2.1301   2.1366
  2.1369   2.1389   2.1418   2.1482   2.1525   2.1556   2.1585   2.1595
  2.1634   2.1683   2.1720   2.1761   2.1767   2.1809   2.1842   2.1847
  2.1888   2.1899   2.1919   2.1932   2.1950   2.1988   2.1993   2.2009
  2.2025   2.2041   2.2046   2.2065   2.2086   2.2097   2.2105   2.2135
  2.2174   2.2200   2.2208   2.2245   2.2258   2.2260   2.2292   2.2296
  2.2312   2.2320   2.2333   2.2338   2.2364   2.2372   2.2378   2.2383
  2.2395   2.2416   2.2425   2.2437   2.2449   2.2468   2.2470   2.2485
  2.2493   2.2503   2.2518   2.2534   2.2534   2.2541   2.2555   2.2558
  2.2564   2.2583   2.2584   2.2606   2.2612   2.2617   2.2627   2.2635
  2.2641   2.2647   2.2654   2.2666   2.2673   2.2687   2.2689   2.2696
  2.2709   2.2716   2.2734   2.2741   2.2762   2.2763   2.2780   2.2786
  2.2793   2.2805   2.2810   2.2822   2.2826   2.2837   2.2851   2.2856
  2.2859   2.2875   2.2888   2.2892   2.2900   2.2909   2.2917   2.2927
  2.2937   2.2940   2.2953   2.2964   2.2969   2.2981   2.2991   2.2995
  2.3010   2.3022   2.3033   2.3038   2.3046   2.3048   2.3051   2.3072
  2.3079   2.3095   2.3097   2.3103   2.3111   2.3129   2.3149   2.3162
  2.3179   2.3188   2.3193   2.3211   2.3218   2.3225   2.3232   2.3236
  2.3247   2.3256   2.3264   2.3269   2.3305   2.3311   2.3331   2.3352
  2.3360   2.3378   2.3394   2.3398   2.3422   2.3442   2.3443   2.3473
  2.3503   2.3511   2.3530   2.3539   2.3585   2.3595   2.3598   2.3621
  2.3630   2.3640   2.3664   2.3673   2.3710   2.3725   2.3741   2.3750
  2.3785   2.3813   2.3814   2.3843   2.3861   2.3877   2.3907   2.3939
  2.3950   2.3968   2.4000   2.4077   2.4189   2.4249   2.4545   2.4733
  2.4812   2.5055   2.5293   2.5421   2.6563   2.7469   2.7640   2.7747
  2.8106   2.8168   2.8183   2.8227   2.8264   2.8315   2.8363   2.8405
  2.8409   2.8440   2.8460   2.8473   2.8511   2.8518   2.8540   2.8570
  2.8599   2.8614   2.8635   2.8643   2.8658   2.8703   2.8728   2.8741
  2.8756   2.8767   2.8812   2.8819   2.8854   2.8920   2.8962   2.8975
  2.9502   3.1077   3.2293   3.9482   3.9506   3.9573   3.9615   3.9639
  3.9684   3.9697   3.9727   3.9764   3.9776   3.9819   3.9838   3.9865
  3.9877   3.9942   3.9950   3.9982   4.0017   4.0019   4.0056   4.0072
  4.0093   4.0111   4.0143   4.0157   4.0190   4.0237   4.0346   4.2151
  4.2185   4.2252   4.2340   4.2350   4.2374   4.2414   4.2469   4.2480
  4.2509   4.2512   4.2551   4.2562   4.2585   4.2619   4.2643   4.2668
  4.2689   4.2707   4.2715   4.2736   4.2786   4.2820   4.2840   4.2849
  4.2887   4.2915   4.2936   4.2966   4.2988   4.3034   4.3055   4.3072
  4.3088   4.3118   4.3130   4.3166   4.3196   4.3201   4.3228   4.3241
  4.3254   4.3308   4.3334   4.3354   4.3365   4.3411   4.3444   4.3477
  4.3500   4.3513   4.3547   4.3580   4.3603   4.3629   4.3661   4.3669
  4.3719   4.3770   4.3775   4.3784   4.3822   4.3873   4.3953   4.3999
  4.4025   4.4047   4.4095   4.4116   4.4126   4.4146   4.4224   4.4252
  4.4303   4.4339   4.4466   4.4536   4.4651   4.4727   4.4803   4.4955
  4.5070   4.5111   4.5164   4.5249   4.5457   4.5493   4.5959   4.6716
  4.7020   4.7269   4.7604   4.9283
 --------------------------------------------------------------

          Ground-State Mulliken Net Atomic Charges

     Atom                 Charge (a.u.)
  ----------------------------------------
      1 C                    -0.401105
      2 C                    -0.142836
      3 C                    -0.509695
      4 C                    -0.419562
      5 C                    -0.305873
      6 C                    -0.557422
      7 H                     0.191037
      8 H                     0.180705
      9 H                     0.208194
     10 H                     0.219376
     11 H                     0.241257
     12 H                     0.177620
     13 H                     0.205530
     14 H                     0.206021
     15 H                     0.225004
     16 H                     0.204339
     17 H                     0.229634
     18 N                    -0.395941
     19 H                     0.441021
     20 C                     0.337393
     21 H                     0.196467
     22 O                    -0.531165
     23 C                    -0.840559
     24 H                     0.227792
     25 H                     0.276270
     26 H                     0.229274
     27 S                     1.079991
     28 C                    -0.947031
     29 H                     0.229028
     30 H                     0.258898
     31 H                     0.242700
     32 O                    -0.740679
     33 C                    -0.936850
     34 H                     0.278394
     35 H                     0.271155
     36 H                     0.239849
     37 S                     0.824028
     38 C                    -0.795534
     39 H                     0.259512
     40 H                     0.277788
     41 H                     0.218287
     42 O                    -0.734144
     43 C                    -0.806653
     44 H                     0.249658
     45 H                     0.240310
     46 H                     0.263225
     47 S                     0.975693
     48 C                    -0.859931
     49 H                     0.219825
     50 H                     0.264016
     51 H                     0.320294
     52 O                    -0.759370
     53 C                    -0.801201
     54 H                     0.267600
     55 H                     0.249627
     56 H                     0.292239
     57 S                     0.638915
     58 C                    -0.855968
     59 H                     0.222917
     60 H                     0.276287
     61 H                     0.254329
     62 O                    -0.576360
     63 C                    -0.799654
     64 H                     0.304778
     65 H                     0.206550
     66 H                     0.279845
     67 S                     0.664899
     68 C                    -0.734430
     69 H                     0.223868
     70 H                     0.253818
     71 H                     0.228363
     72 O                    -0.698683
     73 C                    -0.808077
     74 H                     0.244431
     75 H                     0.251064
     76 H                     0.247418
     77 S                     0.856424
     78 C                    -0.866385
     79 H                     0.231136
     80 H                     0.277198
     81 H                     0.281858
     82 O                    -0.634508
     83 C                    -0.830517
     84 H                     0.236782
     85 H                     0.251855
     86 H                     0.308202
     87 S                     0.475398
     88 C                    -0.766400
     89 H                     0.227024
     90 H                     0.251034
     91 H                     0.263771
     92 O                    -0.567338
     93 C                    -0.793335
     94 H                     0.272258
     95 H                     0.276281
     96 H                     0.245617
     97 S                     0.945713
     98 C                    -1.059852
     99 H                     0.243495
    100 H                     0.285801
    101 H                     0.306769
    102 O                    -0.632110
    103 C                    -0.818811
    104 H                     0.241336
    105 H                     0.240593
    106 H                     0.259605
    107 S                     0.772153
    108 C                    -0.868612
    109 H                     0.267650
    110 H                     0.251123
    111 H                     0.285003
    112 O                    -0.661549
    113 C                    -0.858703
    114 H                     0.277149
    115 H                     0.264333
    116 H                     0.230045
    117 S                     0.872603
    118 C                    -0.900501
    119 H                     0.243892
    120 H                     0.296915
    121 H                     0.260736
    122 O                    -0.715239
    123 C                    -0.921435
    124 H                     0.279764
    125 H                     0.242607
    126 H                     0.262862
    127 S                     1.004979
    128 C                    -1.010168
    129 H                     0.303134
    130 H                     0.259905
    131 H                     0.293358
    132 O                    -0.729929
    133 C                    -0.750336
    134 H                     0.238439
    135 H                     0.274336
    136 H                     0.281210
    137 S                     0.780346
    138 C                    -0.998684
    139 H                     0.270328
    140 H                     0.274755
    141 H                     0.248540
    142 O                    -0.656061
    143 C                    -0.757950
    144 H                     0.273247
    145 H                     0.190746
    146 H                     0.287556
    147 S                     0.931305
    148 C                    -0.843456
    149 H                     0.255264
    150 H                     0.213472
    151 H                     0.244931
    152 O                    -0.772281
    153 C                    -0.790147
    154 H                     0.240568
    155 H                     0.267529
    156 H                     0.233404
    157 S                     0.675537
    158 C                    -0.879111
    159 H                     0.248214
    160 H                     0.281015
    161 H                     0.219115
    162 O                    -0.620361
    163 C                    -1.130859
    164 H                     0.284006
    165 H                     0.270239
    166 H                     0.249302
    167 S                     1.217190
    168 C                    -0.901508
    169 H                     0.265390
    170 H                     0.284030
    171 H                     0.218187
    172 O                    -0.706593
    173 C                    -0.766571
    174 H                     0.256717
    175 H                     0.268901
    176 H                     0.226633
    177 S                     0.731487
    178 C                    -0.824633
    179 H                     0.235535
    180 H                     0.263098
    181 H                     0.254749
    182 O                    -0.618892
    183 C                    -0.780329
    184 H                     0.268287
    185 H                     0.263491
    186 H                     0.266704
    187 S                     0.838309
    188 C                    -0.967310
    189 H                     0.251971
    190 H                     0.247870
    191 H                     0.302788
    192 O                    -0.653029
    193 C                    -0.811393
    194 H                     0.267464
    195 H                     0.228166
    196 H                     0.273685
    197 S                     0.701613
    198 C                    -0.777310
    199 H                     0.265307
    200 H                     0.254743
    201 H                     0.255149
    202 O                    -0.624722
    203 C                    -0.735580
    204 H                     0.222183
    205 H                     0.294118
    206 H                     0.249591
    207 S                     0.700888
    208 C                    -0.738978
    209 H                     0.314442
    210 H                     0.221244
    211 H                     0.231253
    212 O                    -0.682750
    213 C                    -0.855888
    214 H                     0.238644
    215 H                     0.277088
    216 H                     0.297230
    217 S                     0.857013
    218 C                    -0.876574
    219 H                     0.249669
    220 H                     0.261279
    221 H                     0.250077
    222 O                    -0.660208
    223 C                    -0.907798
    224 H                     0.291033
    225 H                     0.266324
    226 H                     0.261799
    227 S                     0.973846
    228 C                    -0.941432
    229 H                     0.281949
    230 H                     0.229394
    231 H                     0.259917
    232 O                    -0.747987
    233 C                    -1.003889
    234 H                     0.272244
    235 H                     0.268956
    236 H                     0.265641
    237 S                     1.248364
    238 C                    -1.012272
    239 H                     0.256483
    240 H                     0.263591
    241 H                     0.257938
    242 O                    -0.764162
    243 C                    -0.950300
    244 H                     0.278303
    245 H                     0.267424
    246 H                     0.219313
    247 S                     1.042078
    248 C                    -0.900366
    249 H                     0.225769
    250 H                     0.254461
    251 H                     0.252861
    252 O                    -0.714046
    253 C                    -0.808839
    254 H                     0.244703
    255 H                     0.225540
    256 H                     0.266905
    257 S                     0.764879
    258 C                    -0.838212
    259 H                     0.254948
    260 H                     0.311651
    261 H                     0.233188
    262 O                    -0.686028
    263 C                    -0.909809
    264 H                     0.272028
    265 H                     0.316006
    266 H                     0.230844
    267 S                     1.115759
    268 C                    -1.011741
    269 H                     0.229100
    270 H                     0.245676
    271 H                     0.268663
    272 O                    -0.708781
    273 C                    -0.946666
    274 H                     0.253067
    275 H                     0.259575
    276 H                     0.238381
    277 S                     1.252807
    278 C                    -0.980497
    279 H                     0.238129
    280 H                     0.252098
    281 H                     0.261405
    282 O                    -0.802499
    283 C                    -0.853813
    284 H                     0.255327
    285 H                     0.236781
    286 H                     0.238718
    287 S                     0.923511
    288 C                    -0.880799
    289 H                     0.274728
    290 H                     0.243397
    291 H                     0.236873
    292 O                    -0.699901
    293 C                    -0.759400
    294 H                     0.236838
    295 H                     0.227232
    296 H                     0.256851
    297 S                     0.832500
    298 C                    -0.820764
    299 H                     0.257954
    300 H                     0.299797
    301 H                     0.226785
    302 O                    -0.763180
  ----------------------------------------
  Sum of atomic charges =     0.000000

[...]
    2  -0.7552607  -0.0262443   0.2631108  -2.5527420  -2.2532835  -3.4950478
    3   0.2929815   0.1318279  -0.5265154   1.1235392  -1.3754158  -0.7095373
          229         230         231         232         233         234
    1   1.3660737  -1.5983370   0.5581274   0.9964120  -3.3012720  -1.7774970
    2  -2.1609673  -3.9571922  -3.8967684  -0.3940251  -0.3232281   0.4795865
    3   0.1764722   0.2893086  -2.4154653  -2.6443158   1.0766278   2.0164898
          235         236         237         238         239         240
    1  -3.8974541  -4.0564774  -1.7491025  -0.2258025   0.9679807  -1.2811119
    2   0.8649349  -1.7727393  -1.7633859   0.3649244  -0.4206943   1.6913499
    3  -0.5088585   1.1944383   0.7464625   0.4904560  -0.8817601  -0.1382783
          241         242         243         244         245         246
    1  -0.1188269  -2.7035075  -2.0295264  -3.9587853  -0.3124963  -2.4714880
    2  -0.3088157  -0.3881826  -0.1318348  -1.3151674  -0.5828729   1.2537564
    3   2.0060202  -2.2166440   0.5736499   0.1828386  -0.0763534   1.3668939
          247         248         249         250         251         252
    1  -1.6625676  -3.5094030  -2.8843789  -3.2254534  -4.3466902  -3.1197311
    2   1.5613208   1.6739762   2.4446755   2.2678163  -0.5706025  -1.1199226
    3  -0.7813776  -0.3787187   1.1622217  -2.1339012  -0.0818905  -2.5954696
          253         254         255         256         257         258
    1   0.5640921   1.1771725  -0.5538581   1.3626063   1.8260299   1.8770872
    2   2.6468504   4.3457944   1.9499822   1.8554475   1.8266106   0.1183190
    3  -0.5848565  -0.8961062  -1.6601462   1.2043941  -1.9832655  -1.3620330
          259         260         261         262         263         264
    1   3.5920959   1.5369711   0.5066753   3.8492257  -1.6547879  -0.2334863
    2  -0.3571440   0.2473025   0.7697118   1.8960870   1.0241258   0.3840885
    3  -2.1590364   0.4761376  -2.7701630   0.7511766   0.6103670  -0.5487676
          265         266         267         268         269         270
    1  -2.6909194  -2.1582408  -0.7970253  -1.9600153  -3.1416715  -0.4531172
    2  -0.1210440   3.1951123   0.1672519   1.6414840   0.3955140   1.4006287
    3   1.3187609   1.2500791   2.3277067   3.1518952   2.5783602   4.4347597
          271         272         273         274         275         276
    1  -1.6239793   0.9206845  -0.6459053  -2.1145863   0.8760022  -0.8744854
    2   3.6257932   2.8277440  -1.8151199  -3.4985684  -2.1206711  -0.1087560
    3   1.9934232   2.1088183   0.9641226   1.5616859   0.0107759   1.1477900
          277         278         279         280         281         282
    1  -1.7465062  -3.1062866  -3.4068306  -3.6305136  -1.9932315  -0.4294029
    2  -0.6529186  -2.3877431  -1.4617185  -1.6285997  -4.0688910  -3.1770387
    3  -0.8571881  -0.2828872   1.2426704  -2.1040473   0.0429700  -1.9800074
          283         284         285         286         287         288
    1  -0.6795541  -0.3824366  -2.8783249   0.6741200   0.2387455  -1.9592967
    2  -2.4681245  -2.7909328  -2.1164848  -2.0209791  -0.3800331  -0.4566579
    3  -2.6074989  -1.2345547  -2.4821812  -3.9830317  -2.0038514  -0.9521981
          289         290         291         292         293         294
    1  -1.7497841  -3.3520814  -0.9176208  -1.3792064   1.5941715   1.9712776
    2   1.2403657  -1.6232148  -1.4436636   0.7541410   2.4330957   3.8725414
    3  -1.1739491  -2.0091595  -0.0196845  -4.2032357   1.8871281   2.1800981
          295         296         297         298         299         300
    1  -0.2639460   2.9382919   1.4032472  -0.8126561  -0.9942852  -1.2428189
    2   1.7959797   1.0549852   3.3819863   3.4591305   3.5846041   1.9779880
    3   2.0528751   1.2209897  -0.2096825   0.2891931  -1.7600452   0.9531428
          301         302
    1  -0.0914666   0.3826545
    2   4.5226662   0.3422290
    3   1.5083003  -0.8756866
 EField
            1           2           3           4           5           6
    1   0.0042095   0.0022432  -0.0012322  -0.0019395   0.0026215   0.0046375
    2  -0.0024415  -0.0071432  -0.0052203  -0.0009364  -0.0007015   0.0001001
    3  -0.0009314   0.0015873   0.0021002  -0.0055284  -0.0026675  -0.0024641
            7           8           9          10          11          12
    1  -0.0026153   0.0000634   0.0036699   0.0049894  -0.0032625  -0.0060677
    2  -0.0065575  -0.0131119  -0.0003336  -0.0026310   0.0012337  -0.0013360
    3   0.0019727  -0.0001401   0.0017265  -0.0030693  -0.0157981  -0.0055882
           13          14          15          16          17          18
    1   0.0015906   0.0059991   0.0072680   0.0039786  -0.0029084   0.0021412
    2  -0.0001556  -0.0036549   0.0022661  -0.0004336  -0.0033481  -0.0087518
    3   0.0002114  -0.0041898  -0.0023030  -0.0018868   0.0083233   0.0057937
           19          20          21          22          23          24
    1   0.0072789  -0.0021589  -0.0084178  -0.0028532   0.0056523   0.0285531
    2  -0.0102447  -0.0098860  -0.0165909  -0.0092011   0.0021435  -0.0006953
    3   0.0092998   0.0056609   0.0094257   0.0035171  -0.0066027   0.0187675
           25          26          27          28          29          30
    1   0.0033781   0.0013939  -0.0009928  -0.0045948   0.0009491   0.0088144
    2  -0.0112630   0.0289578  -0.0535571   0.0051486   0.0311606  -0.0019713
    3  -0.0324355   0.0168073  -0.0268406  -0.0043191   0.0095993  -0.0338734
           31          32          33          34          35          36
    1  -0.0296396  -0.0127125  -0.0009850   0.0190370  -0.0237226   0.0004886
    2  -0.0039444   0.0207733   0.0053127   0.0097010  -0.0111082   0.0376489
    3   0.0138100   0.1058619  -0.0023188  -0.0167741  -0.0248002   0.0111460
           37          38          39          40          41          42
    1  -0.0341304   0.0047046   0.0166104   0.0206700   0.0115683   0.0140091
    2  -0.0023241  -0.0032790  -0.0259514   0.0079054   0.0301683  -0.0615973
    3   0.0288448   0.0001592   0.0170308  -0.0214384   0.0087683  -0.0938359
           43          44          45          46          47          48
    1  -0.0071354   0.0228017   0.0006089  -0.0249093   0.0415640  -0.0120408
    2  -0.0020338  -0.0152071   0.0145168  -0.0193764   0.0317363   0.0011815
    3   0.0056766   0.0069631   0.0377240  -0.0067312   0.0012647   0.0025175
           49          50          51          52          53          54
    1  -0.0198572   0.0002215  -0.0264067  -0.0198733  -0.0094070  -0.0067987
    2   0.0256104   0.0179491  -0.0195840  -0.0755258   0.0015171   0.0077105
    3   0.0254775  -0.0217562   0.0019220  -0.0771022   0.0008513  -0.0308484
           55          56          57          58          59          60
    1  -0.0186753  -0.0117898   0.0216148   0.0007692  -0.0044345   0.0294405
    2  -0.0302284   0.0144384  -0.0336600   0.0084029   0.0058189   0.0086913
    3  -0.0014392   0.0292695   0.0533351  -0.0027631   0.0316586  -0.0116689
           61          62          63          64          65          66
    1  -0.0118068   0.0234841   0.0076693  -0.0128280   0.0193242   0.0327162
    2   0.0150239  -0.0341218   0.0026271   0.0144364   0.0107158  -0.0085640
    3  -0.0274872  -0.1010359  -0.0069341  -0.0287858   0.0279269  -0.0144819
           67          68          69          70          71          72
    1  -0.0353834   0.0054880   0.0174088  -0.0215849   0.0177719  -0.0401802
    2   0.0279132  -0.0060273   0.0146109  -0.0241619  -0.0144469  -0.0436606
    3   0.0370116  -0.0006000   0.0256056   0.0025658  -0.0207724  -0.0931181
           73          74          75          76          77          78
    1  -0.0051398   0.0011045  -0.0139655  -0.0312020   0.0284720   0.0044984
    2  -0.0005837  -0.0341639   0.0173953  -0.0032309  -0.0351372   0.0062970
    3   0.0022688  -0.0011674   0.0237561  -0.0126200  -0.0358859   0.0082321
           79          80          81          82          83          84
    1   0.0057506   0.0329825  -0.0131421  -0.0362070  -0.0045692   0.0032659
    2  -0.0255175   0.0014079   0.0205585   0.1009571  -0.0076929  -0.0222896
    3   0.0197242  -0.0006317   0.0217710  -0.0262670  -0.0068652   0.0236682
           85          86          87          88          89          90
    1  -0.0245897  -0.0040229   0.0525722  -0.0010789   0.0194761   0.0183664
    2   0.0075188  -0.0191338  -0.0096975   0.0008431  -0.0183154   0.0200860
    3   0.0085702  -0.0315626  -0.0158741   0.0042213   0.0290535   0.0124141
           91          92          93          94          95          96
    1  -0.0296671  -0.0629194   0.0135363   0.0220235   0.0082952   0.0164738
    2   0.0111789   0.0755729   0.0007776   0.0182056  -0.0121295  -0.0233838
    3  -0.0006027  -0.0473319   0.0052840  -0.0169728   0.0320197  -0.0163572
           97          98          99         100         101         102
    1  -0.0339708   0.0015040   0.0287719  -0.0064908  -0.0287147  -0.0003605
    2  -0.0278411   0.0053304   0.0259290  -0.0230031   0.0169735   0.1119699
    3   0.0238615  -0.0117681  -0.0032738  -0.0208197  -0.0125195   0.0129411
          103         104         105         106         107         108
    1   0.0041021   0.0355467  -0.0118345   0.0168002  -0.0318547  -0.0070643
    2  -0.0001069   0.0184102  -0.0126073  -0.0251187   0.0422522  -0.0103396
    3   0.0002336   0.0074198   0.0258450  -0.0109391   0.0168720   0.0010047
          109         110         111         112         113         114
    1  -0.0283630   0.0239037  -0.0182957   0.0450641  -0.0064241  -0.0287764
    2   0.0041466  -0.0188233  -0.0014144  -0.0115829   0.0035888   0.0196552
    3  -0.0106055  -0.0222501   0.0322002  -0.1004102  -0.0043862   0.0016995
          115         116         117         118         119         120
    1   0.0269581  -0.0020496  -0.0368023   0.0012233   0.0097361   0.0175724
    2   0.0122714  -0.0100567  -0.0321435   0.0065125  -0.0011780   0.0263782
    3  -0.0052763  -0.0371716   0.0080147   0.0051815   0.0341126  -0.0031106
          121         122         123         124         125         126
    1  -0.0280364   0.1069935  -0.0060511  -0.0077563   0.0081417  -0.0296601
    2   0.0172930  -0.0185539  -0.0037859  -0.0259145   0.0003103   0.0169447
    3  -0.0021755  -0.0211863   0.0011707  -0.0207279   0.0312923   0.0104776
          127         128         129         130         131         132
    1   0.0199730  -0.0088781  -0.0134855   0.0211308  -0.0223023   0.0621916
    2   0.0470856  -0.0004406   0.0328869  -0.0056709  -0.0250634  -0.0901041
    3   0.0238477  -0.0063137   0.0020847  -0.0197397  -0.0153027  -0.0143730
          133         134         135         136         137         138
    1   0.0079092   0.0004955   0.0282282  -0.0101251  -0.0558530   0.0055751
    2  -0.0022725   0.0286075  -0.0128021  -0.0157036   0.0237907   0.0070283
    3  -0.0068725  -0.0192038   0.0109341  -0.0235163  -0.0271345   0.0076258
          139         140         141         142         143         144
    1  -0.0058974  -0.0237128   0.0312789   0.0024216   0.0042014   0.0241569
    2   0.0240153  -0.0066009  -0.0039349  -0.0958101  -0.0078023  -0.0204546
    3  -0.0220728   0.0237464   0.0046308   0.0524871   0.0011436  -0.0230426
          145         146         147         148         149         150
    1  -0.0112274  -0.0170846  -0.0089393   0.0055310  -0.0238279   0.0199819
    2   0.0127429  -0.0272044  -0.0197324   0.0026545   0.0258263   0.0053335
    3   0.0304658   0.0096586  -0.0509540  -0.0016718  -0.0016145   0.0227873
          151         152         153         154         155         156
    1   0.0344725  -0.0788288  -0.0035339  -0.0119158   0.0100936  -0.0249338
    2  -0.0073236   0.0402742   0.0027828  -0.0252174   0.0241461  -0.0079098
    3  -0.0180172   0.0633040   0.0005151   0.0178186   0.0205992  -0.0190773
          157         158         159         160         161         162
    1   0.0436702  -0.0023239   0.0124956   0.0185520  -0.0229126  -0.0349511
    2   0.0039315   0.0050776   0.0321613  -0.0132749  -0.0142058  -0.0983957
    3   0.0321156  -0.0086480   0.0115717  -0.0218597  -0.0161314  -0.0405103
          163         164         165         166         167         168
    1   0.0072872  -0.0305526   0.0148739   0.0302628   0.0188270   0.0056096
    2  -0.0031890  -0.0160273   0.0120576  -0.0013373   0.0494642  -0.0031074
    3  -0.0088603  -0.0019796  -0.0349358   0.0127937  -0.0004612   0.0038792
          169         170         171         172         173         174
    1  -0.0177508   0.0342264  -0.0021204  -0.1001472  -0.0006218   0.0259390
    2  -0.0255096  -0.0017811   0.0090008  -0.0389073   0.0056261   0.0103835
    3   0.0006399   0.0066079   0.0285239  -0.0141669  -0.0017375  -0.0133740
          175         176         177         178         179         180
    1  -0.0124929  -0.0011027  -0.0469484   0.0060890   0.0058544   0.0045829
    2   0.0106304   0.0213276  -0.0093363  -0.0023701   0.0065062  -0.0310880
    3  -0.0262152   0.0287053   0.0308779   0.0016901   0.0358872   0.0021764
          181         182         183         184         185         186
    1   0.0277785   0.0078521   0.0029935   0.0287493   0.0044504  -0.0126151
    2   0.0118737  -0.0345724   0.0036911  -0.0037640   0.0181409   0.0250485
    3  -0.0102523  -0.1047572   0.0013620   0.0062780  -0.0263137   0.0169998
          187         188         189         190         191         192
    1  -0.0572337   0.0027577   0.0290382  -0.0123195  -0.0193162   0.0402372
    2   0.0104771  -0.0040948   0.0114924   0.0108827  -0.0298936  -0.0742838
    3   0.0047793   0.0078412  -0.0060443   0.0340594   0.0059357  -0.0680382
          193         194         195         196         197         198
    1   0.0020955   0.0300552   0.0078484  -0.0218748   0.0346487  -0.0054259
    2  -0.0071114   0.0022006  -0.0322278  -0.0161912   0.0240606  -0.0028284
    3  -0.0021606  -0.0043178   0.0202199  -0.0184917   0.0406999   0.0026515
          199         200         201         202         203         204
    1  -0.0201136   0.0031449  -0.0217313  -0.0277308   0.0057668   0.0325318
    2  -0.0098437  -0.0158320   0.0164936   0.0496198   0.0074615  -0.0113492
    3  -0.0211659   0.0305514   0.0160434  -0.0942248   0.0038594  -0.0147067
          205         206         207         208         209         210
    1   0.0151441   0.0031189  -0.0088013  -0.0018689  -0.0208168  -0.0011422
    2   0.0201696  -0.0200178  -0.0520570   0.0093891   0.0029023   0.0240046
    3   0.0323644   0.0209794  -0.0364008  -0.0036474  -0.0249583   0.0183027
          211         212         213         214         215         216
    1   0.0227935  -0.0743094   0.0021203   0.0255717   0.0096332   0.0047690
    2   0.0002763   0.0246534   0.0033202   0.0160272  -0.0231078   0.0305495
    3  -0.0260540   0.0765877  -0.0051052   0.0079017  -0.0117568  -0.0257071
          217         218         219         220         221         222
    1  -0.0525368   0.0039938   0.0294820  -0.0124190  -0.0240257   0.0251638
    2   0.0030565   0.0059131   0.0041290   0.0269045   0.0034517  -0.0916084
    3  -0.0350299   0.0071681   0.0156840  -0.0171006   0.0223346   0.0557985
          223         224         225         226         227         228
    1   0.0012863   0.0266240  -0.0219886  -0.0091399  -0.0487616   0.0048914
    2   0.0049375   0.0179197   0.0211094  -0.0159228  -0.0169237  -0.0022471
    3   0.0095161   0.0040544   0.0053086   0.0272546  -0.0160151   0.0036508
          229         230         231         232         233         234
    1   0.0242595  -0.0125511   0.0097162   0.0710837  -0.0081258   0.0022829
    2   0.0109193  -0.0320703  -0.0204850   0.0596555   0.0063823   0.0176475
    3   0.0172689   0.0180335  -0.0203518  -0.0573499   0.0063288   0.0284244
          235         236         237         238         239         240
    1  -0.0121787  -0.0203130   0.0119734   0.0051110   0.0247892  -0.0163928
    2   0.0171177  -0.0196968  -0.0461158   0.0002922  -0.0073695   0.0206553
    3  -0.0200138   0.0156340   0.0167251   0.0046416  -0.0221821  -0.0004383
          241         242         243         244         245         246
    1   0.0125632  -0.0301413  -0.0059860  -0.0206551   0.0203580  -0.0050126
    2   0.0040406   0.0306702  -0.0068162  -0.0261781  -0.0180438   0.0148565
    3   0.0398074  -0.1013531   0.0073102  -0.0060829  -0.0112599   0.0297359
          247         248         249         250         251         252
    1   0.0431643  -0.0088943  -0.0017277  -0.0096064  -0.0318719  -0.0336850
    2   0.0340722  -0.0015561   0.0201901   0.0105429  -0.0197131  -0.0809387
    3  -0.0140884   0.0032214   0.0275189  -0.0271557  -0.0019298  -0.0691089
          253         254         255         256         257         258
    1  -0.0061749  -0.0006814  -0.0264178   0.0070834   0.0046375  -0.0030266
    2   0.0014344   0.0319042  -0.0057554  -0.0117143   0.0175860  -0.0089803
    3   0.0076844  -0.0029712  -0.0149629   0.0295380  -0.0539649   0.0042241
          259         260         261         262         263         264
    1   0.0251954   0.0022628  -0.0251124   0.0815578  -0.0071206   0.0112797
    2  -0.0177509  -0.0151629  -0.0054639   0.0154971  -0.0022812  -0.0065033
    3  -0.0050902   0.0319871  -0.0212668   0.0738420  -0.0069917  -0.0231639
          265         266         267         268         269         270
    1  -0.0171660  -0.0007621   0.0076282  -0.0009553  -0.0292223   0.0033140
    2  -0.0321585   0.0333942  -0.0579930   0.0051691  -0.0105672  -0.0053334
    3  -0.0027009  -0.0063955   0.0133544   0.0033774   0.0079474   0.0358826
          271         272         273         274         275         276
    1  -0.0076994   0.0773720   0.0031583  -0.0016324   0.0266477   0.0035629
    2   0.0296078   0.0758079  -0.0002143  -0.0233790  -0.0112524   0.0192542
    3  -0.0137116  -0.0034615   0.0075145   0.0244466  -0.0069211   0.0277573
          277         278         279         280         281         282
    1  -0.0054646  -0.0056544  -0.0200211  -0.0213016   0.0123623   0.0557755
    2   0.0500997  -0.0039383   0.0102148   0.0013319  -0.0299872  -0.0777116
    3  -0.0150167   0.0017340   0.0250467  -0.0237463   0.0015157  -0.0549308
          283         284         285         286         287         288
    1  -0.0020062   0.0239655  -0.0292066   0.0121103   0.0521543  -0.0051888
    2  -0.0049079  -0.0224188  -0.0065093  -0.0195147   0.0106126  -0.0000333
    3   0.0021498   0.0181444  -0.0187758  -0.0236614   0.0179076   0.0029305
          289         290         291         292         293         294
    1  -0.0112708  -0.0326948   0.0119170  -0.0434815   0.0020433   0.0121430
    2   0.0275227  -0.0049422  -0.0108171   0.0473947  -0.0041072   0.0248487
    3   0.0083996  -0.0079516   0.0295386  -0.0900407   0.0075642   0.0180114
          295         296         297         298         299         300
    1  -0.0245546   0.0243299   0.0316683  -0.0098908  -0.0142510  -0.0204579
    2  -0.0116526  -0.0196124   0.0354122   0.0000870   0.0126388  -0.0164812
    3   0.0098850  -0.0010839  -0.0234110   0.0023949  -0.0261060   0.0154559
          301         302
    1  -0.0087371  -0.0228416
    2   0.0273510  -0.1017293
    3   0.0206127  -0.0337688
  --- DONE ESP SUMMARY ---
 Total job time:  33.12s(wall), 90.76s(cpu) 
 Thu Jul 21 14:42:41 2022

        *************************************************************
        *                                                           *
        *  Thank you very much for using Q-Chem.  Have a nice day.  *
        *                                                           *
        *************************************************************


