                  Welcome to Q-Chem
     A Quantum Leap Into The Future Of Chemistry


 Q-Chem 6.0 (devel), Q-Chem, Inc., Pleasanton, CA (2022)

 E. Epifanovsky,  A. T. B. Gilbert,  Xintian Feng,  Joonho Lee,  Yuezhi Mao,  
 N. Mardirossian,  P. Pokhilko,  A. White,  M. Wormit,  M. P. Coons,  
 A. L. Dempwolff,  Zhengting Gan,  D. Hait,  P. R. Horn,  L. D. Jacobson,  
 I. Kaliman,  J. Kussmann,  A. W. Lange,  Ka Un Lao,  D. S. Levine,  Jie Liu,  
 S. C. McKenzie,  A. F. Morrison,  K. Nanda,  F. Plasser,  D. R. Rehn,  
 M. L. Vidal,  Zhi-Qiang You,  Ying Zhu,  B. Alam,  B. Albrecht,  
 A. Aldossary,  E. Alguire,  J. H. Andersen,  V. Athavale,  D. Barton,  
 K. Begam,  A. Behn,  N. Bellonzi,  Y. A. Bernard,  E. J. Berquist,  
 H. Burton,  A. Carreras,  K. Carter-Fenk,  Romit Chakraborty,  
 Chandrima Chakravarty,  Junhan Chen,  A. D. Chien,  K. D. Closser,  
 V. Cofer-Shabica,  L. Cunha,  S. Dasgupta,  Jia Deng,  M. de Wergifosse,  
 M. Diedenhofen,  Hainam Do,  S. Ehlert,  Po-Tung Fang,  S. Fatehi,  
 Qingguo Feng,  T. Friedhoff,  B. Ganoe,  J. Gayvert,  Qinghui Ge,  
 G. Gidofalvi,  M. Goldey,  J. Gomes,  C. Gonzalez-Espinoza,  S. Gulania,  
 A. Gunina,  J. A. Gyamfi,  M. W. D. Hanson-Heine,  P. H. P. Harbach,  
 A. W. Hauser,  M. F. Herbst,  M. Hernandez Vera,  M. Hodecker,  
 Z. C. Holden,  S. Houck,  Xunkun Huang,  Kerwin Hui,  B. C. Huynh,  
 K. Ikeda,  M. Ivanov,  Hyunjun Ji,  Zuxin Jin,  Hanjie Jiang,  B. Kaduk,  
 S. Kaehler,  R. Kang,  K. Khistyaev,  Jaehoon Kim,  Yongbin Kim,  
 P. Klunzinger,  Z. Koczor-Benda,  Joong Hoon Koh,  D. Kosenkov,  
 Saikiran Kotaru,  L. Koulias,  T. Kowalczyk,  C. M. Krauter,  K. Kue,  
 A. Kunitsa,  T. Kus,  A. Landau,  K. V. Lawler,  D. Lefrancois,  S. Lehtola,  
 Rain Li,  Shaozhi Li,  Yi-Pei Li,  Jiashu Liang,  M. Liebenthal,  
 Hung-Hsuan Lin,  You-Sheng Lin,  Fenglai Liu,  Kuan-Yu Liu,  
 M. Loipersberger,  A. Luenser,  C. Malbon,  A. Manjanath,  P. Manohar,  
 E. Mansoor,  S. F. Manzer,  Shan-Ping Mao,  A. V. Marenich,  T. Markovich,  
 S. Mason,  F. Matz,  S. A. Maurer,  P. F. McLaughlin,  M. F. S. J. Menger,  
 J.-M. Mewes,  S. A. Mewes,  P. Morgante,  Mohammad Mostafanejad,  
 J. W. Mullinax,  K. J. Oosterbaan,  G. Paran,  V. Parravicini,  
 Alexander C. Paul,  Suranjan K. Paul,  F. Pavosevic,  Zheng Pei,  S. Prager,  
 E. I. Proynov,  E. Ramos,  B. Rana,  A. E. Rask,  A. Rettig,  R. M. Richard,  
 F. Rob,  E. Rossomme,  T. Scheele,  M. Scheurer,  M. Schneider,  
 P. E. Schneider,  N. Sergueev,  S. M. Sharada,  Hengyuan Shen,  
 W. Skomorowski,  D. W. Small,  C. J. Stein,  Yingli Su,  Yu-Chuan Su,  
 E. J. Sundstrom,  Zhen Tao,  J. Thirman,  Hung-Yi Tsai,  T. Tsuchimochi,  
 N. M. Tubman,  C. Utku,  S. P. Veccham,  O. Vydrov,  J. Wenzel,  
 Jonathan Wong,  J. Witte,  A. Yamada,  Chou-Hsun Yang,  Kun Yao,  
 S. Yeganeh,  S. R. Yost,  A. Zech,  F. Zeller,  Igor Ying Zhang,  
 Xing Zhang,  Yu Zhang,  D. Zuev,  A. Aspuru-Guzik,  A. T. Bell,  
 N. A. Besley,  K. B. Bravaya,  B. R. Brooks,  D. Casanova,  Jeng-Da Chai,  
 Hsing-Ta Chen,  S. Coriani,  C. J. Cramer,  A. E. DePrince, III,  
 R. A. DiStasio Jr.,  A. Dreuw,  B. D. Dunietz,  T. R. Furlani,  
 W. A. Goddard III,  S. Grimme,  S. Hammes-Schiffer,  T. Head-Gordon,  
 W. J. Hehre,  Chao-Ping Hsu,  T.-C. Jagau,  Yousung Jung,  A. Klamt,  
 Jing Kong,  D. S. Lambrecht,  Xiangyuan Li,  WanZhen Liang,  N. J. Mayhall,  
 C. W. McCurdy,  J. B. Neaton,  T. Neudecker,  C. Ochsenfeld,  
 J. A. Parkhill,  R. Peverati,  V. A. Rassolov,  Haisheng Ren,  Yihan Shao,  
 L. V. Slipchenko,  R. P. Steele,  J. E. Subotnik,  A. J. W. Thom,  
 A. Tkatchenko,  D. G. Truhlar,  T. Van Voorhis,  Fan Wang,  
 T. A. Wesolowski,  K. B. Whaley,  H. L. Woodcock III,  P. M. Zimmerman,  
 S. Faraji,  P. M. W. Gill,  M. Head-Gordon,  J. M. Herbert,  A. I. Krylov

 Contributors to earlier versions of Q-Chem not listed above: 
 R. D. Adamson,  B. Austin,  R. Baer,  J. Baker,  G. J. O. Beran,  
 K. Brandhorst,  S. T. Brown,  E. F. C. Byrd,  Arup K. Chakraborty,  
 G. K. L. Chan,  Chun-Min Chang,  Yunqing Chen,  C.-L. Cheng,  
 Siu Hung Chien,  D. M. Chipman,  D. L. Crittenden,  H. Dachsel,  
 R. J. Doerksen,  A. D. Dutoi,  R. G. Edgar,  J. Fosso-Tande,  
 L. Fusti-Molnar,  D. Ghosh,  A. Ghysels,  A. Golubeva-Zadorozhnaya,  
 J. Gonthier,  M. S. Gordon,  S. R. Gwaltney,  G. Hawkins,  J. E. Herr,  
 A. Heyden,  S. Hirata,  E. G. Hohenstein,  G. Kedziora,  F. J. Keil,  
 C. Kelley,  Jihan Kim,  R. A. King,  R. Z. Khaliullin,  P. P. Korambath,  
 W. Kurlancheek,  A. Laurent,  A. M. Lee,  M. S. Lee,  S. V. Levchenko,  
 Ching Yeh Lin,  D. Liotard,  E. Livshits,  R. C. Lochan,  I. Lotan,  
 L. A. Martinez-Martinez,  P. E. Maslen,  N. Nair,  D. P. O'Neill,  
 D. Neuhauser,  E. Neuscamman,  C. M. Oana,  R. Olivares-Amaya,  R. Olson,  
 T. M. Perrine,  B. Peters,  P. A. Pieniazek,  A. Prociuk,  Y. M. Rhee,  
 J. Ritchie,  M. A. Rohrdanz,  E. Rosta,  N. J. Russ,  H. F. Schaefer III,  
 M. W. Schmidt,  N. E. Schultz,  S. Sharma,  N. Shenvi,  C. D. Sherrill,  
 A. C. Simmonett,  A. Sodt,  T. Stein,  D. Stuck,  K. S. Thanthiriwatte,  
 V. Vanovschi,  L. Vogt,  Tao Wang,  A. Warshel,  M. A. Watson,  
 C. F. Williams,  Q. Wu,  X. Xu,  Jun Yang,  W. Zhang,  Yan Zhao

   Please cite Q-Chem as follows:
  "Software for the frontiers of quantum chemistry:
   An overview of developments in the Q-Chem 5 package"
   J. Chem. Phys. 155, 084801 (2021)
   https://doi.org/10.1063/5.0055522 (open access)

 Q-Chem 6.0.0 for Intel X86 EM64T Linux

 Parts of Q-Chem use Armadillo 9.900.5 (Nocturnal Misbehaviour).
 http://arma.sourceforge.net/

 Q-Chem begins on Thu Jul 21 08:43:29 2022  

 Host: nid00525
0

     Scratch files written to /global/cscratch1/sd/ymao90/r7.00_frame_0018_almo_B3LYP_dp20220721031459//
 Processing $rem in /global/homes/y/ymao90/my_qchem/qchem_embedding_5p4/config/preferences:
 Processing $rem in /global/homes/y/ymao90/.qchemrc:

 Checking the input file for inconsistencies... 	...done.

--------------------------------------------------------------
User input:
--------------------------------------------------------------
$molecule
0 1
--
0 1
C    22.11800   16.35000   27.92600  
C    23.47000   15.62000   27.97400  
C    24.36300   15.98900   29.17100  
C    23.55400   15.93800   30.47700  
C    22.23100   16.71900   30.41700  
C    21.30700   16.39500   29.23200  
H    25.19900   15.28600   29.27600  
H    23.29200   14.55100   28.14700  
H    22.26200   17.38900   27.60500  
H    21.46800   15.91700   27.15700  
H    23.17000   14.91800   30.60700  
H    24.16500   16.29300   31.31600  
H    21.63600   16.54100   31.32100  
H    22.45900   17.79200   30.44500  
H    20.83300   15.42800   29.44100  
H    20.52700   17.15700   29.11400  
H    24.74900   17.00800   29.04600  
N    24.23500   15.85500   26.75100  
H    24.49800   16.80400   26.51300  
C    24.49200   14.86500   25.82700  
H    25.05400   15.18100   24.92900  
O    24.08700   13.71900   25.91500  
--
0 1
C    21.46200   20.90900   29.65500  
H    20.54900   20.59900   29.13900  
H    22.10100   20.05700   29.90100  
H    21.31900   21.59500   30.49300  
S    22.59000   21.67500   28.46900  
C    22.77600   20.18900   27.45800  
H    23.03700   19.30100   28.04000  
H    21.80800   19.94200   27.01500  
H    23.37500   20.42700   26.57500  
O    23.86100   21.79900   29.25200  
C    17.87800   21.59600   25.55600  
H    18.06600   21.66700   26.63000  
H    17.89800   22.64300   25.24400  
H    16.90500   21.13300   25.36800  
S    19.27200   20.68100   24.86000  
C    19.17800   19.44400   26.17400  
H    19.95700   18.68500   26.06700  
H    19.29700   19.91200   27.15400  
H    18.20100   18.96300   26.08400  
O    20.48900   21.38300   25.37700  
C    30.31200   15.65500   30.39100  
H    31.28600   15.16300   30.44900  
H    29.91900   15.50700   29.38200  
H    30.42700   16.70400   30.67700  
S    29.19100   14.82500   31.54000  
C    27.83000   15.95800   31.18100  
H    27.77900   16.07500   30.09600  
H    26.85800   15.66200   31.58400  
H    28.11100   16.88200   31.69300  
O    29.62900   15.16100   32.93100  
C    26.02200   6.67600    29.33400  
H    27.09600   6.52700    29.19700  
H    25.81200   7.60000    29.87800  
H    25.64600   5.75100    29.77900  
S    25.21200   6.77400    27.72200  
C    25.79600   8.42400    27.27500  
H    25.87000   8.41300    26.18500  
H    25.11200   9.19200    27.64700  
H    26.78400   8.53800    27.72900  
O    23.77300   7.07000    28.01000  
C    25.52100   19.42300   31.03800  
H    25.50500   19.56700   32.12100  
H    24.61300   19.87300   30.62800  
H    25.48200   18.33800   30.90700  
S    27.01400   20.03900   30.22800  
C    26.62900   19.46500   28.55800  
H    26.70400   20.28200   27.83600  
H    27.37000   18.67800   28.40000  
H    25.60700   19.07800   28.55600  
O    27.91400   18.93600   30.69100  
C    20.08800   11.39600   35.28100  
H    20.09100   10.56000   35.98400  
H    19.20000   11.33900   34.64700  
H    20.92700   11.17700   34.61500  
S    20.28600   13.02100   36.04700  
C    20.20900   14.01100   34.53700  
H    19.21700   13.75200   34.15800  
H    20.31700   15.04800   34.86700  
H    20.95400   13.81600   33.76200  
O    21.72100   13.21300   36.43000  
C    25.28800   9.77600    19.27300  
H    24.89300   9.16600    18.45600  
H    24.75300   10.72200   19.15900  
H    26.37700   9.83500    19.34300  
S    24.81300   8.98800    20.82900  
C    23.11000   9.52400    20.54900  
H    22.56900   9.51300    21.49900  
H    22.95700   10.46200   20.00900  
H    22.79100   8.72700    19.87300  
O    25.20400   9.95300    21.90400  
C    23.26900   21.77600   32.82500  
H    23.40100   21.59900   31.75400  
H    22.80300   22.76200   32.89200  
H    24.32400   21.75100   33.11000  
S    22.27500   20.49200   33.61800  
C    22.95400   20.52900   35.29200  
H    22.50100   19.77600   35.94300  
H    24.04600   20.57200   35.30400  
H    22.56300   21.46300   35.70200  
O    22.82300   19.13500   33.30300  
C    17.32500   14.59600   31.76800  
H    16.61800   15.18200   31.17600  
H    17.13600   14.95800   32.78200  
H    18.28700   14.82600   31.30300  
S    16.85700   12.85500   31.65000  
C    15.22100   13.11700   32.37100  
H    14.69400   13.98900   31.97600  
H    14.58700   12.23000   32.44500  
H    15.31700   13.44900   33.40800  
O    17.57200   12.19700   32.78900  
C    14.68500   20.50800   29.33900  
H    13.90200   20.05200   28.72700  
H    14.56400   20.39100   30.41900  
H    14.78500   21.59300   29.25200  
S    16.19100   19.56200   29.02300  
C    17.19200   21.00000   29.46600  
H    18.21900   20.68500   29.26400  
H    16.93600   21.70500   28.67000  
H    16.98000   21.25600   30.50700  
O    16.20900   19.54600   27.52600  
C    27.77100   13.01000   22.00600  
H    28.29300   12.06300   22.16400  
H    26.78900   12.85400   21.55300  
H    28.23100   13.79600   21.40200  
S    27.60900   13.61200   23.70300  
C    26.60900   12.16900   24.13100  
H    27.22400   11.30400   24.39200  
H    26.06900   12.45600   25.03700  
H    25.94100   11.98300   23.28500  
O    26.59400   14.71100   23.66400  
C    25.71500   12.04000   29.74400  
H    25.07700   12.81200   30.18100  
H    25.14300   11.24200   29.26500  
H    26.45400   11.68600   30.46700  
S    26.47700   12.96100   28.38800  
C    27.38600   11.55900   27.70000  
H    28.25400   11.92900   27.14900  
H    27.76800   10.84000   28.43000  
H    26.72400   10.94500   27.08400  
O    27.57000   13.75400   29.03400  
C    30.99100   13.91600   25.05300  
H    31.20200   13.55100   26.06200  
H    31.74800   14.70100   24.97200  
H    29.98000   14.32700   24.99700  
S    31.23800   12.65100   23.78700  
C    33.04300   12.58800   23.85600  
H    33.40900   13.61500   23.91900  
H    33.38400   11.88800   24.62300  
H    33.45400   12.12400   22.95600  
O    30.96700   13.37000   22.50200  
C    23.68800   13.11400   33.67400  
H    23.45000   13.34300   32.63200  
H    23.52200   12.04600   33.83500  
H    23.00300   13.60300   34.37200  
S    25.40400   13.60400   33.95300  
C    26.07300   12.09500   33.21700  
H    25.60100   11.94100   32.24300  
H    27.13200   12.28300   33.02200  
H    25.91900   11.27800   33.92600  
O    25.68800   13.48300   35.41800  
C    18.74900   19.47400   33.84100  
H    19.09500   20.24500   33.14800  
H    18.20900   19.96300   34.65600  
H    19.66500   18.96800   34.15600  
S    17.50100   18.56200   32.90600  
C    18.63500   18.16200   31.55700  
H    17.99200   17.62000   30.85900  
H    18.99200   19.07900   31.08200  
H    19.48600   17.52300   31.80600  
O    16.73500   19.71800   32.34100  
C    21.88800   16.26200   20.56200  
H    21.11900   15.51900   20.33400  
H    21.89600   16.42100   21.64300  
H    21.56300   17.20400   20.11200  
S    23.52000   15.78700   19.94800  
C    24.09000   14.78600   21.34000  
H    25.18100   14.75900   21.41400  
H    23.63300   15.19500   22.24400  
H    23.74000   13.80700   21.00600  
O    24.29700   17.06000   20.08200  
C    21.65100   17.03700   36.74400  
H    21.95400   17.42900   35.77000  
H    22.23000   17.49200   37.55200  
H    21.77000   15.95200   36.79300  
S    19.98900   17.50200   37.27900  
C    19.92200   16.33900   38.66000  
H    18.93500   16.54400   39.08300  
H    20.10200   15.31800   38.31100  
H    20.62200   16.72000   39.40800  
O    19.05900   16.86400   36.29500  
C    17.31800   14.14000   26.45600  
H    18.35400   14.12800   26.10800  
H    16.89100   13.13800   26.36300  
H    16.80100   14.85000   25.80600  
S    17.19900   14.80700   28.13100  
C    17.31000   16.52400   27.57800  
H    18.09900   16.59100   26.82400  
H    16.34000   16.90900   27.25500  
H    17.73900   17.11200   28.39300  
O    18.53700   14.53000   28.74300  
C    27.03400   16.92400   34.32400  
H    28.12100   17.04000   34.32400  
H    26.73900   15.87500   34.41400  
H    26.49800   17.48300   33.55300  
S    26.62600   17.70500   35.90100  
C    24.85900   17.35600   35.75500  
H    24.66100   16.28200   35.79400  
H    24.42600   17.92500   36.58200  
H    24.58100   17.78500   34.78800  
O    26.66700   19.17800   35.64000  
C    23.14000   18.60300   23.70800  
H    22.94600   18.92000   22.68000  
H    22.99200   17.52500   23.80100  
H    22.35200   18.94200   24.38600  
S    24.79400   19.06500   24.27200  
C    25.52500   17.88000   23.12100  
H    25.16600   16.87000   23.33600  
H    25.32900   18.22400   22.10200  
H    26.60700   17.80600   23.26300  
O    24.79600   18.42300   25.62500  
C    28.03000   18.33600   25.72000  
H    26.99300   18.14300   26.00500  
H    28.58500   18.59300   26.62600  
H    28.18300   19.14200   24.99800  
S    28.68900   16.71100   25.28200  
C    28.40600   15.92300   26.88400  
H    29.11400   16.37600   27.58200  
H    27.37800   16.19900   27.13500  
H    28.49200   14.84000   26.76300  
O    30.15500   16.98500   25.16100  
C    21.04700   12.65700   27.63500  
H    20.06100   12.36100   27.26700  
H    21.00700   13.69100   27.98600  
H    21.75200   12.66700   26.80000  
S    21.59600   11.45700   28.87100  
C    20.23200   11.81700   30.00000  
H    19.27300   11.77000   29.47700  
H    20.19200   10.98600   30.70900  
H    20.34600   12.79800   30.46800  
O    22.70800   12.14300   29.60000  
C    21.88100   12.31000   23.00300  
H    22.37000   13.22600   23.34600  
H    22.40300   11.75300   22.22100  
H    20.85000   12.54800   22.73100  
S    21.80500   11.22400   24.44500  
C    23.49600   10.58800   24.47300  
H    23.76900   10.24900   25.47600  
H    23.50200   9.66300    23.89100  
H    24.02200   11.49300   24.15800  
O    20.86100   10.13700   24.03400  
C    18.00300   16.39000   21.40300  
H    17.51600   17.21100   20.87000  
H    18.98000   16.30500   20.91900  
H    17.47500   15.44100   21.28300  
S    18.48900   16.71100   23.11300  
C    19.30000   15.13400   23.46200  
H    19.16900   14.83400   24.50500  
H    18.88500   14.37600   22.79300  
H    20.33800   15.36900   23.21300  
O    17.25300   16.64700   23.95500  
$end

$rem
JOBTYPE  SP
METHOD  B3LYP
BASIS  6-31+G(D)
SYMMETRY  FALSE
SYM_IGNORE  TRUE
MEM_TOTAL  12000
MEM_STATIC  4000
BASIS_LIN_DEP_THRESH  6
THRESH  14
SCF_CONVERGENCE  8
FD_MAT_VEC_PROD  FALSE
XC_GRID  000075000302
NL_GRID  1
MAX_SCF_CYCLES  200
FRGM_METHOD  STOLL
SCFMI_MODE  1
ALMO_EFIELD  TRUE
$end

$rem_frgm
SCF_CONVERGENCE  4
$end


--------------------------------------------------------------
 ----------------------------------------------------------------
             Standard Nuclear Orientation (Angstroms)
    I     Atom           X                Y                Z
 ----------------------------------------------------------------
    1      C      22.1180000000    16.3500000000    27.9260000000
    2      C      23.4700000000    15.6200000000    27.9740000000
    3      C      24.3630000000    15.9890000000    29.1710000000
    4      C      23.5540000000    15.9380000000    30.4770000000
    5      C      22.2310000000    16.7190000000    30.4170000000
    6      C      21.3070000000    16.3950000000    29.2320000000
    7      H      25.1990000000    15.2860000000    29.2760000000
    8      H      23.2920000000    14.5510000000    28.1470000000
    9      H      22.2620000000    17.3890000000    27.6050000000
   10      H      21.4680000000    15.9170000000    27.1570000000
   11      H      23.1700000000    14.9180000000    30.6070000000
   12      H      24.1650000000    16.2930000000    31.3160000000
   13      H      21.6360000000    16.5410000000    31.3210000000
   14      H      22.4590000000    17.7920000000    30.4450000000
   15      H      20.8330000000    15.4280000000    29.4410000000
   16      H      20.5270000000    17.1570000000    29.1140000000
   17      H      24.7490000000    17.0080000000    29.0460000000
   18      N      24.2350000000    15.8550000000    26.7510000000
   19      H      24.4980000000    16.8040000000    26.5130000000
   20      C      24.4920000000    14.8650000000    25.8270000000
   21      H      25.0540000000    15.1810000000    24.9290000000
   22      O      24.0870000000    13.7190000000    25.9150000000
   23      C      21.4620000000    20.9090000000    29.6550000000
   24      H      20.5490000000    20.5990000000    29.1390000000
   25      H      22.1010000000    20.0570000000    29.9010000000
   26      H      21.3190000000    21.5950000000    30.4930000000
   27      S      22.5900000000    21.6750000000    28.4690000000
   28      C      22.7760000000    20.1890000000    27.4580000000
   29      H      23.0370000000    19.3010000000    28.0400000000
   30      H      21.8080000000    19.9420000000    27.0150000000
   31      H      23.3750000000    20.4270000000    26.5750000000
   32      O      23.8610000000    21.7990000000    29.2520000000
   33      C      17.8780000000    21.5960000000    25.5560000000
   34      H      18.0660000000    21.6670000000    26.6300000000
   35      H      17.8980000000    22.6430000000    25.2440000000
   36      H      16.9050000000    21.1330000000    25.3680000000
   37      S      19.2720000000    20.6810000000    24.8600000000
   38      C      19.1780000000    19.4440000000    26.1740000000
   39      H      19.9570000000    18.6850000000    26.0670000000
   40      H      19.2970000000    19.9120000000    27.1540000000
   41      H      18.2010000000    18.9630000000    26.0840000000
   42      O      20.4890000000    21.3830000000    25.3770000000
   43      C      30.3120000000    15.6550000000    30.3910000000
   44      H      31.2860000000    15.1630000000    30.4490000000
   45      H      29.9190000000    15.5070000000    29.3820000000
   46      H      30.4270000000    16.7040000000    30.6770000000
   47      S      29.1910000000    14.8250000000    31.5400000000
   48      C      27.8300000000    15.9580000000    31.1810000000
   49      H      27.7790000000    16.0750000000    30.0960000000
   50      H      26.8580000000    15.6620000000    31.5840000000
   51      H      28.1110000000    16.8820000000    31.6930000000
   52      O      29.6290000000    15.1610000000    32.9310000000
   53      C      26.0220000000     6.6760000000    29.3340000000
   54      H      27.0960000000     6.5270000000    29.1970000000
   55      H      25.8120000000     7.6000000000    29.8780000000
   56      H      25.6460000000     5.7510000000    29.7790000000
   57      S      25.2120000000     6.7740000000    27.7220000000
   58      C      25.7960000000     8.4240000000    27.2750000000
   59      H      25.8700000000     8.4130000000    26.1850000000
   60      H      25.1120000000     9.1920000000    27.6470000000
   61      H      26.7840000000     8.5380000000    27.7290000000
   62      O      23.7730000000     7.0700000000    28.0100000000
   63      C      25.5210000000    19.4230000000    31.0380000000
   64      H      25.5050000000    19.5670000000    32.1210000000
   65      H      24.6130000000    19.8730000000    30.6280000000
   66      H      25.4820000000    18.3380000000    30.9070000000
   67      S      27.0140000000    20.0390000000    30.2280000000
   68      C      26.6290000000    19.4650000000    28.5580000000
   69      H      26.7040000000    20.2820000000    27.8360000000
   70      H      27.3700000000    18.6780000000    28.4000000000
   71      H      25.6070000000    19.0780000000    28.5560000000
   72      O      27.9140000000    18.9360000000    30.6910000000
   73      C      20.0880000000    11.3960000000    35.2810000000
   74      H      20.0910000000    10.5600000000    35.9840000000
   75      H      19.2000000000    11.3390000000    34.6470000000
   76      H      20.9270000000    11.1770000000    34.6150000000
   77      S      20.2860000000    13.0210000000    36.0470000000
   78      C      20.2090000000    14.0110000000    34.5370000000
   79      H      19.2170000000    13.7520000000    34.1580000000
   80      H      20.3170000000    15.0480000000    34.8670000000
   81      H      20.9540000000    13.8160000000    33.7620000000
   82      O      21.7210000000    13.2130000000    36.4300000000
   83      C      25.2880000000     9.7760000000    19.2730000000
   84      H      24.8930000000     9.1660000000    18.4560000000
   85      H      24.7530000000    10.7220000000    19.1590000000
   86      H      26.3770000000     9.8350000000    19.3430000000
   87      S      24.8130000000     8.9880000000    20.8290000000
   88      C      23.1100000000     9.5240000000    20.5490000000
   89      H      22.5690000000     9.5130000000    21.4990000000
   90      H      22.9570000000    10.4620000000    20.0090000000
   91      H      22.7910000000     8.7270000000    19.8730000000
   92      O      25.2040000000     9.9530000000    21.9040000000
   93      C      23.2690000000    21.7760000000    32.8250000000
   94      H      23.4010000000    21.5990000000    31.7540000000
   95      H      22.8030000000    22.7620000000    32.8920000000
   96      H      24.3240000000    21.7510000000    33.1100000000
   97      S      22.2750000000    20.4920000000    33.6180000000
   98      C      22.9540000000    20.5290000000    35.2920000000
   99      H      22.5010000000    19.7760000000    35.9430000000
  100      H      24.0460000000    20.5720000000    35.3040000000
  101      H      22.5630000000    21.4630000000    35.7020000000
  102      O      22.8230000000    19.1350000000    33.3030000000
  103      C      17.3250000000    14.5960000000    31.7680000000
  104      H      16.6180000000    15.1820000000    31.1760000000
  105      H      17.1360000000    14.9580000000    32.7820000000
  106      H      18.2870000000    14.8260000000    31.3030000000
  107      S      16.8570000000    12.8550000000    31.6500000000
  108      C      15.2210000000    13.1170000000    32.3710000000
  109      H      14.6940000000    13.9890000000    31.9760000000
  110      H      14.5870000000    12.2300000000    32.4450000000
  111      H      15.3170000000    13.4490000000    33.4080000000
  112      O      17.5720000000    12.1970000000    32.7890000000
  113      C      14.6850000000    20.5080000000    29.3390000000
  114      H      13.9020000000    20.0520000000    28.7270000000
  115      H      14.5640000000    20.3910000000    30.4190000000
  116      H      14.7850000000    21.5930000000    29.2520000000
  117      S      16.1910000000    19.5620000000    29.0230000000
  118      C      17.1920000000    21.0000000000    29.4660000000
  119      H      18.2190000000    20.6850000000    29.2640000000
  120      H      16.9360000000    21.7050000000    28.6700000000
  121      H      16.9800000000    21.2560000000    30.5070000000
  122      O      16.2090000000    19.5460000000    27.5260000000
  123      C      27.7710000000    13.0100000000    22.0060000000
  124      H      28.2930000000    12.0630000000    22.1640000000
  125      H      26.7890000000    12.8540000000    21.5530000000
  126      H      28.2310000000    13.7960000000    21.4020000000
  127      S      27.6090000000    13.6120000000    23.7030000000
  128      C      26.6090000000    12.1690000000    24.1310000000
  129      H      27.2240000000    11.3040000000    24.3920000000
  130      H      26.0690000000    12.4560000000    25.0370000000
  131      H      25.9410000000    11.9830000000    23.2850000000
  132      O      26.5940000000    14.7110000000    23.6640000000
  133      C      25.7150000000    12.0400000000    29.7440000000
  134      H      25.0770000000    12.8120000000    30.1810000000
  135      H      25.1430000000    11.2420000000    29.2650000000
  136      H      26.4540000000    11.6860000000    30.4670000000
  137      S      26.4770000000    12.9610000000    28.3880000000
  138      C      27.3860000000    11.5590000000    27.7000000000
  139      H      28.2540000000    11.9290000000    27.1490000000
  140      H      27.7680000000    10.8400000000    28.4300000000
  141      H      26.7240000000    10.9450000000    27.0840000000
  142      O      27.5700000000    13.7540000000    29.0340000000
  143      C      30.9910000000    13.9160000000    25.0530000000
  144      H      31.2020000000    13.5510000000    26.0620000000
  145      H      31.7480000000    14.7010000000    24.9720000000
  146      H      29.9800000000    14.3270000000    24.9970000000
  147      S      31.2380000000    12.6510000000    23.7870000000
  148      C      33.0430000000    12.5880000000    23.8560000000
  149      H      33.4090000000    13.6150000000    23.9190000000
  150      H      33.3840000000    11.8880000000    24.6230000000
  151      H      33.4540000000    12.1240000000    22.9560000000
  152      O      30.9670000000    13.3700000000    22.5020000000
  153      C      23.6880000000    13.1140000000    33.6740000000
  154      H      23.4500000000    13.3430000000    32.6320000000
  155      H      23.5220000000    12.0460000000    33.8350000000
  156      H      23.0030000000    13.6030000000    34.3720000000
  157      S      25.4040000000    13.6040000000    33.9530000000
  158      C      26.0730000000    12.0950000000    33.2170000000
  159      H      25.6010000000    11.9410000000    32.2430000000
  160      H      27.1320000000    12.2830000000    33.0220000000
  161      H      25.9190000000    11.2780000000    33.9260000000
  162      O      25.6880000000    13.4830000000    35.4180000000
  163      C      18.7490000000    19.4740000000    33.8410000000
  164      H      19.0950000000    20.2450000000    33.1480000000
  165      H      18.2090000000    19.9630000000    34.6560000000
  166      H      19.6650000000    18.9680000000    34.1560000000
  167      S      17.5010000000    18.5620000000    32.9060000000
  168      C      18.6350000000    18.1620000000    31.5570000000
  169      H      17.9920000000    17.6200000000    30.8590000000
  170      H      18.9920000000    19.0790000000    31.0820000000
  171      H      19.4860000000    17.5230000000    31.8060000000
  172      O      16.7350000000    19.7180000000    32.3410000000
  173      C      21.8880000000    16.2620000000    20.5620000000
  174      H      21.1190000000    15.5190000000    20.3340000000
  175      H      21.8960000000    16.4210000000    21.6430000000
  176      H      21.5630000000    17.2040000000    20.1120000000
  177      S      23.5200000000    15.7870000000    19.9480000000
  178      C      24.0900000000    14.7860000000    21.3400000000
  179      H      25.1810000000    14.7590000000    21.4140000000
  180      H      23.6330000000    15.1950000000    22.2440000000
  181      H      23.7400000000    13.8070000000    21.0060000000
  182      O      24.2970000000    17.0600000000    20.0820000000
  183      C      21.6510000000    17.0370000000    36.7440000000
  184      H      21.9540000000    17.4290000000    35.7700000000
  185      H      22.2300000000    17.4920000000    37.5520000000
  186      H      21.7700000000    15.9520000000    36.7930000000
  187      S      19.9890000000    17.5020000000    37.2790000000
  188      C      19.9220000000    16.3390000000    38.6600000000
  189      H      18.9350000000    16.5440000000    39.0830000000
  190      H      20.1020000000    15.3180000000    38.3110000000
  191      H      20.6220000000    16.7200000000    39.4080000000
  192      O      19.0590000000    16.8640000000    36.2950000000
  193      C      17.3180000000    14.1400000000    26.4560000000
  194      H      18.3540000000    14.1280000000    26.1080000000
  195      H      16.8910000000    13.1380000000    26.3630000000
  196      H      16.8010000000    14.8500000000    25.8060000000
  197      S      17.1990000000    14.8070000000    28.1310000000
  198      C      17.3100000000    16.5240000000    27.5780000000
  199      H      18.0990000000    16.5910000000    26.8240000000
  200      H      16.3400000000    16.9090000000    27.2550000000
  201      H      17.7390000000    17.1120000000    28.3930000000
  202      O      18.5370000000    14.5300000000    28.7430000000
  203      C      27.0340000000    16.9240000000    34.3240000000
  204      H      28.1210000000    17.0400000000    34.3240000000
  205      H      26.7390000000    15.8750000000    34.4140000000
  206      H      26.4980000000    17.4830000000    33.5530000000
  207      S      26.6260000000    17.7050000000    35.9010000000
  208      C      24.8590000000    17.3560000000    35.7550000000
  209      H      24.6610000000    16.2820000000    35.7940000000
  210      H      24.4260000000    17.9250000000    36.5820000000
  211      H      24.5810000000    17.7850000000    34.7880000000
  212      O      26.6670000000    19.1780000000    35.6400000000
  213      C      23.1400000000    18.6030000000    23.7080000000
  214      H      22.9460000000    18.9200000000    22.6800000000
  215      H      22.9920000000    17.5250000000    23.8010000000
  216      H      22.3520000000    18.9420000000    24.3860000000
  217      S      24.7940000000    19.0650000000    24.2720000000
  218      C      25.5250000000    17.8800000000    23.1210000000
  219      H      25.1660000000    16.8700000000    23.3360000000
  220      H      25.3290000000    18.2240000000    22.1020000000
  221      H      26.6070000000    17.8060000000    23.2630000000
  222      O      24.7960000000    18.4230000000    25.6250000000
  223      C      28.0300000000    18.3360000000    25.7200000000
  224      H      26.9930000000    18.1430000000    26.0050000000
  225      H      28.5850000000    18.5930000000    26.6260000000
  226      H      28.1830000000    19.1420000000    24.9980000000
  227      S      28.6890000000    16.7110000000    25.2820000000
  228      C      28.4060000000    15.9230000000    26.8840000000
  229      H      29.1140000000    16.3760000000    27.5820000000
  230      H      27.3780000000    16.1990000000    27.1350000000
  231      H      28.4920000000    14.8400000000    26.7630000000
  232      O      30.1550000000    16.9850000000    25.1610000000
  233      C      21.0470000000    12.6570000000    27.6350000000
  234      H      20.0610000000    12.3610000000    27.2670000000
  235      H      21.0070000000    13.6910000000    27.9860000000
  236      H      21.7520000000    12.6670000000    26.8000000000
  237      S      21.5960000000    11.4570000000    28.8710000000
  238      C      20.2320000000    11.8170000000    30.0000000000
  239      H      19.2730000000    11.7700000000    29.4770000000
  240      H      20.1920000000    10.9860000000    30.7090000000
  241      H      20.3460000000    12.7980000000    30.4680000000
  242      O      22.7080000000    12.1430000000    29.6000000000
  243      C      21.8810000000    12.3100000000    23.0030000000
  244      H      22.3700000000    13.2260000000    23.3460000000
  245      H      22.4030000000    11.7530000000    22.2210000000
  246      H      20.8500000000    12.5480000000    22.7310000000
  247      S      21.8050000000    11.2240000000    24.4450000000
  248      C      23.4960000000    10.5880000000    24.4730000000
  249      H      23.7690000000    10.2490000000    25.4760000000
  250      H      23.5020000000     9.6630000000    23.8910000000
  251      H      24.0220000000    11.4930000000    24.1580000000
  252      O      20.8610000000    10.1370000000    24.0340000000
  253      C      18.0030000000    16.3900000000    21.4030000000
  254      H      17.5160000000    17.2110000000    20.8700000000
  255      H      18.9800000000    16.3050000000    20.9190000000
  256      H      17.4750000000    15.4410000000    21.2830000000
  257      S      18.4890000000    16.7110000000    23.1130000000
  258      C      19.3000000000    15.1340000000    23.4620000000
  259      H      19.1690000000    14.8340000000    24.5050000000
  260      H      18.8850000000    14.3760000000    22.7930000000
  261      H      20.3380000000    15.3690000000    23.2130000000
  262      O      17.2530000000    16.6470000000    23.9550000000
 ----------------------------------------------------------------
 Nuclear Repulsion Energy =       39522.19107206 hartrees
 There are      539 alpha and      539 beta electrons
 Requested basis set is 6-31+G(d)
 There are 863 shells and 2405 basis functions

 Total QAlloc Memory Limit  12000 MB
 Mega-Array Size      3911 MB
 MEM_STATIC part      4000 MB

 A cutoff of  1.0D-14 yielded 149916 shell pairs
 There are   1281160 function pairs
 Smallest overlap matrix eigenvalue = 4.64E-07
 Linear dependence detected in AO basis
 Tighter screening thresholds may be required for diffuse basis sets
 Use S2THRESH > 14 and THRESH = 14 in case of SCF convergence issues
 Number of orthogonalized atomic orbitals = 2404
 Maximum deviation from orthogonality = 3.177E-10

 Scale SEOQF with 1.000000e-03/1.000000e-03/1.000000e-03

 Standard Electronic Orientation quadrupole field applied
 Nucleus-field energy     =    -0.0000005543 hartrees
 Attempting to make child job directory: /global/cscratch1/sd/ymao90/r7.00_frame_0018_almo_B3LYP_dp20220721031459//Frg1/
 Attempting to make child job directory: /global/cscratch1/sd/ymao90/r7.00_frame_0018_almo_B3LYP_dp20220721031459//Frg2/
 Creating input file /global/cscratch1/sd/ymao90/r7.00_frame_0018_almo_B3LYP_dp20220721031459/Frg1.input
 using default PutDataFrgm: nothing
 calling putenv with: QCSCRATCH=/global/cscratch1/sd/ymao90/r7.00_frame_0018_almo_B3LYP_dp20220721031459/ 
 Spawning Job For Fragment 0
 Done Job For Fragment 0
 calling putenv with: QCSCRATCH=/global/cscratch1/sd/ymao90 
 calling putenv with: QCTHREADS=16 
 Creating input file /global/cscratch1/sd/ymao90/r7.00_frame_0018_almo_B3LYP_dp20220721031459/Frg2.input
 using default PutDataFrgm: nothing
 calling putenv with: QCSCRATCH=/global/cscratch1/sd/ymao90/r7.00_frame_0018_almo_B3LYP_dp20220721031459/ 
 Spawning Job For Fragment 1
 Done Job For Fragment 1
 calling putenv with: QCSCRATCH=/global/cscratch1/sd/ymao90 
 calling putenv with: QCTHREADS=16 
 Time for running child jobs:  CPU 0.40 s  wall 11759.41 s

 -----------------------------------------------------------------------
  General SCF calculation program by
  Eric Jon Sundstrom, Paul Horn, Yuezhi Mao, Dmitri Zuev, Alec White,
  David Stuck, Shaama M.S., Shane Yost, Joonho Lee, David Small,
  Daniel Levine, Susi Lehtola, Hugh Burton, Evgeny Epifanovsky,
  Bang C. Huynh
 -----------------------------------------------------------------------
Performing Restricted Closed Shell SCFMI
Doing General SCFMI
 Exchange:     0.2000 Hartree-Fock + 0.0800 Slater + 0.7200 B88
 Correlation:  0.1900 VWN1RPA + 0.8100 LYP
 Using Euler-Maclaurin-Lebedev (75,302) quadrature formula
performing fock build before subrot guess so that all methods have access
 using 16 threads for integral computing
 -------------------------------------------------------
 OpenMP Integral computing Module                
 Release: version 1.0, May 2013, Q-Chem Inc. Pittsburgh 
 -------------------------------------------------------
Printing subrot_rss_gen Method Specification:
Occupied Subspace Method is 0
Virtual Subspace Method is 0
Energy prior to optimization (guess energy) = -13681.105834288610
Begin Timing: Total SCF Calculation
begin iterations for algorithm: DIIS         
the SCF tolerance is set to 1.00e-08
    1  -13681.1058342886      3.99e-05     00000 
    2  -13681.1142633619      2.76e-05     00000 
    3  -13681.1152495853      2.35e-05     00000 
    4  -13681.1163140550      7.09e-06     00000 
    5  -13681.1164276535      2.96e-06     00000 
    6  -13681.1164510394      1.68e-06     00000 
    7  -13681.1164575476      1.20e-06     00000 
    8  -13681.1164601641      7.30e-07     00000 
    9  -13681.1164611189      3.76e-07     00000 
   10  -13681.1164613280      2.52e-07     00000 
   11  -13681.1164614153      1.89e-07     00000 
   12  -13681.1164614839      9.11e-08     00000 
   13  -13681.1164615020      4.94e-08     00000 
   14  -13681.1164615067      3.19e-08     00000 
   15  -13681.1164615084      2.06e-08     00000 
   16  -13681.1164615091      1.16e-08     00000 
   17  -13681.1164615094      4.93e-09     00000 Convergence criterion met
write pseudocanon occs and virts to disk
write pseudocanon orbital energies to disk
Timing for Total SCF: 14172.00s (wall), 198317.75s (cpu)
SCFMI Energy  -13681.1164615094
<S^2>            0.00000
 Total energy in the final basis set =   -13681.1164615094
    ==================================================
        The end of Object-Oriented SCFman: SCFMI      
    ==================================================

 --------------------------------------------------------------

                    Orbital Energies (a.u.)
 --------------------------------------------------------------

 Alpha MOs
 -- Occupied --
-89.0357 -89.0288 -89.0250 -89.0211 -89.0183 -89.0146 -89.0139 -89.0139
-89.0117 -89.0063 -89.0059 -89.0042 -89.0010 -89.0005 -88.9987 -88.9984
-88.9956 -88.9953 -88.9861 -88.9786 -88.9771 -88.9741 -88.9554 -88.9532
-19.1434 -19.1399 -19.1363 -19.1335 -19.1314 -19.1302 -19.1272 -19.1270
-19.1226 -19.1225 -19.1221 -19.1196 -19.1161 -19.1157 -19.1132 -19.1131
-19.1110 -19.1093 -19.1086 -19.0992 -19.0943 -19.0919 -19.0785 -19.0772
-19.0726 -14.3573 -10.2820 -10.2577 -10.2558 -10.2525 -10.2465 -10.2413
-10.2406 -10.2335 -10.2321 -10.2318 -10.2309 -10.2308 -10.2297 -10.2292
-10.2285 -10.2263 -10.2255 -10.2248 -10.2236 -10.2234 -10.2234 -10.2231
-10.2216 -10.2183 -10.2181 -10.2178 -10.2177 -10.2172 -10.2166 -10.2158
-10.2152 -10.2137 -10.2134 -10.2121 -10.2111 -10.2059 -10.2050 -10.2039
-10.1990 -10.1990 -10.1985 -10.1983 -10.1961 -10.1936 -10.1934 -10.1896
-10.1882 -10.1840 -10.1836 -10.1803 -10.1798 -10.1798 -10.1786 -10.1701
-10.1636  -8.0814  -8.0754  -8.0713  -8.0667  -8.0643  -8.0606  -8.0597
 -8.0589  -8.0582  -8.0531  -8.0518  -8.0500  -8.0469  -8.0464  -8.0449
 -8.0447  -8.0424  -8.0413  -8.0321  -8.0242  -8.0235  -8.0204  -8.0022
 -7.9990  -6.0459  -6.0447  -6.0396  -6.0387  -6.0382  -6.0356  -6.0345
 -6.0331  -6.0312  -6.0294  -6.0287  -6.0285  -6.0273  -6.0248  -6.0242
 -6.0239  -6.0235  -6.0232  -6.0227  -6.0225  -6.0221  -6.0218  -6.0209
 -6.0183  -6.0173  -6.0172  -6.0164  -6.0163  -6.0162  -6.0159  -6.0150
 -6.0145  -6.0128  -6.0113  -6.0107  -6.0105  -6.0100  -6.0095  -6.0093
 -6.0092  -6.0090  -6.0079  -6.0079  -6.0077  -6.0069  -6.0057  -6.0055
 -6.0043  -6.0042  -6.0037  -6.0024  -6.0022  -5.9993  -5.9989  -5.9965
 -5.9953  -5.9894  -5.9885  -5.9879  -5.9873  -5.9866  -5.9845  -5.9835
 -5.9817  -5.9807  -5.9779  -5.9664  -5.9651  -5.9635  -5.9621  -5.9597
 -5.9564  -1.0537  -1.0521  -1.0491  -1.0436  -1.0431  -1.0419  -1.0409
 -1.0393  -1.0361  -1.0332  -1.0323  -1.0279  -1.0271  -1.0262  -1.0253
 -1.0225  -1.0218  -1.0204  -1.0188  -1.0082  -1.0026  -0.9999  -0.9969
 -0.9855  -0.9789  -0.9222  -0.8415  -0.8352  -0.8275  -0.8261  -0.8190
 -0.8176  -0.8172  -0.8115  -0.8103  -0.8100  -0.8097  -0.8090  -0.8089
 -0.8078  -0.8025  -0.8024  -0.7974  -0.7955  -0.7892  -0.7890  -0.7835
 -0.7829  -0.7694  -0.7685  -0.7636  -0.7617  -0.7601  -0.7524  -0.7496
 -0.7432  -0.7422  -0.7402  -0.7400  -0.7366  -0.7347  -0.7344  -0.7332
 -0.7329  -0.7322  -0.7315  -0.7301  -0.7263  -0.7253  -0.7223  -0.7140
 -0.7136  -0.7114  -0.7049  -0.7025  -0.6878  -0.6803  -0.6489  -0.6431
 -0.6416  -0.6359  -0.6325  -0.6320  -0.6294  -0.6291  -0.6272  -0.6217
 -0.6215  -0.6201  -0.6181  -0.6168  -0.6148  -0.6144  -0.6115  -0.6096
 -0.6068  -0.6054  -0.5994  -0.5955  -0.5905  -0.5892  -0.5876  -0.5688
 -0.5632  -0.5589  -0.5280  -0.5192  -0.5140  -0.5096  -0.5080  -0.5012
 -0.4990  -0.4979  -0.4959  -0.4950  -0.4947  -0.4941  -0.4933  -0.4928
 -0.4916  -0.4893  -0.4890  -0.4882  -0.4879  -0.4872  -0.4863  -0.4856
 -0.4850  -0.4844  -0.4837  -0.4833  -0.4821  -0.4813  -0.4805  -0.4800
 -0.4797  -0.4786  -0.4782  -0.4776  -0.4774  -0.4766  -0.4754  -0.4747
 -0.4743  -0.4731  -0.4728  -0.4699  -0.4698  -0.4689  -0.4678  -0.4674
 -0.4665  -0.4660  -0.4652  -0.4646  -0.4641  -0.4638  -0.4627  -0.4617
 -0.4602  -0.4595  -0.4593  -0.4583  -0.4578  -0.4576  -0.4572  -0.4551
 -0.4545  -0.4532  -0.4528  -0.4517  -0.4512  -0.4491  -0.4488  -0.4484
 -0.4481  -0.4450  -0.4444  -0.4435  -0.4431  -0.4427  -0.4423  -0.4417
 -0.4403  -0.4401  -0.4395  -0.4388  -0.4378  -0.4372  -0.4361  -0.4341
 -0.4340  -0.4337  -0.4325  -0.4319  -0.4306  -0.4301  -0.4295  -0.4286
 -0.4275  -0.4273  -0.4268  -0.4258  -0.4250  -0.4248  -0.4235  -0.4220
 -0.4213  -0.4199  -0.4197  -0.4179  -0.4176  -0.4163  -0.4160  -0.4156
 -0.4150  -0.4132  -0.4124  -0.4117  -0.4110  -0.4103  -0.4097  -0.4090
 -0.4088  -0.4084  -0.4070  -0.4066  -0.4062  -0.4055  -0.4050  -0.4027
 -0.4020  -0.4001  -0.3992  -0.3980  -0.3972  -0.3970  -0.3967  -0.3963
 -0.3955  -0.3950  -0.3948  -0.3941  -0.3936  -0.3924  -0.3912  -0.3907
 -0.3896  -0.3882  -0.3880  -0.3868  -0.3860  -0.3835  -0.3832  -0.3826
 -0.3792  -0.3788  -0.3780  -0.3769  -0.3756  -0.3742  -0.3731  -0.3707
 -0.3702  -0.3693  -0.3692  -0.3676  -0.3670  -0.3656  -0.3651  -0.3649
 -0.3620  -0.3602  -0.3590  -0.3564  -0.3548  -0.3506  -0.3484  -0.3457
 -0.3429  -0.3405  -0.3395  -0.3342  -0.3249  -0.3239  -0.3152  -0.3135
 -0.3076  -0.3048  -0.2979  -0.2951  -0.2945  -0.2925  -0.2913  -0.2851
 -0.2842  -0.2837  -0.2826  -0.2795  -0.2776  -0.2767  -0.2744  -0.2739
 -0.2732  -0.2720  -0.2714  -0.2702  -0.2694  -0.2687  -0.2616  -0.2606
 -0.2598  -0.2597  -0.2580  -0.2576  -0.2559  -0.2547  -0.2533  -0.2524
 -0.2518  -0.2512  -0.2442  -0.2439  -0.2420  -0.2409  -0.2399  -0.2393
 -0.2383  -0.2367  -0.2353  -0.2318  -0.2311  -0.2245  -0.2184  -0.2143
 -0.2114  -0.2028  -0.1932
 -- Virtual --
 -0.0451  -0.0368  -0.0355  -0.0348  -0.0304  -0.0287  -0.0244  -0.0228
 -0.0210  -0.0194  -0.0167  -0.0153  -0.0146  -0.0131  -0.0119  -0.0109
 -0.0102  -0.0098  -0.0082  -0.0077  -0.0066  -0.0056  -0.0054  -0.0042
 -0.0038  -0.0027  -0.0017  -0.0004  -0.0003   0.0004   0.0012   0.0022
  0.0031   0.0042   0.0055   0.0057   0.0062   0.0071   0.0085   0.0093
  0.0107   0.0117   0.0121   0.0130   0.0132   0.0145   0.0148   0.0154
  0.0160   0.0168   0.0177   0.0188   0.0191   0.0204   0.0212   0.0216
  0.0227   0.0236   0.0251   0.0254   0.0258   0.0271   0.0277   0.0284
  0.0289   0.0296   0.0301   0.0319   0.0324   0.0332   0.0335   0.0338
  0.0346   0.0354   0.0361   0.0370   0.0380   0.0386   0.0392   0.0402
  0.0406   0.0409   0.0410   0.0421   0.0424   0.0428   0.0440   0.0441
  0.0443   0.0448   0.0459   0.0468   0.0474   0.0484   0.0489   0.0496
  0.0499   0.0502   0.0511   0.0526   0.0533   0.0540   0.0547   0.0550
  0.0557   0.0561   0.0562   0.0567   0.0578   0.0582   0.0592   0.0595
  0.0599   0.0616   0.0626   0.0628   0.0642   0.0653   0.0656   0.0664
  0.0668   0.0684   0.0687   0.0694   0.0701   0.0710   0.0719   0.0725
  0.0731   0.0746   0.0749   0.0757   0.0766   0.0774   0.0782   0.0790
  0.0793   0.0798   0.0803   0.0814   0.0824   0.0832   0.0839   0.0844
  0.0856   0.0857   0.0860   0.0868   0.0876   0.0880   0.0889   0.0898
  0.0902   0.0907   0.0916   0.0922   0.0928   0.0929   0.0938   0.0951
  0.0961   0.0966   0.0972   0.0987   0.0989   0.0995   0.1000   0.1004
  0.1010   0.1018   0.1028   0.1035   0.1041   0.1049   0.1053   0.1067
  0.1077   0.1086   0.1093   0.1097   0.1104   0.1107   0.1109   0.1117
  0.1126   0.1132   0.1138   0.1146   0.1155   0.1166   0.1170   0.1176
  0.1190   0.1192   0.1199   0.1201   0.1211   0.1215   0.1228   0.1237
  0.1242   0.1251   0.1261   0.1265   0.1270   0.1280   0.1288   0.1290
  0.1299   0.1307   0.1317   0.1321   0.1327   0.1333   0.1334   0.1341
  0.1345   0.1357   0.1362   0.1367   0.1374   0.1384   0.1391   0.1399
  0.1403   0.1407   0.1424   0.1429   0.1434   0.1438   0.1442   0.1454
  0.1457   0.1465   0.1471   0.1472   0.1489   0.1494   0.1504   0.1506
  0.1509   0.1515   0.1524   0.1526   0.1531   0.1536   0.1543   0.1550
  0.1553   0.1561   0.1566   0.1573   0.1585   0.1587   0.1598   0.1602
  0.1615   0.1618   0.1623   0.1631   0.1636   0.1639   0.1643   0.1652
  0.1663   0.1667   0.1672   0.1676   0.1690   0.1691   0.1695   0.1708
  0.1719   0.1721   0.1724   0.1733   0.1738   0.1744   0.1747   0.1753
  0.1760   0.1762   0.1768   0.1781   0.1790   0.1793   0.1812   0.1817
  0.1822   0.1824   0.1825   0.1840   0.1847   0.1858   0.1864   0.1869
  0.1872   0.1880   0.1885   0.1892   0.1898   0.1915   0.1922   0.1926
  0.1936   0.1943   0.1946   0.1949   0.1956   0.1964   0.1973   0.1980
  0.1984   0.1988   0.1993   0.2003   0.2006   0.2015   0.2020   0.2027
  0.2032   0.2034   0.2040   0.2061   0.2068   0.2072   0.2086   0.2091
  0.2094   0.2105   0.2111   0.2117   0.2125   0.2132   0.2137   0.2145
  0.2152   0.2156   0.2164   0.2170   0.2177   0.2189   0.2194   0.2199
  0.2200   0.2203   0.2216   0.2218   0.2225   0.2235   0.2246   0.2255
  0.2260   0.2269   0.2277   0.2282   0.2293   0.2296   0.2307   0.2311
  0.2312   0.2325   0.2335   0.2342   0.2349   0.2350   0.2353   0.2361
  0.2366   0.2381   0.2381   0.2397   0.2400   0.2408   0.2414   0.2421
  0.2434   0.2438   0.2441   0.2446   0.2459   0.2464   0.2466   0.2474
  0.2485   0.2490   0.2498   0.2509   0.2513   0.2525   0.2526   0.2534
  0.2542   0.2546   0.2553   0.2564   0.2570   0.2585   0.2587   0.2591
  0.2603   0.2616   0.2619   0.2626   0.2635   0.2640   0.2653   0.2666
  0.2677   0.2687   0.2692   0.2699   0.2709   0.2716   0.2719   0.2726
  0.2737   0.2744   0.2753   0.2760   0.2773   0.2784   0.2786   0.2806
  0.2809   0.2818   0.2823   0.2826   0.2834   0.2838   0.2853   0.2859
  0.2866   0.2886   0.2894   0.2898   0.2908   0.2916   0.2919   0.2923
  0.2932   0.2948   0.2954   0.2963   0.2978   0.2985   0.2994   0.2997
  0.3007   0.3023   0.3035   0.3038   0.3046   0.3058   0.3063   0.3072
  0.3079   0.3094   0.3101   0.3109   0.3119   0.3128   0.3137   0.3147
  0.3152   0.3160   0.3163   0.3175   0.3188   0.3195   0.3207   0.3217
  0.3226   0.3236   0.3240   0.3251   0.3259   0.3269   0.3279   0.3282
  0.3300   0.3305   0.3313   0.3327   0.3337   0.3342   0.3347   0.3355
  0.3368   0.3391   0.3395   0.3402   0.3407   0.3418   0.3428   0.3431
  0.3440   0.3449   0.3468   0.3474   0.3479   0.3493   0.3507   0.3512
  0.3516   0.3532   0.3536   0.3544   0.3569   0.3577   0.3582   0.3592
  0.3604   0.3615   0.3628   0.3641   0.3643   0.3656   0.3659   0.3666
  0.3678   0.3692   0.3695   0.3709   0.3712   0.3721   0.3731   0.3738
  0.3741   0.3753   0.3758   0.3780   0.3789   0.3799   0.3801   0.3816
  0.3818   0.3838   0.3852   0.3866   0.3871   0.3880   0.3885   0.3888
  0.3908   0.3914   0.3916   0.3935   0.3948   0.3956   0.3967   0.3968
  0.3974   0.3977   0.3996   0.4004   0.4014   0.4021   0.4033   0.4041
  0.4055   0.4063   0.4076   0.4081   0.4086   0.4089   0.4101   0.4122
  0.4132   0.4142   0.4146   0.4161   0.4163   0.4171   0.4191   0.4196
  0.4218   0.4227   0.4232   0.4246   0.4256   0.4267   0.4276   0.4282
  0.4290   0.4298   0.4316   0.4318   0.4327   0.4341   0.4354   0.4356
  0.4373   0.4376   0.4396   0.4405   0.4411   0.4433   0.4440   0.4458
  0.4464   0.4480   0.4506   0.4521   0.4527   0.4541   0.4545   0.4565
  0.4580   0.4587   0.4596   0.4609   0.4631   0.4650   0.4661   0.4684
  0.4694   0.4699   0.4731   0.4735   0.4748   0.4762   0.4774   0.4793
  0.4816   0.4827   0.4850   0.4860   0.4865   0.4878   0.4889   0.4907
  0.4932   0.4951   0.4980   0.4987   0.5013   0.5031   0.5059   0.5071
  0.5080   0.5088   0.5112   0.5135   0.5146   0.5168   0.5184   0.5204
  0.5214   0.5232   0.5247   0.5258   0.5272   0.5289   0.5300   0.5323
  0.5329   0.5346   0.5374   0.5381   0.5386   0.5420   0.5430   0.5444
  0.5465   0.5480   0.5493   0.5508   0.5528   0.5542   0.5563   0.5581
  0.5583   0.5627   0.5635   0.5638   0.5655   0.5671   0.5693   0.5711
  0.5732   0.5737   0.5757   0.5771   0.5780   0.5808   0.5824   0.5833
  0.5846   0.5858   0.5884   0.5899   0.5902   0.5925   0.5928   0.5936
  0.5962   0.5980   0.5985   0.6015   0.6032   0.6034   0.6049   0.6065
  0.6072   0.6090   0.6101   0.6115   0.6136   0.6146   0.6166   0.6177
  0.6198   0.6213   0.6224   0.6240   0.6249   0.6256   0.6264   0.6278
  0.6285   0.6292   0.6303   0.6318   0.6345   0.6358   0.6372   0.6388
  0.6389   0.6402   0.6428   0.6435   0.6459   0.6467   0.6471   0.6482
  0.6494   0.6509   0.6523   0.6545   0.6555   0.6562   0.6567   0.6598
  0.6604   0.6611   0.6618   0.6631   0.6655   0.6661   0.6673   0.6699
  0.6707   0.6707   0.6726   0.6735   0.6744   0.6763   0.6772   0.6789
  0.6801   0.6805   0.6816   0.6833   0.6841   0.6856   0.6873   0.6882
  0.6890   0.6892   0.6907   0.6925   0.6925   0.6946   0.6949   0.6967
  0.6972   0.6974   0.6990   0.7005   0.7015   0.7042   0.7057   0.7081
  0.7101   0.7110   0.7120   0.7141   0.7145   0.7167   0.7168   0.7198
  0.7217   0.7225   0.7238   0.7250   0.7263   0.7275   0.7301   0.7323
  0.7347   0.7381   0.7387   0.7408   0.7413   0.7421   0.7437   0.7444
  0.7463   0.7487   0.7514   0.7527   0.7540   0.7570   0.7594   0.7599
  0.7632   0.7640   0.7656   0.7675   0.7698   0.7700   0.7726   0.7739
  0.7748   0.7773   0.7781   0.7798   0.7803   0.7816   0.7838   0.7849
  0.7857   0.7870   0.7893   0.7899   0.7914   0.7942   0.7950   0.7957
  0.7977   0.8006   0.8032   0.8066   0.8076   0.8081   0.8112   0.8120
  0.8133   0.8153   0.8179   0.8190   0.8196   0.8207   0.8217   0.8233
  0.8264   0.8272   0.8298   0.8305   0.8323   0.8336   0.8369   0.8377
  0.8384   0.8391   0.8405   0.8420   0.8444   0.8452   0.8485   0.8492
  0.8500   0.8504   0.8526   0.8541   0.8551   0.8552   0.8568   0.8594
  0.8599   0.8621   0.8632   0.8642   0.8658   0.8671   0.8703   0.8707
  0.8722   0.8732   0.8738   0.8752   0.8766   0.8772   0.8795   0.8799
  0.8818   0.8842   0.8850   0.8863   0.8872   0.8881   0.8906   0.8917
  0.8924   0.8943   0.8953   0.8982   0.8990   0.9001   0.9009   0.9015
  0.9022   0.9056   0.9059   0.9080   0.9097   0.9106   0.9125   0.9129
  0.9143   0.9168   0.9172   0.9193   0.9205   0.9225   0.9243   0.9258
  0.9272   0.9277   0.9292   0.9323   0.9333   0.9343   0.9357   0.9368
  0.9376   0.9390   0.9412   0.9416   0.9438   0.9442   0.9447   0.9467
  0.9473   0.9477   0.9493   0.9508   0.9521   0.9526   0.9550   0.9555
  0.9560   0.9573   0.9583   0.9596   0.9601   0.9609   0.9617   0.9631
  0.9645   0.9654   0.9676   0.9690   0.9701   0.9706   0.9721   0.9746
  0.9758   0.9767   0.9779   0.9798   0.9807   0.9816   0.9820   0.9840
  0.9844   0.9861   0.9868   0.9891   0.9896   0.9917   0.9924   0.9931
  0.9942   0.9960   0.9970   0.9980   0.9991   0.9994   1.0023   1.0033
  1.0046   1.0047   1.0053   1.0064   1.0082   1.0095   1.0111   1.0128
  1.0142   1.0157   1.0169   1.0187   1.0194   1.0213   1.0229   1.0241
  1.0252   1.0268   1.0278   1.0294   1.0308   1.0314   1.0353   1.0375
  1.0380   1.0391   1.0399   1.0413   1.0423   1.0433   1.0450   1.0468
  1.0474   1.0478   1.0499   1.0517   1.0539   1.0548   1.0554   1.0573
  1.0592   1.0609   1.0612   1.0633   1.0645   1.0660   1.0677   1.0684
  1.0702   1.0716   1.0740   1.0752   1.0768   1.0790   1.0804   1.0816
  1.0830   1.0840   1.0850   1.0873   1.0890   1.0894   1.0921   1.0934
  1.0959   1.0970   1.0980   1.0993   1.1003   1.1020   1.1036   1.1045
  1.1058   1.1066   1.1088   1.1101   1.1106   1.1118   1.1143   1.1173
  1.1177   1.1187   1.1196   1.1211   1.1230   1.1236   1.1247   1.1261
  1.1295   1.1298   1.1314   1.1329   1.1333   1.1361   1.1368   1.1391
  1.1395   1.1406   1.1417   1.1437   1.1449   1.1471   1.1487   1.1500
  1.1515   1.1529   1.1531   1.1559   1.1566   1.1586   1.1603   1.1616
  1.1630   1.1652   1.1668   1.1677   1.1692   1.1701   1.1731   1.1747
  1.1750   1.1761   1.1790   1.1795   1.1813   1.1821   1.1849   1.1853
  1.1863   1.1900   1.1916   1.1938   1.1957   1.1966   1.1988   1.2000
  1.2016   1.2034   1.2075   1.2080   1.2083   1.2099   1.2122   1.2134
  1.2141   1.2200   1.2200   1.2239   1.2256   1.2270   1.2306   1.2316
  1.2334   1.2349   1.2374   1.2396   1.2423   1.2441   1.2470   1.2498
  1.2507   1.2539   1.2562   1.2571   1.2600   1.2627   1.2635   1.2661
  1.2692   1.2726   1.2760   1.2762   1.2788   1.2801   1.2824   1.2854
  1.2862   1.2879   1.2923   1.2929   1.2959   1.2998   1.3027   1.3032
  1.3070   1.3072   1.3090   1.3115   1.3141   1.3164   1.3184   1.3196
  1.3214   1.3227   1.3260   1.3278   1.3311   1.3331   1.3343   1.3347
  1.3376   1.3392   1.3416   1.3445   1.3465   1.3492   1.3512   1.3525
  1.3530   1.3555   1.3560   1.3579   1.3614   1.3627   1.3650   1.3659
  1.3672   1.3680   1.3685   1.3716   1.3743   1.3758   1.3782   1.3787
  1.3802   1.3827   1.3839   1.3846   1.3857   1.3861   1.3882   1.3884
  1.3910   1.3924   1.3941   1.3946   1.3978   1.3984   1.4003   1.4047
  1.4067   1.4073   1.4084   1.4111   1.4129   1.4145   1.4145   1.4178
  1.4205   1.4214   1.4226   1.4246   1.4269   1.4276   1.4292   1.4322
  1.4339   1.4341   1.4351   1.4365   1.4368   1.4399   1.4410   1.4418
  1.4447   1.4473   1.4489   1.4494   1.4508   1.4515   1.4541   1.4558
  1.4574   1.4610   1.4628   1.4642   1.4663   1.4688   1.4719   1.4755
  1.4761   1.4774   1.4795   1.4805   1.4828   1.4850   1.4868   1.4891
  1.4917   1.4934   1.4961   1.4991   1.5010   1.5016   1.5057   1.5089
  1.5098   1.5116   1.5165   1.5198   1.5205   1.5218   1.5232   1.5293
  1.5319   1.5332   1.5354   1.5386   1.5403   1.5431   1.5486   1.5503
  1.5551   1.5573   1.5613   1.5621   1.5655   1.5712   1.5780   1.5797
  1.5836   1.5844   1.5900   1.5971   1.5994   1.6056   1.6105   1.6171
  1.6198   1.6226   1.6298   1.6341   1.6382   1.6388   1.6429   1.6447
  1.6479   1.6522   1.6559   1.6575   1.6589   1.6600   1.6619   1.6651
  1.6670   1.6692   1.6709   1.6727   1.6737   1.6746   1.6751   1.6781
  1.6788   1.6821   1.6828   1.6841   1.6867   1.6879   1.6893   1.6901
  1.6909   1.6916   1.6924   1.6941   1.6952   1.6970   1.6987   1.6992
  1.7003   1.7017   1.7038   1.7057   1.7065   1.7086   1.7096   1.7114
  1.7126   1.7132   1.7136   1.7152   1.7164   1.7195   1.7197   1.7210
  1.7232   1.7247   1.7259   1.7276   1.7283   1.7294   1.7321   1.7327
  1.7343   1.7355   1.7374   1.7392   1.7409   1.7413   1.7443   1.7461
  1.7476   1.7498   1.7499   1.7510   1.7514   1.7546   1.7553   1.7565
  1.7592   1.7610   1.7619   1.7631   1.7671   1.7678   1.7723   1.7730
  1.7759   1.7771   1.7788   1.7809   1.7818   1.7831   1.7851   1.7859
  1.7891   1.7904   1.7924   1.7962   1.7994   1.8035   1.8053   1.8075
  1.8091   1.8125   1.8157   1.8169   1.8198   1.8232   1.8255   1.8282
  1.8326   1.8359   1.8375   1.8405   1.8422   1.8456   1.8491   1.8504
  1.8507   1.8530   1.8547   1.8585   1.8653   1.8663   1.8679   1.8691
  1.8700   1.8716   1.8740   1.8751   1.8781   1.8800   1.8809   1.8825
  1.8856   1.8862   1.8875   1.8894   1.8906   1.8910   1.8928   1.8936
  1.8940   1.8963   1.8971   1.8995   1.9008   1.9020   1.9049   1.9060
  1.9068   1.9072   1.9088   1.9092   1.9105   1.9123   1.9140   1.9151
  1.9181   1.9187   1.9210   1.9221   1.9237   1.9264   1.9291   1.9302
  1.9321   1.9347   1.9363   1.9376   1.9391   1.9443   1.9448   1.9501
  1.9519   1.9570   1.9596   1.9649   1.9674   1.9702   1.9758   1.9796
  1.9823   1.9907   1.9943   2.0001   2.0097   2.0189   2.0271   2.0296
  2.0358   2.0380   2.0385   2.0440   2.0450   2.0464   2.0469   2.0515
  2.0542   2.0551   2.0576   2.0608   2.0621   2.0631   2.0646   2.0658
  2.0680   2.0690   2.0708   2.0718   2.0737   2.0745   2.0775   2.0782
  2.0796   2.0836   2.0851   2.0856   2.0877   2.0893   2.0902   2.0912
  2.0928   2.0977   2.0987   2.1009   2.1018   2.1049   2.1082   2.1103
  2.1111   2.1119   2.1185   2.1231   2.1248   2.1276   2.1283   2.1334
  2.1367   2.1387   2.1417   2.1472   2.1498   2.1531   2.1564   2.1588
  2.1666   2.1698   2.1701   2.1716   2.1758   2.1772   2.1857   2.1872
  2.1877   2.1898   2.1908   2.1921   2.1943   2.1950   2.2010   2.2022
  2.2059   2.2102   2.2136   2.2164   2.2196   2.2228   2.2241   2.2250
  2.2252   2.2275   2.2293   2.2305   2.2325   2.2328   2.2341   2.2348
  2.2356   2.2367   2.2377   2.2381   2.2403   2.2417   2.2422   2.2445
  2.2451   2.2459   2.2475   2.2483   2.2494   2.2503   2.2504   2.2519
  2.2533   2.2538   2.2541   2.2555   2.2558   2.2566   2.2570   2.2578
  2.2602   2.2610   2.2620   2.2648   2.2649   2.2671   2.2685   2.2689
  2.2694   2.2709   2.2720   2.2725   2.2733   2.2742   2.2754   2.2763
  2.2780   2.2781   2.2797   2.2808   2.2819   2.2822   2.2842   2.2848
  2.2862   2.2874   2.2887   2.2899   2.2904   2.2925   2.2931   2.2933
  2.2953   2.2971   2.2978   2.2992   2.2999   2.3029   2.3049   2.3060
  2.3063   2.3067   2.3078   2.3109   2.3117   2.3124   2.3140   2.3157
  2.3158   2.3173   2.3199   2.3205   2.3218   2.3240   2.3249   2.3270
  2.3278   2.3291   2.3343   2.3354   2.3372   2.3387   2.3402   2.3408
  2.3424   2.3439   2.3473   2.3482   2.3484   2.3504   2.3516   2.3528
  2.3539   2.3567   2.3578   2.3596   2.3615   2.3633   2.3658   2.3696
  2.3711   2.3749   2.3773   2.3798   2.3821   2.3838   2.3882   2.3918
  2.3944   2.3957   2.4024   2.4105   2.4162   2.4206   2.4267   2.4448
  2.4691   2.4864   2.4940   2.5319   2.6032   2.6782   2.7602   2.7702
  2.7953   2.8044   2.8151   2.8167   2.8178   2.8264   2.8284   2.8323
  2.8334   2.8352   2.8395   2.8396   2.8403   2.8428   2.8445   2.8496
  2.8498   2.8534   2.8542   2.8576   2.8682   2.8742   2.8771   2.8790
  2.8805   2.8835   2.8958   2.8992   2.9061   2.9477   3.0915   3.2564
  3.9301   3.9343   3.9421   3.9500   3.9515   3.9519   3.9623   3.9646
  3.9657   3.9739   3.9821   3.9861   3.9889   3.9892   3.9933   3.9938
  4.0055   4.0075   4.0104   4.0120   4.0147   4.0189   4.0264   4.0408
  4.1951   4.1987   4.2118   4.2208   4.2284   4.2309   4.2347   4.2349
  4.2443   4.2458   4.2485   4.2516   4.2540   4.2549   4.2574   4.2585
  4.2613   4.2643   4.2678   4.2737   4.2767   4.2797   4.2830   4.2845
  4.2866   4.2880   4.2931   4.2942   4.2962   4.3000   4.3036   4.3064
  4.3092   4.3108   4.3133   4.3187   4.3207   4.3227   4.3255   4.3264
  4.3282   4.3356   4.3365   4.3375   4.3418   4.3434   4.3456   4.3504
  4.3576   4.3593   4.3609   4.3651   4.3692   4.3717   4.3747   4.3771
  4.3812   4.3854   4.3888   4.3939   4.4029   4.4051   4.4140   4.4164
  4.4250   4.4294   4.4388   4.4571   4.4780   4.4896   4.5057   4.5307
  4.5366   4.5710   4.5803   4.5987   4.6435   4.6927   4.7153   4.7988
  4.8396
 --------------------------------------------------------------

          Ground-State Mulliken Net Atomic Charges

     Atom                 Charge (a.u.)
  ----------------------------------------
      1 C                    -0.376174
      2 C                    -0.514533
      3 C                    -0.286705
      4 C                    -0.477425
      5 C                    -0.331785
      6 C                    -0.377223
      7 H                     0.221218
      8 H                     0.266931
      9 H                     0.187594
     10 H                     0.201878
     11 H                     0.217228
     12 H                     0.216717
     13 H                     0.186573
     14 H                     0.200035
     15 H                     0.234155
     16 H                     0.179650
     17 H                     0.187096
     18 N                    -0.378919
     19 H                     0.505029
     20 C                     0.275363
     21 H                     0.226198
     22 O                    -0.562901
     23 C                    -0.740679
     24 H                     0.210102
     25 H                     0.255665
     26 H                     0.252198
     27 S                     0.662734
     28 C                    -0.806629
     29 H                     0.246480
     30 H                     0.265771
     31 H                     0.266208
     32 O                    -0.694851
     33 C                    -0.935515
     34 H                     0.234504
     35 H                     0.252579
     36 H                     0.277110
     37 S                     1.288078
     38 C                    -1.216456
     39 H                     0.253331
     40 H                     0.235574
     41 H                     0.302831
     42 O                    -0.719259
     43 C                    -0.873807
     44 H                     0.234827
     45 H                     0.228060
     46 H                     0.276738
     47 S                     1.012155
     48 C                    -1.035404
     49 H                     0.257991
     50 H                     0.247733
     51 H                     0.310299
     52 O                    -0.695531
     53 C                    -0.837033
     54 H                     0.232715
     55 H                     0.256100
     56 H                     0.253635
     57 S                     0.934388
     58 C                    -0.958292
     59 H                     0.256862
     60 H                     0.281301
     61 H                     0.232251
     62 O                    -0.709496
     63 C                    -1.007504
     64 H                     0.276914
     65 H                     0.248920
     66 H                     0.265105
     67 S                     1.099162
     68 C                    -0.795418
     69 H                     0.249928
     70 H                     0.261970
     71 H                     0.251782
     72 O                    -0.770958
     73 C                    -0.965781
     74 H                     0.244946
     75 H                     0.293867
     76 H                     0.251346
     77 S                     0.891995
     78 C                    -0.732154
     79 H                     0.247360
     80 H                     0.282065
     81 H                     0.243028
     82 O                    -0.684498
     83 C                    -0.772474
     84 H                     0.243617
     85 H                     0.233327
     86 H                     0.247614
     87 S                     0.985715
     88 C                    -0.889479
     89 H                     0.279929
     90 H                     0.229697
     91 H                     0.234922
     92 O                    -0.750369
     93 C                    -0.788026
     94 H                     0.316960
     95 H                     0.243348
     96 H                     0.277989
     97 S                     0.592775
     98 C                    -0.796778
     99 H                     0.251925
    100 H                     0.315317
    101 H                     0.226584
    102 O                    -0.617321
    103 C                    -1.002896
    104 H                     0.241348
    105 H                     0.271940
    106 H                     0.303062
    107 S                     1.143304
    108 C                    -1.023809
    109 H                     0.238139
    110 H                     0.254558
    111 H                     0.273270
    112 O                    -0.726775
    113 C                    -0.947590
    114 H                     0.248802
    115 H                     0.270305
    116 H                     0.244060
    117 S                     0.987663
    118 C                    -0.867989
    119 H                     0.217150
    120 H                     0.255729
    121 H                     0.300360
    122 O                    -0.728949
    123 C                    -0.932841
    124 H                     0.249879
    125 H                     0.247309
    126 H                     0.282007
    127 S                     0.574573
    128 C                    -0.600250
    129 H                     0.243807
    130 H                     0.297676
    131 H                     0.265453
    132 O                    -0.690619
    133 C                    -0.896489
    134 H                     0.277908
    135 H                     0.251698
    136 H                     0.251235
    137 S                     0.976976
    138 C                    -1.011203
    139 H                     0.254296
    140 H                     0.250756
    141 H                     0.251909
    142 O                    -0.636306
    143 C                    -0.791425
    144 H                     0.235145
    145 H                     0.285695
    146 H                     0.233745
    147 S                     0.922041
    148 C                    -0.924140
    149 H                     0.250878
    150 H                     0.232096
    151 H                     0.261818
    152 O                    -0.698591
    153 C                    -0.874678
    154 H                     0.250554
    155 H                     0.246017
    156 H                     0.283476
    157 S                     0.873344
    158 C                    -0.852317
    159 H                     0.225193
    160 H                     0.263612
    161 H                     0.265413
    162 O                    -0.681307
    163 C                    -0.796660
    164 H                     0.243022
    165 H                     0.253522
    166 H                     0.261239
    167 S                     1.023739
    168 C                    -0.951957
    169 H                     0.243618
    170 H                     0.252876
    171 H                     0.275518
    172 O                    -0.758646
    173 C                    -0.803191
    174 H                     0.230856
    175 H                     0.230958
    176 H                     0.277362
    177 S                     0.744434
    178 C                    -0.738602
    179 H                     0.308909
    180 H                     0.232981
    181 H                     0.228408
    182 O                    -0.709464
    183 C                    -1.012255
    184 H                     0.285540
    185 H                     0.228751
    186 H                     0.300747
    187 S                     0.929937
    188 C                    -0.788662
    189 H                     0.245955
    190 H                     0.278073
    191 H                     0.229763
    192 O                    -0.708991
    193 C                    -0.931258
    194 H                     0.240631
    195 H                     0.250934
    196 H                     0.300742
    197 S                     0.945434
    198 C                    -0.892850
    199 H                     0.265983
    200 H                     0.289829
    201 H                     0.246279
    202 O                    -0.709027
    203 C                    -0.639908
    204 H                     0.279702
    205 H                     0.244971
    206 H                     0.247429
    207 S                     0.711796
    208 C                    -0.882751
    209 H                     0.259656
    210 H                     0.220882
    211 H                     0.282193
    212 O                    -0.724430
    213 C                    -1.015722
    214 H                     0.259303
    215 H                     0.239407
    216 H                     0.265639
    217 S                     1.277542
    218 C                    -0.980991
    219 H                     0.271187
    220 H                     0.289156
    221 H                     0.275544
    222 O                    -0.796055
    223 C                    -1.303900
    224 H                     0.287475
    225 H                     0.260368
    226 H                     0.258276
    227 S                     1.204514
    228 C                    -0.908086
    229 H                     0.266592
    230 H                     0.269338
    231 H                     0.248674
    232 O                    -0.637260
    233 C                    -0.950244
    234 H                     0.234818
    235 H                     0.284454
    236 H                     0.283699
    237 S                     0.952548
    238 C                    -0.867788
    239 H                     0.246748
    240 H                     0.250354
    241 H                     0.276954
    242 O                    -0.713934
    243 C                    -0.932397
    244 H                     0.256637
    245 H                     0.247073
    246 H                     0.249308
    247 S                     0.946105
    248 C                    -0.783258
    249 H                     0.252123
    250 H                     0.266060
    251 H                     0.244332
    252 O                    -0.703469
    253 C                    -0.899527
    254 H                     0.267072
    255 H                     0.221545
    256 H                     0.261392
    257 S                     1.030784
    258 C                    -0.888510
    259 H                     0.253735
    260 H                     0.252061
    261 H                     0.231156
    262 O                    -0.723495
  ----------------------------------------
  Sum of atomic charges =     0.000000

 -----------------------------------------------------------------
                    Cartesian Multipole Moments
 -----------------------------------------------------------------
    Charge (ESU x 10^10)
                -0.0000
    Dipole Moment (Debye)
         X     -17.9286      Y      -6.3184      Z     -18.6157
       Tot      26.6064
    Quadrupole Moments (Debye-Ang)
        XX   -1703.9792     XY    -541.5213     YY   -1031.0878
        XZ    -989.2712     YZ    -399.7095     ZZ   -1895.6339
    Octopole Moments (Debye-Ang^2)
       XXX  -90029.3957    XXY  -35704.8486    XYY  -31555.0605
       YYY  -43580.9729    XXZ  -60986.0187    XYZ  -21145.9849
       YYZ  -31819.2231    XZZ  -62129.3302    YZZ  -30954.4131
       ZZZ -117776.8472
    Hexadecapole Moments (Debye-Ang^3)
      XXXX ************   XXXY ************   XXYY ************
      XYYY ************   YYYY ************   XXXZ ************
      XXYZ ************   XYYZ -962566.6474   YYYZ ************
      XXZZ ************   XYZZ ************   YYZZ ************
      XZZZ ************   YZZZ ************   ZZZZ ************
 -----------------------------------------------------------------
 Total job time:  27417.61s(wall), 219606.86s(cpu) 
 Thu Jul 21 16:20:26 2022

        *************************************************************
        *                                                           *
        *  Thank you very much for using Q-Chem.  Have a nice day.  *
        *                                                           *
        *************************************************************


 
User input: 2 of 2 
 
                  Welcome to Q-Chem
     A Quantum Leap Into The Future Of Chemistry


 Q-Chem 6.0 (devel), Q-Chem, Inc., Pleasanton, CA (2022)

 E. Epifanovsky,  A. T. B. Gilbert,  Xintian Feng,  Joonho Lee,  Yuezhi Mao,  
 N. Mardirossian,  P. Pokhilko,  A. White,  M. Wormit,  M. P. Coons,  
 A. L. Dempwolff,  Zhengting Gan,  D. Hait,  P. R. Horn,  L. D. Jacobson,  
 I. Kaliman,  J. Kussmann,  A. W. Lange,  Ka Un Lao,  D. S. Levine,  Jie Liu,  
 S. C. McKenzie,  A. F. Morrison,  K. Nanda,  F. Plasser,  D. R. Rehn,  
 M. L. Vidal,  Zhi-Qiang You,  Ying Zhu,  B. Alam,  B. Albrecht,  
 A. Aldossary,  E. Alguire,  J. H. Andersen,  V. Athavale,  D. Barton,  
 K. Begam,  A. Behn,  N. Bellonzi,  Y. A. Bernard,  E. J. Berquist,  
 H. Burton,  A. Carreras,  K. Carter-Fenk,  Romit Chakraborty,  
 Chandrima Chakravarty,  Junhan Chen,  A. D. Chien,  K. D. Closser,  
 V. Cofer-Shabica,  L. Cunha,  S. Dasgupta,  Jia Deng,  M. de Wergifosse,  
 M. Diedenhofen,  Hainam Do,  S. Ehlert,  Po-Tung Fang,  S. Fatehi,  
 Qingguo Feng,  T. Friedhoff,  B. Ganoe,  J. Gayvert,  Qinghui Ge,  
 G. Gidofalvi,  M. Goldey,  J. Gomes,  C. Gonzalez-Espinoza,  S. Gulania,  
 A. Gunina,  J. A. Gyamfi,  M. W. D. Hanson-Heine,  P. H. P. Harbach,  
 A. W. Hauser,  M. F. Herbst,  M. Hernandez Vera,  M. Hodecker,  
 Z. C. Holden,  S. Houck,  Xunkun Huang,  Kerwin Hui,  B. C. Huynh,  
 K. Ikeda,  M. Ivanov,  Hyunjun Ji,  Zuxin Jin,  Hanjie Jiang,  B. Kaduk,  
 S. Kaehler,  R. Kang,  K. Khistyaev,  Jaehoon Kim,  Yongbin Kim,  
 P. Klunzinger,  Z. Koczor-Benda,  Joong Hoon Koh,  D. Kosenkov,  
 Saikiran Kotaru,  L. Koulias,  T. Kowalczyk,  C. M. Krauter,  K. Kue,  
 A. Kunitsa,  T. Kus,  A. Landau,  K. V. Lawler,  D. Lefrancois,  S. Lehtola,  
 Rain Li,  Shaozhi Li,  Yi-Pei Li,  Jiashu Liang,  M. Liebenthal,  
 Hung-Hsuan Lin,  You-Sheng Lin,  Fenglai Liu,  Kuan-Yu Liu,  
 M. Loipersberger,  A. Luenser,  C. Malbon,  A. Manjanath,  P. Manohar,  
 E. Mansoor,  S. F. Manzer,  Shan-Ping Mao,  A. V. Marenich,  T. Markovich,  
 S. Mason,  F. Matz,  S. A. Maurer,  P. F. McLaughlin,  M. F. S. J. Menger,  
 J.-M. Mewes,  S. A. Mewes,  P. Morgante,  Mohammad Mostafanejad,  
 J. W. Mullinax,  K. J. Oosterbaan,  G. Paran,  V. Parravicini,  
 Alexander C. Paul,  Suranjan K. Paul,  F. Pavosevic,  Zheng Pei,  S. Prager,  
 E. I. Proynov,  E. Ramos,  B. Rana,  A. E. Rask,  A. Rettig,  R. M. Richard,  
 F. Rob,  E. Rossomme,  T. Scheele,  M. Scheurer,  M. Schneider,  
 P. E. Schneider,  N. Sergueev,  S. M. Sharada,  Hengyuan Shen,  
 W. Skomorowski,  D. W. Small,  C. J. Stein,  Yingli Su,  Yu-Chuan Su,  
 E. J. Sundstrom,  Zhen Tao,  J. Thirman,  Hung-Yi Tsai,  T. Tsuchimochi,  
 N. M. Tubman,  C. Utku,  S. P. Veccham,  O. Vydrov,  J. Wenzel,  
 Jonathan Wong,  J. Witte,  A. Yamada,  Chou-Hsun Yang,  Kun Yao,  
 S. Yeganeh,  S. R. Yost,  A. Zech,  F. Zeller,  Igor Ying Zhang,  
 Xing Zhang,  Yu Zhang,  D. Zuev,  A. Aspuru-Guzik,  A. T. Bell,  
 N. A. Besley,  K. B. Bravaya,  B. R. Brooks,  D. Casanova,  Jeng-Da Chai,  
 Hsing-Ta Chen,  S. Coriani,  C. J. Cramer,  A. E. DePrince, III,  
 R. A. DiStasio Jr.,  A. Dreuw,  B. D. Dunietz,  T. R. Furlani,  
 W. A. Goddard III,  S. Grimme,  S. Hammes-Schiffer,  T. Head-Gordon,  
 W. J. Hehre,  Chao-Ping Hsu,  T.-C. Jagau,  Yousung Jung,  A. Klamt,  
 Jing Kong,  D. S. Lambrecht,  Xiangyuan Li,  WanZhen Liang,  N. J. Mayhall,  
 C. W. McCurdy,  J. B. Neaton,  T. Neudecker,  C. Ochsenfeld,  
 J. A. Parkhill,  R. Peverati,  V. A. Rassolov,  Haisheng Ren,  Yihan Shao,  
 L. V. Slipchenko,  R. P. Steele,  J. E. Subotnik,  A. J. W. Thom,  
 A. Tkatchenko,  D. G. Truhlar,  T. Van Voorhis,  Fan Wang,  
 T. A. Wesolowski,  K. B. Whaley,  H. L. Woodcock III,  P. M. Zimmerman,  
 S. Faraji,  P. M. W. Gill,  M. Head-Gordon,  J. M. Herbert,  A. I. Krylov

 Contributors to earlier versions of Q-Chem not listed above: 
 R. D. Adamson,  B. Austin,  R. Baer,  J. Baker,  G. J. O. Beran,  
 K. Brandhorst,  S. T. Brown,  E. F. C. Byrd,  Arup K. Chakraborty,  
 G. K. L. Chan,  Chun-Min Chang,  Yunqing Chen,  C.-L. Cheng,  
 Siu Hung Chien,  D. M. Chipman,  D. L. Crittenden,  H. Dachsel,  
 R. J. Doerksen,  A. D. Dutoi,  R. G. Edgar,  J. Fosso-Tande,  
 L. Fusti-Molnar,  D. Ghosh,  A. Ghysels,  A. Golubeva-Zadorozhnaya,  
 J. Gonthier,  M. S. Gordon,  S. R. Gwaltney,  G. Hawkins,  J. E. Herr,  
 A. Heyden,  S. Hirata,  E. G. Hohenstein,  G. Kedziora,  F. J. Keil,  
 C. Kelley,  Jihan Kim,  R. A. King,  R. Z. Khaliullin,  P. P. Korambath,  
 W. Kurlancheek,  A. Laurent,  A. M. Lee,  M. S. Lee,  S. V. Levchenko,  
 Ching Yeh Lin,  D. Liotard,  E. Livshits,  R. C. Lochan,  I. Lotan,  
 L. A. Martinez-Martinez,  P. E. Maslen,  N. Nair,  D. P. O'Neill,  
 D. Neuhauser,  E. Neuscamman,  C. M. Oana,  R. Olivares-Amaya,  R. Olson,  
 T. M. Perrine,  B. Peters,  P. A. Pieniazek,  A. Prociuk,  Y. M. Rhee,  
 J. Ritchie,  M. A. Rohrdanz,  E. Rosta,  N. J. Russ,  H. F. Schaefer III,  
 M. W. Schmidt,  N. E. Schultz,  S. Sharma,  N. Shenvi,  C. D. Sherrill,  
 A. C. Simmonett,  A. Sodt,  T. Stein,  D. Stuck,  K. S. Thanthiriwatte,  
 V. Vanovschi,  L. Vogt,  Tao Wang,  A. Warshel,  M. A. Watson,  
 C. F. Williams,  Q. Wu,  X. Xu,  Jun Yang,  W. Zhang,  Yan Zhao

   Please cite Q-Chem as follows:
  "Software for the frontiers of quantum chemistry:
   An overview of developments in the Q-Chem 5 package"
   J. Chem. Phys. 155, 084801 (2021)
   https://doi.org/10.1063/5.0055522 (open access)

 Q-Chem 6.0.0 for Intel X86 EM64T Linux

 Parts of Q-Chem use Armadillo 9.900.5 (Nocturnal Misbehaviour).
 http://arma.sourceforge.net/

 Q-Chem begins on Thu Jul 21 16:20:27 2022  

 Host: nid00525
0

     Scratch files written to /global/cscratch1/sd/ymao90/r7.00_frame_0018_almo_B3LYP_dp20220721031459//
 Processing $rem in /global/homes/y/ymao90/my_qchem/qchem_embedding_5p4/config/preferences:
 Processing $rem in /global/homes/y/ymao90/.qchemrc:

 Checking the input file for inconsistencies... 	...done.

--------------------------------------------------------------
User input:
--------------------------------------------------------------

$molecule
0 1
@C    22.11800   16.35000   27.92600  
@C    23.47000   15.62000   27.97400  
@C    24.36300   15.98900   29.17100  
@C    23.55400   15.93800   30.47700  
@C    22.23100   16.71900   30.41700  
@C    21.30700   16.39500   29.23200  
@H    25.19900   15.28600   29.27600  
@H    23.29200   14.55100   28.14700  
@H    22.26200   17.38900   27.60500  
@H    21.46800   15.91700   27.15700  
@H    23.17000   14.91800   30.60700  
@H    24.16500   16.29300   31.31600  
@H    21.63600   16.54100   31.32100  
@H    22.45900   17.79200   30.44500  
@H    20.83300   15.42800   29.44100  
@H    20.52700   17.15700   29.11400  
@H    24.74900   17.00800   29.04600  
@N    24.23500   15.85500   26.75100  
@H    24.49800   16.80400   26.51300  
@C    24.49200   14.86500   25.82700  
@H    25.05400   15.18100   24.92900  
@O    24.08700   13.71900   25.91500  
C    21.46200   20.90900   29.65500  
H    20.54900   20.59900   29.13900  
H    22.10100   20.05700   29.90100  
H    21.31900   21.59500   30.49300  
S    22.59000   21.67500   28.46900  
C    22.77600   20.18900   27.45800  
H    23.03700   19.30100   28.04000  
H    21.80800   19.94200   27.01500  
H    23.37500   20.42700   26.57500  
O    23.86100   21.79900   29.25200  
C    17.87800   21.59600   25.55600  
[...]
          145         146         147         148         149         150
    1   3.7185369   0.9657326   1.8661798   3.3471407   3.4745379   3.0379412
    2   1.6447684   0.3217192  -1.6366198  -0.7565642   1.4478794  -2.0063356
    3  -0.1437598  -0.2251786  -0.4182652  -0.5004394  -0.4710212   0.9920394
          151         152         153         154         155         156
    1   3.0921144   1.6019656  -0.8711314  -0.7949752  -0.5102468  -1.0088045
    2  -1.4756072   0.5238019  -1.3496359  -0.5594210  -3.5147189  -0.1887551
    3  -2.2381113  -3.3780871   0.9376881  -0.7693101   1.4310309   2.0531651
          157         158         159         160         161         162
    1   0.7990636   1.4686798   0.2025000   3.2021219   0.9054468   1.3791559
    2  -0.4526215  -2.6490505  -2.3681145  -1.7729926  -3.6895880  -1.1841877
    3   0.9090781   0.8977744  -0.3221348   0.9517655   2.3807732   4.0377055
          163         164         165         166         167         168
    1  -0.4960256  -0.1864436  -1.9326504   0.4516901  -1.8318196  -0.1910220
    2   1.8197266   3.2708002   2.5321989   0.4697273  -0.0720234   0.1263856
    3   2.0979122   0.4311124   3.1978925   1.9726079   1.6748522  -0.1231001
          169         170         171         172         173         174
    1  -1.8144114   0.1821521   0.8978797  -2.9896925  -1.6969808  -2.3460941
    2  -0.7114823   2.1276740  -0.8310951   2.7023381   0.6404521  -1.0906644
    3  -0.7848236  -0.5237252   0.7074729   0.6099010  -1.9724081  -2.6303321
          175         176         177         178         179         180
    1  -1.0161549  -1.5902018  -0.2314870   0.3805896   2.0844669  -0.7404762
    2   0.8172353   2.3909720  -0.3417400  -0.8114571  -0.2733580   0.2817399
    3  -0.1633791  -2.9234826  -3.0471312  -1.2428545  -1.9301991   0.1677198
          181         182         183         184         185         186
    1  -0.5158348   1.4240183   0.9693387   0.5899046   1.5553639   0.7637184
    2  -2.2419982   2.5707207   0.1897189   0.8592506   1.1823487  -1.6306916
    3  -2.3827382  -2.3997245   1.7844472   0.2761449   3.6039343   2.1313983
          187         188         189         190         191         192
    1  -0.6841024  -0.7584844  -2.6386561  -0.4568757   0.7549073  -2.6560502
    2   1.4349135  -0.6488653   0.1273760  -2.1511510   0.5052079  -0.4143094
    3   2.5174835   3.4346000   3.4103288   2.5061624   4.0882919   0.5497866
          193         194         195         196         197         198
    1  -2.0160909   0.0363555  -2.7747344  -3.1285810  -2.7736899  -1.7788218
    2  -1.5636303  -1.2270539  -3.0636949  -0.0433536  -0.7321694   0.9559300
    3  -1.8101549  -1.7452987  -1.3217458  -2.2954582  -0.1753038  -0.7238130
          199         200         201         202         203         204
    1  -0.0395146  -3.8148310  -0.6100952   0.5215587   1.7682575   3.7195838
    2   0.6011630   0.7315159   1.2803830  -0.8616158  -0.0571171   0.5658072
    3  -1.7511577  -1.2296557   0.9423607   0.7210813   0.6841482   1.3659072
          205         206         207         208         209         210
    1   1.1331957   0.4473170   1.6480921  -0.4565759  -0.1560422  -0.4848075
    2  -1.5386201   1.2801596   0.0567653   0.0927594  -1.5959131   1.3471604
    3   1.5378113  -0.3197944   2.6775892   2.0743526   2.2388630   3.6911621
          211         212         213         214         215         216
    1  -0.3896700   1.5177369  -1.2006989  -0.8759144  -1.0335377  -1.7183295
    2   0.9590960   3.2992140   1.1199992   2.0622901  -1.0528935   1.5604645
    3   0.0933653   1.5866938  -1.8411165  -3.4604926  -1.1355401  -0.5209101
          217         218         219         220         221         222
    1   0.7059111   1.2492921   0.0458703   0.8159678   2.8144262   0.3479287
    2   2.4565030   0.6868589  -0.9636799   1.8853550   1.1305144   0.3082093
    3  -1.6817018  -2.4458157  -1.3605534  -3.7164442  -2.0274768   1.0942182
          223         224         225         226         227         228
    1   1.3107088  -0.2138282   2.6816940   1.9068603   1.2434105   1.4738175
    2   2.6225695   1.3670914   2.5997684   3.5032222   0.6900475  -0.0801635
    3  -0.5788520   0.0147769   1.0463550  -2.0761899  -1.1945105   0.8506422
          229         230         231         232         233         234
    1   3.1319104  -0.6508291   1.8489761   4.2692136  -1.0196363  -2.7472002
    2   1.1041186   0.6522111  -1.7568318   1.5102810  -0.2688030  -1.5929186
    3   1.5024704   0.6896504   0.0668175  -1.0186394  -1.0503916  -1.3346222
          235         236         237         238         239         240
    1  -0.5122590   0.3816722  -0.7820146  -1.6990206  -2.9596079  -1.2203857
    2   1.4349962  -0.3280195  -2.4459820  -1.6040540  -2.0440522  -3.3718571
    3  -0.0163996  -1.7179644  -0.1161860   1.1858420  -0.3962947   2.0208292
          241         242         243         244         245         246
    1  -0.7199740   1.2239913  -0.9052546   0.0857062  -0.1096839  -2.8238890
    2   0.4284700  -0.3970295  -0.0670350   1.1715140  -1.3300305  -0.2548624
    3   1.6361057   1.4645403  -2.3035052  -0.9758044  -3.2659847  -2.4021334
          247         248         249         250         251         252
    1  -0.8586867   0.8221996   0.6478602   0.1467414   1.1858093  -2.7032966
    2  -0.8721253  -1.9878592  -2.3911814  -3.6142895   0.0419186  -3.2631718
    3  -0.2889698  -0.5264097   1.0582724  -1.4214033  -1.1274167  -1.3865761
          253         254         255         256         257         258
    1  -1.8455780  -2.3271861   0.0739131  -2.6387313  -0.7741352  -0.5910788
    2   0.0408492   1.6967492   0.0331605  -1.8361668   0.7890168  -1.3743705
    3  -3.1141383  -3.1663878  -3.4668810  -2.5821344  -1.7785296  -1.1652630
          259         260         261         262
    1  -1.0139445  -1.8778989   0.9622644  -3.6034409
    2  -1.3324279  -2.4046713  -0.1969461   0.1759232
    3   0.4030083  -2.5397770  -1.5793854  -0.3278556
 EField
            1           2           3           4           5           6
    1   0.0047603   0.0037062   0.0011273   0.0001117   0.0039325   0.0004756
    2  -0.0002722   0.0026456   0.0011131   0.0004295  -0.0006663  -0.0047209
    3   0.0025771   0.0012710  -0.0003721   0.0008038   0.0033391   0.0015414
            7           8           9          10          11          12
    1   0.0030224   0.0013924   0.0085504   0.0036759  -0.0022945  -0.0012753
    2   0.0065289  -0.0016376  -0.0026444   0.0014734  -0.0038573   0.0028391
    3   0.0010522   0.0084898  -0.0018588   0.0064336  -0.0037803   0.0021380
           13          14          15          16          17          18
    1   0.0081208   0.0048638  -0.0073039   0.0023400   0.0017946   0.0060280
    2   0.0015504  -0.0023303  -0.0036257  -0.0076970  -0.0013657   0.0131981
    3   0.0021266   0.0100011  -0.0010815   0.0012900  -0.0024971  -0.0031435
           19          20          21          22          23          24
    1   0.0071702   0.0095294   0.0251211   0.0060127   0.0008975  -0.0270341
    2   0.0304996   0.0117922   0.0033708   0.0131559  -0.0053180  -0.0087731
    3  -0.0182074  -0.0005774  -0.0100263   0.0058842   0.0023938  -0.0090119
           25          26          27          28          29          30
    1   0.0066872  -0.0071744  -0.0240865   0.0007439   0.0264354  -0.0290669
    2  -0.0316828   0.0156395   0.0437547  -0.0095216  -0.0274174  -0.0016936
    3   0.0256942   0.0234738  -0.0329840  -0.0080914   0.0122225  -0.0163387
           31          32          33          34          35          36
    1   0.0290899   0.0939713  -0.0071251   0.0013036   0.0010293  -0.0276181
    2  -0.0034969   0.0123823   0.0054931  -0.0019527   0.0290407  -0.0150166
    3  -0.0156576   0.0540330   0.0069204   0.0303714  -0.0184726  -0.0007476
           37          38          39          40          41          42
    1  -0.0062173  -0.0052561   0.0246779   0.0021629  -0.0308094   0.0912426
    2  -0.0197707  -0.0067399  -0.0197163   0.0181052  -0.0162921   0.0512675
    3  -0.0457131   0.0054584  -0.0059982   0.0223582   0.0093104   0.0369730
           43          44          45          46          47          48
    1   0.0035575   0.0290194  -0.0103421  -0.0000264  -0.0132915  -0.0038725
    2   0.0053734  -0.0126380  -0.0005361   0.0321882  -0.0555366   0.0126206
    3  -0.0029989   0.0037083  -0.0288202   0.0061206  -0.0178070  -0.0021066
           49          50          51          52          53          54
    1  -0.0095826  -0.0263487   0.0053085   0.0316428   0.0018119   0.0349448
    2   0.0080637  -0.0152421   0.0330604   0.0217591  -0.0008548  -0.0025578
    3  -0.0279824   0.0102879   0.0035685   0.1026366   0.0061766  -0.0010287
           55          56          57          58          59          60
    1  -0.0099678  -0.0144915   0.0163082   0.0023974   0.0037677  -0.0250005
    2   0.0199266  -0.0202766  -0.0383615   0.0034743   0.0074144   0.0110759
    3   0.0249197   0.0238156  -0.0341766   0.0000498  -0.0313916   0.0128414
           61          62          63          64          65          66
    1   0.0321062  -0.1078337  -0.0115600   0.0062906  -0.0256648   0.0031062
    2   0.0100774   0.0201701  -0.0039662   0.0077816   0.0149268  -0.0333528
    3   0.0079799   0.0198399   0.0015261   0.0300214  -0.0144113  -0.0091330
           67          68          69          70          71          72
    1   0.0079027  -0.0024241   0.0006274   0.0152630  -0.0296375   0.0648900
    2   0.0511691  -0.0054394   0.0194735  -0.0215508  -0.0167896  -0.0810427
    3   0.0051428  -0.0074974  -0.0237490  -0.0043834  -0.0106844   0.0340692
           73          74          75          76          77          78
    1  -0.0000562  -0.0032115  -0.0309478   0.0286102  -0.0427467  -0.0035726
    2  -0.0089903  -0.0186700   0.0014180  -0.0004343   0.0157171   0.0057769
    3  -0.0078598   0.0277642  -0.0173974  -0.0187190   0.0320589  -0.0072652
           79          80          81          82          83          84
    1  -0.0312189  -0.0083892   0.0237455   0.1054805   0.0023900   0.0014043
    2   0.0063582   0.0307255  -0.0137622   0.0149179   0.0039516  -0.0218104
    3  -0.0229845   0.0061149  -0.0171362   0.0297201  -0.0056010  -0.0305477
           85          86          87          88          89          90
    1   0.0001501   0.0319164   0.0033331  -0.0087615  -0.0204294   0.0014354
    2   0.0342763   0.0092306  -0.0490934  -0.0017473  -0.0061559   0.0297641
    3   0.0013929  -0.0136256  -0.0011846  -0.0000411   0.0219741  -0.0095942
           91          92          93          94          95          96
    1  -0.0337838   0.0281260   0.0102350  -0.0043905  -0.0093803   0.0294819
    2  -0.0231525   0.0673603   0.0051694  -0.0103404   0.0307250   0.0040095
    3  -0.0174965   0.0798253  -0.0075236  -0.0352782   0.0087225   0.0206122
           97          98          99         100         101         102
    1  -0.0531866   0.0058312  -0.0066694   0.0321834  -0.0034135   0.0401521
    2   0.0099445   0.0049411  -0.0282670  -0.0094477   0.0340217  -0.1012376
    3   0.0006534   0.0086500   0.0084917  -0.0010932   0.0231182  -0.0207590
          103         104         105         106         107         108
    1   0.0026911  -0.0227303   0.0098843   0.0319152   0.0001961  -0.0078244
    2   0.0096594   0.0170694   0.0068383  -0.0012565  -0.0186724   0.0034352
    3   0.0010534  -0.0222052   0.0339091  -0.0074961  -0.0526038   0.0076134
          109         110         111         112         113         114
    1  -0.0214618  -0.0151348   0.0171450   0.0519932  -0.0063703  -0.0255901
    2   0.0189177  -0.0274177   0.0011656  -0.0500729   0.0023246  -0.0072257
    3  -0.0250606  -0.0074331   0.0351807   0.0826639   0.0044843  -0.0139675
          115         116         117         118         119         120
    1  -0.0196618   0.0037926   0.0049952   0.0033155   0.0339858  -0.0068416
    2  -0.0089920   0.0294933  -0.0397836   0.0056485  -0.0010703   0.0276318
    3   0.0342740  -0.0182531   0.0334084   0.0012001   0.0046605  -0.0148135
          121         122         123         124         125         126
    1   0.0017960  -0.0006409   0.0020804   0.0253367  -0.0294723   0.0314582
    2   0.0104163  -0.0026776   0.0015739  -0.0249216  -0.0089806   0.0141452
    3   0.0310803  -0.1085227  -0.0092500  -0.0181836  -0.0084007  -0.0157293
          127         128         129         130         131         132
    1   0.0501884  -0.0026219   0.0201713  -0.0117641  -0.0159085  -0.0750472
    2   0.0014394  -0.0036207  -0.0299172   0.0089999  -0.0141982   0.0894863
    3   0.0242063  -0.0013997  -0.0004668   0.0176098  -0.0219526   0.0037483
          133         134         135         136         137         138
    1  -0.0048967  -0.0311475  -0.0298114   0.0268862  -0.0366302   0.0066434
    2  -0.0005293   0.0112905  -0.0206498  -0.0070572   0.0229093  -0.0063071
    3   0.0088341   0.0192063   0.0042538   0.0153577  -0.0292847  -0.0005818
          139         140         141         142         143         144
    1   0.0243680   0.0152083  -0.0131855   0.0794054   0.0008120  -0.0008398
    2   0.0127719  -0.0104702  -0.0141904   0.0613594   0.0126106  -0.0167256
    3  -0.0171195   0.0331716  -0.0249093   0.0487724   0.0059219   0.0328083
          145         146         147         148         149         150
    1   0.0090807  -0.0197401  -0.0243514   0.0083594   0.0165752   0.0123316
    2   0.0345049   0.0132080  -0.0468955   0.0014925   0.0277658  -0.0110286
    3  -0.0141149  -0.0072388   0.0130448  -0.0010383   0.0039159   0.0335676
          151         152         153         154         155         156
    1   0.0034068  -0.0200003  -0.0102247  -0.0133810  -0.0010021  -0.0124279
    2  -0.0068096   0.0529440  -0.0011986   0.0077915  -0.0316153   0.0171125
    3  -0.0346920  -0.0956437   0.0022315  -0.0321113   0.0077637   0.0243941
          157         158         159         160         161         162
    1   0.0123823   0.0036447  -0.0172305   0.0335276  -0.0030831   0.0218091
    2   0.0464119  -0.0047603  -0.0101741   0.0012249  -0.0226876  -0.0070995
    3  -0.0306977  -0.0019088  -0.0211528   0.0001714   0.0209812   0.1083907
          163         164         165         166         167         168
    1   0.0078682   0.0051587  -0.0092476   0.0183232  -0.0181355   0.0049905
    2   0.0073881   0.0277209   0.0129301  -0.0257262  -0.0454703  -0.0015970
    3   0.0037998  -0.0178260   0.0269911   0.0145477   0.0267917  -0.0068276
          169         170         171         172         173         174
    1  -0.0111535   0.0087815   0.0261891  -0.0573604  -0.0058023  -0.0205410
    2  -0.0154989   0.0277765  -0.0189954   0.0839192   0.0038661  -0.0246100
    3  -0.0276797  -0.0105035   0.0121231  -0.0379301   0.0031610  -0.0095405
          175         176         177         178         179         180
    1   0.0053298   0.0004426   0.0019685   0.0055009   0.0304019  -0.0031406
    2   0.0093024   0.0282146  -0.0281727  -0.0010054   0.0097596   0.0053402
    3   0.0313522  -0.0177116  -0.0468028   0.0052517   0.0055030   0.0318045
          181         182         183         184         185         186
    1  -0.0085680   0.0596985   0.0076993   0.0061871   0.0349919   0.0073171
    2  -0.0373351   0.0939008  -0.0056457   0.0113563   0.0086322  -0.0330654
    3   0.0091793   0.0075032  -0.0015000  -0.0282877   0.0169979  -0.0027942
          187         188         189         190         191         192
    1  -0.0009481  -0.0004173  -0.0315048   0.0019806   0.0253258  -0.0697914
    2   0.0493155  -0.0041301  -0.0090912  -0.0287328  -0.0008808  -0.0459912
    3   0.0149680   0.0047474   0.0130405  -0.0059671   0.0273634  -0.0717813
          193         194         195         196         197         198
    1  -0.0012273   0.0305020  -0.0129565  -0.0181472  -0.0488507   0.0018701
    2  -0.0003863  -0.0020681  -0.0281357   0.0167492  -0.0091656   0.0099753
    3  -0.0096004   0.0039358  -0.0012481  -0.0268323   0.0233670  -0.0029095
          199         200         201         202         203         204
    1   0.0141170  -0.0223840   0.0047371   0.0984695   0.0042341   0.0315989
    2   0.0034391   0.0202872   0.0173827  -0.0207385  -0.0026866  -0.0063195
    3  -0.0289209  -0.0140882   0.0277630   0.0464029  -0.0052808  -0.0220215
          205         206         207         208         209         210
    1  -0.0005476  -0.0080524   0.0233629  -0.0046170  -0.0078971  -0.0188633
    2  -0.0306202   0.0152408  -0.0288301  -0.0003706  -0.0316420   0.0119154
    3  -0.0050929  -0.0270210   0.0400465  -0.0038120   0.0057875   0.0199757
          211         212         213         214         215         216
    1  -0.0173779   0.0060778  -0.0074668  -0.0059053   0.0124284  -0.0140291
    2   0.0148218   0.1082448  -0.0027210   0.0103416  -0.0337839   0.0269194
    3  -0.0253780  -0.0171730   0.0013719  -0.0278549   0.0037484   0.0202237
          217         218         219         220         221         222
    1   0.0141201   0.0057964  -0.0087184  -0.0067078   0.0291017  -0.0016557
    2   0.0473147  -0.0107100  -0.0308163  -0.0020110  -0.0026555  -0.0587006
    3  -0.0117895  -0.0033315   0.0100215  -0.0329281   0.0054098   0.1097566
          223         224         225         226         227         228
    1  -0.0075718  -0.0420040   0.0159783   0.0037422  -0.0332579  -0.0017732
    2   0.0030441   0.0084435   0.0138937   0.0149423  -0.0256382   0.0016632
    3   0.0085800   0.0053832   0.0229826  -0.0248729  -0.0439307   0.0053640
          229         230         231         232         233         234
    1   0.0200207  -0.0322099   0.0036168   0.1064528  -0.0043800  -0.0323547
    2   0.0079316   0.0008780  -0.0250026   0.0212572   0.0090695  -0.0053245
    3   0.0220470   0.0172901   0.0080776  -0.0117137  -0.0029892  -0.0102532
          235         236         237         238         239         240
    1  -0.0069874   0.0105890  -0.0041803  -0.0081104  -0.0300377  -0.0006067
    2   0.0324064  -0.0029476  -0.0482646   0.0024336   0.0061204  -0.0158287
    3   0.0285741  -0.0166748  -0.0150366   0.0062188  -0.0135194   0.0311507
          241         242         243         244         245         246
    1   0.0092385   0.0812453  -0.0011672   0.0170611   0.0138660  -0.0314738
    2   0.0279478   0.0514186   0.0012372   0.0280212  -0.0081908   0.0007202
    3   0.0120753   0.0578261  -0.0079222  -0.0040685  -0.0300458  -0.0113479
          247         248         249         250         251         252
    1  -0.0155240   0.0057695   0.0046027   0.0101451   0.0366236  -0.0738028
    2   0.0288766  -0.0110158  -0.0072926  -0.0204997   0.0020600  -0.0814974
    3   0.0495834  -0.0059110   0.0317697  -0.0320296  -0.0179125  -0.0278165
          253         254         255         256         257         258
    1  -0.0018259  -0.0208329   0.0265614  -0.0222169   0.0354021   0.0018652
    2  -0.0028767   0.0257918  -0.0062086  -0.0240509   0.0449473  -0.0048022
    3  -0.0077902  -0.0045961  -0.0260077  -0.0015357   0.0055521   0.0002743
          259         260         261         262
    1  -0.0036967  -0.0103617   0.0353075  -0.0914117
    2  -0.0001724  -0.0265429  -0.0073553  -0.0015020
    3   0.0255273  -0.0151026  -0.0017619   0.0626719
  --- DONE ESP SUMMARY ---
 Total job time:  23.96s(wall), 62.50s(cpu) 
 Thu Jul 21 16:20:50 2022

        *************************************************************
        *                                                           *
        *  Thank you very much for using Q-Chem.  Have a nice day.  *
        *                                                           *
        *************************************************************


