                  Welcome to Q-Chem
     A Quantum Leap Into The Future Of Chemistry


 Q-Chem 5.2 (devel), Q-Chem, Inc., Pleasanton, CA (2019)

 Yihan Shao,  Zhengting Gan,  E. Epifanovsky,  A. T. B. Gilbert,  M. Wormit,  
 J. Kussmann,  A. W. Lange,  A. Behn,  Jia Deng,  Xintian Feng,  D. Ghosh,  
 M. Goldey,  P. R. Horn,  L. D. Jacobson,  I. Kaliman,  T. Kus,  A. Landau,  
 Jie Liu,  E. I. Proynov,  R. M. Richard,  R. P. Steele,  E. J. Sundstrom,  
 H. L. Woodcock III,  P. M. Zimmerman,  D. Zuev,  B. Alam,  B. Albrecht,  
 E. Alguire,  S. A. Baeppler,  D. Barton,  Z. Benda,  Y. A. Bernard,  
 E. J. Berquist,  K. B. Bravaya,  H. Burton,  K. Carter-Fenk,  D. Casanova,  
 Chun-Min Chang,  Yunqing Chen,  A. Chien,  K. D. Closser,  M. P. Coons,  
 S. Coriani,  S. Dasgupta,  A. L. Dempwolff,  M. Diedenhofen,  Hainam Do,  
 R. G. Edgar,  Po-Tung Fang,  S. Faraji,  S. Fatehi,  Qingguo Feng,  
 J. Fosso-Tande,  J. Gayvert,  Qinghui Ge,  A. Ghysels,  G. Gidofalvi,  
 J. Gomes,  J. Gonthier,  A. Gunina,  D. Hait,  M. W. D. Hanson-Heine,  
 P. H. P. Harbach,  A. W. Hauser,  M. F. Herbst,  J. E. Herr,  
 E. G. Hohenstein,  Z. C. Holden,  Kerwin Hui,  B. C. Huynh,  T.-C. Jagau,  
 Hyunjun Ji,  B. Kaduk,  K. Khistyaev,  Jaehoon Kim,  P. Klunzinger,  K. Koh,  
 D. Kosenkov,  L. Koulias,  T. Kowalczyk,  C. M. Krauter,  A. Kunitsa,  
 Ka Un Lao,  A. Laurent,  K. V. Lawler,  Joonho Lee,  D. Lefrancois,  
 S. Lehtola,  D. S. Levine,  Yi-Pei Li,  You-Sheng Lin,  Fenglai Liu,  
 Kuan-Yu Liu,  E. Livshits,  M. Loipersberger,  A. Luenser,  P. Manohar,  
 E. Mansoor,  S. F. Manzer,  Shan-Ping Mao,  Yuezhi Mao,  N. Mardirossian,  
 A. V. Marenich,  T. Markovich,  L. A. Martinez-Martinez,  S. A. Maurer,  
 N. J. Mayhall,  S. C. McKenzie,  J.-M. Mewes,  P. Morgante,  A. F. Morrison,  
 J. W. Mullinax,  K. Nanda,  T. S. Nguyen-Beck,  R. Olivares-Amaya,  
 J. A. Parkhill,  S. K. Paul,  F. Pavosevic,  Zheng Pei,  T. M. Perrine,  
 F. Plasser,  P. Pokhilko,  S. Prager,  A. Prociuk,  E. Ramos,  B. Rana,  
 D. R. Rehn,  F. Rob,  M. Scheurer,  M. Schneider,  N. Sergueev,  
 S. M. Sharada,  S. Sharma,  D. W. Small,  T. Stauch,  C. J. Stein,  
 T. Stein,  Yu-Chuan Su,  S. P. Veccham,  Zhen Tao,  A. J. W. Thom,  
 A. Tkatchenko,  T. Tsuchimochi,  N. M. Tubman,  L. Vogt,  M. L. Vidal,  
 O. Vydrov,  M. A. Watson,  J. Wenzel,  M. de Wergifosse,  T. A. Wesolowski,  
 A. White,  J. Witte,  A. Yamada,  Jun Yang,  K. Yao,  S. Yeganeh,  
 S. R. Yost,  Zhi-Qiang You,  A. Zech,  Igor Ying Zhang,  Xing Zhang,  
 Yan Zhao,  Ying Zhu,  B. R. Brooks,  G. K. L. Chan,  C. J. Cramer,  
 M. S. Gordon,  W. J. Hehre,  A. Klamt,  M. W. Schmidt,  C. D. Sherrill,  
 D. G. Truhlar,  A. Aspuru-Guzik,  R. Baer,  A. T. Bell,  N. A. Besley,  
 Jeng-Da Chai,  A. E. DePrince, III,  R. A. DiStasio Jr.,  A. Dreuw,  
 B. D. Dunietz,  T. R. Furlani,  Chao-Ping Hsu,  Yousung Jung,  Jing Kong,  
 D. S. Lambrecht,  WanZhen Liang,  C. Ochsenfeld,  V. A. Rassolov,  
 L. V. Slipchenko,  J. E. Subotnik,  T. Van Voorhis,  J. M. Herbert,  
 A. I. Krylov,  P. M. W. Gill,  M. Head-Gordon

 Contributors to earlier versions of Q-Chem not listed above: 
 R. D. Adamson,  B. Austin,  J. Baker,  G. J. O. Beran,  K. Brandhorst,  
 S. T. Brown,  E. F. C. Byrd,  A. K. Chakraborty,  C.-L. Cheng,  
 Siu Hung Chien,  D. M. Chipman,  D. L. Crittenden,  H. Dachsel,  
 R. J. Doerksen,  A. D. Dutoi,  L. Fusti-Molnar,  W. A. Goddard III,  
 A. Golubeva-Zadorozhnaya,  S. R. Gwaltney,  G. Hawkins,  A. Heyden,  
 S. Hirata,  G. Kedziora,  F. J. Keil,  C. Kelley,  Jihan Kim,  R. A. King,  
 R. Z. Khaliullin,  P. P. Korambath,  W. Kurlancheek,  A. M. Lee,  M. S. Lee,  
 S. V. Levchenko,  Ching Yeh Lin,  D. Liotard,  R. C. Lochan,  I. Lotan,  
 P. E. Maslen,  N. Nair,  D. P. O'Neill,  D. Neuhauser,  E. Neuscamman,  
 C. M. Oana,  R. Olson,  B. Peters,  R. Peverati,  P. A. Pieniazek,  
 Y. M. Rhee,  J. Ritchie,  M. A. Rohrdanz,  E. Rosta,  N. J. Russ,  
 H. F. Schaefer III,  N. E. Schultz,  N. Shenvi,  A. C. Simmonett,  A. Sodt,  
 D. Stuck,  K. S. Thanthiriwatte,  V. Vanovschi,  Tao Wang,  A. Warshel,  
 C. F. Williams,  Q. Wu,  X. Xu,  W. Zhang

 Please cite Q-Chem as follows:
 Y. Shao et al., Mol. Phys. 113, 184-215 (2015)
 DOI: 10.1080/00268976.2014.952696

 Q-Chem 5.2.2 for Intel X86 EM64T Linux

 Parts of Q-Chem use Armadillo 9.800.1 (Horizon Scraper).
 http://arma.sourceforge.net/

 Q-Chem begins on Thu Mar 11 13:37:42 2021  

Host: n0091.mhg0
0

     Scratch files written to /local/scratch/users/ymao/r7.00_frame_0069_almo_B3LYP_dp.in20210311133738//

Checking the input file for inconsistencies... 	...done.

--------------------------------------------------------------
User input:
--------------------------------------------------------------
$molecule
0 1
--
0 1
C    27.88800   27.33300   25.76800  
C    27.71500   27.79100   27.22600  
C    26.23400   27.77800   27.63900  
C    25.57500   26.43200   27.29800  
C    25.82000   25.90600   25.87400  
C    27.30200   25.94400   25.46700  
H    26.06400   28.10400   28.67200  
H    28.18500   27.06500   27.90000  
H    27.29800   28.07300   25.21500  
H    28.93500   27.32200   25.43900  
H    25.85300   25.65900   28.02500  
H    24.48900   26.55100   27.39100  
H    25.32200   24.94200   25.71300  
H    25.36900   26.66500   25.22200  
H    27.86000   25.22700   26.08100  
H    27.35600   25.73400   24.39100  
H    25.71100   28.54600   27.05700  
N    28.31500   29.09700   27.49600  
H    28.30300   29.79900   26.76600  
C    28.99800   29.23700   28.68500  
H    29.65100   30.12400   28.59400  
O    29.10400   28.41600   29.57800  
--
0 1
C    24.06400   30.32300   25.11600  
H    24.74900   31.17400   25.17500  
H    23.36800   30.31000   25.95800  
H    24.62400   29.38600   25.07000  
S    23.18700   30.46900   23.54300  
C    21.81200   31.47900   24.13900  
H    21.02300   31.39500   23.38600  
H    21.47100   31.16800   25.12900  
H    22.21200   32.49600   24.15600  
O    22.40200   29.21800   23.29400  
C    23.73000   27.08300   30.49100  
H    23.88300   26.60200   29.52200  
H    23.12200   27.98100   30.35200  
H    24.73600   27.27400   30.87200  
S    22.95700   25.93500   31.65300  
C    21.34600   25.64100   30.88900  
H    20.92300   26.58500   30.53400  
H    21.42600   24.86500   30.12400  
H    20.53600   25.33300   31.55500  
O    22.65900   26.82700   32.81700  
C    28.52000   31.22900   32.02600  
H    29.37300   30.71600   32.47700  
H    28.40300   30.97200   30.97000  
H    28.59900   32.31900   32.01200  
S    27.11800   30.71400   33.04300  
C    27.30400   28.93400   32.79600  
H    27.41800   28.72000   31.73000  
H    28.29100   28.75800   33.23100  
H    26.54600   28.36500   33.34000  
O    25.88900   30.99200   32.23600  
C    32.09100   28.83000   30.66700  
H    31.89900   27.85800   31.12900  
H    31.53700   29.58900   31.22600  
H    31.77000   28.72300   29.62800  
S    33.87100   29.14300   30.70600  
C    34.03600   29.29600   32.49900  
H    33.25200   30.01600   32.74400  
H    33.75900   28.34400   32.96100  
H    35.08000   29.55300   32.69700  
O    33.96000   30.52000   30.12400  
C    33.76600   25.87400   34.42900  
H    34.13000   26.04700   33.41300  
H    34.14400   26.65000   35.09900  
H    34.16600   24.88900   34.68500  
S    31.95900   25.85700   34.42700  
C    31.92700   25.03600   32.81800  
H    32.22300   25.73400   32.03100  
H    32.57100   24.15700   32.72300  
H    30.87700   24.74800   32.73100  
O    31.57900   27.24800   34.02600  
C    30.27900   20.41600   27.59300  
H    29.33900   19.86800   27.48600  
H    30.34500   21.46100   27.28000  
H    31.21300   19.93900   27.28300  
S    30.54100   20.60000   29.37100  
C    29.12600   21.69300   29.63300  
H    28.25500   21.03300   29.62100  
H    29.28900   22.09300   30.63700  
H    29.01100   22.52200   28.92900  
O    31.72700   21.50900   29.46000  
C    30.66700   34.25800   27.84500  
H    29.72700   34.44600   27.32100  
H    31.29200   35.09700   28.16100  
H    31.30600   33.56000   27.29700  
S    30.21500   33.54700   29.44300  
C    31.66500   32.51000   29.74000  
H    32.56500   33.10900   29.90200  
H    31.50400   31.94700   30.66300  
H    31.76500   31.77500   28.93700  
O    29.15200   32.54800   29.10600  
C    25.12600   25.05200   17.99000  
H    24.53000   24.21300   17.62300  
H    24.59300   26.00500   18.02100  
H    26.03200   25.13700   17.38400  
S    25.69200   24.66200   19.66100  
C    26.74100   26.10700   19.94100  
H    26.65600   26.35500   21.00200  
H    27.77000   25.87700   19.65500  
H    26.38200   26.92300   19.30800  
O    26.73500   23.63800   19.33500  
C    25.77700   23.72100   32.84300  
H    25.75400   22.91000   33.57500  
H    25.01500   24.48700   33.00500  
H    25.52600   23.30300   31.86500  
S    27.38000   24.55500   32.80600  
C    27.06700   25.54900   31.33000  
H    27.90400   26.13700   30.94400  
H    26.90100   24.81800   30.53400  
H    26.19200   26.19600   31.43200  
O    28.36500   23.50300   32.40100  
C    20.26900   22.07000   26.26500  
H    20.77700   21.11000   26.39000  
H    20.43200   22.78000   27.07900  
H    19.20200   21.87600   26.13100  
S    20.95400   22.72000   24.72400  
C    22.57300   23.09300   25.43500  
H    23.17000   23.59000   24.66600  
H    22.40200   23.83100   26.22400  
H    23.07600   22.20900   25.83400  
O    20.26600   24.04400   24.60100  
C    34.31800   23.60600   29.09000  
H    33.37900   23.68300   29.64500  
H    34.06700   23.00300   28.21400  
H    35.14700   23.22900   29.69500  
S    34.71700   25.29700   28.59300  
C    36.39900   24.98800   28.01000  
H    36.80700   26.00100   27.98400  
H    36.89200   24.39000   28.78100  
H    36.40300   24.47200   27.04600  
O    34.81700   25.90600   29.95700  
C    30.02100   26.48100   21.98700  
H    29.08900   26.73400   22.49900  
H    30.18000   27.05800   21.07300  
H    30.05400   25.44400   21.64100  
S    31.51500   26.73900   22.97000  
C    31.46400   28.54100   23.08500  
H    30.74600   28.74200   23.88400  
H    32.43600   28.94600   23.38000  
H    31.21500   29.09600   22.17600  
O    32.54000   26.40500   21.93100  
C    31.27500   32.32900   24.83300  
H    31.40400   31.69700   23.95000  
H    30.50400   33.08800   24.68000  
H    32.25200   32.71000   25.14300  
S    30.44400   31.22100   25.99300  
C    31.79400   30.02000   25.99800  
H    32.52400   30.19600   25.20400  
H    32.30200   30.04300   26.96500  
H    31.33500   29.05500   25.76500  
O    29.28000   30.62900   25.26000  
C    36.09600   25.81000   24.65100  
H    36.18800   26.16000   25.68200  
H    35.88500   24.73700   24.62400  
H    36.93200   25.98600   23.96900  
S    34.61000   26.67800   24.10200  
C    35.44800   28.17300   23.53000  
H    34.75900   29.01600   23.63000  
H    36.33200   28.35500   24.14800  
H    35.91600   28.00700   22.55700  
O    33.87000   26.99000   25.36600  
C    27.40200   29.44700   20.42100  
H    26.87700   28.97700   19.58500  
H    27.59900   30.47600   20.11000  
H    28.40700   29.03400   20.54000  
S    26.44800   29.45400   21.95600  
C    27.70300   30.44500   22.79700  
H    28.57700   29.82900   23.02100  
H    28.02000   31.41100   22.39400  
H    27.35700   30.74900   23.78900  
O    26.54400   28.09600   22.57800  
C    26.47100   33.72100   24.00800  
H    25.67000   33.01500   24.24100  
H    25.89400   34.64500   23.92800  
H    26.99200   33.47100   23.08000  
S    27.46400   33.87900   25.51000  
C    26.21800   34.71000   26.52100  
H    26.41400   34.54000   27.58200  
H    26.09500   35.75900   26.23600  
H    25.27200   34.23400   26.25300  
O    28.32100   35.02400   25.06800  
C    26.18200   31.59100   28.82100  
H    26.12300   30.71700   28.16700  
H    26.75900   32.45100   28.47200  
H    26.49900   31.25100   29.81000  
S    24.52200   32.23300   29.13300  
C    23.65700   30.74100   29.67300  
H    23.79400   29.91700   28.96900  
H    23.80800   30.45300   30.71600  
H    22.60700   31.03600   29.60000  
O    23.98100   32.42500   27.75000  
C    19.76500   28.54700   26.27800  
H    19.44300   27.80400   25.54400  
H    19.38000   28.25400   27.25800  
H    19.67900   29.60300   26.00800  
S    21.48700   28.00500   26.36300  
C    21.19000   26.34600   27.01300  
H    20.81100   25.82400   26.13100  
H    22.20000   26.07900   27.33400  
H    20.52400   26.46400   27.87200  
O    21.89200   28.82900   27.54600  
C    24.74900   21.09900   22.04600  
H    25.57500   20.94700   21.34700  
H    23.81000   20.99900   21.49500  
H    24.82200   22.03100   22.61200  
S    24.95700   19.60700   23.04400  
C    23.25000   19.41300   23.60400  
H    23.00300   20.35200   24.10600  
H    22.66500   19.28300   22.69100  
H    23.34200   18.54600   24.26400  
O    25.71300   20.29600   24.13700  
C    25.86600   22.51900   27.49400  
H    25.18800   23.19400   26.96700  
H    26.80800   23.01300   27.74600  
H    25.90600   21.52700   27.03700  
S    25.03000   22.44100   29.09400  
C    23.70600   21.34800   28.53000  
H    23.23700   22.01600   27.80400  
H    24.15000   20.39200   28.24100  
H    23.03500   21.13400   29.36600  
O    24.22300   23.69800   29.19600  
C    23.36700   27.60100   20.25900  
H    23.23700   28.54300   20.79700  
H    24.38900   27.24300   20.41100  
H    23.21800   27.78600   19.19200  
S    22.21000   26.42600   20.99700  
C    23.29400   26.07500   22.40000  
H    22.92800   25.22200   22.97700  
H    24.31900   25.83600   22.10700  
H    23.30600   26.90800   23.10800  
O    22.36800   25.27800   20.04900  
C    28.18500   22.05700   25.11800  
H    27.13600   22.35700   25.17400  
H    28.41200   21.01400   24.88300  
H    28.73100   22.17500   26.05700  
S    29.01900   23.12900   23.92600  
C    27.70200   23.08700   22.69000  
H    27.95200   23.62800   21.77400  
H    27.48800   22.04800   22.42300  
H    26.78000   23.52600   23.07900  
O    30.09500   22.28700   23.31400  
C    33.23200   33.62600   34.03200  
H    32.88800   33.55300   35.06700  
H    33.56300   32.62500   33.74300  
H    34.05800   34.33200   33.91400  
S    31.87000   34.11600   32.95000  
C    31.65000   35.70100   33.78900  
H    32.46100   36.33500   33.42300  
H    30.68500   36.16500   33.56700  
H    31.70000   35.58200   34.87400  
O    30.71900   33.26800   33.39400  
C    30.15800   25.30100   29.37900  
H    30.04200   24.49100   30.10400  
H    30.68300   26.11600   29.88400  
H    29.17000   25.57700   29.00100  
S    31.11100   24.73100   27.95400  
C    31.46600   26.35200   27.24000  
H    30.58500   26.99600   27.30100  
H    32.34100   26.80200   27.71700  
H    31.71900   26.23900   26.18200  
O    29.94500   24.27500   27.13200  
$end

$rem
JOBTYPE  SP
METHOD  B3LYP
BASIS  6-31+G(D)
SYMMETRY  FALSE
SYM_IGNORE  TRUE
MEM_TOTAL  16000
MEM_STATIC  8000
MAX_SUB_FILE_NUM  16000
BASIS_LIN_DEP_THRESH  6
THRESH  14
SCF_CONVERGENCE  8
GEN_SCFMAN  TRUE
SCF_GUESS  FRAGMO
FD_MAT_VEC_PROD  FALSE
XC_GRID  000075000302
NL_GRID  1
MAX_SCF_CYCLES  200
FRGM_METHOD  STOLL
SCFMI_MODE  1
$end

$development
almo_efield  1
$end

$rem_frgm
SCF_CONVERGENCE  4
$end

--------------------------------------------------------------
 ----------------------------------------------------------------
             Standard Nuclear Orientation (Angstroms)
    I     Atom           X                Y                Z
 ----------------------------------------------------------------
    1      C      27.8880000000    27.3330000000    25.7680000000
    2      C      27.7150000000    27.7910000000    27.2260000000
    3      C      26.2340000000    27.7780000000    27.6390000000
    4      C      25.5750000000    26.4320000000    27.2980000000
    5      C      25.8200000000    25.9060000000    25.8740000000
    6      C      27.3020000000    25.9440000000    25.4670000000
    7      H      26.0640000000    28.1040000000    28.6720000000
    8      H      28.1850000000    27.0650000000    27.9000000000
    9      H      27.2980000000    28.0730000000    25.2150000000
   10      H      28.9350000000    27.3220000000    25.4390000000
   11      H      25.8530000000    25.6590000000    28.0250000000
   12      H      24.4890000000    26.5510000000    27.3910000000
   13      H      25.3220000000    24.9420000000    25.7130000000
   14      H      25.3690000000    26.6650000000    25.2220000000
   15      H      27.8600000000    25.2270000000    26.0810000000
   16      H      27.3560000000    25.7340000000    24.3910000000
   17      H      25.7110000000    28.5460000000    27.0570000000
   18      N      28.3150000000    29.0970000000    27.4960000000
   19      H      28.3030000000    29.7990000000    26.7660000000
   20      C      28.9980000000    29.2370000000    28.6850000000
   21      H      29.6510000000    30.1240000000    28.5940000000
   22      O      29.1040000000    28.4160000000    29.5780000000
   23      C      24.0640000000    30.3230000000    25.1160000000
   24      H      24.7490000000    31.1740000000    25.1750000000
   25      H      23.3680000000    30.3100000000    25.9580000000
   26      H      24.6240000000    29.3860000000    25.0700000000
   27      S      23.1870000000    30.4690000000    23.5430000000
   28      C      21.8120000000    31.4790000000    24.1390000000
   29      H      21.0230000000    31.3950000000    23.3860000000
   30      H      21.4710000000    31.1680000000    25.1290000000
   31      H      22.2120000000    32.4960000000    24.1560000000
   32      O      22.4020000000    29.2180000000    23.2940000000
   33      C      23.7300000000    27.0830000000    30.4910000000
   34      H      23.8830000000    26.6020000000    29.5220000000
   35      H      23.1220000000    27.9810000000    30.3520000000
   36      H      24.7360000000    27.2740000000    30.8720000000
   37      S      22.9570000000    25.9350000000    31.6530000000
   38      C      21.3460000000    25.6410000000    30.8890000000
   39      H      20.9230000000    26.5850000000    30.5340000000
   40      H      21.4260000000    24.8650000000    30.1240000000
   41      H      20.5360000000    25.3330000000    31.5550000000
   42      O      22.6590000000    26.8270000000    32.8170000000
   43      C      28.5200000000    31.2290000000    32.0260000000
   44      H      29.3730000000    30.7160000000    32.4770000000
   45      H      28.4030000000    30.9720000000    30.9700000000
   46      H      28.5990000000    32.3190000000    32.0120000000
   47      S      27.1180000000    30.7140000000    33.0430000000
   48      C      27.3040000000    28.9340000000    32.7960000000
   49      H      27.4180000000    28.7200000000    31.7300000000
   50      H      28.2910000000    28.7580000000    33.2310000000
   51      H      26.5460000000    28.3650000000    33.3400000000
   52      O      25.8890000000    30.9920000000    32.2360000000
   53      C      32.0910000000    28.8300000000    30.6670000000
   54      H      31.8990000000    27.8580000000    31.1290000000
   55      H      31.5370000000    29.5890000000    31.2260000000
   56      H      31.7700000000    28.7230000000    29.6280000000
   57      S      33.8710000000    29.1430000000    30.7060000000
   58      C      34.0360000000    29.2960000000    32.4990000000
   59      H      33.2520000000    30.0160000000    32.7440000000
   60      H      33.7590000000    28.3440000000    32.9610000000
   61      H      35.0800000000    29.5530000000    32.6970000000
   62      O      33.9600000000    30.5200000000    30.1240000000
   63      C      33.7660000000    25.8740000000    34.4290000000
   64      H      34.1300000000    26.0470000000    33.4130000000
   65      H      34.1440000000    26.6500000000    35.0990000000
   66      H      34.1660000000    24.8890000000    34.6850000000
   67      S      31.9590000000    25.8570000000    34.4270000000
   68      C      31.9270000000    25.0360000000    32.8180000000
   69      H      32.2230000000    25.7340000000    32.0310000000
   70      H      32.5710000000    24.1570000000    32.7230000000
   71      H      30.8770000000    24.7480000000    32.7310000000
   72      O      31.5790000000    27.2480000000    34.0260000000
   73      C      30.2790000000    20.4160000000    27.5930000000
   74      H      29.3390000000    19.8680000000    27.4860000000
   75      H      30.3450000000    21.4610000000    27.2800000000
   76      H      31.2130000000    19.9390000000    27.2830000000
   77      S      30.5410000000    20.6000000000    29.3710000000
   78      C      29.1260000000    21.6930000000    29.6330000000
   79      H      28.2550000000    21.0330000000    29.6210000000
   80      H      29.2890000000    22.0930000000    30.6370000000
   81      H      29.0110000000    22.5220000000    28.9290000000
   82      O      31.7270000000    21.5090000000    29.4600000000
   83      C      30.6670000000    34.2580000000    27.8450000000
   84      H      29.7270000000    34.4460000000    27.3210000000
   85      H      31.2920000000    35.0970000000    28.1610000000
   86      H      31.3060000000    33.5600000000    27.2970000000
   87      S      30.2150000000    33.5470000000    29.4430000000
   88      C      31.6650000000    32.5100000000    29.7400000000
   89      H      32.5650000000    33.1090000000    29.9020000000
   90      H      31.5040000000    31.9470000000    30.6630000000
   91      H      31.7650000000    31.7750000000    28.9370000000
   92      O      29.1520000000    32.5480000000    29.1060000000
   93      C      25.1260000000    25.0520000000    17.9900000000
   94      H      24.5300000000    24.2130000000    17.6230000000
   95      H      24.5930000000    26.0050000000    18.0210000000
   96      H      26.0320000000    25.1370000000    17.3840000000
   97      S      25.6920000000    24.6620000000    19.6610000000
   98      C      26.7410000000    26.1070000000    19.9410000000
   99      H      26.6560000000    26.3550000000    21.0020000000
  100      H      27.7700000000    25.8770000000    19.6550000000
  101      H      26.3820000000    26.9230000000    19.3080000000
  102      O      26.7350000000    23.6380000000    19.3350000000
  103      C      25.7770000000    23.7210000000    32.8430000000
  104      H      25.7540000000    22.9100000000    33.5750000000
  105      H      25.0150000000    24.4870000000    33.0050000000
  106      H      25.5260000000    23.3030000000    31.8650000000
  107      S      27.3800000000    24.5550000000    32.8060000000
  108      C      27.0670000000    25.5490000000    31.3300000000
  109      H      27.9040000000    26.1370000000    30.9440000000
  110      H      26.9010000000    24.8180000000    30.5340000000
  111      H      26.1920000000    26.1960000000    31.4320000000
  112      O      28.3650000000    23.5030000000    32.4010000000
  113      C      20.2690000000    22.0700000000    26.2650000000
  114      H      20.7770000000    21.1100000000    26.3900000000
  115      H      20.4320000000    22.7800000000    27.0790000000
  116      H      19.2020000000    21.8760000000    26.1310000000
  117      S      20.9540000000    22.7200000000    24.7240000000
  118      C      22.5730000000    23.0930000000    25.4350000000
  119      H      23.1700000000    23.5900000000    24.6660000000
  120      H      22.4020000000    23.8310000000    26.2240000000
  121      H      23.0760000000    22.2090000000    25.8340000000
  122      O      20.2660000000    24.0440000000    24.6010000000
  123      C      34.3180000000    23.6060000000    29.0900000000
  124      H      33.3790000000    23.6830000000    29.6450000000
  125      H      34.0670000000    23.0030000000    28.2140000000
  126      H      35.1470000000    23.2290000000    29.6950000000
  127      S      34.7170000000    25.2970000000    28.5930000000
  128      C      36.3990000000    24.9880000000    28.0100000000
  129      H      36.8070000000    26.0010000000    27.9840000000
  130      H      36.8920000000    24.3900000000    28.7810000000
  131      H      36.4030000000    24.4720000000    27.0460000000
  132      O      34.8170000000    25.9060000000    29.9570000000
  133      C      30.0210000000    26.4810000000    21.9870000000
  134      H      29.0890000000    26.7340000000    22.4990000000
  135      H      30.1800000000    27.0580000000    21.0730000000
  136      H      30.0540000000    25.4440000000    21.6410000000
  137      S      31.5150000000    26.7390000000    22.9700000000
  138      C      31.4640000000    28.5410000000    23.0850000000
  139      H      30.7460000000    28.7420000000    23.8840000000
  140      H      32.4360000000    28.9460000000    23.3800000000
  141      H      31.2150000000    29.0960000000    22.1760000000
  142      O      32.5400000000    26.4050000000    21.9310000000
  143      C      31.2750000000    32.3290000000    24.8330000000
  144      H      31.4040000000    31.6970000000    23.9500000000
  145      H      30.5040000000    33.0880000000    24.6800000000
  146      H      32.2520000000    32.7100000000    25.1430000000
  147      S      30.4440000000    31.2210000000    25.9930000000
  148      C      31.7940000000    30.0200000000    25.9980000000
  149      H      32.5240000000    30.1960000000    25.2040000000
  150      H      32.3020000000    30.0430000000    26.9650000000
  151      H      31.3350000000    29.0550000000    25.7650000000
  152      O      29.2800000000    30.6290000000    25.2600000000
  153      C      36.0960000000    25.8100000000    24.6510000000
  154      H      36.1880000000    26.1600000000    25.6820000000
  155      H      35.8850000000    24.7370000000    24.6240000000
  156      H      36.9320000000    25.9860000000    23.9690000000
  157      S      34.6100000000    26.6780000000    24.1020000000
  158      C      35.4480000000    28.1730000000    23.5300000000
  159      H      34.7590000000    29.0160000000    23.6300000000
  160      H      36.3320000000    28.3550000000    24.1480000000
  161      H      35.9160000000    28.0070000000    22.5570000000
  162      O      33.8700000000    26.9900000000    25.3660000000
  163      C      27.4020000000    29.4470000000    20.4210000000
  164      H      26.8770000000    28.9770000000    19.5850000000
  165      H      27.5990000000    30.4760000000    20.1100000000
  166      H      28.4070000000    29.0340000000    20.5400000000
  167      S      26.4480000000    29.4540000000    21.9560000000
  168      C      27.7030000000    30.4450000000    22.7970000000
  169      H      28.5770000000    29.8290000000    23.0210000000
  170      H      28.0200000000    31.4110000000    22.3940000000
  171      H      27.3570000000    30.7490000000    23.7890000000
  172      O      26.5440000000    28.0960000000    22.5780000000
  173      C      26.4710000000    33.7210000000    24.0080000000
  174      H      25.6700000000    33.0150000000    24.2410000000
  175      H      25.8940000000    34.6450000000    23.9280000000
  176      H      26.9920000000    33.4710000000    23.0800000000
  177      S      27.4640000000    33.8790000000    25.5100000000
  178      C      26.2180000000    34.7100000000    26.5210000000
  179      H      26.4140000000    34.5400000000    27.5820000000
  180      H      26.0950000000    35.7590000000    26.2360000000
  181      H      25.2720000000    34.2340000000    26.2530000000
  182      O      28.3210000000    35.0240000000    25.0680000000
  183      C      26.1820000000    31.5910000000    28.8210000000
  184      H      26.1230000000    30.7170000000    28.1670000000
  185      H      26.7590000000    32.4510000000    28.4720000000
  186      H      26.4990000000    31.2510000000    29.8100000000
  187      S      24.5220000000    32.2330000000    29.1330000000
  188      C      23.6570000000    30.7410000000    29.6730000000
  189      H      23.7940000000    29.9170000000    28.9690000000
  190      H      23.8080000000    30.4530000000    30.7160000000
  191      H      22.6070000000    31.0360000000    29.6000000000
  192      O      23.9810000000    32.4250000000    27.7500000000
  193      C      19.7650000000    28.5470000000    26.2780000000
  194      H      19.4430000000    27.8040000000    25.5440000000
  195      H      19.3800000000    28.2540000000    27.2580000000
  196      H      19.6790000000    29.6030000000    26.0080000000
  197      S      21.4870000000    28.0050000000    26.3630000000
  198      C      21.1900000000    26.3460000000    27.0130000000
  199      H      20.8110000000    25.8240000000    26.1310000000
  200      H      22.2000000000    26.0790000000    27.3340000000
  201      H      20.5240000000    26.4640000000    27.8720000000
  202      O      21.8920000000    28.8290000000    27.5460000000
  203      C      24.7490000000    21.0990000000    22.0460000000
  204      H      25.5750000000    20.9470000000    21.3470000000
  205      H      23.8100000000    20.9990000000    21.4950000000
  206      H      24.8220000000    22.0310000000    22.6120000000
  207      S      24.9570000000    19.6070000000    23.0440000000
  208      C      23.2500000000    19.4130000000    23.6040000000
  209      H      23.0030000000    20.3520000000    24.1060000000
  210      H      22.6650000000    19.2830000000    22.6910000000
  211      H      23.3420000000    18.5460000000    24.2640000000
  212      O      25.7130000000    20.2960000000    24.1370000000
  213      C      25.8660000000    22.5190000000    27.4940000000
  214      H      25.1880000000    23.1940000000    26.9670000000
  215      H      26.8080000000    23.0130000000    27.7460000000
  216      H      25.9060000000    21.5270000000    27.0370000000
  217      S      25.0300000000    22.4410000000    29.0940000000
  218      C      23.7060000000    21.3480000000    28.5300000000
  219      H      23.2370000000    22.0160000000    27.8040000000
  220      H      24.1500000000    20.3920000000    28.2410000000
  221      H      23.0350000000    21.1340000000    29.3660000000
  222      O      24.2230000000    23.6980000000    29.1960000000
  223      C      23.3670000000    27.6010000000    20.2590000000
  224      H      23.2370000000    28.5430000000    20.7970000000
  225      H      24.3890000000    27.2430000000    20.4110000000
  226      H      23.2180000000    27.7860000000    19.1920000000
  227      S      22.2100000000    26.4260000000    20.9970000000
  228      C      23.2940000000    26.0750000000    22.4000000000
  229      H      22.9280000000    25.2220000000    22.9770000000
  230      H      24.3190000000    25.8360000000    22.1070000000
  231      H      23.3060000000    26.9080000000    23.1080000000
  232      O      22.3680000000    25.2780000000    20.0490000000
  233      C      28.1850000000    22.0570000000    25.1180000000
  234      H      27.1360000000    22.3570000000    25.1740000000
  235      H      28.4120000000    21.0140000000    24.8830000000
  236      H      28.7310000000    22.1750000000    26.0570000000
  237      S      29.0190000000    23.1290000000    23.9260000000
  238      C      27.7020000000    23.0870000000    22.6900000000
  239      H      27.9520000000    23.6280000000    21.7740000000
  240      H      27.4880000000    22.0480000000    22.4230000000
  241      H      26.7800000000    23.5260000000    23.0790000000
  242      O      30.0950000000    22.2870000000    23.3140000000
  243      C      33.2320000000    33.6260000000    34.0320000000
  244      H      32.8880000000    33.5530000000    35.0670000000
  245      H      33.5630000000    32.6250000000    33.7430000000
  246      H      34.0580000000    34.3320000000    33.9140000000
  247      S      31.8700000000    34.1160000000    32.9500000000
  248      C      31.6500000000    35.7010000000    33.7890000000
  249      H      32.4610000000    36.3350000000    33.4230000000
  250      H      30.6850000000    36.1650000000    33.5670000000
  251      H      31.7000000000    35.5820000000    34.8740000000
  252      O      30.7190000000    33.2680000000    33.3940000000
  253      C      30.1580000000    25.3010000000    29.3790000000
  254      H      30.0420000000    24.4910000000    30.1040000000
  255      H      30.6830000000    26.1160000000    29.8840000000
  256      H      29.1700000000    25.5770000000    29.0010000000
  257      S      31.1110000000    24.7310000000    27.9540000000
  258      C      31.4660000000    26.3520000000    27.2400000000
  259      H      30.5850000000    26.9960000000    27.3010000000
  260      H      32.3410000000    26.8020000000    27.7170000000
  261      H      31.7190000000    26.2390000000    26.1820000000
  262      O      29.9450000000    24.2750000000    27.1320000000
 ----------------------------------------------------------------
 Nuclear Repulsion Energy =       40460.02822700 hartrees
 There are      539 alpha and      539 beta electrons
 Requested basis set is 6-31+G(d)
 There are 863 shells and 2405 basis functions

 Total QAlloc Memory Limit  16000 MB
 Mega-Array Size      7821 MB
 MEM_STATIC part      8000 MB
 A cutoff of  1.0D-14 yielded 154452 shell pairs
 There are   1327420 function pairs
 Smallest overlap matrix eigenvalue = 4.85E-07
 Linear dependence detected in AO basis
 Tighter screening thresholds may be required for diffuse basis sets
 Use S2THRESH > 14 and THRESH = 14 in case of SCF convergence issues
 Number of orthogonalized atomic orbitals = 2402
 Maximum deviation from orthogonality = 1.743E-10

 Scale SEOQF with 1.000000e-03/1.000000e-03/1.000000e-03

 Standard Electronic Orientation quadrupole field applied
 Nucleus-field energy     =     0.0000000217 hartrees
Attempting to make child job directory: /local/scratch/users/ymao/r7.00_frame_0069_almo_B3LYP_dp.in20210311133738//Frg1/
Attempting to make child job directory: /local/scratch/users/ymao/r7.00_frame_0069_almo_B3LYP_dp.in20210311133738//Frg2/
Creating input file /local/scratch/users/ymao/r7.00_frame_0069_almo_B3LYP_dp.in20210311133738/Frg1.input
using default PutDataFrgm: nothing
calling putenv with: QCSCRATCH=/local/scratch/users/ymao/r7.00_frame_0069_almo_B3LYP_dp.in20210311133738/ 
Spawning Job For Fragment 0
Done Job For Fragment 0
calling putenv with: QCSCRATCH=/local/scratch/users/ymao 
calling putenv with: QCTHREADS=8 
Creating input file /local/scratch/users/ymao/r7.00_frame_0069_almo_B3LYP_dp.in20210311133738/Frg2.input
using default PutDataFrgm: nothing
calling putenv with: QCSCRATCH=/local/scratch/users/ymao/r7.00_frame_0069_almo_B3LYP_dp.in20210311133738/ 
Spawning Job For Fragment 1
Done Job For Fragment 1
calling putenv with: QCSCRATCH=/local/scratch/users/ymao 
calling putenv with: QCTHREADS=8 
 Time for running child jobs:  CPU 0.74 s  wall 13799.99 s

 -----------------------------------------------------------------------
  General SCF calculation program by
  Eric Jon Sundstrom, Paul Horn, Yuezhi Mao, Dmitri Zuev, Alec White,
  David Stuck, Shaama M.S., Shane Yost, Joonho Lee, David Small,
  Daniel Levine, Susi Lehtola, Hugh Burton, Evgeny Epifanovsky,
  Bang C. Huynh
 -----------------------------------------------------------------------
Performing Restricted Closed Shell SCFMI
Doing General SCFMI
 Exchange:     0.2000 Hartree-Fock + 0.0800 Slater + 0.7200 B88
 Correlation:  0.1900 VWN1RPA + 0.8100 LYP
 Using Euler-Maclaurin-Lebedev (75,302) quadrature formula
performing fock build before subrot guess so that all methods have access
Printing subrot_rss_gen Method Specification:
Occupied Subspace Method is 0
Virtual Subspace Method is 0
Energy prior to optimization (guess energy) = -13681.123450409497
Begin Timing: Total SCF Calculation
begin iterations for algorithm: DIIS         
the SCF tolerance is set to 1.00e-08
    1  -13681.1234504095      6.20e-05     00000 
    2  -13681.1145160264      1.06e-04     00000 
    3  -13681.1367869369      1.89e-05     00000 
    4  -13681.1374702557      8.05e-06     00000 
    5  -13681.1376047806      4.65e-06     00000 
    6  -13681.1376461374      2.36e-06     00000 
    7  -13681.1376587470      1.42e-06     00000 
    8  -13681.1376637688      7.71e-07     00000 
    9  -13681.1376647978      5.22e-07     00000 
   10  -13681.1376651445      3.76e-07     00000 
   11  -13681.1376653936      2.06e-07     00000 
   12  -13681.1376654784      1.21e-07     00000 
   13  -13681.1376655079      7.34e-08     00000 
   14  -13681.1376655172      5.28e-08     00000 
   15  -13681.1376655219      3.16e-08     00000 
   16  -13681.1376655237      1.47e-08     00000 
   17  -13681.1376655240      1.01e-08     00000 
   18  -13681.1376655243      7.46e-09     00000 Convergence criterion met
write pseudocanon occs and virts to disk
write pseudocanon orbital energies to disk
Timing for Total SCF: 45408.00s (wall), 360289.95s (cpu)
SCFMI Energy  -13681.1376655243
<S^2>            0.00000
 Total energy in the final basis set =   -13681.1376655243
    ==================================================
        The end of Object-Oriented SCFman: SCFMI      
    ==================================================
 
 --------------------------------------------------------------
 
                    Orbital Energies (a.u.)
 --------------------------------------------------------------
 
 Alpha MOs
 -- Occupied --
-89.0200 -89.0195 -89.0137 -89.0132 -89.0075 -89.0065 -89.0025 -88.9965
-88.9959 -88.9956 -88.9951 -88.9950 -88.9925 -88.9884 -88.9882 -88.9871
-88.9856 -88.9852 -88.9852 -88.9841 -88.9768 -88.9689 -88.9678 -88.9617
-19.1437 -19.1385 -19.1319 -19.1318 -19.1300 -19.1250 -19.1203 -19.1187
-19.1144 -19.1092 -19.1087 -19.1084 -19.1065 -19.1064 -19.1041 -19.1028
-19.0992 -19.0992 -19.0985 -19.0966 -19.0929 -19.0919 -19.0833 -19.0810
-19.0792 -14.3563 -10.2842 -10.2384 -10.2383 -10.2381 -10.2376 -10.2357
-10.2337 -10.2314 -10.2271 -10.2269 -10.2249 -10.2232 -10.2232 -10.2226
-10.2208 -10.2207 -10.2192 -10.2192 -10.2182 -10.2174 -10.2137 -10.2125
-10.2123 -10.2107 -10.2104 -10.2093 -10.2092 -10.2084 -10.2072 -10.2070
-10.2063 -10.2059 -10.2054 -10.2045 -10.2037 -10.2035 -10.2018 -10.1999
-10.1995 -10.1986 -10.1981 -10.1971 -10.1964 -10.1931 -10.1887 -10.1863
-10.1852 -10.1809 -10.1807 -10.1805 -10.1805 -10.1790 -10.1781 -10.1738
-10.1718  -8.0658  -8.0646  -8.0605  -8.0598  -8.0548  -8.0524  -8.0485
 -8.0426  -8.0420  -8.0414  -8.0412  -8.0409  -8.0388  -8.0348  -8.0334
 -8.0327  -8.0326  -8.0320  -8.0316  -8.0299  -8.0231  -8.0149  -8.0136
 -8.0080  -6.0301  -6.0290  -6.0290  -6.0277  -6.0247  -6.0242  -6.0234
 -6.0233  -6.0228  -6.0220  -6.0189  -6.0180  -6.0179  -6.0169  -6.0167
 -6.0154  -6.0129  -6.0121  -6.0116  -6.0099  -6.0070  -6.0065  -6.0060
 -6.0058  -6.0058  -6.0054  -6.0052  -6.0051  -6.0044  -6.0042  -6.0042
 -6.0032  -6.0019  -5.9993  -5.9992  -5.9991  -5.9989  -5.9988  -5.9982
 -5.9979  -5.9978  -5.9971  -5.9970  -5.9966  -5.9963  -5.9960  -5.9958
 -5.9957  -5.9956  -5.9949  -5.9947  -5.9942  -5.9932  -5.9921  -5.9909
 -5.9902  -5.9899  -5.9895  -5.9889  -5.9875  -5.9871  -5.9862  -5.9802
 -5.9794  -5.9779  -5.9779  -5.9768  -5.9724  -5.9722  -5.9711  -5.9709
 -5.9653  -1.0517  -1.0443  -1.0440  -1.0422  -1.0412  -1.0343  -1.0308
 -1.0269  -1.0236  -1.0207  -1.0206  -1.0189  -1.0186  -1.0163  -1.0149
 -1.0139  -1.0133  -1.0126  -1.0083  -1.0073  -1.0066  -1.0028  -0.9920
 -0.9907  -0.9899  -0.9225  -0.8254  -0.8241  -0.8230  -0.8206  -0.8182
 -0.8126  -0.8106  -0.8092  -0.7996  -0.7983  -0.7967  -0.7956  -0.7948
 -0.7946  -0.7940  -0.7935  -0.7923  -0.7871  -0.7847  -0.7833  -0.7797
 -0.7790  -0.7709  -0.7707  -0.7580  -0.7497  -0.7481  -0.7434  -0.7418
 -0.7413  -0.7388  -0.7382  -0.7380  -0.7316  -0.7287  -0.7278  -0.7261
 -0.7252  -0.7227  -0.7223  -0.7207  -0.7193  -0.7183  -0.7171  -0.7159
 -0.7118  -0.7110  -0.7102  -0.6994  -0.6959  -0.6917  -0.6369  -0.6347
 -0.6320  -0.6277  -0.6241  -0.6194  -0.6180  -0.6175  -0.6154  -0.6138
 -0.6113  -0.6109  -0.6092  -0.6051  -0.6045  -0.6034  -0.6013  -0.6006
 -0.6004  -0.5994  -0.5957  -0.5946  -0.5925  -0.5895  -0.5827  -0.5797
 -0.5708  -0.5598  -0.5217  -0.5144  -0.5023  -0.4985  -0.4963  -0.4947
 -0.4939  -0.4937  -0.4901  -0.4897  -0.4890  -0.4858  -0.4851  -0.4849
 -0.4829  -0.4828  -0.4822  -0.4812  -0.4785  -0.4775  -0.4772  -0.4771
 -0.4755  -0.4749  -0.4743  -0.4743  -0.4735  -0.4731  -0.4725  -0.4723
 -0.4719  -0.4711  -0.4706  -0.4704  -0.4700  -0.4691  -0.4677  -0.4670
 -0.4664  -0.4663  -0.4641  -0.4636  -0.4632  -0.4619  -0.4607  -0.4604
 -0.4600  -0.4591  -0.4579  -0.4573  -0.4564  -0.4562  -0.4556  -0.4553
 -0.4550  -0.4545  -0.4532  -0.4530  -0.4522  -0.4515  -0.4500  -0.4496
 -0.4493  -0.4489  -0.4482  -0.4481  -0.4477  -0.4460  -0.4452  -0.4441
 -0.4426  -0.4418  -0.4411  -0.4407  -0.4401  -0.4391  -0.4385  -0.4382
 -0.4381  -0.4369  -0.4356  -0.4332  -0.4328  -0.4319  -0.4302  -0.4295
 -0.4292  -0.4283  -0.4278  -0.4270  -0.4267  -0.4251  -0.4237  -0.4231
 -0.4224  -0.4222  -0.4214  -0.4208  -0.4205  -0.4198  -0.4197  -0.4187
 -0.4165  -0.4156  -0.4142  -0.4139  -0.4129  -0.4123  -0.4115  -0.4112
 -0.4093  -0.4084  -0.4065  -0.4052  -0.4047  -0.4038  -0.4032  -0.4029
 -0.4026  -0.4015  -0.4012  -0.4002  -0.3998  -0.3983  -0.3977  -0.3972
 -0.3960  -0.3958  -0.3951  -0.3944  -0.3934  -0.3929  -0.3918  -0.3917
 -0.3900  -0.3898  -0.3889  -0.3878  -0.3866  -0.3845  -0.3839  -0.3833
 -0.3830  -0.3823  -0.3819  -0.3813  -0.3808  -0.3801  -0.3791  -0.3788
 -0.3780  -0.3770  -0.3752  -0.3729  -0.3729  -0.3707  -0.3704  -0.3691
 -0.3658  -0.3654  -0.3633  -0.3624  -0.3606  -0.3590  -0.3578  -0.3557
 -0.3536  -0.3529  -0.3504  -0.3500  -0.3498  -0.3473  -0.3461  -0.3450
 -0.3438  -0.3390  -0.3344  -0.3314  -0.3292  -0.3271  -0.3229  -0.3098
 -0.3075  -0.3064  -0.2968  -0.2919  -0.2898  -0.2893  -0.2782  -0.2779
 -0.2768  -0.2716  -0.2704  -0.2685  -0.2677  -0.2677  -0.2674  -0.2670
 -0.2641  -0.2633  -0.2627  -0.2608  -0.2596  -0.2594  -0.2579  -0.2570
 -0.2552  -0.2544  -0.2533  -0.2518  -0.2489  -0.2474  -0.2449  -0.2435
 -0.2432  -0.2403  -0.2394  -0.2381  -0.2369  -0.2351  -0.2343  -0.2318
 -0.2314  -0.2305  -0.2275  -0.2265  -0.2225  -0.2176  -0.2166  -0.2165
 -0.2085  -0.2068  -0.2039
 -- Virtual --
 -0.0304  -0.0270  -0.0217  -0.0191  -0.0185  -0.0148  -0.0140  -0.0136
 -0.0116  -0.0102  -0.0086  -0.0069  -0.0063  -0.0052  -0.0043  -0.0020
 -0.0015   0.0000   0.0001   0.0020   0.0031   0.0033   0.0037   0.0054
  0.0061   0.0069   0.0078   0.0085   0.0088   0.0091   0.0094   0.0102
  0.0104   0.0112   0.0123   0.0128   0.0133   0.0145   0.0154   0.0155
  0.0173   0.0179   0.0195   0.0203   0.0207   0.0212   0.0222   0.0226
  0.0235   0.0241   0.0244   0.0252   0.0264   0.0271   0.0273   0.0278
  0.0286   0.0298   0.0310   0.0315   0.0322   0.0334   0.0339   0.0346
  0.0348   0.0364   0.0372   0.0376   0.0384   0.0389   0.0400   0.0408
  0.0409   0.0423   0.0426   0.0432   0.0436   0.0444   0.0449   0.0453
  0.0458   0.0465   0.0473   0.0479   0.0486   0.0489   0.0494   0.0502
  0.0508   0.0515   0.0528   0.0532   0.0540   0.0542   0.0555   0.0557
  0.0562   0.0577   0.0578   0.0589   0.0594   0.0597   0.0610   0.0619
  0.0623   0.0626   0.0629   0.0640   0.0644   0.0661   0.0664   0.0672
  0.0679   0.0684   0.0698   0.0701   0.0705   0.0715   0.0719   0.0723
  0.0728   0.0741   0.0749   0.0752   0.0756   0.0761   0.0771   0.0780
  0.0789   0.0795   0.0798   0.0809   0.0811   0.0824   0.0828   0.0830
  0.0832   0.0846   0.0853   0.0856   0.0861   0.0883   0.0885   0.0896
  0.0907   0.0910   0.0917   0.0927   0.0930   0.0941   0.0945   0.0960
  0.0961   0.0965   0.0982   0.0988   0.0991   0.0995   0.1003   0.1010
  0.1013   0.1022   0.1027   0.1041   0.1047   0.1058   0.1064   0.1071
  0.1076   0.1084   0.1087   0.1097   0.1099   0.1111   0.1121   0.1125
  0.1134   0.1137   0.1144   0.1153   0.1155   0.1161   0.1167   0.1170
  0.1188   0.1197   0.1203   0.1212   0.1216   0.1221   0.1228   0.1233
  0.1243   0.1250   0.1253   0.1256   0.1269   0.1275   0.1280   0.1291
  0.1297   0.1303   0.1313   0.1319   0.1329   0.1336   0.1343   0.1344
  0.1352   0.1360   0.1366   0.1372   0.1373   0.1379   0.1391   0.1395
  0.1399   0.1407   0.1412   0.1420   0.1438   0.1444   0.1453   0.1458
  0.1462   0.1466   0.1471   0.1478   0.1487   0.1491   0.1498   0.1510
  0.1521   0.1530   0.1534   0.1540   0.1547   0.1556   0.1560   0.1568
  0.1576   0.1580   0.1589   0.1598   0.1603   0.1607   0.1609   0.1627
  0.1635   0.1643   0.1652   0.1656   0.1664   0.1672   0.1675   0.1683
  0.1692   0.1693   0.1695   0.1700   0.1700   0.1708   0.1717   0.1718
  0.1725   0.1742   0.1752   0.1759   0.1762   0.1770   0.1773   0.1779
  0.1780   0.1795   0.1801   0.1807   0.1813   0.1819   0.1825   0.1835
  0.1839   0.1847   0.1850   0.1860   0.1864   0.1871   0.1874   0.1879
  0.1889   0.1896   0.1907   0.1913   0.1916   0.1927   0.1934   0.1938
  0.1941   0.1946   0.1959   0.1967   0.1971   0.1976   0.1991   0.1997
  0.1999   0.2004   0.2013   0.2022   0.2026   0.2032   0.2038   0.2040
  0.2056   0.2059   0.2062   0.2072   0.2078   0.2083   0.2088   0.2091
  0.2102   0.2113   0.2117   0.2123   0.2132   0.2140   0.2148   0.2150
  0.2159   0.2162   0.2178   0.2182   0.2187   0.2194   0.2205   0.2210
  0.2212   0.2220   0.2237   0.2241   0.2248   0.2251   0.2265   0.2271
  0.2283   0.2284   0.2295   0.2301   0.2303   0.2308   0.2318   0.2324
  0.2330   0.2334   0.2341   0.2345   0.2358   0.2361   0.2369   0.2382
  0.2390   0.2391   0.2402   0.2403   0.2410   0.2425   0.2432   0.2438
  0.2444   0.2453   0.2460   0.2472   0.2483   0.2486   0.2486   0.2492
  0.2499   0.2504   0.2512   0.2529   0.2534   0.2545   0.2546   0.2551
  0.2559   0.2564   0.2578   0.2580   0.2586   0.2590   0.2608   0.2618
  0.2629   0.2634   0.2640   0.2649   0.2653   0.2668   0.2669   0.2684
  0.2689   0.2699   0.2704   0.2713   0.2721   0.2728   0.2734   0.2739
  0.2755   0.2760   0.2767   0.2776   0.2777   0.2792   0.2802   0.2809
  0.2819   0.2830   0.2839   0.2848   0.2848   0.2864   0.2868   0.2874
  0.2895   0.2899   0.2908   0.2916   0.2924   0.2931   0.2942   0.2945
  0.2960   0.2971   0.2983   0.2990   0.3001   0.3005   0.3007   0.3019
  0.3029   0.3036   0.3050   0.3056   0.3063   0.3068   0.3082   0.3090
  0.3093   0.3110   0.3118   0.3136   0.3138   0.3143   0.3150   0.3154
  0.3165   0.3173   0.3187   0.3192   0.3205   0.3208   0.3231   0.3240
  0.3245   0.3252   0.3262   0.3266   0.3278   0.3293   0.3297   0.3306
  0.3320   0.3326   0.3332   0.3345   0.3351   0.3369   0.3377   0.3381
  0.3396   0.3399   0.3404   0.3411   0.3436   0.3440   0.3442   0.3460
  0.3477   0.3481   0.3491   0.3501   0.3509   0.3520   0.3537   0.3540
  0.3547   0.3556   0.3564   0.3579   0.3585   0.3596   0.3600   0.3610
  0.3620   0.3628   0.3633   0.3643   0.3653   0.3672   0.3675   0.3691
  0.3701   0.3705   0.3722   0.3736   0.3741   0.3753   0.3756   0.3771
  0.3781   0.3793   0.3798   0.3803   0.3824   0.3825   0.3832   0.3852
  0.3860   0.3868   0.3878   0.3889   0.3900   0.3904   0.3913   0.3920
  0.3931   0.3946   0.3952   0.3960   0.3967   0.3984   0.3988   0.3996
  0.4001   0.4014   0.4020   0.4030   0.4046   0.4050   0.4061   0.4062
  0.4092   0.4096   0.4104   0.4112   0.4134   0.4136   0.4142   0.4152
  0.4167   0.4168   0.4175   0.4183   0.4209   0.4220   0.4226   0.4242
  0.4252   0.4262   0.4277   0.4279   0.4294   0.4303   0.4310   0.4316
  0.4322   0.4331   0.4350   0.4361   0.4374   0.4387   0.4402   0.4415
  0.4422   0.4442   0.4449   0.4459   0.4465   0.4478   0.4491   0.4509
  0.4523   0.4542   0.4561   0.4576   0.4587   0.4594   0.4608   0.4618
  0.4637   0.4639   0.4646   0.4665   0.4672   0.4685   0.4713   0.4720
  0.4740   0.4742   0.4764   0.4776   0.4789   0.4808   0.4828   0.4837
  0.4853   0.4867   0.4876   0.4902   0.4917   0.4929   0.4951   0.4959
  0.4971   0.4981   0.4994   0.5007   0.5023   0.5046   0.5073   0.5078
  0.5103   0.5113   0.5136   0.5161   0.5169   0.5183   0.5193   0.5216
  0.5249   0.5268   0.5302   0.5315   0.5322   0.5346   0.5364   0.5380
  0.5397   0.5413   0.5425   0.5443   0.5457   0.5475   0.5495   0.5514
  0.5545   0.5554   0.5571   0.5587   0.5603   0.5618   0.5637   0.5651
  0.5674   0.5688   0.5696   0.5700   0.5712   0.5738   0.5753   0.5772
  0.5784   0.5790   0.5816   0.5832   0.5845   0.5858   0.5865   0.5876
  0.5891   0.5912   0.5918   0.5948   0.5950   0.5956   0.5980   0.6002
  0.6018   0.6028   0.6041   0.6050   0.6060   0.6080   0.6097   0.6102
  0.6125   0.6139   0.6148   0.6161   0.6180   0.6197   0.6215   0.6226
  0.6251   0.6269   0.6274   0.6281   0.6303   0.6313   0.6329   0.6340
  0.6355   0.6363   0.6385   0.6397   0.6405   0.6417   0.6437   0.6449
  0.6456   0.6461   0.6479   0.6492   0.6498   0.6512   0.6522   0.6535
  0.6539   0.6557   0.6568   0.6588   0.6604   0.6616   0.6628   0.6635
  0.6637   0.6644   0.6669   0.6679   0.6692   0.6705   0.6707   0.6736
  0.6754   0.6764   0.6785   0.6791   0.6797   0.6805   0.6815   0.6837
  0.6852   0.6853   0.6861   0.6868   0.6885   0.6894   0.6915   0.6928
  0.6940   0.6966   0.6983   0.6992   0.7009   0.7022   0.7035   0.7062
  0.7063   0.7077   0.7090   0.7108   0.7114   0.7133   0.7153   0.7170
  0.7178   0.7186   0.7187   0.7215   0.7227   0.7240   0.7249   0.7264
  0.7269   0.7279   0.7303   0.7308   0.7314   0.7338   0.7359   0.7379
  0.7390   0.7395   0.7419   0.7424   0.7447   0.7483   0.7500   0.7510
  0.7534   0.7546   0.7552   0.7568   0.7584   0.7600   0.7615   0.7635
  0.7648   0.7650   0.7672   0.7679   0.7705   0.7733   0.7741   0.7748
  0.7773   0.7791   0.7812   0.7816   0.7836   0.7855   0.7871   0.7884
  0.7921   0.7923   0.7951   0.7957   0.7969   0.7972   0.7989   0.8012
  0.8023   0.8042   0.8063   0.8078   0.8093   0.8103   0.8128   0.8132
  0.8146   0.8158   0.8181   0.8184   0.8192   0.8198   0.8220   0.8263
  0.8282   0.8297   0.8304   0.8316   0.8332   0.8357   0.8376   0.8385
  0.8395   0.8407   0.8422   0.8438   0.8451   0.8461   0.8491   0.8502
  0.8512   0.8528   0.8539   0.8552   0.8561   0.8584   0.8591   0.8609
  0.8639   0.8650   0.8655   0.8659   0.8689   0.8713   0.8720   0.8724
  0.8730   0.8753   0.8760   0.8785   0.8788   0.8796   0.8809   0.8821
  0.8850   0.8874   0.8885   0.8899   0.8912   0.8924   0.8943   0.8962
  0.8992   0.8999   0.9013   0.9027   0.9045   0.9059   0.9063   0.9083
  0.9096   0.9104   0.9119   0.9140   0.9147   0.9152   0.9166   0.9188
  0.9193   0.9206   0.9223   0.9231   0.9245   0.9254   0.9264   0.9294
  0.9309   0.9315   0.9328   0.9345   0.9353   0.9370   0.9378   0.9394
  0.9405   0.9413   0.9421   0.9432   0.9449   0.9477   0.9484   0.9495
  0.9511   0.9524   0.9534   0.9542   0.9551   0.9554   0.9573   0.9595
  0.9601   0.9609   0.9620   0.9635   0.9656   0.9675   0.9686   0.9701
  0.9707   0.9720   0.9729   0.9740   0.9751   0.9772   0.9780   0.9791
  0.9798   0.9806   0.9820   0.9822   0.9840   0.9843   0.9866   0.9870
  0.9884   0.9885   0.9907   0.9919   0.9929   0.9937   0.9945   0.9952
  0.9971   0.9993   1.0007   1.0009   1.0018   1.0035   1.0045   1.0052
  1.0063   1.0079   1.0086   1.0104   1.0110   1.0132   1.0138   1.0150
  1.0159   1.0180   1.0185   1.0192   1.0218   1.0232   1.0235   1.0246
  1.0269   1.0276   1.0294   1.0310   1.0326   1.0337   1.0352   1.0362
  1.0375   1.0393   1.0403   1.0419   1.0428   1.0439   1.0447   1.0456
  1.0477   1.0501   1.0511   1.0525   1.0548   1.0574   1.0582   1.0589
  1.0612   1.0627   1.0633   1.0655   1.0672   1.0674   1.0698   1.0707
  1.0720   1.0735   1.0747   1.0752   1.0759   1.0782   1.0790   1.0809
  1.0826   1.0832   1.0839   1.0858   1.0872   1.0886   1.0904   1.0930
  1.0943   1.0947   1.0961   1.1000   1.1012   1.1022   1.1034   1.1053
  1.1075   1.1091   1.1098   1.1105   1.1145   1.1157   1.1169   1.1185
  1.1189   1.1202   1.1214   1.1228   1.1236   1.1269   1.1288   1.1297
  1.1306   1.1327   1.1355   1.1356   1.1379   1.1387   1.1392   1.1417
  1.1429   1.1439   1.1447   1.1459   1.1486   1.1508   1.1512   1.1528
  1.1533   1.1542   1.1564   1.1573   1.1580   1.1603   1.1605   1.1631
  1.1650   1.1672   1.1687   1.1697   1.1707   1.1721   1.1727   1.1741
  1.1761   1.1765   1.1777   1.1787   1.1811   1.1831   1.1844   1.1863
  1.1888   1.1894   1.1905   1.1928   1.1940   1.1963   1.1984   1.2004
  1.2012   1.2051   1.2054   1.2064   1.2073   1.2104   1.2111   1.2152
  1.2157   1.2171   1.2208   1.2218   1.2237   1.2260   1.2271   1.2285
  1.2295   1.2318   1.2363   1.2374   1.2387   1.2407   1.2448   1.2459
  1.2482   1.2494   1.2499   1.2544   1.2555   1.2560   1.2597   1.2613
  1.2645   1.2661   1.2688   1.2709   1.2753   1.2795   1.2807   1.2842
  1.2858   1.2888   1.2911   1.2931   1.2984   1.2996   1.3011   1.3053
  1.3092   1.3123   1.3135   1.3156   1.3161   1.3197   1.3225   1.3232
  1.3266   1.3281   1.3325   1.3344   1.3378   1.3407   1.3420   1.3433
  1.3456   1.3468   1.3501   1.3516   1.3553   1.3573   1.3587   1.3620
  1.3641   1.3649   1.3659   1.3670   1.3690   1.3726   1.3746   1.3761
  1.3773   1.3787   1.3800   1.3814   1.3833   1.3861   1.3876   1.3886
  1.3905   1.3925   1.3952   1.3966   1.3972   1.4000   1.4009   1.4027
  1.4054   1.4074   1.4087   1.4093   1.4108   1.4119   1.4142   1.4150
  1.4166   1.4181   1.4189   1.4201   1.4216   1.4236   1.4249   1.4259
  1.4289   1.4304   1.4327   1.4337   1.4342   1.4350   1.4365   1.4377
  1.4405   1.4423   1.4440   1.4455   1.4465   1.4479   1.4493   1.4512
  1.4518   1.4533   1.4552   1.4563   1.4577   1.4613   1.4619   1.4631
  1.4650   1.4677   1.4704   1.4709   1.4718   1.4744   1.4747   1.4769
  1.4803   1.4809   1.4831   1.4855   1.4868   1.4903   1.4911   1.4927
  1.4944   1.4957   1.4997   1.5017   1.5028   1.5059   1.5073   1.5101
  1.5103   1.5114   1.5173   1.5187   1.5199   1.5212   1.5239   1.5275
  1.5308   1.5342   1.5371   1.5390   1.5410   1.5444   1.5488   1.5550
  1.5562   1.5571   1.5586   1.5609   1.5639   1.5670   1.5730   1.5756
  1.5766   1.5819   1.5850   1.5893   1.5908   1.5962   1.6008   1.6039
  1.6102   1.6110   1.6166   1.6204   1.6260   1.6275   1.6347   1.6398
  1.6426   1.6460   1.6491   1.6501   1.6557   1.6578   1.6631   1.6686
  1.6702   1.6743   1.6747   1.6762   1.6784   1.6793   1.6812   1.6823
  1.6835   1.6845   1.6849   1.6862   1.6874   1.6883   1.6915   1.6929
  1.6936   1.6948   1.6963   1.6972   1.6984   1.6990   1.7003   1.7023
  1.7031   1.7041   1.7056   1.7077   1.7090   1.7102   1.7109   1.7117
  1.7130   1.7150   1.7165   1.7168   1.7189   1.7194   1.7219   1.7248
  1.7254   1.7268   1.7274   1.7286   1.7319   1.7333   1.7350   1.7360
  1.7382   1.7395   1.7399   1.7408   1.7418   1.7430   1.7438   1.7470
  1.7483   1.7495   1.7513   1.7532   1.7536   1.7572   1.7578   1.7596
  1.7610   1.7634   1.7640   1.7667   1.7690   1.7701   1.7705   1.7737
  1.7760   1.7768   1.7779   1.7789   1.7817   1.7837   1.7856   1.7869
  1.7874   1.7892   1.7926   1.7935   1.7965   1.7993   1.8005   1.8011
  1.8041   1.8051   1.8106   1.8159   1.8175   1.8188   1.8214   1.8244
  1.8280   1.8315   1.8334   1.8385   1.8407   1.8421   1.8445   1.8467
  1.8510   1.8521   1.8596   1.8597   1.8647   1.8662   1.8688   1.8699
  1.8728   1.8751   1.8771   1.8773   1.8792   1.8820   1.8839   1.8855
  1.8868   1.8893   1.8907   1.8915   1.8945   1.8964   1.8979   1.8988
  1.8997   1.9017   1.9026   1.9037   1.9054   1.9070   1.9084   1.9094
  1.9116   1.9119   1.9140   1.9163   1.9168   1.9190   1.9201   1.9215
  1.9233   1.9243   1.9259   1.9268   1.9278   1.9295   1.9319   1.9330
  1.9333   1.9357   1.9371   1.9399   1.9404   1.9413   1.9446   1.9471
  1.9507   1.9520   1.9542   1.9568   1.9613   1.9649   1.9662   1.9683
  1.9701   1.9732   1.9772   1.9811   1.9835   1.9890   1.9940   1.9988
  2.0040   2.0113   2.0207   2.0310   2.0399   2.0439   2.0484   2.0508
  2.0549   2.0572   2.0583   2.0598   2.0602   2.0629   2.0700   2.0725
  2.0743   2.0767   2.0775   2.0781   2.0801   2.0805   2.0813   2.0824
  2.0846   2.0855   2.0865   2.0870   2.0892   2.0900   2.0903   2.0916
  2.0924   2.0953   2.0957   2.0966   2.1009   2.1012   2.1030   2.1040
  2.1057   2.1089   2.1111   2.1124   2.1126   2.1143   2.1149   2.1165
  2.1199   2.1234   2.1276   2.1305   2.1333   2.1365   2.1389   2.1450
  2.1511   2.1564   2.1577   2.1615   2.1654   2.1699   2.1752   2.1781
  2.1814   2.1831   2.1884   2.1899   2.1910   2.1928   2.2009   2.2024
  2.2039   2.2068   2.2083   2.2104   2.2131   2.2169   2.2173   2.2188
  2.2203   2.2211   2.2234   2.2239   2.2247   2.2252   2.2296   2.2308
  2.2329   2.2348   2.2373   2.2383   2.2403   2.2415   2.2417   2.2431
  2.2448   2.2462   2.2467   2.2488   2.2500   2.2502   2.2518   2.2524
  2.2536   2.2545   2.2551   2.2556   2.2562   2.2572   2.2584   2.2594
  2.2602   2.2606   2.2624   2.2628   2.2635   2.2640   2.2660   2.2687
  2.2698   2.2717   2.2730   2.2734   2.2745   2.2755   2.2772   2.2785
  2.2793   2.2797   2.2814   2.2817   2.2849   2.2853   2.2863   2.2873
  2.2882   2.2892   2.2904   2.2913   2.2926   2.2932   2.2944   2.2948
  2.2954   2.2960   2.2970   2.2979   2.2995   2.3012   2.3025   2.3031
  2.3049   2.3061   2.3071   2.3081   2.3107   2.3120   2.3131   2.3144
  2.3147   2.3176   2.3186   2.3199   2.3202   2.3218   2.3230   2.3241
  2.3244   2.3253   2.3268   2.3291   2.3316   2.3348   2.3382   2.3386
  2.3403   2.3412   2.3422   2.3436   2.3474   2.3505   2.3513   2.3533
  2.3538   2.3550   2.3569   2.3587   2.3601   2.3641   2.3655   2.3680
  2.3692   2.3693   2.3710   2.3722   2.3736   2.3760   2.3791   2.3812
  2.3840   2.3890   2.3928   2.3936   2.3985   2.3989   2.4015   2.4052
  2.4087   2.4127   2.4156   2.4191   2.4237   2.4399   2.4809   2.4880
  2.5462   2.5560   2.6267   2.6917   2.7531   2.7684   2.7836   2.8236
  2.8289   2.8338   2.8353   2.8389   2.8405   2.8455   2.8464   2.8475
  2.8491   2.8551   2.8561   2.8583   2.8588   2.8607   2.8647   2.8679
  2.8699   2.8708   2.8727   2.8772   2.8781   2.8804   2.8807   2.8994
  2.9033   2.9120   2.9267   2.9771   3.0843   3.2717   3.9575   3.9580
  3.9663   3.9709   3.9770   3.9777   3.9799   3.9815   3.9822   3.9869
  3.9887   3.9937   3.9956   3.9979   4.0020   4.0044   4.0075   4.0124
  4.0127   4.0183   4.0197   4.0347   4.0386   4.0477   4.2258   4.2309
  4.2313   4.2349   4.2394   4.2440   4.2495   4.2523   4.2581   4.2627
  4.2659   4.2670   4.2697   4.2726   4.2766   4.2785   4.2798   4.2819
  4.2853   4.2870   4.2895   4.2917   4.2933   4.2983   4.3009   4.3026
  4.3062   4.3098   4.3131   4.3164   4.3171   4.3176   4.3209   4.3239
  4.3247   4.3281   4.3332   4.3369   4.3429   4.3487   4.3500   4.3510
  4.3560   4.3596   4.3607   4.3636   4.3655   4.3694   4.3747   4.3799
  4.3824   4.3851   4.3865   4.3909   4.3994   4.4024   4.4067   4.4163
  4.4184   4.4199   4.4268   4.4296   4.4330   4.4374   4.4499   4.4575
  4.4668   4.4738   4.4822   4.4874   4.5189   4.5321   4.5542   4.5706
  4.6328   4.6535   4.7157   4.7342   4.7485   4.8115   4.9388
 --------------------------------------------------------------
 
          Ground-State Mulliken Net Atomic Charges

     Atom                 Charge (a.u.)
  ----------------------------------------
      1 C                    -0.182477
      2 C                    -0.675882
      3 C                    -0.192308
      4 C                    -0.462564
      5 C                    -0.416775
      6 C                    -0.408848
      7 H                     0.219757
      8 H                     0.205311
      9 H                     0.224691
     10 H                     0.191529
     11 H                     0.219026
     12 H                     0.182747
     13 H                     0.159534
     14 H                     0.214870
     15 H                     0.259399
     16 H                     0.197657
     17 H                     0.205585
     18 N                    -0.428757
     19 H                     0.487099
     20 C                     0.334401
     21 H                     0.169966
     22 O                    -0.503959
     23 C                    -0.810258
     24 H                     0.238169
     25 H                     0.319421
     26 H                     0.271248
     27 S                     0.754957
     28 C                    -0.884024
     29 H                     0.256620
     30 H                     0.268091
     31 H                     0.229795
     32 O                    -0.694518
     33 C                    -0.747368
     34 H                     0.262968
     35 H                     0.282217
     36 H                     0.233496
     37 S                     0.834276
     38 C                    -0.938419
     39 H                     0.251772
     40 H                     0.239398
     41 H                     0.259632
     42 O                    -0.683504
     43 C                    -0.761267
     44 H                     0.226811
     45 H                     0.289940
     46 H                     0.283401
     47 S                     0.586764
     48 C                    -0.785258
     49 H                     0.280869
     50 H                     0.250569
     51 H                     0.252890
     52 O                    -0.735582
     53 C                    -0.833124
     54 H                     0.250880
     55 H                     0.249157
     56 H                     0.260229
     57 S                     0.800267
     58 C                    -0.760931
     59 H                     0.234740
     60 H                     0.262919
     61 H                     0.237061
     62 O                    -0.676275
     63 C                    -0.890551
     64 H                     0.270971
     65 H                     0.249173
     66 H                     0.239989
     67 S                     0.884297
     68 C                    -0.835633
     69 H                     0.266146
     70 H                     0.248976
     71 H                     0.278561
     72 O                    -0.725408
     73 C                    -0.746381
     74 H                     0.226295
     75 H                     0.285382
     76 H                     0.252323
     77 S                     0.796604
     78 C                    -0.887594
     79 H                     0.218581
     80 H                     0.310118
     81 H                     0.275399
     82 O                    -0.698645
     83 C                    -0.760595
     84 H                     0.280555
     85 H                     0.229584
     86 H                     0.232342
     87 S                     0.784842
     88 C                    -0.779355
     89 H                     0.259837
     90 H                     0.283680
     91 H                     0.260623
     92 O                    -0.685965
     93 C                    -0.808004
     94 H                     0.263506
     95 H                     0.235346
     96 H                     0.254893
     97 S                     1.073773
     98 C                    -1.028661
     99 H                     0.307675
    100 H                     0.280555
    101 H                     0.217118
    102 O                    -0.767154
    103 C                    -0.807041
    104 H                     0.250121
    105 H                     0.259226
    106 H                     0.258235
    107 S                     0.842443
    108 C                    -0.851399
    109 H                     0.303306
    110 H                     0.262134
    111 H                     0.214512
    112 O                    -0.689897
    113 C                    -0.827190
    114 H                     0.224631
    115 H                     0.255891
    116 H                     0.262776
    117 S                     0.908385
    118 C                    -0.903534
    119 H                     0.262359
    120 H                     0.268104
    121 H                     0.232794
    122 O                    -0.707200
    123 C                    -0.828963
    124 H                     0.287737
    125 H                     0.261069
    126 H                     0.229989
    127 S                     0.858598
    128 C                    -0.887611
    129 H                     0.250091
    130 H                     0.243563
    131 H                     0.235576
    132 O                    -0.662017
    133 C                    -1.071237
    134 H                     0.275606
    135 H                     0.253123
    136 H                     0.285819
    137 S                     1.314158
    138 C                    -0.973056
    139 H                     0.254166
    140 H                     0.241695
    141 H                     0.246557
    142 O                    -0.657520
    143 C                    -0.701865
    144 H                     0.260563
    145 H                     0.298619
    146 H                     0.260561
    147 S                     0.530665
    148 C                    -0.827222
    149 H                     0.260148
    150 H                     0.275002
    151 H                     0.283983
    152 O                    -0.679514
    153 C                    -0.951301
    154 H                     0.255704
    155 H                     0.254351
    156 H                     0.235763
    157 S                     0.801017
    158 C                    -0.809203
    159 H                     0.230874
    160 H                     0.244726
    161 H                     0.258663
    162 O                    -0.662570
    163 C                    -0.797120
    164 H                     0.240885
    165 H                     0.250647
    166 H                     0.271441
    167 S                     0.640479
    168 C                    -0.820326
    169 H                     0.291816
    170 H                     0.232518
    171 H                     0.293301
    172 O                    -0.560776
    173 C                    -0.957883
    174 H                     0.227510
    175 H                     0.264288
    176 H                     0.242526
    177 S                     1.050426
    178 C                    -0.956580
    179 H                     0.251421
    180 H                     0.272148
    181 H                     0.291964
    182 O                    -0.757108
    183 C                    -0.655819
    184 H                     0.249030
    185 H                     0.246010
    186 H                     0.276890
    187 S                     0.659629
    188 C                    -0.802844
    189 H                     0.271389
    190 H                     0.290375
    191 H                     0.255276
    192 O                    -0.727407
    193 C                    -0.682300
    194 H                     0.235957
    195 H                     0.241317
    196 H                     0.245332
    197 S                     0.710003
    198 C                    -0.886556
    199 H                     0.292641
    200 H                     0.256528
    201 H                     0.245501
    202 O                    -0.676194
    203 C                    -0.892209
    204 H                     0.283100
    205 H                     0.229241
    206 H                     0.271355
    207 S                     0.960148
    208 C                    -0.811067
    209 H                     0.237551
    210 H                     0.242279
    211 H                     0.242477
    212 O                    -0.759200
    213 C                    -0.837626
    214 H                     0.258942
    215 H                     0.278081
    216 H                     0.279277
    217 S                     0.782615
    218 C                    -0.802706
    219 H                     0.224360
    220 H                     0.230182
    221 H                     0.257353
    222 O                    -0.703591
    223 C                    -0.922452
    224 H                     0.272844
    225 H                     0.239130
    226 H                     0.247984
    227 S                     0.977468
    228 C                    -0.864722
    229 H                     0.229702
    230 H                     0.250198
    231 H                     0.308331
    232 O                    -0.689159
    233 C                    -1.125455
    234 H                     0.227145
    235 H                     0.282568
    236 H                     0.264518
    237 S                     1.402217
    238 C                    -1.049289
    239 H                     0.267363
    240 H                     0.268753
    241 H                     0.213624
    242 O                    -0.714704
    243 C                    -0.796326
    244 H                     0.257325
    245 H                     0.254053
    246 H                     0.228731
    247 S                     0.914654
    248 C                    -0.857407
    249 H                     0.232231
    250 H                     0.259778
    251 H                     0.245646
    252 O                    -0.720745
    253 C                    -0.803436
    254 H                     0.290751
    255 H                     0.244689
    256 H                     0.257173
    257 S                     0.683046
    258 C                    -0.895070
    259 H                     0.254992
    260 H                     0.263444
    261 H                     0.313096
    262 O                    -0.705780
  ----------------------------------------
  Sum of atomic charges =     0.000000

 -----------------------------------------------------------------
                    Cartesian Multipole Moments
 -----------------------------------------------------------------
    Charge (ESU x 10^10)
                -0.0000
    Dipole Moment (Debye)
         X       5.6984      Y       0.5368      Z      -3.0313
       Tot       6.4768
    Quadrupole Moments (Debye-Ang)
        XX    -458.8940     XY     280.6454     YY    -748.8860
        XZ     113.9466     YZ    -125.0081     ZZ   -1067.4010
    Octopole Moments (Debye-Ang^2)
       XXX  -50862.0967    XXY   -6060.8591    XYY  -10823.2598
       YYY  -62560.5580    XXZ  -12174.7564    XYZ    5178.4166
       YYZ  -25315.7885    XZZ  -22615.1481    YZZ  -31210.7061
       ZZZ  -80062.4175
    Hexadecapole Moments (Debye-Ang^3)
      XXXX ************   XXXY ************   XXYY -629098.5578
      XYYY ************   YYYY ************   XXXZ ************
      XXYZ -189459.2335   XYYZ -386835.4435   YYYZ ************
      XXZZ ************   XYZZ -580067.1217   YYZZ ************
      XZZZ ************   YZZZ ************   ZZZZ ************
 -----------------------------------------------------------------
Archival summary:
[...]
    3   0.0056181   0.0307446  -0.0259149   0.0082923  -0.0064912  -0.0202691
           85          86          87          88          89          90
    1   0.0124365   0.0117485  -0.0050327   0.0061241   0.0306836  -0.0057077
    2   0.0365485  -0.0195978   0.0393002  -0.0072397   0.0110989  -0.0132547
    3  -0.0086498  -0.0173977   0.0366168  -0.0009079  -0.0002837   0.0223739
           91          92          93          94          95          96
    1   0.0047187  -0.0794103  -0.0006993  -0.0212673  -0.0253142   0.0269375
    2  -0.0196177  -0.0751503   0.0023963  -0.0197756   0.0224208  -0.0008078
    3  -0.0233145  -0.0273572  -0.0064990  -0.0087883  -0.0070429  -0.0180239
           97          98          99         100         101         102
    1  -0.0400277   0.0047129   0.0046251   0.0266296  -0.0064259   0.0767685
    2  -0.0065530   0.0048147   0.0174862  -0.0156116   0.0263533  -0.0752053
    3   0.0375465   0.0033600   0.0309373  -0.0075160  -0.0137798  -0.0239348
          103         104         105         106         107         108
    1  -0.0106326   0.0009584  -0.0285927  -0.0031922   0.0058965  -0.0054015
    2  -0.0037982  -0.0192216   0.0165849  -0.0147997   0.0325241  -0.0004990
    3  -0.0032907   0.0249021   0.0140744  -0.0297315   0.0512587  -0.0107045
          109         110         111         112         113         114
    1   0.0226092  -0.0148992  -0.0258577   0.0721741  -0.0031513   0.0106071
    2   0.0119756  -0.0227576   0.0142412  -0.0792139  -0.0017351  -0.0311031
    3   0.0055748  -0.0261098   0.0044270  -0.0253762   0.0049350   0.0176608
          115         116         117         118         119         120
    1   0.0029420  -0.0310242   0.0009701   0.0057929   0.0211095  -0.0016872
    2   0.0191252  -0.0022252  -0.0385191   0.0054924   0.0115313   0.0211956
    3   0.0241134  -0.0040810  -0.0395292   0.0041542  -0.0210307   0.0229914
          121         122         123         124         125         126
    1   0.0182201  -0.0534446  -0.0044542  -0.0218869  -0.0054308   0.0185728
    2  -0.0242990   0.0960528  -0.0079813  -0.0069779  -0.0271626  -0.0151952
    3   0.0054255  -0.0128766   0.0015334   0.0191716  -0.0223268   0.0199809
          127         128         129         130         131         132
    1  -0.0362253   0.0061031   0.0237982   0.0207668   0.0031330   0.0063491
    2   0.0167300  -0.0012203   0.0253599  -0.0139937  -0.0136899   0.0459009
    3  -0.0427895   0.0013691  -0.0044727   0.0209222  -0.0264992   0.0989948
          133         134         135         136         137         138
    1  -0.0074957  -0.0317072   0.0026899  -0.0000112  -0.0030166  -0.0029837
    2  -0.0006041   0.0071193   0.0189939  -0.0312261  -0.0251716   0.0064741
    3  -0.0048521   0.0148911  -0.0260970  -0.0023687   0.0523644   0.0012448
          139         140         141         142         143         144
    1  -0.0268155   0.0262951  -0.0130087   0.0756003  -0.0032633   0.0003180
    2   0.0155056   0.0019748   0.0074970  -0.0273162   0.0040864  -0.0093625
    3   0.0193522   0.0116174  -0.0303947  -0.0744637  -0.0075200  -0.0322047
          145         146         147         148         149         150
    1  -0.0127081   0.0233911  -0.0079771   0.0022030   0.0200240   0.0131235
    2   0.0324190   0.0137970   0.0248922  -0.0074659   0.0056907  -0.0046834
    3  -0.0134248   0.0127931   0.0635603  -0.0007284  -0.0188131   0.0267154
          151         152         153         154         155         156
    1  -0.0100012  -0.0963961   0.0033024   0.0128851  -0.0075411   0.0291677
    2  -0.0281074  -0.0467605  -0.0019320   0.0102478  -0.0305627   0.0071280
    3   0.0052790  -0.0386561   0.0039987   0.0261618   0.0010083  -0.0136472
          157         158         159         160         161         162
    1  -0.0301896   0.0050024  -0.0162223   0.0204880  -0.0019136  -0.0568390
    2  -0.0332262   0.0053377   0.0245930   0.0124672  -0.0013636   0.0196329
    3  -0.0540725   0.0005561  -0.0051882   0.0278257  -0.0380352   0.0901093
          163         164         165         166         167         168
    1   0.0061969  -0.0134770   0.0008811   0.0246237  -0.0504887   0.0096061
    2  -0.0006641  -0.0161234   0.0332683  -0.0218159   0.0314674   0.0016319
    3  -0.0068972  -0.0191287  -0.0084633   0.0080928  -0.0055522   0.0145608
          169         170         171         172         173         174
    1   0.0225309   0.0085609  -0.0087635   0.0040679  -0.0079708  -0.0212364
    2  -0.0178125   0.0224486  -0.0020030  -0.0982234  -0.0006404  -0.0316336
    3   0.0104463  -0.0222129   0.0363362   0.0494963  -0.0021832  -0.0016428
          175         176         177         178         179         180
    1  -0.0052804   0.0202193   0.0193155  -0.0091505   0.0038423   0.0105461
    2   0.0335486  -0.0048854  -0.0483489   0.0021000  -0.0002372   0.0304818
    3  -0.0108665  -0.0186079   0.0219980   0.0029870   0.0290785  -0.0068721
          181         182         183         184         185         186
    1  -0.0345464   0.0616481   0.0084616   0.0021590   0.0313731   0.0197498
    2  -0.0177115   0.0842651  -0.0024117  -0.0190256   0.0111677  -0.0049198
    3   0.0102204  -0.0330556   0.0009597  -0.0304279  -0.0117210   0.0262058
          187         188         189         190         191         192
    1   0.0036085  -0.0060193   0.0016600   0.0162177  -0.0328153  -0.0399703
    2   0.0388623  -0.0088432  -0.0221738  -0.0048021   0.0038181   0.0145120
    3   0.0396477   0.0020890  -0.0251503   0.0303796  -0.0073603  -0.1004121
          193         194         195         196         197         198
    1  -0.0045531  -0.0370497  -0.0180163  -0.0040182   0.0265964  -0.0021721
    2  -0.0030561  -0.0078700   0.0055376   0.0254552   0.0010011  -0.0027657
    3   0.0003090  -0.0301545   0.0279527  -0.0074585  -0.0493945  -0.0004165
          199         200         201         202         203         204
    1  -0.0136563   0.0263235  -0.0191523   0.0291326  -0.0004592   0.0221369
    2  -0.0350817  -0.0201271  -0.0050655   0.0629116   0.0049942   0.0182027
    3  -0.0178815   0.0116863   0.0245598   0.0846920  -0.0074649  -0.0284919
          205         206         207         208         209         210
    1  -0.0260046   0.0053526   0.0164634  -0.0020252  -0.0117529  -0.0281862
    2   0.0102936   0.0193247  -0.0381203   0.0021700   0.0220574  -0.0108973
    3  -0.0242415   0.0203259  -0.0301523   0.0017276   0.0179688  -0.0197217
          211         212         213         214         215         216
    1  -0.0156404   0.0594298   0.0020795  -0.0109964   0.0327827   0.0110500
    2  -0.0242546   0.0518521   0.0037814   0.0243466   0.0125161  -0.0245957
    3   0.0212030   0.0771697  -0.0065226  -0.0266245  -0.0124682  -0.0210967
          217         218         219         220         221         222
    1   0.0324218  -0.0040069  -0.0218083   0.0048400  -0.0214374  -0.0587667
    2  -0.0231359  -0.0024400   0.0066617  -0.0297398  -0.0004352   0.0911829
    3   0.0391529  -0.0012599  -0.0221101  -0.0219351   0.0234465   0.0097723
          223         224         225         226         227         228
    1   0.0056251  -0.0004985   0.0255440  -0.0144198  -0.0487987   0.0079939
    2   0.0076936   0.0301254  -0.0083781  -0.0010409   0.0226902   0.0015396
    3   0.0011531   0.0186783   0.0067962  -0.0289797   0.0145809   0.0093148
          229         230         231         232         233         234
    1  -0.0180194   0.0283711   0.0000595   0.0088517  -0.0000198  -0.0301398
    2  -0.0246386  -0.0043960   0.0329701  -0.0835295  -0.0056078  -0.0040251
    3   0.0102903  -0.0120780   0.0154984  -0.0705065   0.0051210   0.0037852
          235         236         237         238         239         240
    1  -0.0070426   0.0094652   0.0083002  -0.0042215   0.0121220  -0.0007731
    2  -0.0295191   0.0183408   0.0544690  -0.0021074   0.0111756  -0.0282960
    3  -0.0221069   0.0283163   0.0212410  -0.0074188  -0.0274986  -0.0077895
          241         242         243         244         245         246
    1  -0.0280208   0.0807000   0.0048978  -0.0123795   0.0113998   0.0285993
    2   0.0159886  -0.0600233  -0.0039147   0.0001074  -0.0275060   0.0185446
    3   0.0129589  -0.0452559   0.0054690   0.0294574  -0.0099871   0.0008858
          247         248         249         250         251         252
    1   0.0150417  -0.0021022   0.0220034  -0.0280164   0.0012462  -0.0859201
    2   0.0063556   0.0065764   0.0276489   0.0096743  -0.0041163  -0.0619951
    3  -0.0522183   0.0045361  -0.0059688  -0.0116565   0.0316774   0.0309572
          253         254         255         256         257         258
    1  -0.0028049  -0.0031682   0.0115665  -0.0270753   0.0456657   0.0037051
    2  -0.0029306  -0.0293276   0.0216675   0.0056951  -0.0284932   0.0073328
    3   0.0037928   0.0187537   0.0141880  -0.0221623   0.0103033  -0.0106993
          259         260         261         262
    1  -0.0289695   0.0272946   0.0111474  -0.0866589
    2   0.0176982   0.0160000  -0.0068704  -0.0318655
    3  -0.0022552   0.0072316  -0.0313686  -0.0636219
  --- DONE ESP SUMMARY ---
Archival summary:
1\1\n0091.mhg0\SP\ProcedureUnspecified\6-31+G*\242448h22\ymao\FriMar1207:40:392021FriMar1207:40:392021\0\\#,ProcedureUnspecified,6-31+G*,\\0,1\S\O,1,1.49772\C,1,1.80651,2,102.079\H,3,1.09299,1,110.38,2,57.6584,0\H,3,1.09346,1,110.739,2,-177.448,0\H,3,1.09368,1,109.578,2,-60.5906,0\C,1,1.80658,2,96.7936,3,99.3087,0\H,7,1.0931,1,110.261,2,-150.843,0\H,7,1.09324,1,110.2,2,90.9182,0\H,7,1.09325,1,106.478,2,-26.7864,0\Gh,10,2.0968,7,141.743,1,-73.8448,0\Gh,11,1.09647,10,173.726,7,78.5192,0\Gh,12,1.46237,11,107.575,10,-114.939,0\Gh,13,1.01284,12,118.754,11,155.709,0\Gh,13,1.37834,12,116.955,11,-17.0777,0\Gh,15,1.1052,13,107.654,12,161.716,0\Gh,15,1.21767,13,127.393,12,-4.17849,0\Gh,12,1.53756,11,104.015,10,127.617,0\Gh,18,1.09639,12,108.117,11,175.487,0\Gh,18,1.09648,12,113.571,11,62.3542,0\Gh,18,1.53697,12,111.149,11,-67.4468,0\Gh,21,1.09645,18,108.108,12,-167.007,0\Gh,21,1.09697,18,111.187,12,77.3439,0\Gh,21,1.53769,18,115.895,12,-48.4131,0\Gh,24,1.09691,21,111.359,18,179.708,0\Gh,24,1.09754,21,104.365,18,-62.234,0\Gh,24,1.53734,21,112.974,18,48.6953,0\Gh,27,1.09656,24,109.035,21,66.9272,0\Gh,27,1.09763,24,107.591,21,-169.575,0\Gh,27,1.53731,24,109.753,21,-49.6031,0\Gh,30,1.09613,27,107.819,24,-58.208,0\Gh,30,1.09753,27,107.211,24,-178.562,0\O,14,1.97774,13,146.496,12,-94.2378,0\S,33,1.49755,14,100.204,13,-64.285,0\C,34,1.80661,33,106.6,14,-168.112,0\H,35,1.09267,34,101.032,33,65.0307,0\H,35,1.09351,34,102.608,33,-50.5384,0\H,35,1.09352,34,116.272,33,-169.333,0\C,34,1.80691,33,108.622,14,91.9331,0\H,39,1.09256,34,109.624,33,-141.206,0\H,39,1.09285,34,112.955,33,96.7594,0\H,39,1.09371,34,105.802,33,-18.1985,0\H,42,1.99576,39,117.582,34,73.3089,0\C,43,1.09285,42,121.602,39,74.6115,0\H,44,1.09354,43,108.58,42,-23.2719,0\H,44,1.09376,43,111.39,42,-136.977,0\S,44,1.80639,43,104.393,42,95.416,0\O,47,1.49723,44,106.621,43,-177.233,0\C,47,1.8069,44,98.8431,43,80.5326,0\H,49,1.09252,47,105.034,44,57.7404,0\H,49,1.09306,47,114.653,44,-67.1371,0\H,49,1.0937,47,106.412,44,166.961,0\H,25,2.15545,24,130.96,21,-43.5164,0\C,53,1.09226,25,138.011,24,-54.0249,0\H,54,1.09294,53,112.45,25,-109.529,0\H,54,1.09312,53,111.523,25,26.1523,0\S,54,1.80693,53,99.5971,25,133.614,0\O,57,1.49723,54,105.87,53,-24.0458,0\C,57,1.80713,54,95.0903,53,75.4711,0\H,59,1.09236,57,98.7499,54,-64.1168,0\H,59,1.09297,57,108.296,54,64.1609,0\H,59,1.09313,57,109.235,54,179.508,0\H,60,1.98597,59,138.895,57,107.517,0\C,63,1.09255,60,118.569,59,-174.601,0\H,64,1.09306,63,111.924,60,129.591,0\H,64,1.0938,63,110.76,60,10.7508,0\S,64,1.80716,63,112.901,60,-108.503,0\O,67,1.49715,64,105.158,63,164.158,0\C,67,1.80732,64,94.4922,63,60.0582,0\H,69,1.09237,67,110.185,64,51.0644,0\H,69,1.09274,67,109.231,64,172.798,0\H,69,1.09329,67,103.72,64,-72.0424,0\H,22,2.21608,21,110.788,18,-75.2283,0\C,73,1.09258,22,154.325,21,81.7443,0\H,74,1.09256,73,104.91,22,-69.8345,0\H,74,1.09334,73,109.069,22,53.1228,0\S,74,1.80712,73,110.519,22,175.973,0\O,77,1.49645,74,101.928,73,-172.137,0\C,77,1.80706,74,102.289,73,-64.3339,0\H,79,1.09261,77,110.261,74,83.4819,0\H,79,1.09294,77,116.675,74,-155.16,0\H,79,1.09366,77,109.975,74,-43.6624,0\H,75,1.89621,74,135.285,73,-65.7979,0\C,83,1.09299,75,157.468,74,78.1702,0\H,84,1.0933,83,109.115,75,69.8633,0\H,84,1.0934,83,110.008,75,-42.0126,0\S,84,1.80682,83,112.837,75,-158.483,0\O,87,1.49698,84,106.235,83,166.246,0\C,87,1.80736,84,96.7154,83,58.0632,0\H,89,1.09254,87,107.344,84,-63.6838,0\H,89,1.09274,87,112.015,84,170.481,0\H,89,1.0928,87,111.217,84,49.3781,0\H,45,2.33746,44,157.413,43,139.066,0\C,93,1.09333,45,126.4,44,-15.4416,0\H,94,1.09239,93,117.945,45,93.8602,0\H,94,1.09385,93,109.228,45,-152.339,0\S,94,1.80678,93,108.466,45,-33.0642,0\O,97,1.49754,94,108.906,93,-43.4108,0\C,97,1.80638,94,96.4462,93,-151.152,0\H,99,1.09267,97,101.661,94,88.3473,0\H,99,1.09316,97,111.232,94,-38.3792,0\H,99,1.09388,97,107.768,94,-155.203,0\H,100,2.18084,99,110.519,97,128.602,0\C,103,1.09342,100,100.707,99,-175.659,0\H,104,1.09239,103,114.536,100,-30.1439,0\H,104,1.0932,103,111.223,100,-156.773,0\S,104,1.80679,103,111.629,100,84.2939,0\O,107,1.49712,104,107.54,103,175.704,0\C,107,1.80712,104,97.7155,103,74.3952,0\H,109,1.0927,107,110.281,104,-78.4725,0\H,109,1.09334,107,107.904,104,48.2782,0\H,109,1.09347,107,105.266,104,169.474,0\H,22,2.33785,21,161.048,18,176.336,0\C,113,1.0929,22,149.618,21,-127.957,0\H,114,1.09273,113,116.161,22,99.5567,0\H,114,1.09333,113,111.011,22,-121.426,0\S,114,1.80637,113,100.26,22,-9.18968,0\O,117,1.49749,114,105.4,113,-65.4052,0\C,117,1.80728,114,97.7988,113,-165.405,0\H,119,1.09292,117,102.302,114,47.3605,0\H,119,1.09293,117,96.2246,114,-63.084,0\H,119,1.09336,117,112.099,114,173.416,0\H,65,2.36108,64,139.603,63,166,0\C,123,1.09293,65,151.983,64,141.086,0\H,124,1.09252,123,106.561,65,46.9858,0\H,124,1.0933,123,104.859,65,-68.809,0\S,124,1.80739,123,111.133,65,170.971,0\O,127,1.49719,124,106.219,123,-68.4123,0\C,127,1.80663,124,93.4,123,-169.786,0\H,129,1.09257,127,106.463,124,-80.3637,0\H,129,1.09312,127,114.93,124,159.396,0\H,129,1.0935,127,109.198,124,37.1382,0\H,132,2.30023,129,142.061,127,133.672,0\C,133,1.09336,132,96.3557,129,-152.989,0\H,134,1.09249,133,108.35,132,-172.884,0\H,134,1.09291,133,111.54,132,-49.1126,0\S,134,1.80744,133,108.446,132,68.0519,0\O,137,1.49757,134,100.147,133,126.637,0\C,137,1.80685,134,98.7725,133,25.296,0\H,139,1.09236,137,108.355,134,-60.1617,0\H,139,1.09262,137,108.407,134,175.134,0\H,139,1.0933,137,105.653,134,58.4185,0\H,133,2.13088,132,90.2773,129,82.127,0\C,143,1.09335,133,128.704,132,89.0134,0\H,144,1.09287,143,105.885,133,170.985,0\H,144,1.09305,143,111.242,133,60.0595,0\S,144,1.80732,143,113.429,133,-68.9571,0\O,147,1.49675,144,108.396,143,78.9449,0\C,147,1.80676,144,91.7655,143,-174.554,0\H,149,1.09248,147,109.991,144,-73.8757,0\H,149,1.09364,147,120.95,144,56.0764,0\H,149,1.09371,147,110.787,144,172.991,0\H,55,2.38172,54,91.7002,53,72.1267,0\C,153,1.09249,55,116.121,54,109.038,0\H,154,1.09259,153,113.962,55,-47.4023,0\H,154,1.09298,153,118.196,55,70.424,0\S,154,1.8071,153,108.304,55,-164.838,0\O,157,1.49709,154,105.528,153,-148.678,0\C,157,1.80664,154,95.7997,153,-43.0494,0\H,159,1.09276,157,111.234,154,62.8968,0\H,159,1.09281,157,113.277,154,-176.52,0\H,159,1.09389,157,109.371,154,-55.8961,0\H,155,2.14721,154,146.019,153,151.09,0\C,163,1.09286,155,115.829,154,-60.386,0\H,164,1.09332,163,120.21,155,-14.0563,0\H,164,1.09361,163,106.517,155,125.546,0\S,164,1.80659,163,100.121,155,-129.126,0\O,167,1.49693,164,103.607,163,-46.9781,0\C,167,1.80707,164,95.2059,163,58.9622,0\H,169,1.09288,167,104.904,164,77.3209,0\H,169,1.09297,167,103.755,164,-166.704,0\H,169,1.09366,167,116.583,164,-46.5776,0\H,151,2.40229,149,121.882,147,92.7066,0\C,173,1.09322,151,129.974,149,25.3087,0\H,174,1.09229,173,112.521,151,-165.217,0\H,174,1.09285,173,112.492,151,-53.0913,0\S,174,1.80749,173,117.618,151,71.0368,0\O,177,1.49694,174,97.8175,173,62.0365,0\C,177,1.80699,174,97.2564,173,165.295,0\H,179,1.09226,177,110.375,174,155.8,0\H,179,1.09239,177,105.04,174,38.4282,0\H,179,1.09396,177,111.885,174,-74.7887,0\H,176,2.2605,174,155.901,173,91.4361,0\C,183,1.09403,176,150.034,174,-141.274,0\H,184,1.0925,183,111.505,176,-125.54,0\H,184,1.09256,183,110.393,176,111.339,0\S,184,1.80687,183,106.738,176,-3.83232,0\O,187,1.49774,184,109.368,183,170.61,0\C,187,1.80719,184,97.3162,183,-89.2278,0\H,189,1.09229,187,112.167,184,-39.5202,0\H,189,1.09297,187,104.283,184,81.1786,0\H,189,1.09389,187,106.192,184,-162.344,0\H,180,2.29675,179,123.02,177,-50.9881,0\C,193,1.09285,180,139.481,179,-81.9478,0\H,194,1.0928,193,112.377,180,-130.21,0\H,194,1.09319,193,117.813,180,103.336,0\S,194,1.80696,193,105.105,180,-19.2076,0\O,197,1.49741,194,102.591,193,73.8616,0\C,197,1.80718,194,101.419,193,179.139,0\H,199,1.09241,197,111.725,194,-51.4266,0\H,199,1.09252,197,115.897,194,80.7157,0\H,199,1.09309,197,102.534,194,-164.908,0\H,195,2.24692,194,138.735,193,-39.4448,0\C,203,1.0931,195,124.073,194,138.803,0\H,204,1.09278,203,111.831,195,160.42,0\H,204,1.09295,203,103.288,195,-75.7847,0\S,204,1.80696,203,113.183,195,43.529,0\O,207,1.49632,204,106.307,203,-40.0082,0\C,207,1.80666,204,97.1217,203,63.8855,0\H,209,1.09282,207,111.933,204,179.468,0\H,209,1.09287,207,101.375,204,62.0964,0\H,209,1.09323,207,109.689,204,-48.7759,0\H,162,2.45551,159,133.255,157,161.31,0\C,213,1.09269,162,104.254,159,-64.0302,0\H,214,1.09284,213,113.544,162,31.2356,0\H,214,1.09331,213,108.308,162,158.077,0\S,214,1.80702,213,98.71,162,-90.074,0\O,217,1.49697,214,94.6666,213,97.9946,0\C,217,1.80695,214,98.6889,213,-153.512,0\H,219,1.09211,217,105.054,214,60.8953,0\H,219,1.09304,217,105.282,214,-56.8467,0\H,219,1.0935,217,101.11,214,-176.878,0\H,8,2.46237,7,176.59,1,-106.495,0\C,223,1.0932,8,120.137,7,171.331,0\H,224,1.09271,223,105.259,8,-7.47886,0\H,224,1.09338,223,108.19,8,114.648,0\S,224,1.80773,223,108.528,8,-124.133,0\O,227,1.49759,224,102.083,223,-176.773,0\C,227,1.80706,224,97.237,223,-66.9664,0\H,229,1.09228,227,102.288,224,-50.6502,0\H,229,1.09325,227,106.667,224,-176.703,0\H,229,1.09384,227,108.8,224,62.6443,0\H,223,2.33023,8,67.6378,7,9.801,0\C,233,1.09279,223,145.418,8,-100.065,0\H,234,1.09225,233,111.805,223,64.1261,0\H,234,1.0938,233,106.934,223,-175.03,0\S,234,1.80664,233,110.263,223,-48.5959,0\O,237,1.49669,234,100.325,233,32.3264,0\C,237,1.80708,234,91.3163,233,-72.3718,0\H,239,1.09268,237,110.688,234,157.945,0\H,239,1.09301,237,109.479,234,36.4958,0\H,239,1.09351,237,110.951,234,-77.4685,0\H,226,2.4245,224,124.285,223,-178.381,0\C,243,1.09308,226,134.028,224,24.5647,0\H,244,1.09318,243,106.704,226,6.41265,0\H,244,1.09318,243,106.162,226,-115.182,0\S,244,1.80723,243,108.43,226,124.609,0\O,247,1.49718,244,102.931,243,-69.1617,0\C,247,1.8065,244,99.8146,243,-176.069,0\H,249,1.09248,247,106.065,244,150.087,0\H,249,1.09289,247,100.922,244,-84.1778,0\H,249,1.09354,247,109.772,244,29.0778,0\O,206,2.70276,204,113.598,203,-129.599,0\S,253,1.49701,206,130.566,204,121.523,0\C,254,1.80681,253,105.401,206,112.243,0\H,255,1.09254,254,105.255,253,-177.11,0\H,255,1.09265,254,111.1,253,62.4059,0\H,255,1.09353,254,112.669,253,-57.3245,0\C,254,1.80717,253,104.377,206,-150.526,0\H,259,1.09299,254,109.256,253,-168.801,0\H,259,1.09311,254,110.355,253,-44.5713,0\H,259,1.0932,254,108.553,253,71.8224,0\\\@

 Total job time:  53.76s(wall), 188.12s(cpu) 
 Fri Mar 12 07:40:39 2021

        *************************************************************
        *                                                           *
        *  Thank you very much for using Q-Chem.  Have a nice day.  *
        *                                                           *
        *************************************************************


