                  Welcome to Q-Chem
     A Quantum Leap Into The Future Of Chemistry


 Q-Chem 5.2 (devel), Q-Chem, Inc., Pleasanton, CA (2019)

 Yihan Shao,  Zhengting Gan,  E. Epifanovsky,  A. T. B. Gilbert,  M. Wormit,  
 J. Kussmann,  A. W. Lange,  A. Behn,  Jia Deng,  Xintian Feng,  D. Ghosh,  
 M. Goldey,  P. R. Horn,  L. D. Jacobson,  I. Kaliman,  T. Kus,  A. Landau,  
 Jie Liu,  E. I. Proynov,  R. M. Richard,  R. P. Steele,  E. J. Sundstrom,  
 H. L. Woodcock III,  P. M. Zimmerman,  D. Zuev,  B. Alam,  B. Albrecht,  
 E. Alguire,  S. A. Baeppler,  D. Barton,  Z. Benda,  Y. A. Bernard,  
 E. J. Berquist,  K. B. Bravaya,  H. Burton,  K. Carter-Fenk,  D. Casanova,  
 Chun-Min Chang,  Yunqing Chen,  A. Chien,  K. D. Closser,  M. P. Coons,  
 S. Coriani,  S. Dasgupta,  A. L. Dempwolff,  M. Diedenhofen,  Hainam Do,  
 R. G. Edgar,  Po-Tung Fang,  S. Faraji,  S. Fatehi,  Qingguo Feng,  
 J. Fosso-Tande,  J. Gayvert,  Qinghui Ge,  A. Ghysels,  G. Gidofalvi,  
 J. Gomes,  J. Gonthier,  A. Gunina,  D. Hait,  M. W. D. Hanson-Heine,  
 P. H. P. Harbach,  A. W. Hauser,  M. F. Herbst,  J. E. Herr,  
 E. G. Hohenstein,  Z. C. Holden,  Kerwin Hui,  B. C. Huynh,  T.-C. Jagau,  
 Hyunjun Ji,  B. Kaduk,  K. Khistyaev,  Jaehoon Kim,  P. Klunzinger,  K. Koh,  
 D. Kosenkov,  L. Koulias,  T. Kowalczyk,  C. M. Krauter,  A. Kunitsa,  
 Ka Un Lao,  A. Laurent,  K. V. Lawler,  Joonho Lee,  D. Lefrancois,  
 S. Lehtola,  D. S. Levine,  Yi-Pei Li,  You-Sheng Lin,  Fenglai Liu,  
 Kuan-Yu Liu,  E. Livshits,  M. Loipersberger,  A. Luenser,  P. Manohar,  
 E. Mansoor,  S. F. Manzer,  Shan-Ping Mao,  Yuezhi Mao,  N. Mardirossian,  
 A. V. Marenich,  T. Markovich,  L. A. Martinez-Martinez,  S. A. Maurer,  
 N. J. Mayhall,  S. C. McKenzie,  J.-M. Mewes,  P. Morgante,  A. F. Morrison,  
 J. W. Mullinax,  K. Nanda,  T. S. Nguyen-Beck,  R. Olivares-Amaya,  
 J. A. Parkhill,  S. K. Paul,  F. Pavosevic,  Zheng Pei,  T. M. Perrine,  
 F. Plasser,  P. Pokhilko,  S. Prager,  A. Prociuk,  E. Ramos,  B. Rana,  
 D. R. Rehn,  F. Rob,  M. Scheurer,  M. Schneider,  N. Sergueev,  
 S. M. Sharada,  S. Sharma,  D. W. Small,  T. Stauch,  C. J. Stein,  
 T. Stein,  Yu-Chuan Su,  S. P. Veccham,  Zhen Tao,  A. J. W. Thom,  
 A. Tkatchenko,  T. Tsuchimochi,  N. M. Tubman,  L. Vogt,  M. L. Vidal,  
 O. Vydrov,  M. A. Watson,  J. Wenzel,  M. de Wergifosse,  T. A. Wesolowski,  
 A. White,  J. Witte,  A. Yamada,  Jun Yang,  K. Yao,  S. Yeganeh,  
 S. R. Yost,  Zhi-Qiang You,  A. Zech,  Igor Ying Zhang,  Xing Zhang,  
 Yan Zhao,  Ying Zhu,  B. R. Brooks,  G. K. L. Chan,  C. J. Cramer,  
 M. S. Gordon,  W. J. Hehre,  A. Klamt,  M. W. Schmidt,  C. D. Sherrill,  
 D. G. Truhlar,  A. Aspuru-Guzik,  R. Baer,  A. T. Bell,  N. A. Besley,  
 Jeng-Da Chai,  A. E. DePrince, III,  R. A. DiStasio Jr.,  A. Dreuw,  
 B. D. Dunietz,  T. R. Furlani,  Chao-Ping Hsu,  Yousung Jung,  Jing Kong,  
 D. S. Lambrecht,  WanZhen Liang,  C. Ochsenfeld,  V. A. Rassolov,  
 L. V. Slipchenko,  J. E. Subotnik,  T. Van Voorhis,  J. M. Herbert,  
 A. I. Krylov,  P. M. W. Gill,  M. Head-Gordon

 Contributors to earlier versions of Q-Chem not listed above: 
 R. D. Adamson,  B. Austin,  J. Baker,  G. J. O. Beran,  K. Brandhorst,  
 S. T. Brown,  E. F. C. Byrd,  A. K. Chakraborty,  C.-L. Cheng,  
 Siu Hung Chien,  D. M. Chipman,  D. L. Crittenden,  H. Dachsel,  
 R. J. Doerksen,  A. D. Dutoi,  L. Fusti-Molnar,  W. A. Goddard III,  
 A. Golubeva-Zadorozhnaya,  S. R. Gwaltney,  G. Hawkins,  A. Heyden,  
 S. Hirata,  G. Kedziora,  F. J. Keil,  C. Kelley,  Jihan Kim,  R. A. King,  
 R. Z. Khaliullin,  P. P. Korambath,  W. Kurlancheek,  A. M. Lee,  M. S. Lee,  
 S. V. Levchenko,  Ching Yeh Lin,  D. Liotard,  R. C. Lochan,  I. Lotan,  
 P. E. Maslen,  N. Nair,  D. P. O'Neill,  D. Neuhauser,  E. Neuscamman,  
 C. M. Oana,  R. Olson,  B. Peters,  R. Peverati,  P. A. Pieniazek,  
 Y. M. Rhee,  J. Ritchie,  M. A. Rohrdanz,  E. Rosta,  N. J. Russ,  
 H. F. Schaefer III,  N. E. Schultz,  N. Shenvi,  A. C. Simmonett,  A. Sodt,  
 D. Stuck,  K. S. Thanthiriwatte,  V. Vanovschi,  Tao Wang,  A. Warshel,  
 C. F. Williams,  Q. Wu,  X. Xu,  W. Zhang

 Please cite Q-Chem as follows:
 Y. Shao et al., Mol. Phys. 113, 184-215 (2015)
 DOI: 10.1080/00268976.2014.952696

 Q-Chem 5.2.2 for Intel X86 EM64T Linux

 Parts of Q-Chem use Armadillo 9.800.1 (Horizon Scraper).
 http://arma.sourceforge.net/

 Q-Chem begins on Thu Mar 11 13:37:36 2021  

Host: n0073.mhg0
0

     Scratch files written to /local/scratch/users/ymao/r7.00_frame_0015_almo_B3LYP_dp.in20210311133731//

Checking the input file for inconsistencies... 	...done.

--------------------------------------------------------------
User input:
--------------------------------------------------------------
$molecule
0 1
--
0 1
C    21.39500   18.96200   28.26300  
C    22.74400   18.22700   28.21400  
C    23.78700   19.16800   27.58800  
C    23.91600   20.53200   28.28600  
C    22.56200   21.20900   28.55700  
C    21.50700   20.23800   29.11300  
H    24.74900   18.64100   27.56000  
H    23.19600   17.94500   29.17200  
H    21.04700   19.32000   27.28600  
H    20.63700   18.33900   28.75300  
H    24.43000   20.44500   29.25000  
H    24.51900   21.14700   27.60600  
H    22.60500   22.10600   29.18600  
H    22.15100   21.58500   27.61300  
H    21.83900   19.89400   30.10100  
H    20.56500   20.79800   29.16100  
H    23.53600   19.31700   26.53100  
N    22.78000   16.99100   27.43300  
H    23.42200   16.94800   26.65100  
C    22.07500   15.84700   27.73800  
H    22.26300   15.05400   26.99200  
O    21.40000   15.77600   28.75000  
--
0 1
C    23.31600   24.70700   27.94300  
H    22.81900   24.90000   26.98900  
H    24.00300   23.86900   27.79800  
H    22.54200   24.41600   28.65800  
S    24.18800   26.22600   28.38600  
C    25.13900   26.24400   26.84900  
H    24.45300   26.55800   26.05800  
H    25.97700   26.94000   26.94300  
H    25.59900   25.29800   26.55300  
O    25.01300   25.76900   29.54900  
C    18.49300   21.12400   25.22100  
H    18.84100   20.73000   24.26300  
H    18.23300   20.28300   25.86800  
H    17.63100   21.73800   24.94800  
S    19.99000   21.82100   25.95600  
C    19.93500   23.41300   25.10400  
H    20.82200   24.00900   25.33100  
H    19.90000   23.11100   24.05400  
H    18.97000   23.90500   25.25200  
O    21.05900   20.98000   25.33100  
C    24.58500   27.60200   33.17100  
H    24.93300   27.56300   32.13500  
H    24.99700   28.37300   33.82700  
H    24.79600   26.69800   33.74700  
S    22.78600   27.77200   33.18000  
C    22.48600   26.38100   32.06600  
H    21.44100   26.37100   31.74700  
H    22.97700   26.46700   31.09300  
H    22.88900   25.47500   32.52500  
O    22.53400   28.94500   32.28500  
C    19.23300   8.01200    26.82200  
H    20.30800   7.91400    26.64600  
H    18.84100   7.38300    27.62500  
H    18.59100   7.91500    25.94300  
S    19.00200   9.68300    27.47000  
C    20.14200   10.58400   26.39600  
H    19.48600   10.93100   25.59300  
H    20.48000   11.50900   26.86900  
H    20.96800   9.93100    26.10300  
O    19.81600   9.51500    28.71500  
C    27.44700   16.42800   29.16500  
H    26.99000   16.12800   30.11200  
H    26.62500   16.60700   28.46800  
H    28.06400   15.58800   28.83500  
S    28.41100   17.94600   29.34600  
C    26.96800   18.91100   29.84700  
H    26.14700   18.67900   29.16400  
H    26.56100   18.66700   30.83200  
H    27.24200   19.96800   29.80300  
O    28.61900   18.33700   27.91600  
C    20.72600   21.20600   32.60000  
H    21.40400   21.42500   33.42900  
H    21.18900   20.45500   31.95500  
H    20.48600   22.18800   32.18600  
S    19.29300   20.49300   33.44000  
C    18.31700   19.97800   32.00900  
H    18.89400   19.42500   31.26300  
H    17.45900   19.37700   32.32100  
H    18.09000   20.95600   31.57800  
O    18.58100   21.74100   33.86000  
C    13.80200   19.66300   27.70100  
H    13.65800   18.58100   27.74300  
H    13.07600   20.15200   28.35500  
H    13.67100   19.93200   26.65000  
S    15.50500   20.06600   28.15000  
C    15.37500   21.75900   27.53100  
H    16.38300   22.10100   27.28500  
H    14.71300   21.72300   26.66200  
H    15.05700   22.42200   28.33900  
O    16.25300   19.49900   26.98400  
C    25.76800   11.73000   26.99900  
H    26.33200   12.66400   26.95000  
H    26.28000   10.86500   27.42800  
H    25.39100   11.53900   25.99100  
S    24.36500   12.16300   28.05300  
C    23.33500   10.68000   28.11300  
H    23.90800   9.79000    28.38700  
H    22.39800   10.79900   28.66300  
H    22.93200   10.44500   27.12400  
O    23.44800   13.09800   27.32700  
C    27.60200   24.68400   30.99300  
H    28.44400   24.79100   31.68300  
H    27.54800   25.51600   30.28600  
H    26.65600   24.58300   31.53000  
S    28.00900   23.15300   30.12400  
C    26.45600   22.94000   29.22600  
H    25.70900   22.48900   29.88300  
H    26.23700   23.93100   28.82200  
H    26.65000   22.20200   28.44300  
O    28.05000   22.10100   31.18800  
C    24.10000   22.97900   32.15500  
H    23.08100   23.37200   32.10100  
H    24.71600   23.40200   31.35800  
H    24.13900   21.89400   32.03200  
S    24.79300   23.22600   33.80600  
C    26.26700   22.18500   33.71100  
H    26.38900   21.71100   34.68900  
H    26.02800   21.42200   32.96600  
H    27.10200   22.80900   33.38100  
O    23.83700   22.46200   34.66700  
C    24.21900   15.63600   30.75400  
H    23.30900   15.77400   31.34400  
H    24.95800   16.32300   31.17400  
H    24.07000   15.85600   29.69300  
S    24.72900   13.97800   31.26000  
C    25.13200   14.22400   33.00400  
H    25.93500   14.95800   33.11000  
H    24.19100   14.50400   33.48500  
H    25.48500   13.30500   33.48000  
O    26.16200   13.80800   30.86300  
C    18.15300   24.29700   31.11300  
H    18.46900   23.29200   31.40400  
H    18.40800   25.02500   31.88700  
H    17.06700   24.23600   31.00800  
S    18.90200   24.80300   29.54800  
C    18.48000   23.33200   28.58700  
H    17.49000   22.91600   28.79200  
H    18.55200   23.53200   27.51500  
H    19.30000   22.66000   28.85300  
O    20.36400   24.59200   29.79000  
C    15.62600   17.34800   30.12600  
H    14.65900   17.83300   30.28500  
H    16.47500   18.03400   30.08800  
H    15.62500   16.80500   29.17700  
S    15.95300   16.33300   31.58500  
C    14.53800   15.25800   31.25500  
H    14.70500   14.96200   30.21600  
H    14.57400   14.40400   31.93600  
H    13.56600   15.73300   31.40800  
O    15.46000   17.33800   32.57800  
C    19.95200   14.74400   32.24900  
H    20.64200   14.51900   31.43200  
H    19.62900   13.85900   32.80300  
H    19.01700   15.07300   31.78800  
S    20.62500   15.99700   33.36400  
C    20.51000   17.36700   32.19200  
H    21.01000   17.16200   31.24200  
H    19.44400   17.45700   31.97000  
H    20.93400   18.26200   32.65500  
O    22.09900   15.74100   33.31200  
C    22.20500   22.95700   22.30700  
H    22.16100   22.87500   21.21800  
H    21.38400   22.40600   22.77200  
H    22.06600   24.03300   22.44100  
S    23.74700   22.32000   23.00200  
C    23.36500   23.09300   24.59000  
H    24.22400   23.05400   25.26400  
H    23.14000   24.16000   24.51000  
H    22.46800   22.63700   25.01700  
O    24.72600   23.21400   22.30600  
C    16.40400   16.79200   25.54000  
H    15.84800   16.13500   24.86500  
H    15.81600   17.18900   26.37100  
H    16.93700   17.56600   24.98200  
S    17.49700   15.62500   26.38100  
C    18.39100   16.83600   27.38100  
H    17.67500   17.42900   27.95500  
H    18.90400   16.31200   28.19200  
H    19.02700   17.45500   26.74300  
O    18.46100   15.12000   25.35300  
C    19.46700   20.72800   36.97700  
H    19.39400   21.21800   37.95100  
H    19.29900   21.46600   36.18800  
H    18.71900   19.95500   36.78300  
S    21.00700   19.78600   37.03200  
C    21.86100   21.36000   36.79300  
H    21.72700   21.99800   37.67100  
H    22.92700   21.11800   36.79800  
H    21.63800   21.83300   35.83300  
O    21.14700   19.24700   35.64200  
C    27.25200   17.71300   23.55000  
H    26.40500   18.39500   23.44700  
H    27.07000   17.10300   24.43900  
H    28.22900   18.15700   23.75800  
S    27.42900   16.78900   22.00700  
C    26.28300   15.47900   22.49300  
H    26.37500   15.34500   23.57400  
H    25.28000   15.87700   22.31800  
H    26.37100   14.49400   22.02800  
O    28.81000   16.23200   22.16100  
C    24.72000   18.67400   35.69600  
H    24.40400   17.63900   35.84800  
H    25.53300   18.85500   36.40200  
H    24.02700   19.50300   35.86100  
S    25.40700   18.78800   34.02800  
C    23.83100   19.01800   33.17400  
H    23.13600   18.21200   33.42300  
H    23.41000   19.98400   33.46400  
H    24.04200   18.92200   32.10600  
O    25.92900   17.40800   33.77700  
C    23.49500   19.04300   22.99300  
H    24.31100   19.03900   22.26600  
H    22.62300   19.35200   22.41100  
H    23.78000   19.64300   23.86100  
S    23.07500   17.33800   23.41700  
C    21.56600   17.68000   24.35000  
H    21.44900   16.75800   24.92600  
H    21.70600   18.50300   25.05600  
H    20.64200   17.70300   23.76700  
O    23.89400   16.96900   24.61400  
C    18.88700   27.70600   24.51100  
H    18.77700   28.40200   23.67600  
H    18.52300   26.73000   24.17900  
H    18.23300   28.00100   25.33500  
S    20.60200   27.29500   24.90400  
C    21.42800   28.71400   24.14800  
H    20.93500   29.05900   23.23500  
H    21.42000   29.50300   24.90300  
H    22.44200   28.40100   23.88400  
O    20.96400   26.20500   23.94400  
C    28.33400   20.73500   25.80600  
H    28.30200   19.69800   25.46000  
H    29.28400   21.14200   25.45200  
H    28.28600   20.73200   26.89700  
S    26.93100   21.68300   25.17300  
C    27.71400   22.18700   23.62400  
H    28.00900   21.26700   23.11400  
H    27.05600   22.79800   23.00100  
H    28.57400   22.81900   23.86200  
O    26.84900   22.92800   26.00200  
C    28.28300   14.71600   26.11100  
H    28.50700   14.00800   26.91200  
H    28.24800   15.73000   26.51900  
H    27.34400   14.47700   25.60500  
S    29.57500   14.67500   24.84800  
C    29.77500   12.88900   24.66000  
H    28.78800   12.42100   24.63600  
H    30.28500   12.70100   23.71200  
H    30.39600   12.49600   25.47000  
O    30.71200   14.96800   25.77700  
C    14.06900   21.06900   32.08200  
H    13.50000   21.35900   32.97000  
H    13.36600   21.11300   31.24700  
H    14.51400   20.07100   32.06900  
S    15.41700   22.26800   31.97700  
C    14.44500   23.76800   31.71200  
H    14.03600   23.57900   30.71600  
H    13.69800   23.72800   32.51000  
H    14.99400   24.71200   31.75500  
O    15.93200   21.98300   30.60100  
C    16.60600   12.00200   29.97400  
H    16.77700   12.37200   30.98800  
H    15.53300   12.12700   29.80700  
H    17.03800   11.00800   29.83100  
S    17.49700   13.14000   28.88900  
C    19.21700   12.83800   29.35300  
H    19.60200   11.84500   29.10800  
H    19.85000   13.61200   28.91100  
H    19.24300   12.99300   30.43400  
O    17.28800   14.53900   29.37800  
C    20.89300   12.96500   23.52400  
H    20.71500   13.65000   24.35700  
H    20.95900   13.67700   22.69800  
H    19.99600   12.40000   23.25500  
S    22.39200   11.98700   23.77400  
C    23.46900   13.43700   23.83100  
H    23.25500   14.04300   22.94700  
H    23.23500   14.02800   24.72000  
H    24.55500   13.32800   23.89100  
O    22.61200   11.35800   22.43300  
C    18.13700   14.57200   19.90800  
H    17.82200   15.57000   19.59400  
H    18.95500   14.11500   19.34500  
H    17.24000   13.94900   19.96100  
S    18.73800   14.80600   21.59600  
C    17.34900   15.87300   22.03800  
H    16.51300   15.65400   21.36900  
H    17.10500   15.67500   23.08500  
H    17.56400   16.93800   21.92000  
O    19.83300   15.80400   21.38300  
$end

$rem
JOBTYPE  SP
METHOD  B3LYP
BASIS  6-31+G(D)
SYMMETRY  FALSE
SYM_IGNORE  TRUE
MEM_TOTAL  16000
MEM_STATIC  8000
MAX_SUB_FILE_NUM  16000
BASIS_LIN_DEP_THRESH  6
THRESH  14
SCF_CONVERGENCE  8
GEN_SCFMAN  TRUE
SCF_GUESS  FRAGMO
FD_MAT_VEC_PROD  FALSE
XC_GRID  000075000302
NL_GRID  1
MAX_SCF_CYCLES  200
FRGM_METHOD  STOLL
SCFMI_MODE  1
$end

$development
almo_efield  1
$end

$rem_frgm
SCF_CONVERGENCE  4
$end

--------------------------------------------------------------
 ----------------------------------------------------------------
             Standard Nuclear Orientation (Angstroms)
    I     Atom           X                Y                Z
 ----------------------------------------------------------------
    1      C      21.3950000000    18.9620000000    28.2630000000
    2      C      22.7440000000    18.2270000000    28.2140000000
    3      C      23.7870000000    19.1680000000    27.5880000000
    4      C      23.9160000000    20.5320000000    28.2860000000
    5      C      22.5620000000    21.2090000000    28.5570000000
    6      C      21.5070000000    20.2380000000    29.1130000000
    7      H      24.7490000000    18.6410000000    27.5600000000
    8      H      23.1960000000    17.9450000000    29.1720000000
    9      H      21.0470000000    19.3200000000    27.2860000000
   10      H      20.6370000000    18.3390000000    28.7530000000
   11      H      24.4300000000    20.4450000000    29.2500000000
   12      H      24.5190000000    21.1470000000    27.6060000000
   13      H      22.6050000000    22.1060000000    29.1860000000
   14      H      22.1510000000    21.5850000000    27.6130000000
   15      H      21.8390000000    19.8940000000    30.1010000000
   16      H      20.5650000000    20.7980000000    29.1610000000
   17      H      23.5360000000    19.3170000000    26.5310000000
   18      N      22.7800000000    16.9910000000    27.4330000000
   19      H      23.4220000000    16.9480000000    26.6510000000
   20      C      22.0750000000    15.8470000000    27.7380000000
   21      H      22.2630000000    15.0540000000    26.9920000000
   22      O      21.4000000000    15.7760000000    28.7500000000
   23      C      23.3160000000    24.7070000000    27.9430000000
   24      H      22.8190000000    24.9000000000    26.9890000000
   25      H      24.0030000000    23.8690000000    27.7980000000
   26      H      22.5420000000    24.4160000000    28.6580000000
   27      S      24.1880000000    26.2260000000    28.3860000000
   28      C      25.1390000000    26.2440000000    26.8490000000
   29      H      24.4530000000    26.5580000000    26.0580000000
   30      H      25.9770000000    26.9400000000    26.9430000000
   31      H      25.5990000000    25.2980000000    26.5530000000
   32      O      25.0130000000    25.7690000000    29.5490000000
   33      C      18.4930000000    21.1240000000    25.2210000000
   34      H      18.8410000000    20.7300000000    24.2630000000
   35      H      18.2330000000    20.2830000000    25.8680000000
   36      H      17.6310000000    21.7380000000    24.9480000000
   37      S      19.9900000000    21.8210000000    25.9560000000
   38      C      19.9350000000    23.4130000000    25.1040000000
   39      H      20.8220000000    24.0090000000    25.3310000000
   40      H      19.9000000000    23.1110000000    24.0540000000
   41      H      18.9700000000    23.9050000000    25.2520000000
   42      O      21.0590000000    20.9800000000    25.3310000000
   43      C      24.5850000000    27.6020000000    33.1710000000
   44      H      24.9330000000    27.5630000000    32.1350000000
   45      H      24.9970000000    28.3730000000    33.8270000000
   46      H      24.7960000000    26.6980000000    33.7470000000
   47      S      22.7860000000    27.7720000000    33.1800000000
   48      C      22.4860000000    26.3810000000    32.0660000000
   49      H      21.4410000000    26.3710000000    31.7470000000
   50      H      22.9770000000    26.4670000000    31.0930000000
   51      H      22.8890000000    25.4750000000    32.5250000000
   52      O      22.5340000000    28.9450000000    32.2850000000
   53      C      19.2330000000     8.0120000000    26.8220000000
   54      H      20.3080000000     7.9140000000    26.6460000000
   55      H      18.8410000000     7.3830000000    27.6250000000
   56      H      18.5910000000     7.9150000000    25.9430000000
   57      S      19.0020000000     9.6830000000    27.4700000000
   58      C      20.1420000000    10.5840000000    26.3960000000
   59      H      19.4860000000    10.9310000000    25.5930000000
   60      H      20.4800000000    11.5090000000    26.8690000000
   61      H      20.9680000000     9.9310000000    26.1030000000
   62      O      19.8160000000     9.5150000000    28.7150000000
   63      C      27.4470000000    16.4280000000    29.1650000000
   64      H      26.9900000000    16.1280000000    30.1120000000
   65      H      26.6250000000    16.6070000000    28.4680000000
   66      H      28.0640000000    15.5880000000    28.8350000000
   67      S      28.4110000000    17.9460000000    29.3460000000
   68      C      26.9680000000    18.9110000000    29.8470000000
   69      H      26.1470000000    18.6790000000    29.1640000000
   70      H      26.5610000000    18.6670000000    30.8320000000
   71      H      27.2420000000    19.9680000000    29.8030000000
   72      O      28.6190000000    18.3370000000    27.9160000000
   73      C      20.7260000000    21.2060000000    32.6000000000
   74      H      21.4040000000    21.4250000000    33.4290000000
   75      H      21.1890000000    20.4550000000    31.9550000000
   76      H      20.4860000000    22.1880000000    32.1860000000
   77      S      19.2930000000    20.4930000000    33.4400000000
   78      C      18.3170000000    19.9780000000    32.0090000000
   79      H      18.8940000000    19.4250000000    31.2630000000
   80      H      17.4590000000    19.3770000000    32.3210000000
   81      H      18.0900000000    20.9560000000    31.5780000000
   82      O      18.5810000000    21.7410000000    33.8600000000
   83      C      13.8020000000    19.6630000000    27.7010000000
   84      H      13.6580000000    18.5810000000    27.7430000000
   85      H      13.0760000000    20.1520000000    28.3550000000
   86      H      13.6710000000    19.9320000000    26.6500000000
   87      S      15.5050000000    20.0660000000    28.1500000000
   88      C      15.3750000000    21.7590000000    27.5310000000
   89      H      16.3830000000    22.1010000000    27.2850000000
   90      H      14.7130000000    21.7230000000    26.6620000000
   91      H      15.0570000000    22.4220000000    28.3390000000
   92      O      16.2530000000    19.4990000000    26.9840000000
   93      C      25.7680000000    11.7300000000    26.9990000000
   94      H      26.3320000000    12.6640000000    26.9500000000
   95      H      26.2800000000    10.8650000000    27.4280000000
   96      H      25.3910000000    11.5390000000    25.9910000000
   97      S      24.3650000000    12.1630000000    28.0530000000
   98      C      23.3350000000    10.6800000000    28.1130000000
   99      H      23.9080000000     9.7900000000    28.3870000000
  100      H      22.3980000000    10.7990000000    28.6630000000
  101      H      22.9320000000    10.4450000000    27.1240000000
  102      O      23.4480000000    13.0980000000    27.3270000000
  103      C      27.6020000000    24.6840000000    30.9930000000
  104      H      28.4440000000    24.7910000000    31.6830000000
  105      H      27.5480000000    25.5160000000    30.2860000000
  106      H      26.6560000000    24.5830000000    31.5300000000
  107      S      28.0090000000    23.1530000000    30.1240000000
  108      C      26.4560000000    22.9400000000    29.2260000000
  109      H      25.7090000000    22.4890000000    29.8830000000
  110      H      26.2370000000    23.9310000000    28.8220000000
  111      H      26.6500000000    22.2020000000    28.4430000000
  112      O      28.0500000000    22.1010000000    31.1880000000
  113      C      24.1000000000    22.9790000000    32.1550000000
  114      H      23.0810000000    23.3720000000    32.1010000000
  115      H      24.7160000000    23.4020000000    31.3580000000
  116      H      24.1390000000    21.8940000000    32.0320000000
  117      S      24.7930000000    23.2260000000    33.8060000000
  118      C      26.2670000000    22.1850000000    33.7110000000
  119      H      26.3890000000    21.7110000000    34.6890000000
  120      H      26.0280000000    21.4220000000    32.9660000000
  121      H      27.1020000000    22.8090000000    33.3810000000
  122      O      23.8370000000    22.4620000000    34.6670000000
  123      C      24.2190000000    15.6360000000    30.7540000000
  124      H      23.3090000000    15.7740000000    31.3440000000
  125      H      24.9580000000    16.3230000000    31.1740000000
  126      H      24.0700000000    15.8560000000    29.6930000000
  127      S      24.7290000000    13.9780000000    31.2600000000
  128      C      25.1320000000    14.2240000000    33.0040000000
  129      H      25.9350000000    14.9580000000    33.1100000000
  130      H      24.1910000000    14.5040000000    33.4850000000
  131      H      25.4850000000    13.3050000000    33.4800000000
  132      O      26.1620000000    13.8080000000    30.8630000000
  133      C      18.1530000000    24.2970000000    31.1130000000
  134      H      18.4690000000    23.2920000000    31.4040000000
  135      H      18.4080000000    25.0250000000    31.8870000000
  136      H      17.0670000000    24.2360000000    31.0080000000
  137      S      18.9020000000    24.8030000000    29.5480000000
  138      C      18.4800000000    23.3320000000    28.5870000000
  139      H      17.4900000000    22.9160000000    28.7920000000
  140      H      18.5520000000    23.5320000000    27.5150000000
  141      H      19.3000000000    22.6600000000    28.8530000000
  142      O      20.3640000000    24.5920000000    29.7900000000
  143      C      15.6260000000    17.3480000000    30.1260000000
  144      H      14.6590000000    17.8330000000    30.2850000000
  145      H      16.4750000000    18.0340000000    30.0880000000
  146      H      15.6250000000    16.8050000000    29.1770000000
  147      S      15.9530000000    16.3330000000    31.5850000000
  148      C      14.5380000000    15.2580000000    31.2550000000
  149      H      14.7050000000    14.9620000000    30.2160000000
  150      H      14.5740000000    14.4040000000    31.9360000000
  151      H      13.5660000000    15.7330000000    31.4080000000
  152      O      15.4600000000    17.3380000000    32.5780000000
  153      C      19.9520000000    14.7440000000    32.2490000000
  154      H      20.6420000000    14.5190000000    31.4320000000
  155      H      19.6290000000    13.8590000000    32.8030000000
  156      H      19.0170000000    15.0730000000    31.7880000000
  157      S      20.6250000000    15.9970000000    33.3640000000
  158      C      20.5100000000    17.3670000000    32.1920000000
  159      H      21.0100000000    17.1620000000    31.2420000000
  160      H      19.4440000000    17.4570000000    31.9700000000
  161      H      20.9340000000    18.2620000000    32.6550000000
  162      O      22.0990000000    15.7410000000    33.3120000000
  163      C      22.2050000000    22.9570000000    22.3070000000
  164      H      22.1610000000    22.8750000000    21.2180000000
  165      H      21.3840000000    22.4060000000    22.7720000000
  166      H      22.0660000000    24.0330000000    22.4410000000
  167      S      23.7470000000    22.3200000000    23.0020000000
  168      C      23.3650000000    23.0930000000    24.5900000000
  169      H      24.2240000000    23.0540000000    25.2640000000
  170      H      23.1400000000    24.1600000000    24.5100000000
  171      H      22.4680000000    22.6370000000    25.0170000000
  172      O      24.7260000000    23.2140000000    22.3060000000
  173      C      16.4040000000    16.7920000000    25.5400000000
  174      H      15.8480000000    16.1350000000    24.8650000000
  175      H      15.8160000000    17.1890000000    26.3710000000
  176      H      16.9370000000    17.5660000000    24.9820000000
  177      S      17.4970000000    15.6250000000    26.3810000000
  178      C      18.3910000000    16.8360000000    27.3810000000
  179      H      17.6750000000    17.4290000000    27.9550000000
  180      H      18.9040000000    16.3120000000    28.1920000000
  181      H      19.0270000000    17.4550000000    26.7430000000
  182      O      18.4610000000    15.1200000000    25.3530000000
  183      C      19.4670000000    20.7280000000    36.9770000000
  184      H      19.3940000000    21.2180000000    37.9510000000
  185      H      19.2990000000    21.4660000000    36.1880000000
  186      H      18.7190000000    19.9550000000    36.7830000000
  187      S      21.0070000000    19.7860000000    37.0320000000
  188      C      21.8610000000    21.3600000000    36.7930000000
  189      H      21.7270000000    21.9980000000    37.6710000000
  190      H      22.9270000000    21.1180000000    36.7980000000
  191      H      21.6380000000    21.8330000000    35.8330000000
  192      O      21.1470000000    19.2470000000    35.6420000000
  193      C      27.2520000000    17.7130000000    23.5500000000
  194      H      26.4050000000    18.3950000000    23.4470000000
  195      H      27.0700000000    17.1030000000    24.4390000000
  196      H      28.2290000000    18.1570000000    23.7580000000
  197      S      27.4290000000    16.7890000000    22.0070000000
  198      C      26.2830000000    15.4790000000    22.4930000000
  199      H      26.3750000000    15.3450000000    23.5740000000
  200      H      25.2800000000    15.8770000000    22.3180000000
  201      H      26.3710000000    14.4940000000    22.0280000000
  202      O      28.8100000000    16.2320000000    22.1610000000
  203      C      24.7200000000    18.6740000000    35.6960000000
  204      H      24.4040000000    17.6390000000    35.8480000000
  205      H      25.5330000000    18.8550000000    36.4020000000
  206      H      24.0270000000    19.5030000000    35.8610000000
  207      S      25.4070000000    18.7880000000    34.0280000000
  208      C      23.8310000000    19.0180000000    33.1740000000
  209      H      23.1360000000    18.2120000000    33.4230000000
  210      H      23.4100000000    19.9840000000    33.4640000000
  211      H      24.0420000000    18.9220000000    32.1060000000
  212      O      25.9290000000    17.4080000000    33.7770000000
  213      C      23.4950000000    19.0430000000    22.9930000000
  214      H      24.3110000000    19.0390000000    22.2660000000
  215      H      22.6230000000    19.3520000000    22.4110000000
  216      H      23.7800000000    19.6430000000    23.8610000000
  217      S      23.0750000000    17.3380000000    23.4170000000
  218      C      21.5660000000    17.6800000000    24.3500000000
  219      H      21.4490000000    16.7580000000    24.9260000000
  220      H      21.7060000000    18.5030000000    25.0560000000
  221      H      20.6420000000    17.7030000000    23.7670000000
  222      O      23.8940000000    16.9690000000    24.6140000000
  223      C      18.8870000000    27.7060000000    24.5110000000
  224      H      18.7770000000    28.4020000000    23.6760000000
  225      H      18.5230000000    26.7300000000    24.1790000000
  226      H      18.2330000000    28.0010000000    25.3350000000
  227      S      20.6020000000    27.2950000000    24.9040000000
  228      C      21.4280000000    28.7140000000    24.1480000000
  229      H      20.9350000000    29.0590000000    23.2350000000
  230      H      21.4200000000    29.5030000000    24.9030000000
  231      H      22.4420000000    28.4010000000    23.8840000000
  232      O      20.9640000000    26.2050000000    23.9440000000
  233      C      28.3340000000    20.7350000000    25.8060000000
  234      H      28.3020000000    19.6980000000    25.4600000000
  235      H      29.2840000000    21.1420000000    25.4520000000
  236      H      28.2860000000    20.7320000000    26.8970000000
  237      S      26.9310000000    21.6830000000    25.1730000000
  238      C      27.7140000000    22.1870000000    23.6240000000
  239      H      28.0090000000    21.2670000000    23.1140000000
  240      H      27.0560000000    22.7980000000    23.0010000000
  241      H      28.5740000000    22.8190000000    23.8620000000
  242      O      26.8490000000    22.9280000000    26.0020000000
  243      C      28.2830000000    14.7160000000    26.1110000000
  244      H      28.5070000000    14.0080000000    26.9120000000
  245      H      28.2480000000    15.7300000000    26.5190000000
  246      H      27.3440000000    14.4770000000    25.6050000000
  247      S      29.5750000000    14.6750000000    24.8480000000
  248      C      29.7750000000    12.8890000000    24.6600000000
  249      H      28.7880000000    12.4210000000    24.6360000000
  250      H      30.2850000000    12.7010000000    23.7120000000
  251      H      30.3960000000    12.4960000000    25.4700000000
  252      O      30.7120000000    14.9680000000    25.7770000000
  253      C      14.0690000000    21.0690000000    32.0820000000
  254      H      13.5000000000    21.3590000000    32.9700000000
  255      H      13.3660000000    21.1130000000    31.2470000000
  256      H      14.5140000000    20.0710000000    32.0690000000
  257      S      15.4170000000    22.2680000000    31.9770000000
  258      C      14.4450000000    23.7680000000    31.7120000000
  259      H      14.0360000000    23.5790000000    30.7160000000
  260      H      13.6980000000    23.7280000000    32.5100000000
  261      H      14.9940000000    24.7120000000    31.7550000000
  262      O      15.9320000000    21.9830000000    30.6010000000
  263      C      16.6060000000    12.0020000000    29.9740000000
  264      H      16.7770000000    12.3720000000    30.9880000000
  265      H      15.5330000000    12.1270000000    29.8070000000
  266      H      17.0380000000    11.0080000000    29.8310000000
  267      S      17.4970000000    13.1400000000    28.8890000000
  268      C      19.2170000000    12.8380000000    29.3530000000
  269      H      19.6020000000    11.8450000000    29.1080000000
  270      H      19.8500000000    13.6120000000    28.9110000000
  271      H      19.2430000000    12.9930000000    30.4340000000
  272      O      17.2880000000    14.5390000000    29.3780000000
  273      C      20.8930000000    12.9650000000    23.5240000000
  274      H      20.7150000000    13.6500000000    24.3570000000
  275      H      20.9590000000    13.6770000000    22.6980000000
  276      H      19.9960000000    12.4000000000    23.2550000000
  277      S      22.3920000000    11.9870000000    23.7740000000
  278      C      23.4690000000    13.4370000000    23.8310000000
  279      H      23.2550000000    14.0430000000    22.9470000000
  280      H      23.2350000000    14.0280000000    24.7200000000
  281      H      24.5550000000    13.3280000000    23.8910000000
  282      O      22.6120000000    11.3580000000    22.4330000000
  283      C      18.1370000000    14.5720000000    19.9080000000
  284      H      17.8220000000    15.5700000000    19.5940000000
  285      H      18.9550000000    14.1150000000    19.3450000000
  286      H      17.2400000000    13.9490000000    19.9610000000
  287      S      18.7380000000    14.8060000000    21.5960000000
  288      C      17.3490000000    15.8730000000    22.0380000000
  289      H      16.5130000000    15.6540000000    21.3690000000
  290      H      17.1050000000    15.6750000000    23.0850000000
  291      H      17.5640000000    16.9380000000    21.9200000000
  292      O      19.8330000000    15.8040000000    21.3830000000
 ----------------------------------------------------------------
 Nuclear Repulsion Energy =       48009.13825603 hartrees
 There are      602 alpha and      602 beta electrons
 Requested basis set is 6-31+G(d)
 There are 962 shells and 2681 basis functions

 Total QAlloc Memory Limit  16000 MB
 Mega-Array Size      7821 MB
 MEM_STATIC part      8000 MB
 A cutoff of  1.0D-14 yielded 177463 shell pairs
 There are   1534045 function pairs
 Smallest overlap matrix eigenvalue = 3.90E-07
 Linear dependence detected in AO basis
 Tighter screening thresholds may be required for diffuse basis sets
 Use S2THRESH > 14 and THRESH = 14 in case of SCF convergence issues
 Number of orthogonalized atomic orbitals = 2678
 Maximum deviation from orthogonality = 1.416E-10

 Scale SEOQF with 1.000000e-03/1.000000e-03/1.000000e-03

 Standard Electronic Orientation quadrupole field applied
 Nucleus-field energy     =    -0.0000005192 hartrees
Attempting to make child job directory: /local/scratch/users/ymao/r7.00_frame_0015_almo_B3LYP_dp.in20210311133731//Frg1/
Attempting to make child job directory: /local/scratch/users/ymao/r7.00_frame_0015_almo_B3LYP_dp.in20210311133731//Frg2/
Creating input file /local/scratch/users/ymao/r7.00_frame_0015_almo_B3LYP_dp.in20210311133731/Frg1.input
using default PutDataFrgm: nothing
calling putenv with: QCSCRATCH=/local/scratch/users/ymao/r7.00_frame_0015_almo_B3LYP_dp.in20210311133731/ 
Spawning Job For Fragment 0
Done Job For Fragment 0
calling putenv with: QCSCRATCH=/local/scratch/users/ymao 
calling putenv with: QCTHREADS=8 
Creating input file /local/scratch/users/ymao/r7.00_frame_0015_almo_B3LYP_dp.in20210311133731/Frg2.input
using default PutDataFrgm: nothing
calling putenv with: QCSCRATCH=/local/scratch/users/ymao/r7.00_frame_0015_almo_B3LYP_dp.in20210311133731/ 
Spawning Job For Fragment 1
Done Job For Fragment 1
calling putenv with: QCSCRATCH=/local/scratch/users/ymao 
calling putenv with: QCTHREADS=8 
 Time for running child jobs:  CPU 1.32 s  wall 25985.90 s

 -----------------------------------------------------------------------
  General SCF calculation program by
  Eric Jon Sundstrom, Paul Horn, Yuezhi Mao, Dmitri Zuev, Alec White,
  David Stuck, Shaama M.S., Shane Yost, Joonho Lee, David Small,
  Daniel Levine, Susi Lehtola, Hugh Burton, Evgeny Epifanovsky,
  Bang C. Huynh
 -----------------------------------------------------------------------
Performing Restricted Closed Shell SCFMI
Doing General SCFMI
 Exchange:     0.2000 Hartree-Fock + 0.0800 Slater + 0.7200 B88
 Correlation:  0.1900 VWN1RPA + 0.8100 LYP
 Using Euler-Maclaurin-Lebedev (75,302) quadrature formula
performing fock build before subrot guess so that all methods have access
Printing subrot_rss_gen Method Specification:
Occupied Subspace Method is 0
Virtual Subspace Method is 0
Energy prior to optimization (guess energy) = -15340.697782854579
Begin Timing: Total SCF Calculation
begin iterations for algorithm: DIIS         
the SCF tolerance is set to 1.00e-08
    1  -15340.6977828546      3.83e-05     00000 
    2  -15340.7020798822      4.55e-05     00000 
    3  -15340.7068575842      2.04e-05     00000 
    4  -15340.7078408347      6.14e-06     00000 
    5  -15340.7079524124      2.86e-06     00000 
    6  -15340.7079748711      1.71e-06     00000 
    7  -15340.7079819162      1.19e-06     00000 
    8  -15340.7079859873      6.43e-07     00000 
    9  -15340.7079871571      4.20e-07     00000 
   10  -15340.7079875526      3.24e-07     00000 
   11  -15340.7079877776      2.29e-07     00000 
   12  -15340.7079879072      1.25e-07     00000 
   13  -15340.7079879444      7.34e-08     00000 
   14  -15340.7079879569      4.79e-08     00000 
   15  -15340.7079879617      3.45e-08     00000 
   16  -15340.7079879652      1.69e-08     00000 
   17  -15340.7079879662      9.45e-09     00000 Convergence criterion met
write pseudocanon occs and virts to disk
write pseudocanon orbital energies to disk
Timing for Total SCF: 58287.00s (wall), 461967.28s (cpu)
SCFMI Energy  -15340.7079879662
<S^2>            0.00000
 Total energy in the final basis set =   -15340.7079879662
    ==================================================
        The end of Object-Oriented SCFman: SCFMI      
    ==================================================
 
 --------------------------------------------------------------
 
                    Orbital Energies (a.u.)
 --------------------------------------------------------------
 
 Alpha MOs
 -- Occupied --
-89.0285 -89.0281 -89.0281 -89.0199 -89.0187 -89.0123 -89.0120 -89.0080
-89.0041 -89.0036 -88.9979 -88.9975 -88.9942 -88.9924 -88.9916 -88.9904
-88.9887 -88.9885 -88.9874 -88.9869 -88.9858 -88.9836 -88.9780 -88.9740
-88.9708 -88.9628 -88.9572 -19.1429 -19.1416 -19.1405 -19.1383 -19.1314
-19.1314 -19.1224 -19.1210 -19.1193 -19.1176 -19.1155 -19.1141 -19.1101
-19.1098 -19.1076 -19.1074 -19.1073 -19.1071 -19.1017 -19.1013 -19.0994
-19.0970 -19.0933 -19.0932 -19.0925 -19.0849 -19.0652 -19.0620 -14.3442
-10.2734 -10.2532 -10.2481 -10.2464 -10.2446 -10.2419 -10.2409 -10.2390
-10.2370 -10.2347 -10.2335 -10.2313 -10.2280 -10.2279 -10.2277 -10.2275
-10.2247 -10.2236 -10.2189 -10.2174 -10.2173 -10.2172 -10.2160 -10.2142
-10.2127 -10.2102 -10.2088 -10.2084 -10.2078 -10.2065 -10.2063 -10.2054
-10.2026 -10.2022 -10.2021 -10.2018 -10.2010 -10.2003 -10.1999 -10.1988
-10.1975 -10.1972 -10.1964 -10.1955 -10.1951 -10.1950 -10.1928 -10.1925
-10.1924 -10.1907 -10.1889 -10.1888 -10.1873 -10.1871 -10.1865 -10.1839
-10.1832 -10.1822 -10.1765 -10.1744 -10.1626  -8.0747  -8.0744  -8.0737
 -8.0662  -8.0644  -8.0593  -8.0579  -8.0541  -8.0500  -8.0494  -8.0439
 -8.0428  -8.0395  -8.0383  -8.0382  -8.0368  -8.0346  -8.0335  -8.0335
 -8.0327  -8.0315  -8.0299  -8.0244  -8.0199  -8.0162  -8.0094  -8.0032
 -6.0389  -6.0389  -6.0380  -6.0379  -6.0375  -6.0367  -6.0320  -6.0315
 -6.0313  -6.0305  -6.0294  -6.0287  -6.0276  -6.0235  -6.0234  -6.0222
 -6.0221  -6.0219  -6.0209  -6.0187  -6.0173  -6.0168  -6.0156  -6.0142
 -6.0139  -6.0130  -6.0124  -6.0111  -6.0083  -6.0075  -6.0071  -6.0068
 -6.0068  -6.0058  -6.0038  -6.0028  -6.0028  -6.0027  -6.0014  -6.0013
 -6.0013  -6.0010  -6.0005  -5.9994  -5.9989  -5.9980  -5.9979  -5.9978
 -5.9972  -5.9970  -5.9969  -5.9967  -5.9957  -5.9957  -5.9955  -5.9954
 -5.9948  -5.9947  -5.9941  -5.9930  -5.9917  -5.9910  -5.9902  -5.9901
 -5.9890  -5.9888  -5.9876  -5.9874  -5.9843  -5.9831  -5.9816  -5.9805
 -5.9793  -5.9772  -5.9738  -5.9734  -5.9727  -5.9677  -5.9666  -5.9663
 -5.9607  -1.0571  -1.0545  -1.0523  -1.0519  -1.0423  -1.0393  -1.0364
 -1.0350  -1.0319  -1.0295  -1.0263  -1.0254  -1.0211  -1.0204  -1.0192
 -1.0171  -1.0149  -1.0143  -1.0138  -1.0134  -1.0073  -1.0050  -1.0035
 -1.0034  -0.9993  -0.9943  -0.9826  -0.9781  -0.9120  -0.8313  -0.8268
 -0.8267  -0.8255  -0.8246  -0.8139  -0.8121  -0.8109  -0.8094  -0.8079
 -0.8050  -0.7985  -0.7952  -0.7943  -0.7928  -0.7928  -0.7901  -0.7887
 -0.7878  -0.7864  -0.7853  -0.7833  -0.7830  -0.7830  -0.7780  -0.7686
 -0.7613  -0.7609  -0.7589  -0.7560  -0.7505  -0.7497  -0.7489  -0.7461
 -0.7451  -0.7411  -0.7392  -0.7380  -0.7306  -0.7270  -0.7265  -0.7233
 -0.7231  -0.7227  -0.7224  -0.7203  -0.7139  -0.7119  -0.7117  -0.7102
 -0.7065  -0.7060  -0.7057  -0.7037  -0.7033  -0.6914  -0.6826  -0.6452
 -0.6418  -0.6416  -0.6379  -0.6359  -0.6302  -0.6260  -0.6228  -0.6200
 -0.6195  -0.6191  -0.6162  -0.6139  -0.6083  -0.6066  -0.6053  -0.6047
 -0.6044  -0.6041  -0.6022  -0.6000  -0.5998  -0.5958  -0.5957  -0.5886
 -0.5866  -0.5861  -0.5803  -0.5701  -0.5676  -0.5634  -0.5213  -0.5193
 -0.5110  -0.5053  -0.5052  -0.5046  -0.5036  -0.5030  -0.5003  -0.4980
 -0.4973  -0.4945  -0.4932  -0.4915  -0.4898  -0.4884  -0.4875  -0.4866
 -0.4842  -0.4830  -0.4814  -0.4809  -0.4801  -0.4796  -0.4785  -0.4773
 -0.4764  -0.4757  -0.4748  -0.4737  -0.4735  -0.4730  -0.4726  -0.4703
 -0.4701  -0.4694  -0.4685  -0.4680  -0.4671  -0.4660  -0.4656  -0.4653
 -0.4649  -0.4645  -0.4637  -0.4635  -0.4634  -0.4626  -0.4607  -0.4601
 -0.4598  -0.4591  -0.4589  -0.4583  -0.4577  -0.4575  -0.4574  -0.4564
 -0.4561  -0.4555  -0.4550  -0.4544  -0.4535  -0.4531  -0.4528  -0.4523
 -0.4516  -0.4512  -0.4507  -0.4502  -0.4495  -0.4489  -0.4477  -0.4470
 -0.4465  -0.4459  -0.4452  -0.4443  -0.4437  -0.4434  -0.4434  -0.4430
 -0.4420  -0.4417  -0.4415  -0.4413  -0.4401  -0.4390  -0.4378  -0.4374
 -0.4361  -0.4346  -0.4342  -0.4340  -0.4328  -0.4326  -0.4318  -0.4300
 -0.4290  -0.4284  -0.4269  -0.4262  -0.4253  -0.4249  -0.4232  -0.4228
 -0.4226  -0.4219  -0.4218  -0.4214  -0.4207  -0.4202  -0.4192  -0.4189
 -0.4184  -0.4170  -0.4166  -0.4156  -0.4152  -0.4147  -0.4145  -0.4132
 -0.4123  -0.4116  -0.4105  -0.4089  -0.4088  -0.4080  -0.4067  -0.4056
 -0.4052  -0.4043  -0.4040  -0.4036  -0.4033  -0.4011  -0.3999  -0.3989
 -0.3984  -0.3978  -0.3968  -0.3964  -0.3963  -0.3939  -0.3930  -0.3927
 -0.3917  -0.3912  -0.3905  -0.3901  -0.3899  -0.3894  -0.3892  -0.3885
 -0.3878  -0.3869  -0.3851  -0.3834  -0.3825  -0.3818  -0.3815  -0.3814
 -0.3810  -0.3790  -0.3788  -0.3780  -0.3769  -0.3755  -0.3751  -0.3744
 -0.3743  -0.3732  -0.3725  -0.3716  -0.3699  -0.3679  -0.3674  -0.3662
 -0.3657  -0.3650  -0.3624  -0.3600  -0.3590  -0.3581  -0.3569  -0.3554
 -0.3548  -0.3538  -0.3504  -0.3483  -0.3479  -0.3451  -0.3440  -0.3436
 -0.3434  -0.3431  -0.3424  -0.3374  -0.3328  -0.3245  -0.3242  -0.3169
 -0.3153  -0.3069  -0.3056  -0.3024  -0.3017  -0.2981  -0.2967  -0.2934
 -0.2828  -0.2804  -0.2784  -0.2764  -0.2741  -0.2736  -0.2731  -0.2722
 -0.2715  -0.2694  -0.2687  -0.2673  -0.2659  -0.2657  -0.2634  -0.2630
 -0.2608  -0.2587  -0.2582  -0.2569  -0.2551  -0.2542  -0.2539  -0.2526
 -0.2524  -0.2523  -0.2495  -0.2469  -0.2458  -0.2457  -0.2451  -0.2415
 -0.2400  -0.2345  -0.2340  -0.2339  -0.2331  -0.2297  -0.2283  -0.2270
 -0.2256  -0.2241  -0.2226  -0.2224  -0.2192  -0.2189  -0.2128  -0.2124
 -0.1937  -0.1908
 -- Virtual --
 -0.0451  -0.0388  -0.0299  -0.0285  -0.0260  -0.0242  -0.0226  -0.0202
 -0.0192  -0.0180  -0.0155  -0.0134  -0.0128  -0.0111  -0.0101  -0.0095
 -0.0093  -0.0068  -0.0059  -0.0047  -0.0039  -0.0036  -0.0029  -0.0019
 -0.0012  -0.0006   0.0003   0.0010   0.0023   0.0028   0.0033   0.0047
  0.0050   0.0060   0.0066   0.0079   0.0081   0.0104   0.0110   0.0115
  0.0119   0.0126   0.0138   0.0153   0.0155   0.0159   0.0162   0.0170
  0.0175   0.0185   0.0186   0.0198   0.0204   0.0213   0.0218   0.0223
  0.0235   0.0238   0.0245   0.0253   0.0254   0.0260   0.0269   0.0277
  0.0286   0.0289   0.0292   0.0297   0.0306   0.0309   0.0317   0.0318
  0.0328   0.0334   0.0338   0.0346   0.0352   0.0358   0.0362   0.0367
  0.0377   0.0380   0.0384   0.0396   0.0404   0.0408   0.0411   0.0415
  0.0427   0.0431   0.0440   0.0446   0.0453   0.0455   0.0466   0.0470
  0.0476   0.0480   0.0481   0.0486   0.0489   0.0498   0.0504   0.0518
  0.0521   0.0536   0.0541   0.0551   0.0560   0.0563   0.0565   0.0572
  0.0580   0.0592   0.0594   0.0601   0.0602   0.0617   0.0625   0.0630
  0.0635   0.0647   0.0650   0.0658   0.0662   0.0666   0.0675   0.0682
  0.0685   0.0690   0.0697   0.0703   0.0710   0.0717   0.0720   0.0729
  0.0732   0.0739   0.0746   0.0751   0.0756   0.0765   0.0773   0.0781
  0.0782   0.0794   0.0802   0.0805   0.0814   0.0818   0.0827   0.0834
  0.0839   0.0842   0.0851   0.0854   0.0863   0.0869   0.0876   0.0884
  0.0885   0.0895   0.0905   0.0907   0.0916   0.0929   0.0930   0.0942
  0.0948   0.0949   0.0956   0.0963   0.0965   0.0974   0.0980   0.0993
  0.0999   0.1003   0.1008   0.1015   0.1019   0.1025   0.1039   0.1042
  0.1052   0.1061   0.1063   0.1066   0.1071   0.1077   0.1081   0.1088
  0.1092   0.1096   0.1103   0.1109   0.1118   0.1124   0.1131   0.1135
  0.1142   0.1151   0.1159   0.1166   0.1169   0.1176   0.1182   0.1185
  0.1192   0.1197   0.1203   0.1211   0.1219   0.1223   0.1231   0.1237
  0.1242   0.1253   0.1257   0.1262   0.1269   0.1276   0.1277   0.1288
  0.1294   0.1295   0.1303   0.1308   0.1309   0.1313   0.1321   0.1327
  0.1329   0.1342   0.1345   0.1352   0.1359   0.1366   0.1370   0.1382
  0.1386   0.1387   0.1396   0.1404   0.1408   0.1414   0.1422   0.1428
  0.1435   0.1437   0.1446   0.1452   0.1461   0.1461   0.1470   0.1473
  0.1476   0.1488   0.1494   0.1499   0.1506   0.1511   0.1525   0.1528
  0.1538   0.1544   0.1552   0.1553   0.1558   0.1559   0.1567   0.1573
  0.1576   0.1583   0.1591   0.1599   0.1608   0.1611   0.1616   0.1619
  0.1621   0.1632   0.1634   0.1651   0.1657   0.1663   0.1665   0.1672
  0.1675   0.1683   0.1684   0.1692   0.1696   0.1706   0.1709   0.1715
  0.1718   0.1725   0.1733   0.1742   0.1752   0.1754   0.1759   0.1770
  0.1780   0.1783   0.1786   0.1795   0.1803   0.1806   0.1816   0.1820
  0.1827   0.1832   0.1839   0.1843   0.1849   0.1856   0.1861   0.1868
  0.1876   0.1882   0.1887   0.1892   0.1904   0.1909   0.1912   0.1919
  0.1923   0.1928   0.1932   0.1938   0.1942   0.1952   0.1956   0.1962
  0.1965   0.1976   0.1984   0.1992   0.1994   0.1997   0.2005   0.2013
  0.2015   0.2024   0.2025   0.2038   0.2039   0.2044   0.2056   0.2059
  0.2063   0.2070   0.2075   0.2084   0.2087   0.2092   0.2098   0.2110
  0.2115   0.2126   0.2127   0.2130   0.2141   0.2145   0.2153   0.2157
  0.2159   0.2166   0.2178   0.2183   0.2184   0.2193   0.2199   0.2205
  0.2213   0.2218   0.2226   0.2232   0.2234   0.2242   0.2257   0.2264
  0.2266   0.2275   0.2283   0.2290   0.2299   0.2302   0.2309   0.2314
  0.2317   0.2321   0.2323   0.2328   0.2334   0.2344   0.2353   0.2357
  0.2360   0.2363   0.2377   0.2381   0.2387   0.2397   0.2399   0.2409
  0.2417   0.2423   0.2427   0.2434   0.2441   0.2446   0.2447   0.2454
  0.2457   0.2470   0.2481   0.2484   0.2490   0.2500   0.2507   0.2518
  0.2527   0.2529   0.2539   0.2541   0.2548   0.2560   0.2560   0.2572
  0.2578   0.2584   0.2589   0.2591   0.2604   0.2612   0.2620   0.2625
  0.2633   0.2638   0.2648   0.2656   0.2666   0.2673   0.2678   0.2685
  0.2692   0.2694   0.2699   0.2707   0.2714   0.2723   0.2730   0.2735
  0.2747   0.2751   0.2760   0.2765   0.2770   0.2785   0.2790   0.2797
  0.2804   0.2806   0.2817   0.2822   0.2833   0.2837   0.2847   0.2856
  0.2865   0.2872   0.2880   0.2889   0.2893   0.2907   0.2912   0.2916
  0.2925   0.2933   0.2937   0.2946   0.2956   0.2959   0.2971   0.2978
  0.2984   0.2990   0.2998   0.3008   0.3015   0.3020   0.3031   0.3046
  0.3053   0.3060   0.3064   0.3070   0.3078   0.3083   0.3100   0.3104
  0.3118   0.3124   0.3133   0.3139   0.3148   0.3154   0.3159   0.3170
  0.3174   0.3187   0.3192   0.3208   0.3212   0.3217   0.3231   0.3241
  0.3249   0.3253   0.3263   0.3266   0.3285   0.3298   0.3304   0.3308
  0.3315   0.3325   0.3335   0.3345   0.3358   0.3362   0.3375   0.3384
  0.3397   0.3406   0.3422   0.3431   0.3437   0.3447   0.3458   0.3465
  0.3470   0.3471   0.3480   0.3487   0.3499   0.3506   0.3515   0.3527
  0.3546   0.3552   0.3560   0.3572   0.3576   0.3586   0.3596   0.3602
  0.3615   0.3616   0.3624   0.3635   0.3637   0.3653   0.3659   0.3665
  0.3671   0.3681   0.3689   0.3695   0.3702   0.3721   0.3729   0.3736
  0.3749   0.3756   0.3761   0.3765   0.3770   0.3788   0.3802   0.3803
  0.3816   0.3826   0.3839   0.3847   0.3853   0.3862   0.3867   0.3872
  0.3883   0.3893   0.3893   0.3909   0.3922   0.3925   0.3932   0.3944
  0.3946   0.3955   0.3966   0.3973   0.3981   0.3985   0.4001   0.4014
  0.4017   0.4033   0.4048   0.4050   0.4057   0.4065   0.4077   0.4081
  0.4093   0.4097   0.4104   0.4120   0.4128   0.4138   0.4155   0.4160
  0.4172   0.4182   0.4188   0.4193   0.4200   0.4220   0.4221   0.4236
  0.4240   0.4252   0.4264   0.4271   0.4282   0.4287   0.4291   0.4303
  0.4313   0.4328   0.4337   0.4352   0.4364   0.4372   0.4384   0.4387
  0.4397   0.4402   0.4412   0.4428   0.4443   0.4446   0.4463   0.4477
  0.4482   0.4493   0.4505   0.4516   0.4532   0.4542   0.4544   0.4552
  0.4564   0.4571   0.4594   0.4614   0.4622   0.4631   0.4639   0.4652
  0.4657   0.4670   0.4688   0.4691   0.4700   0.4723   0.4731   0.4744
  0.4754   0.4760   0.4784   0.4802   0.4810   0.4817   0.4841   0.4844
  0.4848   0.4862   0.4870   0.4888   0.4904   0.4915   0.4921   0.4942
  0.4942   0.4971   0.4990   0.5010   0.5018   0.5028   0.5040   0.5056
  0.5085   0.5101   0.5108   0.5141   0.5149   0.5171   0.5182   0.5195
  0.5201   0.5226   0.5244   0.5250   0.5270   0.5279   0.5298   0.5320
  0.5337   0.5356   0.5370   0.5377   0.5401   0.5410   0.5411   0.5445
  0.5448   0.5480   0.5491   0.5500   0.5511   0.5527   0.5562   0.5569
  0.5574   0.5591   0.5601   0.5611   0.5617   0.5642   0.5665   0.5677
  0.5686   0.5703   0.5707   0.5735   0.5751   0.5760   0.5780   0.5797
  0.5802   0.5816   0.5830   0.5849   0.5852   0.5862   0.5870   0.5887
  0.5910   0.5919   0.5926   0.5937   0.5962   0.5968   0.5980   0.5992
  0.6011   0.6022   0.6036   0.6049   0.6053   0.6070   0.6083   0.6119
  0.6121   0.6135   0.6143   0.6156   0.6170   0.6178   0.6198   0.6210
  0.6225   0.6231   0.6247   0.6249   0.6266   0.6281   0.6287   0.6290
  0.6300   0.6310   0.6330   0.6341   0.6357   0.6370   0.6380   0.6385
  0.6394   0.6405   0.6413   0.6424   0.6440   0.6448   0.6464   0.6471
  0.6481   0.6486   0.6507   0.6511   0.6527   0.6549   0.6550   0.6557
  0.6569   0.6578   0.6584   0.6608   0.6611   0.6621   0.6632   0.6652
  0.6666   0.6674   0.6687   0.6695   0.6707   0.6724   0.6733   0.6737
  0.6753   0.6755   0.6763   0.6774   0.6788   0.6805   0.6815   0.6822
  0.6840   0.6843   0.6875   0.6878   0.6890   0.6895   0.6913   0.6924
  0.6932   0.6943   0.6949   0.6966   0.6978   0.6985   0.7010   0.7014
  0.7031   0.7042   0.7050   0.7058   0.7069   0.7082   0.7086   0.7102
  0.7113   0.7134   0.7139   0.7153   0.7166   0.7179   0.7190   0.7199
  0.7216   0.7221   0.7229   0.7242   0.7259   0.7272   0.7276   0.7289
  0.7315   0.7318   0.7326   0.7339   0.7362   0.7385   0.7390   0.7403
  0.7415   0.7435   0.7446   0.7451   0.7469   0.7477   0.7500   0.7506
  0.7528   0.7544   0.7558   0.7567   0.7583   0.7584   0.7594   0.7622
  0.7635   0.7644   0.7662   0.7685   0.7699   0.7708   0.7719   0.7745
  0.7763   0.7781   0.7794   0.7816   0.7825   0.7853   0.7859   0.7872
  0.7895   0.7899   0.7911   0.7933   0.7951   0.7968   0.7970   0.7984
  0.8011   0.8021   0.8032   0.8072   0.8086   0.8097   0.8105   0.8120
  0.8128   0.8149   0.8162   0.8184   0.8189   0.8203   0.8210   0.8229
  0.8235   0.8255   0.8261   0.8283   0.8289   0.8301   0.8314   0.8338
  0.8344   0.8357   0.8379   0.8402   0.8406   0.8433   0.8445   0.8456
  0.8473   0.8482   0.8490   0.8500   0.8510   0.8518   0.8537   0.8543
  0.8558   0.8566   0.8569   0.8592   0.8603   0.8625   0.8640   0.8648
  0.8653   0.8656   0.8676   0.8694   0.8696   0.8727   0.8731   0.8739
  0.8760   0.8776   0.8786   0.8805   0.8819   0.8825   0.8834   0.8849
  0.8864   0.8869   0.8887   0.8893   0.8904   0.8917   0.8920   0.8938
  0.8961   0.8963   0.8985   0.8990   0.8996   0.9006   0.9024   0.9040
  0.9051   0.9056   0.9061   0.9084   0.9088   0.9108   0.9131   0.9138
  0.9143   0.9162   0.9175   0.9180   0.9188   0.9201   0.9205   0.9223
  0.9225   0.9267   0.9272   0.9302   0.9304   0.9310   0.9318   0.9332
  0.9337   0.9353   0.9363   0.9372   0.9379   0.9397   0.9403   0.9426
  0.9428   0.9444   0.9447   0.9462   0.9472   0.9481   0.9498   0.9511
  0.9521   0.9530   0.9536   0.9545   0.9551   0.9564   0.9572   0.9584
  0.9585   0.9609   0.9618   0.9629   0.9633   0.9647   0.9653   0.9660
  0.9663   0.9675   0.9684   0.9695   0.9708   0.9716   0.9738   0.9741
  0.9763   0.9774   0.9794   0.9804   0.9810   0.9812   0.9832   0.9834
  0.9843   0.9868   0.9873   0.9885   0.9892   0.9905   0.9915   0.9936
  0.9945   0.9966   0.9987   0.9989   0.9997   1.0006   1.0011   1.0023
  1.0034   1.0045   1.0071   1.0079   1.0091   1.0101   1.0117   1.0130
  1.0138   1.0149   1.0158   1.0174   1.0185   1.0191   1.0195   1.0208
  1.0214   1.0228   1.0241   1.0259   1.0265   1.0277   1.0287   1.0290
  1.0301   1.0307   1.0319   1.0343   1.0348   1.0375   1.0381   1.0393
  1.0409   1.0412   1.0426   1.0435   1.0443   1.0452   1.0457   1.0481
  1.0496   1.0505   1.0507   1.0523   1.0536   1.0543   1.0568   1.0572
  1.0588   1.0595   1.0616   1.0628   1.0631   1.0639   1.0670   1.0673
  1.0692   1.0694   1.0715   1.0733   1.0735   1.0753   1.0771   1.0783
  1.0791   1.0812   1.0818   1.0840   1.0853   1.0888   1.0896   1.0909
  1.0921   1.0940   1.0951   1.0956   1.0976   1.0986   1.0999   1.1014
  1.1020   1.1042   1.1061   1.1071   1.1079   1.1106   1.1111   1.1120
  1.1139   1.1154   1.1160   1.1185   1.1197   1.1208   1.1217   1.1230
  1.1247   1.1252   1.1264   1.1287   1.1295   1.1309   1.1315   1.1335
  1.1346   1.1352   1.1363   1.1372   1.1378   1.1395   1.1403   1.1410
  1.1435   1.1445   1.1458   1.1466   1.1481   1.1494   1.1510   1.1537
  1.1546   1.1559   1.1566   1.1587   1.1596   1.1604   1.1623   1.1635
  1.1652   1.1673   1.1682   1.1689   1.1703   1.1719   1.1731   1.1738
  1.1749   1.1772   1.1781   1.1785   1.1789   1.1809   1.1849   1.1854
  1.1867   1.1884   1.1891   1.1906   1.1918   1.1931   1.1953   1.1963
  1.1977   1.2004   1.2010   1.2031   1.2046   1.2054   1.2067   1.2079
  1.2101   1.2105   1.2130   1.2148   1.2158   1.2177   1.2188   1.2221
  1.2230   1.2252   1.2257   1.2278   1.2297   1.2324   1.2341   1.2356
  1.2369   1.2406   1.2436   1.2466   1.2468   1.2476   1.2492   1.2502
  1.2543   1.2555   1.2570   1.2580   1.2605   1.2641   1.2686   1.2691
  1.2706   1.2720   1.2747   1.2774   1.2790   1.2813   1.2844   1.2857
  1.2878   1.2899   1.2916   1.2966   1.2983   1.3003   1.3021   1.3053
  1.3063   1.3099   1.3119   1.3128   1.3144   1.3182   1.3190   1.3219
  1.3234   1.3254   1.3261   1.3299   1.3323   1.3331   1.3341   1.3360
  1.3400   1.3416   1.3419   1.3450   1.3462   1.3468   1.3474   1.3511
  1.3517   1.3533   1.3562   1.3569   1.3605   1.3611   1.3624   1.3626
  1.3653   1.3671   1.3686   1.3703   1.3707   1.3729   1.3748   1.3780
  1.3787   1.3797   1.3805   1.3820   1.3850   1.3863   1.3872   1.3883
  1.3893   1.3920   1.3946   1.3953   1.3961   1.3991   1.3996   1.4010
  1.4034   1.4043   1.4047   1.4070   1.4073   1.4077   1.4098   1.4110
  1.4132   1.4161   1.4165   1.4175   1.4187   1.4200   1.4223   1.4233
  1.4256   1.4263   1.4300   1.4313   1.4334   1.4343   1.4349   1.4363
  1.4372   1.4388   1.4412   1.4432   1.4442   1.4471   1.4485   1.4493
  1.4508   1.4528   1.4540   1.4554   1.4563   1.4577   1.4587   1.4615
  1.4625   1.4635   1.4644   1.4670   1.4698   1.4714   1.4746   1.4761
  1.4779   1.4796   1.4813   1.4823   1.4842   1.4847   1.4863   1.4893
  1.4904   1.4913   1.4931   1.4952   1.4981   1.5004   1.5018   1.5036
  1.5058   1.5084   1.5089   1.5102   1.5138   1.5155   1.5172   1.5181
  1.5207   1.5217   1.5227   1.5259   1.5287   1.5299   1.5332   1.5365
  1.5378   1.5396   1.5418   1.5457   1.5466   1.5481   1.5489   1.5534
  1.5551   1.5570   1.5586   1.5634   1.5653   1.5694   1.5716   1.5768
  1.5777   1.5812   1.5830   1.5875   1.5918   1.5947   1.5972   1.6014
  1.6016   1.6074   1.6136   1.6195   1.6215   1.6259   1.6268   1.6336
  1.6396   1.6410   1.6441   1.6457   1.6477   1.6502   1.6558   1.6597
  1.6615   1.6659   1.6661   1.6668   1.6693   1.6735   1.6765   1.6766
  1.6786   1.6797   1.6799   1.6805   1.6828   1.6842   1.6865   1.6887
  1.6894   1.6906   1.6929   1.6945   1.6953   1.6974   1.6985   1.6992
  1.7005   1.7014   1.7024   1.7032   1.7046   1.7054   1.7069   1.7077
  1.7084   1.7095   1.7103   1.7132   1.7137   1.7152   1.7164   1.7169
  1.7175   1.7192   1.7204   1.7217   1.7226   1.7240   1.7248   1.7265
  1.7281   1.7292   1.7300   1.7304   1.7317   1.7333   1.7352   1.7372
  1.7391   1.7407   1.7410   1.7434   1.7443   1.7447   1.7459   1.7486
  1.7491   1.7505   1.7515   1.7558   1.7564   1.7581   1.7585   1.7617
  1.7621   1.7627   1.7637   1.7652   1.7668   1.7679   1.7692   1.7726
  1.7734   1.7760   1.7772   1.7778   1.7789   1.7806   1.7821   1.7845
  1.7849   1.7869   1.7874   1.7891   1.7917   1.7924   1.7949   1.7952
  1.7994   1.7997   1.8023   1.8039   1.8057   1.8086   1.8087   1.8107
  1.8123   1.8158   1.8198   1.8227   1.8245   1.8273   1.8295   1.8313
  1.8326   1.8362   1.8375   1.8415   1.8420   1.8448   1.8474   1.8514
  1.8534   1.8558   1.8595   1.8597   1.8628   1.8676   1.8686   1.8702
  1.8736   1.8740   1.8771   1.8778   1.8798   1.8832   1.8861   1.8871
  1.8888   1.8898   1.8906   1.8915   1.8927   1.8932   1.8950   1.8958
  1.8976   1.8980   1.8996   1.9028   1.9028   1.9035   1.9049   1.9061
  1.9067   1.9072   1.9089   1.9094   1.9111   1.9116   1.9129   1.9133
  1.9135   1.9160   1.9172   1.9184   1.9211   1.9234   1.9240   1.9250
  1.9275   1.9283   1.9315   1.9317   1.9330   1.9363   1.9372   1.9380
  1.9395   1.9404   1.9421   1.9432   1.9469   1.9492   1.9516   1.9521
  1.9535   1.9571   1.9592   1.9632   1.9651   1.9669   1.9701   1.9736
  1.9767   1.9832   1.9862   1.9919   1.9927   1.9988   2.0018   2.0060
  2.0133   2.0269   2.0305   2.0387   2.0428   2.0457   2.0462   2.0492
  2.0535   2.0552   2.0568   2.0595   2.0611   2.0635   2.0648   2.0658
  2.0666   2.0673   2.0699   2.0733   2.0753   2.0759   2.0778   2.0786
  2.0798   2.0809   2.0828   2.0833   2.0842   2.0852   2.0862   2.0864
  2.0872   2.0891   2.0899   2.0912   2.0933   2.0944   2.0969   2.1012
  2.1021   2.1039   2.1055   2.1061   2.1092   2.1119   2.1125   2.1136
  2.1141   2.1168   2.1185   2.1200   2.1224   2.1237   2.1245   2.1252
  2.1266   2.1319   2.1334   2.1353   2.1386   2.1424   2.1447   2.1501
  2.1535   2.1625   2.1672   2.1745   2.1787   2.1796   2.1845   2.1849
  2.1912   2.1957   2.1975   2.1992   2.1999   2.2036   2.2052   2.2060
  2.2074   2.2118   2.2121   2.2136   2.2151   2.2155   2.2168   2.2192
  2.2195   2.2236   2.2239   2.2252   2.2273   2.2282   2.2287   2.2303
  2.2312   2.2327   2.2335   2.2341   2.2354   2.2381   2.2386   2.2393
  2.2400   2.2410   2.2429   2.2429   2.2457   2.2470   2.2479   2.2488
  2.2508   2.2519   2.2524   2.2541   2.2550   2.2556   2.2572   2.2584
  2.2587   2.2590   2.2616   2.2619   2.2634   2.2648   2.2664   2.2667
  2.2678   2.2692   2.2697   2.2713   2.2717   2.2725   2.2730   2.2740
  2.2748   2.2759   2.2773   2.2776   2.2790   2.2792   2.2805   2.2816
  2.2832   2.2838   2.2845   2.2864   2.2867   2.2873   2.2884   2.2889
  2.2891   2.2903   2.2909   2.2915   2.2924   2.2932   2.2947   2.2955
  2.2962   2.2983   2.2988   2.3001   2.3009   2.3014   2.3028   2.3033
  2.3045   2.3056   2.3081   2.3087   2.3097   2.3106   2.3140   2.3148
  2.3154   2.3176   2.3188   2.3198   2.3204   2.3215   2.3227   2.3238
  2.3249   2.3266   2.3293   2.3296   2.3305   2.3316   2.3323   2.3337
  2.3353   2.3375   2.3386   2.3407   2.3420   2.3437   2.3446   2.3474
  2.3479   2.3510   2.3518   2.3539   2.3555   2.3566   2.3568   2.3580
  2.3604   2.3611   2.3637   2.3663   2.3679   2.3687   2.3721   2.3736
  2.3747   2.3760   2.3776   2.3802   2.3825   2.3832   2.3881   2.3900
  2.3908   2.3937   2.3959   2.4003   2.4032   2.4058   2.4121   2.4134
  2.4209   2.4228   2.4356   2.4616   2.4752   2.5165   2.5302   2.5383
  2.6067   2.6699   2.7266   2.7755   2.7903   2.8110   2.8152   2.8232
  2.8237   2.8377   2.8391   2.8447   2.8479   2.8497   2.8501   2.8526
  2.8551   2.8564   2.8581   2.8598   2.8601   2.8608   2.8627   2.8653
  2.8673   2.8693   2.8715   2.8735   2.8759   2.8791   2.8802   2.8850
  2.8858   2.8883   2.8979   2.9147   2.9700   3.1268   3.2730   3.9337
  3.9370   3.9554   3.9605   3.9673   3.9697   3.9760   3.9782   3.9859
  3.9880   3.9910   3.9929   3.9946   3.9959   3.9973   4.0015   4.0026
  4.0058   4.0084   4.0105   4.0137   4.0184   4.0198   4.0232   4.0250
  4.0274   4.0396   4.2082   4.2110   4.2142   4.2195   4.2283   4.2395
  4.2444   4.2486   4.2563   4.2576   4.2588   4.2641   4.2675   4.2701
  4.2724   4.2758   4.2782   4.2807   4.2818   4.2832   4.2847   4.2875
  4.2911   4.2923   4.2961   4.2977   4.2994   4.3007   4.3049   4.3075
  4.3091   4.3108   4.3131   4.3162   4.3172   4.3239   4.3259   4.3306
  4.3317   4.3345   4.3393   4.3403   4.3434   4.3463   4.3501   4.3512
  4.3524   4.3543   4.3588   4.3594   4.3635   4.3642   4.3701   4.3730
  4.3738   4.3801   4.3858   4.3870   4.3934   4.3945   4.3957   4.4009
  4.4077   4.4100   4.4184   4.4275   4.4345   4.4393   4.4419   4.4423
  4.4592   4.4629   4.4678   4.4703   4.4729   4.4833   4.4893   4.4967
  4.5082   4.5323   4.5374   4.5428   4.5463   4.5787   4.6155   4.6218
  4.7199   4.7439   4.7976   4.8875
 --------------------------------------------------------------
 
          Ground-State Mulliken Net Atomic Charges

     Atom                 Charge (a.u.)
  ----------------------------------------
      1 C                    -0.212831
      2 C                    -0.330036
      3 C                    -0.457170
      4 C                    -0.449307
      5 C                    -0.355847
      6 C                    -0.546066
      7 H                     0.211926
      8 H                     0.205928
      9 H                     0.224999
     10 H                     0.219092
     11 H                     0.199247
     12 H                     0.216350
     13 H                     0.205353
     14 H                     0.205047
     15 H                     0.170695
     16 H                     0.185349
     17 H                     0.231114
     18 N                    -0.458793
     19 H                     0.487183
     20 C                     0.421299
     21 H                     0.202340
     22 O                    -0.575871
     23 C                    -1.001035
     24 H                     0.216857
     25 H                     0.296925
     26 H                     0.314414
     27 S                     1.120214
     28 C                    -1.013100
     29 H                     0.239086
     30 H                     0.254702
     31 H                     0.319093
     32 O                    -0.690622
     33 C                    -0.709582
     34 H                     0.276476
     35 H                     0.314462
     36 H                     0.237296
     37 S                     0.478106
     38 C                    -0.871451
     39 H                     0.298318
     40 H                     0.258103
     41 H                     0.232073
     42 O                    -0.630830
     43 C                    -0.809538
     44 H                     0.275861
     45 H                     0.244121
     46 H                     0.231814
     47 S                     0.875518
     48 C                    -0.857373
     49 H                     0.263580
     50 H                     0.280889
     51 H                     0.198643
     52 O                    -0.730331
     53 C                    -0.815924
     54 H                     0.249132
     55 H                     0.260962
     56 H                     0.230449
     57 S                     0.692389
     58 C                    -0.757748
     59 H                     0.248876
     60 H                     0.302036
     61 H                     0.249542
     62 O                    -0.715022
     63 C                    -0.840415
     64 H                     0.281294
     65 H                     0.244485
     66 H                     0.257743
     67 S                     0.959360
     68 C                    -0.888190
     69 H                     0.234581
     70 H                     0.258110
     71 H                     0.271842
     72 O                    -0.720553
     73 C                    -0.777719
     74 H                     0.287463
     75 H                     0.227044
     76 H                     0.271253
     77 S                     0.535050
     78 C                    -0.867991
     79 H                     0.235784
     80 H                     0.281136
     81 H                     0.261193
     82 O                    -0.668604
     83 C                    -0.846020
     84 H                     0.259155
     85 H                     0.239457
     86 H                     0.253816
     87 S                     0.942475
     88 C                    -0.925181
     89 H                     0.244346
     90 H                     0.228032
     91 H                     0.261574
     92 O                    -0.692758
     93 C                    -0.631256
     94 H                     0.258651
     95 H                     0.240980
     96 H                     0.252792
     97 S                     0.451170
     98 C                    -0.722197
     99 H                     0.229280
    100 H                     0.291497
    101 H                     0.247383
    102 O                    -0.615887
    103 C                    -0.887949
    104 H                     0.245247
    105 H                     0.266289
    106 H                     0.252348
    107 S                     0.927829
    108 C                    -0.953770
    109 H                     0.242348
    110 H                     0.263390
    111 H                     0.283699
    112 O                    -0.677143
    113 C                    -0.925370
    114 H                     0.272052
    115 H                     0.261027
    116 H                     0.253965
    117 S                     0.729033
    118 C                    -0.739492
    119 H                     0.263221
    120 H                     0.259918
    121 H                     0.276349
    122 O                    -0.665604
    123 C                    -0.834349
    124 H                     0.288992
    125 H                     0.257800
    126 H                     0.266256
    127 S                     0.971984
    128 C                    -0.977560
    129 H                     0.294986
    130 H                     0.274921
    131 H                     0.240851
    132 O                    -0.723816
    133 C                    -0.764783
    134 H                     0.273471
    135 H                     0.257621
    136 H                     0.202172
    137 S                     0.780359
    138 C                    -0.828034
    139 H                     0.263274
    140 H                     0.212410
    141 H                     0.287860
    142 O                    -0.724219
    143 C                    -0.960387
    144 H                     0.252267
    145 H                     0.262407
    146 H                     0.257312
    147 S                     1.133102
    148 C                    -0.952698
    149 H                     0.247324
    150 H                     0.241894
    151 H                     0.257926
    152 O                    -0.714485
    153 C                    -0.797897
    154 H                     0.297779
    155 H                     0.238772
    156 H                     0.261243
    157 S                     0.905686
    158 C                    -0.868545
    159 H                     0.318091
    160 H                     0.213075
    161 H                     0.252898
    162 O                    -0.782245
    163 C                    -1.036211
    164 H                     0.252232
    165 H                     0.221464
    166 H                     0.297476
    167 S                     1.155875
    168 C                    -0.875966
    169 H                     0.277599
    170 H                     0.276062
    171 H                     0.250825
    172 O                    -0.717690
    173 C                    -0.720963
    174 H                     0.226772
    175 H                     0.246642
    176 H                     0.265457
    177 S                     0.566028
    178 C                    -0.784084
    179 H                     0.261140
    180 H                     0.322502
    181 H                     0.255042
    182 O                    -0.624123
    183 C                    -0.840506
    184 H                     0.221015
    185 H                     0.310718
    186 H                     0.240340
    187 S                     1.007297
    188 C                    -0.863386
    189 H                     0.217715
    190 H                     0.248035
    191 H                     0.291992
    192 O                    -0.704864
    193 C                    -1.026401
    194 H                     0.236869
    195 H                     0.277604
    196 H                     0.266487
    197 S                     0.942924
    198 C                    -0.806927
    199 H                     0.251716
    200 H                     0.246470
    201 H                     0.263035
    202 O                    -0.701349
    203 C                    -0.822652
    204 H                     0.278738
    205 H                     0.242169
    206 H                     0.235575
    207 S                     0.728089
    208 C                    -0.954362
    209 H                     0.310536
    210 H                     0.270058
    211 H                     0.242788
    212 O                    -0.645311
    213 C                    -0.885136
    214 H                     0.262882
    215 H                     0.247891
    216 H                     0.294247
    217 S                     0.931424
    218 C                    -0.900408
    219 H                     0.271304
    220 H                     0.289344
    221 H                     0.257980
    222 O                    -0.752946
    223 C                    -0.906797
    224 H                     0.243892
    225 H                     0.256840
    226 H                     0.247474
    227 S                     1.045402
    228 C                    -0.831587
    229 H                     0.245940
    230 H                     0.241181
    231 H                     0.266777
    232 O                    -0.753835
    233 C                    -0.903433
    234 H                     0.258019
    235 H                     0.245337
    236 H                     0.279694
    237 S                     0.906136
    238 C                    -0.867804
    239 H                     0.236853
    240 H                     0.314058
    241 H                     0.253358
    242 O                    -0.717905
    243 C                    -1.008871
    244 H                     0.256121
    245 H                     0.300721
    246 H                     0.197872
    247 S                     1.165558
    248 C                    -0.900157
    249 H                     0.213389
    250 H                     0.247391
    251 H                     0.272413
    252 O                    -0.738582
    253 C                    -0.828699
    254 H                     0.232307
    255 H                     0.243581
    256 H                     0.305448
    257 S                     0.952599
    258 C                    -0.740091
    259 H                     0.251495
    260 H                     0.231272
    261 H                     0.255065
    262 O                    -0.780444
    263 C                    -0.840972
    264 H                     0.260660
    265 H                     0.252807
    266 H                     0.262583
    267 S                     0.713335
    268 C                    -0.828560
    269 H                     0.262620
    270 H                     0.334773
    271 H                     0.245372
    272 O                    -0.674703
    273 C                    -0.983854
    274 H                     0.285962
    275 H                     0.280946
    276 H                     0.247849
    277 S                     0.918060
    278 C                    -0.909154
    279 H                     0.258464
    280 H                     0.297549
    281 H                     0.244572
    282 O                    -0.677225
    283 C                    -0.891242
    284 H                     0.250522
    285 H                     0.253642
    286 H                     0.229248
    287 S                     1.233420
    288 C                    -0.982028
    289 H                     0.225986
    290 H                     0.256037
    291 H                     0.270906
    292 O                    -0.781302
  ----------------------------------------
  Sum of atomic charges =     0.000000

 -----------------------------------------------------------------
                    Cartesian Multipole Moments
 -----------------------------------------------------------------
    Charge (ESU x 10^10)
                -0.0000
    Dipole Moment (Debye)
         X     -38.5528      Y       6.8877      Z      -4.1924
       Tot      39.3870
    Quadrupole Moments (Debye-Ang)
        XX   -2629.4805     XY    -551.2642     YY    -628.6677
        XZ   -1128.0733     YZ      79.5914     ZZ   -1227.8475
    Octopole Moments (Debye-Ang^2)
       XXX -120243.6499    XXY  -44770.1052    XYY  -27403.6152
       YYY  -43761.2743    XXZ  -73920.7479    XYZ  -17106.3926
       YYZ  -21342.5836    XZZ  -55349.4750    YZZ  -19420.3830
       ZZZ  -94043.5512
    Hexadecapole Moments (Debye-Ang^3)
      XXXX ************   XXXY ************   XXYY ************
      XYYY ************   YYYY ************   XXXZ ************
      XXYZ ************   XYYZ -831152.1728   YYYZ ************
      XXZZ ************   XYZZ -942079.5692   YYZZ ************
      XZZZ ************   YZZZ ************   ZZZZ ************
 -----------------------------------------------------------------
Archival summary:
[...]
    2  -0.0061060  -0.0243801   0.0185829   0.0000605   0.0475365  -0.0100696
    3   0.0085611   0.0115595   0.0231574  -0.0057547  -0.0192486  -0.0016017
          139         140         141         142         143         144
    1  -0.0241544   0.0055281   0.0219430   0.1075193  -0.0012049  -0.0233960
    2  -0.0133025   0.0107961  -0.0255491  -0.0137373   0.0029306   0.0172279
    3   0.0171301  -0.0272267   0.0056330   0.0172186  -0.0071397   0.0110645
          145         146         147         148         149         150
    1   0.0148755   0.0013087   0.0450145  -0.0061065  -0.0034662   0.0001055
    2   0.0294689  -0.0205249  -0.0247564  -0.0044418  -0.0194688  -0.0277696
    3  -0.0020990  -0.0255402   0.0008513  -0.0017116  -0.0283655   0.0171498
          151         152         153         154         155         156
    1  -0.0245193  -0.0359063  -0.0044303   0.0248142   0.0016235  -0.0309206
    2   0.0229536   0.0733451  -0.0061546  -0.0091195  -0.0307531   0.0136025
    3   0.0048283   0.0750245  -0.0034821  -0.0092006   0.0217055  -0.0139912
          157         158         159         160         161         162
    1  -0.0293223  -0.0013050   0.0201137  -0.0327764   0.0099199   0.1095870
    2   0.0091521   0.0077000  -0.0071444   0.0152496   0.0235060  -0.0177824
    3   0.0479571  -0.0018835  -0.0164633  -0.0037749   0.0190923   0.0015335
          163         164         165         166         167         168
    1  -0.0079540   0.0050100  -0.0261683   0.0039513   0.0017365  -0.0018529
    2   0.0044859  -0.0141942  -0.0164214   0.0311414  -0.0534918   0.0034100
    3  -0.0027373  -0.0314114   0.0085050   0.0160243   0.0034839   0.0109955
          169         170         171         172         173         174
    1   0.0257575  -0.0028935  -0.0134305   0.0712043  -0.0026767  -0.0253718
    2  -0.0107007   0.0309246  -0.0278754   0.0643609   0.0055995  -0.0097703
    3   0.0208598  -0.0166432   0.0152311  -0.0526021  -0.0020793  -0.0205973
          175         176         177         178         179         180
    1  -0.0236291   0.0148534  -0.0349605   0.0024829  -0.0249251   0.0175544
    2   0.0253585   0.0246586  -0.0340855   0.0075065   0.0290272  -0.0150537
    3   0.0103309  -0.0125405   0.0329213   0.0028108   0.0046109   0.0084017
          181         182         183         184         185         186
    1   0.0214183   0.0711111  -0.0089567  -0.0162989   0.0062148  -0.0331507
    2   0.0187780  -0.0397255   0.0037754   0.0134873   0.0197832  -0.0164423
    3  -0.0200128  -0.0759261  -0.0028538   0.0299313  -0.0285530   0.0039262
          187         188         189         190         191         192
    1   0.0075919   0.0091208  -0.0055746   0.0331649  -0.0064621   0.0111254
    2  -0.0173555   0.0070828   0.0270873   0.0030701   0.0109227  -0.0402009
    3   0.0425432  -0.0021042   0.0212656  -0.0072448  -0.0237685  -0.1001561
          193         194         195         196         197         198
    1  -0.0023281  -0.0212555  -0.0119563   0.0254967  -0.0164253  -0.0066892
    2   0.0024821   0.0265071  -0.0212568   0.0185954   0.0280938  -0.0045262
    3   0.0100242   0.0068215   0.0227755  -0.0015369  -0.0422812   0.0076062
          199         200         201         202         203         204
    1  -0.0020213  -0.0332902   0.0094287   0.1023679  -0.0031015  -0.0195666
    2  -0.0046436   0.0051445  -0.0218953  -0.0396868  -0.0012773  -0.0265482
    3   0.0306988  -0.0015764  -0.0220497   0.0112290   0.0072416   0.0014141
          205         206         207         208         209         210
    1   0.0286570  -0.0304171   0.0339306  -0.0084826  -0.0155362  -0.0120828
    2   0.0022221   0.0136906   0.0499278  -0.0021556  -0.0247312   0.0285916
    3   0.0203173   0.0034709  -0.0054931  -0.0008299   0.0129532   0.0080183
          211         212         213         214         215         216
    1   0.0049374   0.0420296   0.0027010   0.0270748  -0.0250981   0.0002008
    2   0.0029216  -0.1002208   0.0055510   0.0007330   0.0249169   0.0136509
    3  -0.0336642  -0.0171654   0.0023439  -0.0169579  -0.0093944   0.0285108
          217         218         219         220         221         222
    1  -0.0082649  -0.0046937   0.0034901   0.0083860  -0.0236172   0.0583306
    2  -0.0301414  -0.0004723  -0.0267557   0.0286564   0.0082077  -0.0300635
    3  -0.0402706   0.0079367   0.0225348   0.0176335  -0.0219073   0.1007924
          223         224         225         226         227         228
    1  -0.0089691  -0.0018835  -0.0139836  -0.0123313   0.0127239   0.0044240
    2  -0.0004941   0.0196616  -0.0267318   0.0128466  -0.0024916   0.0067024
    3  -0.0048687  -0.0247416  -0.0156569   0.0290813   0.0562484  -0.0041446
          229         230         231         232         233         234
    1  -0.0139895   0.0077058   0.0290992   0.0287436   0.0078093  -0.0042394
    2   0.0069394   0.0305170  -0.0086679  -0.0801268  -0.0073447  -0.0325053
    3  -0.0271688   0.0182861  -0.0047596  -0.0701752   0.0061922  -0.0009957
          235         236         237         238         239         240
    1   0.0284781   0.0022376  -0.0447603   0.0021881   0.0120840  -0.0287957
    2   0.0155002  -0.0075085  -0.0366432   0.0055776  -0.0232980   0.0114989
    3  -0.0037399   0.0297406  -0.0111857  -0.0080554  -0.0225711  -0.0167484
          241         242         243         244         245         246
    1   0.0269746  -0.0073689  -0.0046438   0.0106547   0.0016777  -0.0382610
    2   0.0153066   0.0891420   0.0017665  -0.0185123   0.0294583  -0.0046613
    3   0.0088538   0.0603973   0.0036513   0.0220774   0.0091835  -0.0059895
          247         248         249         250         251         252
    1  -0.0118123   0.0018580  -0.0278179   0.0147640   0.0165048   0.0835982
    2   0.0299522  -0.0054193  -0.0216534  -0.0054763  -0.0029795   0.0232932
    3  -0.0454507   0.0013323  -0.0015992  -0.0277991   0.0264980   0.0687595
          253         254         255         256         257         258
    1  -0.0062338  -0.0186762  -0.0165281   0.0110596   0.0326724  -0.0059794
    2  -0.0059017  -0.0098744   0.0070110  -0.0299916   0.0000910   0.0032667
    3   0.0009585   0.0327232  -0.0301213   0.0120538   0.0497891  -0.0028365
          259         260         261         262         263         264
    1  -0.0178095  -0.0305269   0.0186718   0.0385655  -0.0017803   0.0061870
    2   0.0041341   0.0123294   0.0235924  -0.0221177  -0.0035688   0.0036581
    3  -0.0281440   0.0177111   0.0023932  -0.0985790   0.0078679   0.0342592
          265         266         267         268         269         270
    1  -0.0311500   0.0034106  -0.0104574   0.0094801   0.0100622   0.0114675
    2  -0.0059837  -0.0342573  -0.0194185  -0.0076401  -0.0362243   0.0134406
    3  -0.0108669  -0.0005635  -0.0620165   0.0041865  -0.0018315  -0.0175264
          271         272         273         274         275         276
    1   0.0050068  -0.0169166  -0.0056740  -0.0121743   0.0185831  -0.0203386
    2  -0.0027434   0.1013514   0.0112775   0.0151011   0.0168554  -0.0236036
    3   0.0331903   0.0313262  -0.0021917   0.0315574  -0.0296363   0.0014784
          277         278         279         280         281         282
    1   0.0003618   0.0031036  -0.0049132  -0.0071353   0.0282148   0.0166577
    2  -0.0282578   0.0147810   0.0178477   0.0232317  -0.0164743  -0.0472547
    3   0.0478394   0.0021968  -0.0252128   0.0323923   0.0004600  -0.0980232
          283         284         285         286         287         288
    1  -0.0010912   0.0017962   0.0195690  -0.0241980   0.0037015  -0.0054238
    2   0.0005657   0.0275645  -0.0089077  -0.0246330  -0.0440910   0.0047872
    3  -0.0046959  -0.0216837  -0.0228053  -0.0072173   0.0286113   0.0045725
          289         290         291         292
    1  -0.0304612  -0.0059580   0.0213529   0.0819858
    2  -0.0063264  -0.0041956   0.0272140   0.0733837
    3  -0.0122838   0.0280609  -0.0053457  -0.0149562
  --- DONE ESP SUMMARY ---
Archival summary:
1\1\n0073.mhg0\SP\ProcedureUnspecified\6-31+G*\272754h22\ymao\FriMar1215:13:062021FriMar1215:13:062021\0\\#,ProcedureUnspecified,6-31+G*,\\0,1\S\O,1,1.49689\C,1,1.80649,2,108.66\H,3,1.09248,1,110.981,2,-70.0989,0\H,3,1.09313,1,102.154,2,49.5608,0\H,3,1.09325,1,111.077,2,158.883,0\C,1,1.8075,2,101.831,3,101.724,0\H,7,1.09247,1,104.663,2,85.9322,0\H,7,1.09275,1,103.402,2,-27.6241,0\H,7,1.09296,1,122.557,2,-143.628,0\H,5,2.08394,3,131.42,1,-76.6748,0\C,11,1.09264,5,128.776,3,-73.2048,0\H,12,1.09297,11,110.851,5,-122.062,0\H,12,1.09318,11,110.405,5,-10.9869,0\S,12,1.80736,11,107.439,5,114.002,0\O,15,1.49736,12,99.7095,11,-177.715,0\C,15,1.80699,12,90.3897,11,-70.4553,0\H,17,1.09256,15,111.141,12,-169.873,0\H,17,1.0931,15,109.774,12,64.4958,0\H,17,1.0934,15,113.37,12,-53.1634,0\H,6,2.33131,3,102.572,1,42.4833,0\C,21,1.09287,6,173.34,3,18.0696,0\H,22,1.09304,21,107.566,6,-25.6478,0\H,22,1.09324,21,108.254,6,-148.738,0\S,22,1.80705,21,110.934,6,84.2928,0\O,25,1.49684,22,101.497,21,-93.0575,0\C,25,1.80728,22,97.8059,21,161.874,0\H,27,1.09274,25,109.276,22,173.225,0\H,27,1.09277,25,110.139,22,-66.1986,0\H,27,1.09296,25,111.603,22,50.2175,0\H,24,2.03979,22,120.328,21,19.2274,0\C,31,1.09249,24,117.352,22,-176.092,0\H,32,1.0925,31,104.189,24,30.2918,0\H,32,1.09302,31,112.961,24,156.5,0\S,32,1.80729,31,107.698,24,-86.1057,0\O,35,1.49685,32,97.1223,31,-54.0046,0\C,35,1.80671,32,93.2121,31,-155.645,0\H,37,1.09235,35,109.612,32,166.049,0\H,37,1.09266,35,112.192,32,-72.1622,0\H,37,1.09276,35,107.284,32,52.1261,0\H,29,2.25431,27,150.488,25,-131.973,0\C,41,1.09288,29,105.457,27,-132.26,0\H,42,1.09317,41,111.909,29,-83.978,0\H,42,1.09381,41,110.24,29,148.352,0\S,42,1.80693,41,116.171,29,31.3287,0\O,45,1.4966,42,102.026,41,-85.8127,0\C,45,1.80713,42,99.0933,41,171.222,0\H,47,1.09241,45,114.135,42,51.8749,0\H,47,1.09279,45,107.547,42,170.213,0\H,47,1.0938,45,105.028,42,-63.7466,0\Gh,23,2.27203,22,162.655,21,-81.5426,0\Gh,51,1.09694,23,152.946,22,135.897,0\Gh,52,1.09759,51,112.357,23,119.721,0\Gh,52,1.53728,51,112.667,23,-121.857,0\Gh,54,1.09672,52,105.952,51,-61.0845,0\Gh,54,1.09718,52,104.16,51,56.4665,0\Gh,54,1.53702,52,110.524,51,179.258,0\Gh,57,1.09617,54,117.198,52,56.4805,0\Gh,57,1.46252,54,116.28,52,-179.904,0\Gh,59,1.01269,57,117.636,54,119.898,0\Gh,59,1.37796,57,124.808,54,-64.9396,0\Gh,61,1.10486,59,111.061,57,179.53,0\Gh,61,1.21853,59,121.038,57,-3.4605,0\Gh,52,1.53786,51,106.416,23,1.21932,0\Gh,64,1.0961,52,105.708,51,-54.5211,0\Gh,64,1.0964,52,109.637,51,56.0872,0\Gh,64,1.53788,52,112.939,51,-173.898,0\Gh,67,1.09593,64,107.03,52,-79.495,0\Gh,67,1.09738,64,110.26,52,161.623,0\Gh,67,1.53764,64,113.368,52,44,0\Gh,70,1.09656,67,109.648,64,74.9253,0\Gh,70,1.09725,67,111.351,64,-170.573,0\H,53,2.04317,52,129.385,51,-13.7112,0\C,73,1.09288,53,149.204,52,-25.4479,0\H,74,1.09239,73,119.153,53,-4.69989,0\H,74,1.09311,73,108.814,53,-123.693,0\S,74,1.80761,73,109.82,53,124.719,0\O,77,1.49695,74,100.288,73,-161.819,0\C,77,1.80709,74,99.9384,73,-57.8651,0\H,79,1.0926,77,99.7581,74,-65.6057,0\H,79,1.09303,77,110.77,74,171.4,0\H,79,1.09328,77,113.544,74,47.9415,0\O,60,2.09107,59,153.496,57,-104.976,0\S,83,1.49657,60,131.155,59,11.9642,0\C,84,1.80643,83,107.05,60,97.796,0\H,85,1.09289,84,109.043,83,91.7044,0\H,85,1.09297,84,101.907,83,-158.725,0\H,85,1.093,84,113.101,83,-30.5179,0\C,84,1.8068,83,95.2042,60,-2.08137,0\H,89,1.09279,84,115.764,83,-162.463,0\H,89,1.09333,84,111.653,83,62.0087,0\H,89,1.09341,84,101.641,83,-52.8534,0\H,72,2.12807,70,123.24,67,38.1389,0\C,93,1.09287,72,165.549,70,-92.7253,0\H,94,1.09282,93,111.624,72,27.7942,0\H,94,1.09335,93,103.651,72,146.394,0\S,94,1.80679,93,108.258,72,-90.6612,0\O,97,1.49701,94,103.671,93,56.3577,0\C,97,1.80731,94,92.8876,93,-46.1234,0\H,99,1.09249,97,109.123,94,55.9737,0\H,99,1.09325,97,111.997,94,179.25,0\H,99,1.09346,97,111.508,94,-61.3243,0\H,82,2.16226,79,111.809,77,70.4142,0\C,103,1.09258,82,112.929,79,-108.634,0\H,104,1.09294,103,106.57,82,-82.9574,0\H,104,1.09324,103,113.392,82,38.3772,0\S,104,1.80657,103,104.856,82,156.868,0\O,107,1.49697,104,99.7779,103,165.987,0\C,107,1.80725,104,95.844,103,61.5767,0\H,109,1.0928,107,111.646,104,69.3397,0\H,109,1.09292,107,111.023,104,-162.909,0\H,109,1.09315,107,111.717,104,-50.0096,0\H,110,2.29823,109,94.4166,107,-178.882,0\C,113,1.09237,110,122.577,109,148.008,0\H,114,1.09284,113,110.023,110,112.413,0\H,114,1.09322,113,106.61,110,-7.32277,0\S,114,1.8069,113,104.659,110,-122.976,0\O,117,1.49666,114,101.845,113,57.7981,0\C,117,1.80725,114,102.116,113,-54.7334,0\H,119,1.09286,117,105.469,114,65.7781,0\H,119,1.09309,117,108.676,114,177.779,0\H,119,1.09321,117,107.409,114,-53.3163,0\H,102,2.30106,99,138.204,97,97.4398,0\C,123,1.09293,102,111.498,99,75.9085,0\H,124,1.09327,123,106.027,102,177.828,0\H,124,1.09377,123,109.783,102,-60.2541,0\S,124,1.80696,123,106.16,102,70.4021,0\O,127,1.49666,124,107.468,123,-52.5102,0\C,127,1.80678,124,102.024,123,44.9095,0\H,129,1.09307,127,110.419,124,-60.2862,0\H,129,1.09327,127,105.519,124,64.1793,0\H,129,1.0935,127,112.194,124,-178.992,0\O,62,2.31136,61,126.639,59,110.145,0\S,133,1.49739,62,155.875,61,-12.9465,0\C,134,1.8066,133,100.342,62,127.243,0\H,135,1.09299,134,114.589,133,-61.7281,0\H,135,1.09339,134,112.193,133,165.759,0\H,135,1.09351,134,110.885,133,49.7384,0\C,134,1.80743,133,110.012,62,-122.059,0\H,139,1.09218,134,102.835,133,69.855,0\H,139,1.09289,134,108.927,133,-165.479,0\H,139,1.09301,134,108.175,133,-42.7094,0\H,138,2.27243,135,140.668,134,-130.906,0\C,143,1.09295,138,113.428,135,46.5619,0\H,144,1.09252,143,112.837,138,17.2227,0\H,144,1.09341,143,116.497,138,136.872,0\S,144,1.8069,143,109.77,138,-107.283,0\O,147,1.49695,144,101.96,143,69.3182,0\C,147,1.80707,144,99.6311,143,-30.2078,0\H,149,1.09276,147,102.88,144,161.766,0\H,149,1.0928,147,107.182,144,-83.1334,0\H,149,1.09371,147,105.439,144,41.1464,0\H,101,2.32763,99,107.343,97,-83.1601,0\C,153,1.09357,101,108.493,99,-145.785,0\H,154,1.09226,153,109.511,101,-16.0762,0\H,154,1.0931,153,110.362,101,107.61,0\S,154,1.80724,153,107.737,101,-136.375,0\O,157,1.49722,154,96.0176,153,63.6389,0\C,157,1.80697,154,100.036,153,164.958,0\H,159,1.0926,157,109.006,154,43.3071,0\H,159,1.09277,157,108.177,154,161.939,0\H,159,1.0937,157,109.935,154,-79.8634,0\H,106,2.33262,104,119.21,103,173.499,0\C,163,1.09301,106,120.627,104,132.272,0\H,164,1.09287,163,106.297,106,-70.1414,0\H,164,1.09293,163,110.267,106,54.245,0\S,164,1.80721,163,110.671,106,174.733,0\O,167,1.49662,164,110.015,163,52.037,0\C,167,1.80754,164,96.4681,163,-54.6273,0\H,169,1.09186,167,107.652,164,-161.829,0\H,169,1.09279,167,107.337,164,83.9799,0\H,169,1.09303,167,109.417,164,-48.9402,0\H,172,2.16707,169,162.236,167,-142.517,0\C,173,1.09314,172,131.148,169,-133.748,0\H,174,1.09319,173,107.381,172,-77.93,0\H,174,1.09356,173,104.181,172,159.3,0\S,174,1.80663,173,105.515,172,43.289,0\O,177,1.4974,174,98.4305,173,-77.5288,0\C,177,1.8061,174,86.8255,173,178.941,0\H,179,1.09275,177,105.289,174,-76.3937,0\H,179,1.09301,177,102.713,174,162.392,0\H,179,1.09334,177,120.335,174,47.4328,0\H,66,2.37041,64,131.947,52,-130.288,0\C,183,1.09315,66,112.724,64,-55.5681,0\H,184,1.09287,183,107.216,66,107.456,0\H,184,1.09327,183,109.125,66,-9.01881,0\S,184,1.80665,183,113.903,66,-134.914,0\O,187,1.49735,184,101.524,183,71.7793,0\C,187,1.80751,184,93.0846,183,-175.089,0\H,189,1.09276,187,116.308,184,-46.607,0\H,189,1.0931,187,106.738,184,74.5762,0\H,189,1.09339,187,109.663,184,-164.956,0\H,188,2.32485,187,106.768,184,54.4923,0\C,193,1.09236,188,135.002,187,-134.036,0\H,194,1.09227,193,117.383,188,29.4091,0\H,194,1.09333,193,112.524,188,152.649,0\S,194,1.80654,193,104.432,188,-92.3189,0\O,197,1.49682,194,107.099,193,154.107,0\C,197,1.80687,194,98.3566,193,45.4481,0\H,199,1.09247,197,110.678,194,52.5947,0\H,199,1.09316,197,110.18,194,-69.557,0\H,199,1.09385,197,102.291,194,171.417,0\H,195,1.99881,194,126.514,193,-43.8405,0\C,203,1.09252,195,129.911,194,-167.777,0\H,204,1.09265,203,106.393,195,1.92598,0\H,204,1.09349,203,110.502,195,-120.621,0\S,204,1.8075,203,113.407,195,114.429,0\O,207,1.49631,204,102.173,203,-175.201,0\C,207,1.80704,204,100.719,203,-67.221,0\H,209,1.09285,207,105.05,204,-26.3543,0\H,209,1.09339,207,108.061,204,92.2969,0\H,209,1.09364,207,107.077,204,-142.562,0\H,206,2.15389,204,115.103,203,-66.9011,0\C,213,1.09267,206,139.443,204,125.285,0\H,214,1.09265,213,117.891,206,54.1514,0\H,214,1.09325,213,105.869,206,-56.3917,0\S,214,1.80717,213,108.545,206,-179.678,0\O,217,1.49682,214,101.927,213,165.32,0\C,217,1.80704,214,95.1512,213,60.0332,0\H,219,1.09248,217,105.516,214,-71.5405,0\H,219,1.09294,217,107.814,214,-179.07,0\H,219,1.09358,217,108.958,214,51.3912,0\H,156,2.41192,154,131.013,153,68.3739,0\C,223,1.09315,156,155.593,154,72.3896,0\H,224,1.09279,223,107.669,156,45.7337,0\H,224,1.09318,223,106.269,156,162.995,0\S,224,1.8071,223,107.544,156,-83.8906,0\O,227,1.49704,224,106.716,223,70.0439,0\C,227,1.8072,224,94.5259,223,-32.9977,0\H,229,1.09231,227,108.341,224,-87.662,0\H,229,1.09313,227,106.415,224,145.468,0\H,229,1.09341,227,115.167,224,32.3523,0\H,231,2.29713,229,116.223,227,170.067,0\C,233,1.09367,231,150.623,229,-101.327,0\H,234,1.09206,233,108.19,231,176.061,0\H,234,1.09246,233,106.032,231,-64.4701,0\S,234,1.80771,233,111.331,231,56.9368,0\O,237,1.498,234,106.532,233,163.913,0\C,237,1.80735,234,96.3219,233,-87.8886,0\H,239,1.09249,237,106.394,234,57.0364,0\H,239,1.09289,237,112.559,234,179.5,0\H,239,1.09347,237,108.383,234,-63.6766,0\H,36,2.42958,35,117.827,32,-146.697,0\C,243,1.09266,36,116.139,35,-177.785,0\H,244,1.09295,243,113.167,36,-12.5746,0\H,244,1.09381,243,114.458,36,-141.085,0\S,244,1.8066,243,101.902,36,109.764,0\O,247,1.49703,244,106.728,243,-174.01,0\C,247,1.80714,244,97.1243,243,-64.1282,0\H,249,1.0926,247,109.282,244,54.5331,0\H,249,1.09302,247,110.143,244,-69.3708,0\H,249,1.09337,247,108.748,244,163.062,0\H,246,2.22712,244,109.292,243,171.551,0\C,253,1.09314,246,148.658,244,-100.164,0\H,254,1.09287,253,108.895,246,55.2468,0\H,254,1.09289,253,112.288,246,-62.1248,0\S,254,1.80643,253,107.397,246,178.476,0\O,257,1.4968,254,101.742,253,-112.631,0\C,257,1.80701,254,92.8268,253,145.162,0\H,259,1.09262,257,104.244,254,43.4316,0\H,259,1.09313,257,106.641,254,167.487,0\H,259,1.09341,257,107.539,254,-70.3039,0\H,250,2.46681,249,131.878,247,41.4291,0\C,263,1.09337,250,107.673,249,137.408,0\H,264,1.09217,263,106.406,250,6.64553,0\H,264,1.09343,263,110.224,250,131.278,0\S,264,1.80716,263,114.959,250,-107.763,0\O,267,1.49637,264,95.6771,263,-164.064,0\C,267,1.80742,264,92.5786,263,-58.4752,0\H,269,1.09262,267,114.351,264,-70.0427,0\H,269,1.09287,267,108.978,264,171.095,0\H,269,1.09317,267,102.414,264,52.2509,0\O,4,2.60122,3,113.209,1,173.544,0\S,273,1.49691,4,105.045,3,105.143,0\C,274,1.80682,273,104.814,4,-101.732,0\H,275,1.09257,274,117.745,273,145.604,0\H,275,1.09258,274,113.997,273,-83.1129,0\H,275,1.0933,274,100.312,273,31.608,0\C,274,1.80759,273,101.122,4,155.26,0\H,279,1.09207,274,105.942,273,-166.721,0\H,279,1.09345,274,113.009,273,72.4657,0\H,279,1.09355,274,107.457,273,-46.4129,0\H,62,2.67571,61,155.554,59,-7.79784,0\C,283,1.09287,62,167.386,61,-160.978,0\H,284,1.09293,283,108.432,62,117.141,0\H,284,1.0931,283,102.826,62,-129.659,0\S,284,1.80712,283,109.388,62,0.0415345,0\O,287,1.49744,284,106.125,283,170.945,0\C,287,1.8072,284,93.6969,283,66.2494,0\H,289,1.09251,287,114.027,284,51.9854,0\H,289,1.09307,287,111.641,284,-60.7243,0\H,289,1.09371,287,115.769,284,169.287,0\\\@

 Total job time:  81.46s(wall), 259.53s(cpu) 
 Fri Mar 12 15:13:06 2021

        *************************************************************
        *                                                           *
        *  Thank you very much for using Q-Chem.  Have a nice day.  *
        *                                                           *
        *************************************************************


