                  Welcome to Q-Chem
     A Quantum Leap Into The Future Of Chemistry


 Q-Chem 6.0 (devel), Q-Chem, Inc., Pleasanton, CA (2022)

 E. Epifanovsky,  A. T. B. Gilbert,  Xintian Feng,  Joonho Lee,  Yuezhi Mao,  
 N. Mardirossian,  P. Pokhilko,  A. White,  M. Wormit,  M. P. Coons,  
 A. L. Dempwolff,  Zhengting Gan,  D. Hait,  P. R. Horn,  L. D. Jacobson,  
 I. Kaliman,  J. Kussmann,  A. W. Lange,  Ka Un Lao,  D. S. Levine,  Jie Liu,  
 S. C. McKenzie,  A. F. Morrison,  K. Nanda,  F. Plasser,  D. R. Rehn,  
 M. L. Vidal,  Zhi-Qiang You,  Ying Zhu,  B. Alam,  B. Albrecht,  
 A. Aldossary,  E. Alguire,  J. H. Andersen,  V. Athavale,  D. Barton,  
 K. Begam,  A. Behn,  N. Bellonzi,  Y. A. Bernard,  E. J. Berquist,  
 H. Burton,  A. Carreras,  K. Carter-Fenk,  Romit Chakraborty,  
 Chandrima Chakravarty,  Junhan Chen,  A. D. Chien,  K. D. Closser,  
 V. Cofer-Shabica,  L. Cunha,  S. Dasgupta,  Jia Deng,  M. de Wergifosse,  
 M. Diedenhofen,  Hainam Do,  S. Ehlert,  Po-Tung Fang,  S. Fatehi,  
 Qingguo Feng,  T. Friedhoff,  B. Ganoe,  J. Gayvert,  Qinghui Ge,  
 G. Gidofalvi,  M. Goldey,  J. Gomes,  C. Gonzalez-Espinoza,  S. Gulania,  
 A. Gunina,  J. A. Gyamfi,  M. W. D. Hanson-Heine,  P. H. P. Harbach,  
 A. W. Hauser,  M. F. Herbst,  M. Hernandez Vera,  M. Hodecker,  
 Z. C. Holden,  S. Houck,  Xunkun Huang,  Kerwin Hui,  B. C. Huynh,  
 K. Ikeda,  M. Ivanov,  Hyunjun Ji,  Zuxin Jin,  Hanjie Jiang,  B. Kaduk,  
 S. Kaehler,  R. Kang,  K. Khistyaev,  Jaehoon Kim,  Yongbin Kim,  
 P. Klunzinger,  Z. Koczor-Benda,  Joong Hoon Koh,  D. Kosenkov,  
 Saikiran Kotaru,  L. Koulias,  T. Kowalczyk,  C. M. Krauter,  K. Kue,  
 A. Kunitsa,  T. Kus,  A. Landau,  K. V. Lawler,  D. Lefrancois,  S. Lehtola,  
 Rain Li,  Shaozhi Li,  Yi-Pei Li,  Jiashu Liang,  M. Liebenthal,  
 Hung-Hsuan Lin,  You-Sheng Lin,  Fenglai Liu,  Kuan-Yu Liu,  
 M. Loipersberger,  A. Luenser,  C. Malbon,  A. Manjanath,  P. Manohar,  
 E. Mansoor,  S. F. Manzer,  Shan-Ping Mao,  A. V. Marenich,  T. Markovich,  
 S. Mason,  F. Matz,  S. A. Maurer,  P. F. McLaughlin,  M. F. S. J. Menger,  
 J.-M. Mewes,  S. A. Mewes,  P. Morgante,  Mohammad Mostafanejad,  
 J. W. Mullinax,  K. J. Oosterbaan,  G. Paran,  V. Parravicini,  
 Alexander C. Paul,  Suranjan K. Paul,  F. Pavosevic,  Zheng Pei,  S. Prager,  
 E. I. Proynov,  E. Ramos,  B. Rana,  A. E. Rask,  A. Rettig,  R. M. Richard,  
 F. Rob,  E. Rossomme,  T. Scheele,  M. Scheurer,  M. Schneider,  
 P. E. Schneider,  N. Sergueev,  S. M. Sharada,  Hengyuan Shen,  
 W. Skomorowski,  D. W. Small,  C. J. Stein,  Yingli Su,  Yu-Chuan Su,  
 E. J. Sundstrom,  Zhen Tao,  J. Thirman,  Hung-Yi Tsai,  T. Tsuchimochi,  
 N. M. Tubman,  C. Utku,  S. P. Veccham,  O. Vydrov,  J. Wenzel,  
 Jonathan Wong,  J. Witte,  A. Yamada,  Chou-Hsun Yang,  Kun Yao,  
 S. Yeganeh,  S. R. Yost,  A. Zech,  F. Zeller,  Igor Ying Zhang,  
 Xing Zhang,  Yu Zhang,  D. Zuev,  A. Aspuru-Guzik,  A. T. Bell,  
 N. A. Besley,  K. B. Bravaya,  B. R. Brooks,  D. Casanova,  Jeng-Da Chai,  
 Hsing-Ta Chen,  S. Coriani,  C. J. Cramer,  A. E. DePrince, III,  
 R. A. DiStasio Jr.,  A. Dreuw,  B. D. Dunietz,  T. R. Furlani,  
 W. A. Goddard III,  S. Grimme,  S. Hammes-Schiffer,  T. Head-Gordon,  
 W. J. Hehre,  Chao-Ping Hsu,  T.-C. Jagau,  Yousung Jung,  A. Klamt,  
 Jing Kong,  D. S. Lambrecht,  Xiangyuan Li,  WanZhen Liang,  N. J. Mayhall,  
 C. W. McCurdy,  J. B. Neaton,  T. Neudecker,  C. Ochsenfeld,  
 J. A. Parkhill,  R. Peverati,  V. A. Rassolov,  Haisheng Ren,  Yihan Shao,  
 L. V. Slipchenko,  R. P. Steele,  J. E. Subotnik,  A. J. W. Thom,  
 A. Tkatchenko,  D. G. Truhlar,  T. Van Voorhis,  Fan Wang,  
 T. A. Wesolowski,  K. B. Whaley,  H. L. Woodcock III,  P. M. Zimmerman,  
 S. Faraji,  P. M. W. Gill,  M. Head-Gordon,  J. M. Herbert,  A. I. Krylov

 Contributors to earlier versions of Q-Chem not listed above: 
 R. D. Adamson,  B. Austin,  R. Baer,  J. Baker,  G. J. O. Beran,  
 K. Brandhorst,  S. T. Brown,  E. F. C. Byrd,  Arup K. Chakraborty,  
 G. K. L. Chan,  Chun-Min Chang,  Yunqing Chen,  C.-L. Cheng,  
 Siu Hung Chien,  D. M. Chipman,  D. L. Crittenden,  H. Dachsel,  
 R. J. Doerksen,  A. D. Dutoi,  R. G. Edgar,  J. Fosso-Tande,  
 L. Fusti-Molnar,  D. Ghosh,  A. Ghysels,  A. Golubeva-Zadorozhnaya,  
 J. Gonthier,  M. S. Gordon,  S. R. Gwaltney,  G. Hawkins,  J. E. Herr,  
 A. Heyden,  S. Hirata,  E. G. Hohenstein,  G. Kedziora,  F. J. Keil,  
 C. Kelley,  Jihan Kim,  R. A. King,  R. Z. Khaliullin,  P. P. Korambath,  
 W. Kurlancheek,  A. Laurent,  A. M. Lee,  M. S. Lee,  S. V. Levchenko,  
 Ching Yeh Lin,  D. Liotard,  E. Livshits,  R. C. Lochan,  I. Lotan,  
 L. A. Martinez-Martinez,  P. E. Maslen,  N. Nair,  D. P. O'Neill,  
 D. Neuhauser,  E. Neuscamman,  C. M. Oana,  R. Olivares-Amaya,  R. Olson,  
 T. M. Perrine,  B. Peters,  P. A. Pieniazek,  A. Prociuk,  Y. M. Rhee,  
 J. Ritchie,  M. A. Rohrdanz,  E. Rosta,  N. J. Russ,  H. F. Schaefer III,  
 M. W. Schmidt,  N. E. Schultz,  S. Sharma,  N. Shenvi,  C. D. Sherrill,  
 A. C. Simmonett,  A. Sodt,  T. Stein,  D. Stuck,  K. S. Thanthiriwatte,  
 V. Vanovschi,  L. Vogt,  Tao Wang,  A. Warshel,  M. A. Watson,  
 C. F. Williams,  Q. Wu,  X. Xu,  Jun Yang,  W. Zhang,  Yan Zhao

   Please cite Q-Chem as follows:
  "Software for the frontiers of quantum chemistry:
   An overview of developments in the Q-Chem 5 package"
   J. Chem. Phys. 155, 084801 (2021)
   https://doi.org/10.1063/5.0055522 (open access)

 Q-Chem 6.0.0 for Intel X86 EM64T Linux

 Parts of Q-Chem use Armadillo 9.900.5 (Nocturnal Misbehaviour).
 http://arma.sourceforge.net/

 Q-Chem begins on Thu Jul 21 03:45:48 2022  

 Host: nid00522
0

     Scratch files written to /global/cscratch1/sd/ymao90/r7.00_frame_0084_almo_B3LYP_dp20220721031443//
 Processing $rem in /global/homes/y/ymao90/my_qchem/qchem_embedding_5p4/config/preferences:
 Processing $rem in /global/homes/y/ymao90/.qchemrc:

 Checking the input file for inconsistencies... 	...done.

--------------------------------------------------------------
User input:
--------------------------------------------------------------
$molecule
0 1
--
0 1
C    29.12800   28.75000   24.35800  
C    27.72800   28.69800   24.99200  
C    27.14000   27.27800   24.96500  
C    28.10700   26.23200   25.54400  
C    29.43200   26.22900   24.76400  
C    30.06700   27.62700   24.82900  
H    26.15100   27.05700   25.38600  
H    27.83700   28.98100   26.04600  
H    29.02800   28.66600   23.26900  
H    29.63200   29.69000   24.61200  
H    28.44300   26.43500   26.56800  
H    27.77300   25.18700   25.55500  
H    30.12300   25.50600   25.21400  
H    29.25500   25.81200   23.76500  
H    30.42800   27.80000   25.85000  
H    31.00900   27.63000   24.26700  
H    26.98800   26.96500   23.92500  
N    26.79500   29.62700   24.35700  
H    26.02700   29.24200   23.81900  
C    26.90500   30.99900   24.42600  
H    26.13900   31.42900   23.75500  
O    27.74800   31.62100   25.04800  
--
0 1
C    22.01300   33.43500   24.20500  
H    20.96100   33.36600   23.91800  
H    22.24500   32.65400   24.93400  
H    22.22900   34.46400   24.50300  
S    22.88200   32.82200   22.74400  
C    22.30300   31.11100   22.69600  
H    22.97500   30.53800   22.05300  
H    22.32800   30.67000   23.69600  
H    21.27000   31.08400   22.34100  
O    24.31600   32.66100   23.14100  
C    35.74700   33.07000   26.38700  
H    34.95200   33.50600   25.77700  
H    36.14300   33.85100   27.04100  
H    36.52400   32.62600   25.76000  
S    34.93200   31.80600   27.39000  
C    34.14100   30.66600   26.23200  
H    33.35000   30.12700   26.75900  
H    33.60800   31.23800   25.46900  
H    34.71900   29.88200   25.73700  
O    33.77400   32.60000   27.90900  
C    31.81300   34.42900   25.37500  
H    32.67000   34.00400   24.84700  
H    31.79200   35.51600   25.48900  
H    31.85700   33.95400   26.35900  
S    30.28300   33.80600   24.64400  
C    30.82200   32.08600   24.50800  
H    30.03300   31.55200   23.97300  
H    31.73100   32.00100   23.90600  
H    30.99800   31.74300   25.53100  
O    30.21700   34.22900   23.20900  
C    32.09400   31.90600   20.76200  
H    32.33600   32.10800   19.71500  
H    31.51000   32.75200   21.13300  
H    32.99700   31.56100   21.27000  
S    31.10200   30.39900   20.67000  
C    29.35500   30.86100   20.66400  
H    28.85200   29.89400   20.75300  
H    29.18900   31.47900   21.55000  
H    29.14100   31.48800   19.79500  
O    31.32100   29.84000   22.04200  
C    29.70300   32.52900   28.75300  
H    29.28200   32.57400   29.76100  
H    30.79500   32.57000   28.78000  
H    29.16700   33.33600   28.24700  
S    29.35100   30.91700   28.01600  
C    27.63000   30.86200   28.56300  
H    26.90900   31.42100   27.96100  
H    27.42500   29.79200   28.47900  
H    27.50700   31.08300   29.62600  
O    30.03200   30.11000   29.07600  
C    22.95600   25.40900   28.65900  
H    22.53500   24.53800   28.14900  
H    22.37600   25.42400   29.58500  
H    22.76100   26.31100   28.07400  
S    24.74300   25.27800   28.89100  
C    24.68100   23.67100   29.71500  
H    25.69000   23.35700   29.99300  
H    23.98900   23.59200   30.55800  
H    24.36300   22.95700   28.95200  
O    25.10600   26.28300   29.94000  
C    29.12900   22.70400   21.28000  
H    28.56900   22.95100   22.18600  
H    28.53800   22.69600   20.36100  
H    29.62500   21.73700   21.39400  
S    30.47800   23.90200   21.19000  
C    31.22000   23.02500   19.79500  
H    32.12000   23.58900   19.53800  
H    31.45800   22.02900   20.17600  
H    30.41900   23.09500   19.05500  
O    31.32600   23.69300   22.40600  
C    29.50200   22.34100   26.25600  
H    30.48200   21.90900   26.03500  
H    28.83600   22.32800   25.38900  
H    29.62400   23.34700   26.66600  
S    28.67200   21.32700   27.50000  
C    28.18600   19.98200   26.39600  
H    27.56700   19.23300   26.89700  
H    27.58100   20.33100   25.55500  
H    29.11000   19.51300   26.05000  
O    27.34100   21.99000   27.68000  
C    21.97200   25.39900   25.44100  
H    22.98200   25.10300   25.73500  
H    22.02400   26.28600   24.80500  
H    21.33700   25.53300   26.32100  
S    21.21500   23.92100   24.72700  
C    19.48300   24.38100   24.96300  
H    18.82400   24.03000   24.16400  
H    19.22500   24.18200   26.00600  
H    19.55500   25.46600   24.85500  
O    21.28300   22.94700   25.86100  
C    25.49200   26.40800   21.47000  
H    26.08100   25.94100   22.26300  
H    25.14500   25.68100   20.73200  
H    26.14500   27.19000   21.07500  
S    24.05500   27.14600   22.28100  
C    23.15700   27.76700   20.84200  
H    23.11300   27.18000   19.92100  
H    22.12000   27.97300   21.12000  
H    23.53000   28.74900   20.54200  
O    24.66600   28.39900   22.82600  
C    26.80200   34.84200   24.64900  
H    26.72900   35.42500   25.57100  
H    26.57800   33.77500   24.73400  
H    27.83500   35.00800   24.33200  
S    25.78000   35.55000   23.33800  
C    26.77700   34.84600   22.00500  
H    26.71200   33.75500   21.99400  
H    26.38200   35.23500   21.06300  
H    27.81200   35.14600   22.18800  
O    26.29500   36.94500   23.16300  
C    36.00900   22.13900   20.74500  
H    35.99700   21.65500   19.76500  
H    36.34600   23.17700   20.68000  
H    36.59700   21.52200   21.42900  
S    34.31600   22.21600   21.37100  
C    34.64500   22.67100   23.08800  
H    35.11200   23.66000   23.08800  
H    33.66200   22.76900   23.55700  
H    35.25600   21.90700   23.57400  
O    33.84100   20.80000   21.46800  
C    34.96800   28.18200   23.31500  
H    34.50600   27.87000   24.25500  
H    35.87500   27.61100   23.10300  
H    35.25700   29.23100   23.42000  
S    33.92800   28.10500   21.84000  
C    33.35100   26.39800   21.97300  
H    32.68000   26.35900   21.11100  
H    34.22200   25.78300   21.73400  
H    32.87400   26.14300   22.92300  
O    34.81900   27.99800   20.64200  
C    28.45200   31.39400   32.46500  
H    27.73300   31.78900   33.18700  
H    29.41700   31.43700   32.97800  
H    28.45000   31.90200   31.49800  
S    27.91900   29.69300   32.17100  
C    26.21700   30.01600   31.65800  
H    25.69400   30.10300   32.61300  
H    26.16600   31.01000   31.20500  
H    25.78300   29.19300   31.08400  
O    27.69400   29.23800   33.57900  
C    26.66200   26.55500   18.27500  
H    26.19600   27.43600   18.72500  
H    27.04700   26.72900   17.26700  
H    25.83900   25.84500   18.39200  
S    28.01100   26.04700   19.36400  
C    29.02800   27.53600   19.23800  
H    28.26600   28.26200   19.53200  
H    29.90400   27.41800   19.88100  
H    29.29000   27.69800   18.18900  
O    28.85800   25.16000   18.50600  
C    33.60500   18.31500   24.64300  
H    34.01400   17.60300   25.36500  
H    33.79800   18.01700   23.61000  
H    34.06800   19.29200   24.80500  
S    31.84500   18.57900   24.95600  
C    31.62400   19.90000   23.74200  
H    31.74000   19.60200   22.69700  
H    30.62200   20.21600   24.04200  
H    32.35200   20.68300   23.97000  
O    31.81600   19.17500   26.32900  
C    33.37900   26.41900   26.77700  
H    32.37300   26.84000   26.70600  
H    33.46100   25.91500   27.74400  
H    34.23500   27.09600   26.72900  
S    33.53800   25.06300   25.59300  
C    33.24300   23.67300   26.71000  
H    33.96500   23.95500   27.48200  
H    32.28500   23.87500   27.19600  
H    33.39000   22.70600   26.22300  
O    35.00100   24.93700   25.30000  
C    23.24000   30.78100   26.30000  
H    24.06600   31.40800   25.95500  
H    23.04200   29.93900   25.63100  
H    22.34900   31.38800   26.48200  
S    23.52200   30.04000   27.92400  
C    24.61600   28.68200   27.45100  
H    24.51200   27.88900   28.19600  
H    24.31800   28.35000   26.45300  
H    25.67300   28.96100   27.47100  
O    22.16900   29.44600   28.16100  
C    25.57200   35.66100   29.81600  
H    26.53500   36.16600   29.71000  
H    24.72400   36.15700   29.33700  
H    25.46300   35.63800   30.90300  
S    25.89300   33.98500   29.22200  
C    25.23200   34.07000   27.54200  
H    25.54700   35.02900   27.12400  
H    25.75200   33.32000   26.94000  
H    24.14300   33.98400   27.58000  
O    24.97600   32.92700   29.75300  
C    25.21800   31.05900   20.07800  
H    26.26300   30.79400   19.90100  
H    25.22500   32.09800   20.41800  
H    24.72300   30.42500   20.81800  
S    24.37300   31.11100   18.48200  
C    22.78500   31.65900   19.14900  
H    22.46700   31.00400   19.96400  
H    22.87900   32.65500   19.58900  
H    22.00500   31.61200   18.38600  
O    24.09100   29.65000   18.32100  
C    24.41500   21.15400   24.23800  
H    24.80000   20.40500   24.93400  
H    23.37100   21.32800   24.51000  
H    24.49600   20.70500   23.24500  
S    25.35400   22.69700   24.30800  
C    25.00100   23.08600   26.03700  
H    23.95400   23.39500   25.96500  
H    25.24000   22.26300   26.71400  
H    25.53000   24.02900   26.19800  
O    24.41300   23.67500   23.67500  
C    28.83300   26.97300   29.15300  
H    27.96200   26.33100   29.00000  
H    28.62700   27.81000   29.82600  
H    29.21100   27.33900   28.19500  
S    30.24300   25.96500   29.66200  
C    31.28000   27.35900   30.16000  
H    32.33700   27.20200   30.39300  
H    31.12400   28.05700   29.33400  
H    30.77100   27.93600   30.93600  
O    30.75900   25.51600   28.33100  
C    22.04700   23.75600   20.85900  
H    21.56800   24.52400   20.24600  
H    21.36300   23.01300   21.27700  
H    22.58700   24.07800   21.75200  
S    23.15100   23.12100   19.57700  
C    24.19600   22.23500   20.75500  
H    23.60700   21.75600   21.54200  
H    24.83100   21.49200   20.26400  
H    24.83200   23.04000   21.13200  
O    23.90800   24.30000   19.04900  
$end

$rem
JOBTYPE  SP
METHOD  B3LYP
BASIS  6-31+G(D)
SYMMETRY  FALSE
SYM_IGNORE  TRUE
MEM_TOTAL  12000
MEM_STATIC  4000
BASIS_LIN_DEP_THRESH  6
THRESH  14
SCF_CONVERGENCE  8
FD_MAT_VEC_PROD  FALSE
XC_GRID  000075000302
NL_GRID  1
MAX_SCF_CYCLES  200
FRGM_METHOD  STOLL
SCFMI_MODE  1
ALMO_EFIELD  TRUE
$end

$rem_frgm
SCF_CONVERGENCE  4
$end


--------------------------------------------------------------
 ----------------------------------------------------------------
             Standard Nuclear Orientation (Angstroms)
    I     Atom           X                Y                Z
 ----------------------------------------------------------------
    1      C      29.1280000000    28.7500000000    24.3580000000
    2      C      27.7280000000    28.6980000000    24.9920000000
    3      C      27.1400000000    27.2780000000    24.9650000000
    4      C      28.1070000000    26.2320000000    25.5440000000
    5      C      29.4320000000    26.2290000000    24.7640000000
    6      C      30.0670000000    27.6270000000    24.8290000000
    7      H      26.1510000000    27.0570000000    25.3860000000
    8      H      27.8370000000    28.9810000000    26.0460000000
    9      H      29.0280000000    28.6660000000    23.2690000000
   10      H      29.6320000000    29.6900000000    24.6120000000
   11      H      28.4430000000    26.4350000000    26.5680000000
   12      H      27.7730000000    25.1870000000    25.5550000000
   13      H      30.1230000000    25.5060000000    25.2140000000
   14      H      29.2550000000    25.8120000000    23.7650000000
   15      H      30.4280000000    27.8000000000    25.8500000000
   16      H      31.0090000000    27.6300000000    24.2670000000
   17      H      26.9880000000    26.9650000000    23.9250000000
   18      N      26.7950000000    29.6270000000    24.3570000000
   19      H      26.0270000000    29.2420000000    23.8190000000
   20      C      26.9050000000    30.9990000000    24.4260000000
   21      H      26.1390000000    31.4290000000    23.7550000000
   22      O      27.7480000000    31.6210000000    25.0480000000
   23      C      22.0130000000    33.4350000000    24.2050000000
   24      H      20.9610000000    33.3660000000    23.9180000000
   25      H      22.2450000000    32.6540000000    24.9340000000
   26      H      22.2290000000    34.4640000000    24.5030000000
   27      S      22.8820000000    32.8220000000    22.7440000000
   28      C      22.3030000000    31.1110000000    22.6960000000
   29      H      22.9750000000    30.5380000000    22.0530000000
   30      H      22.3280000000    30.6700000000    23.6960000000
   31      H      21.2700000000    31.0840000000    22.3410000000
   32      O      24.3160000000    32.6610000000    23.1410000000
   33      C      35.7470000000    33.0700000000    26.3870000000
   34      H      34.9520000000    33.5060000000    25.7770000000
   35      H      36.1430000000    33.8510000000    27.0410000000
   36      H      36.5240000000    32.6260000000    25.7600000000
   37      S      34.9320000000    31.8060000000    27.3900000000
   38      C      34.1410000000    30.6660000000    26.2320000000
   39      H      33.3500000000    30.1270000000    26.7590000000
   40      H      33.6080000000    31.2380000000    25.4690000000
   41      H      34.7190000000    29.8820000000    25.7370000000
   42      O      33.7740000000    32.6000000000    27.9090000000
   43      C      31.8130000000    34.4290000000    25.3750000000
   44      H      32.6700000000    34.0040000000    24.8470000000
   45      H      31.7920000000    35.5160000000    25.4890000000
   46      H      31.8570000000    33.9540000000    26.3590000000
   47      S      30.2830000000    33.8060000000    24.6440000000
   48      C      30.8220000000    32.0860000000    24.5080000000
   49      H      30.0330000000    31.5520000000    23.9730000000
   50      H      31.7310000000    32.0010000000    23.9060000000
   51      H      30.9980000000    31.7430000000    25.5310000000
   52      O      30.2170000000    34.2290000000    23.2090000000
   53      C      32.0940000000    31.9060000000    20.7620000000
   54      H      32.3360000000    32.1080000000    19.7150000000
   55      H      31.5100000000    32.7520000000    21.1330000000
   56      H      32.9970000000    31.5610000000    21.2700000000
   57      S      31.1020000000    30.3990000000    20.6700000000
   58      C      29.3550000000    30.8610000000    20.6640000000
   59      H      28.8520000000    29.8940000000    20.7530000000
   60      H      29.1890000000    31.4790000000    21.5500000000
   61      H      29.1410000000    31.4880000000    19.7950000000
   62      O      31.3210000000    29.8400000000    22.0420000000
   63      C      29.7030000000    32.5290000000    28.7530000000
   64      H      29.2820000000    32.5740000000    29.7610000000
   65      H      30.7950000000    32.5700000000    28.7800000000
   66      H      29.1670000000    33.3360000000    28.2470000000
   67      S      29.3510000000    30.9170000000    28.0160000000
   68      C      27.6300000000    30.8620000000    28.5630000000
   69      H      26.9090000000    31.4210000000    27.9610000000
   70      H      27.4250000000    29.7920000000    28.4790000000
   71      H      27.5070000000    31.0830000000    29.6260000000
   72      O      30.0320000000    30.1100000000    29.0760000000
   73      C      22.9560000000    25.4090000000    28.6590000000
   74      H      22.5350000000    24.5380000000    28.1490000000
   75      H      22.3760000000    25.4240000000    29.5850000000
   76      H      22.7610000000    26.3110000000    28.0740000000
   77      S      24.7430000000    25.2780000000    28.8910000000
   78      C      24.6810000000    23.6710000000    29.7150000000
   79      H      25.6900000000    23.3570000000    29.9930000000
   80      H      23.9890000000    23.5920000000    30.5580000000
   81      H      24.3630000000    22.9570000000    28.9520000000
   82      O      25.1060000000    26.2830000000    29.9400000000
   83      C      29.1290000000    22.7040000000    21.2800000000
   84      H      28.5690000000    22.9510000000    22.1860000000
   85      H      28.5380000000    22.6960000000    20.3610000000
   86      H      29.6250000000    21.7370000000    21.3940000000
   87      S      30.4780000000    23.9020000000    21.1900000000
   88      C      31.2200000000    23.0250000000    19.7950000000
   89      H      32.1200000000    23.5890000000    19.5380000000
   90      H      31.4580000000    22.0290000000    20.1760000000
   91      H      30.4190000000    23.0950000000    19.0550000000
   92      O      31.3260000000    23.6930000000    22.4060000000
   93      C      29.5020000000    22.3410000000    26.2560000000
   94      H      30.4820000000    21.9090000000    26.0350000000
   95      H      28.8360000000    22.3280000000    25.3890000000
   96      H      29.6240000000    23.3470000000    26.6660000000
   97      S      28.6720000000    21.3270000000    27.5000000000
   98      C      28.1860000000    19.9820000000    26.3960000000
   99      H      27.5670000000    19.2330000000    26.8970000000
  100      H      27.5810000000    20.3310000000    25.5550000000
  101      H      29.1100000000    19.5130000000    26.0500000000
  102      O      27.3410000000    21.9900000000    27.6800000000
  103      C      21.9720000000    25.3990000000    25.4410000000
  104      H      22.9820000000    25.1030000000    25.7350000000
  105      H      22.0240000000    26.2860000000    24.8050000000
  106      H      21.3370000000    25.5330000000    26.3210000000
  107      S      21.2150000000    23.9210000000    24.7270000000
  108      C      19.4830000000    24.3810000000    24.9630000000
  109      H      18.8240000000    24.0300000000    24.1640000000
  110      H      19.2250000000    24.1820000000    26.0060000000
  111      H      19.5550000000    25.4660000000    24.8550000000
  112      O      21.2830000000    22.9470000000    25.8610000000
  113      C      25.4920000000    26.4080000000    21.4700000000
  114      H      26.0810000000    25.9410000000    22.2630000000
  115      H      25.1450000000    25.6810000000    20.7320000000
  116      H      26.1450000000    27.1900000000    21.0750000000
  117      S      24.0550000000    27.1460000000    22.2810000000
  118      C      23.1570000000    27.7670000000    20.8420000000
  119      H      23.1130000000    27.1800000000    19.9210000000
  120      H      22.1200000000    27.9730000000    21.1200000000
  121      H      23.5300000000    28.7490000000    20.5420000000
  122      O      24.6660000000    28.3990000000    22.8260000000
  123      C      26.8020000000    34.8420000000    24.6490000000
  124      H      26.7290000000    35.4250000000    25.5710000000
  125      H      26.5780000000    33.7750000000    24.7340000000
  126      H      27.8350000000    35.0080000000    24.3320000000
  127      S      25.7800000000    35.5500000000    23.3380000000
  128      C      26.7770000000    34.8460000000    22.0050000000
  129      H      26.7120000000    33.7550000000    21.9940000000
  130      H      26.3820000000    35.2350000000    21.0630000000
  131      H      27.8120000000    35.1460000000    22.1880000000
  132      O      26.2950000000    36.9450000000    23.1630000000
  133      C      36.0090000000    22.1390000000    20.7450000000
  134      H      35.9970000000    21.6550000000    19.7650000000
  135      H      36.3460000000    23.1770000000    20.6800000000
  136      H      36.5970000000    21.5220000000    21.4290000000
  137      S      34.3160000000    22.2160000000    21.3710000000
  138      C      34.6450000000    22.6710000000    23.0880000000
  139      H      35.1120000000    23.6600000000    23.0880000000
  140      H      33.6620000000    22.7690000000    23.5570000000
  141      H      35.2560000000    21.9070000000    23.5740000000
  142      O      33.8410000000    20.8000000000    21.4680000000
  143      C      34.9680000000    28.1820000000    23.3150000000
  144      H      34.5060000000    27.8700000000    24.2550000000
  145      H      35.8750000000    27.6110000000    23.1030000000
  146      H      35.2570000000    29.2310000000    23.4200000000
  147      S      33.9280000000    28.1050000000    21.8400000000
  148      C      33.3510000000    26.3980000000    21.9730000000
  149      H      32.6800000000    26.3590000000    21.1110000000
  150      H      34.2220000000    25.7830000000    21.7340000000
  151      H      32.8740000000    26.1430000000    22.9230000000
  152      O      34.8190000000    27.9980000000    20.6420000000
  153      C      28.4520000000    31.3940000000    32.4650000000
  154      H      27.7330000000    31.7890000000    33.1870000000
  155      H      29.4170000000    31.4370000000    32.9780000000
  156      H      28.4500000000    31.9020000000    31.4980000000
  157      S      27.9190000000    29.6930000000    32.1710000000
  158      C      26.2170000000    30.0160000000    31.6580000000
  159      H      25.6940000000    30.1030000000    32.6130000000
  160      H      26.1660000000    31.0100000000    31.2050000000
  161      H      25.7830000000    29.1930000000    31.0840000000
  162      O      27.6940000000    29.2380000000    33.5790000000
  163      C      26.6620000000    26.5550000000    18.2750000000
  164      H      26.1960000000    27.4360000000    18.7250000000
  165      H      27.0470000000    26.7290000000    17.2670000000
  166      H      25.8390000000    25.8450000000    18.3920000000
  167      S      28.0110000000    26.0470000000    19.3640000000
  168      C      29.0280000000    27.5360000000    19.2380000000
  169      H      28.2660000000    28.2620000000    19.5320000000
  170      H      29.9040000000    27.4180000000    19.8810000000
  171      H      29.2900000000    27.6980000000    18.1890000000
  172      O      28.8580000000    25.1600000000    18.5060000000
  173      C      33.6050000000    18.3150000000    24.6430000000
  174      H      34.0140000000    17.6030000000    25.3650000000
  175      H      33.7980000000    18.0170000000    23.6100000000
  176      H      34.0680000000    19.2920000000    24.8050000000
  177      S      31.8450000000    18.5790000000    24.9560000000
  178      C      31.6240000000    19.9000000000    23.7420000000
  179      H      31.7400000000    19.6020000000    22.6970000000
  180      H      30.6220000000    20.2160000000    24.0420000000
  181      H      32.3520000000    20.6830000000    23.9700000000
  182      O      31.8160000000    19.1750000000    26.3290000000
  183      C      33.3790000000    26.4190000000    26.7770000000
  184      H      32.3730000000    26.8400000000    26.7060000000
  185      H      33.4610000000    25.9150000000    27.7440000000
  186      H      34.2350000000    27.0960000000    26.7290000000
  187      S      33.5380000000    25.0630000000    25.5930000000
  188      C      33.2430000000    23.6730000000    26.7100000000
  189      H      33.9650000000    23.9550000000    27.4820000000
  190      H      32.2850000000    23.8750000000    27.1960000000
  191      H      33.3900000000    22.7060000000    26.2230000000
  192      O      35.0010000000    24.9370000000    25.3000000000
  193      C      23.2400000000    30.7810000000    26.3000000000
  194      H      24.0660000000    31.4080000000    25.9550000000
  195      H      23.0420000000    29.9390000000    25.6310000000
  196      H      22.3490000000    31.3880000000    26.4820000000
  197      S      23.5220000000    30.0400000000    27.9240000000
  198      C      24.6160000000    28.6820000000    27.4510000000
  199      H      24.5120000000    27.8890000000    28.1960000000
  200      H      24.3180000000    28.3500000000    26.4530000000
  201      H      25.6730000000    28.9610000000    27.4710000000
  202      O      22.1690000000    29.4460000000    28.1610000000
  203      C      25.5720000000    35.6610000000    29.8160000000
  204      H      26.5350000000    36.1660000000    29.7100000000
  205      H      24.7240000000    36.1570000000    29.3370000000
  206      H      25.4630000000    35.6380000000    30.9030000000
  207      S      25.8930000000    33.9850000000    29.2220000000
  208      C      25.2320000000    34.0700000000    27.5420000000
  209      H      25.5470000000    35.0290000000    27.1240000000
  210      H      25.7520000000    33.3200000000    26.9400000000
  211      H      24.1430000000    33.9840000000    27.5800000000
  212      O      24.9760000000    32.9270000000    29.7530000000
  213      C      25.2180000000    31.0590000000    20.0780000000
  214      H      26.2630000000    30.7940000000    19.9010000000
  215      H      25.2250000000    32.0980000000    20.4180000000
  216      H      24.7230000000    30.4250000000    20.8180000000
  217      S      24.3730000000    31.1110000000    18.4820000000
  218      C      22.7850000000    31.6590000000    19.1490000000
  219      H      22.4670000000    31.0040000000    19.9640000000
  220      H      22.8790000000    32.6550000000    19.5890000000
  221      H      22.0050000000    31.6120000000    18.3860000000
  222      O      24.0910000000    29.6500000000    18.3210000000
  223      C      24.4150000000    21.1540000000    24.2380000000
  224      H      24.8000000000    20.4050000000    24.9340000000
  225      H      23.3710000000    21.3280000000    24.5100000000
  226      H      24.4960000000    20.7050000000    23.2450000000
  227      S      25.3540000000    22.6970000000    24.3080000000
  228      C      25.0010000000    23.0860000000    26.0370000000
  229      H      23.9540000000    23.3950000000    25.9650000000
  230      H      25.2400000000    22.2630000000    26.7140000000
  231      H      25.5300000000    24.0290000000    26.1980000000
  232      O      24.4130000000    23.6750000000    23.6750000000
  233      C      28.8330000000    26.9730000000    29.1530000000
  234      H      27.9620000000    26.3310000000    29.0000000000
  235      H      28.6270000000    27.8100000000    29.8260000000
  236      H      29.2110000000    27.3390000000    28.1950000000
  237      S      30.2430000000    25.9650000000    29.6620000000
  238      C      31.2800000000    27.3590000000    30.1600000000
  239      H      32.3370000000    27.2020000000    30.3930000000
  240      H      31.1240000000    28.0570000000    29.3340000000
  241      H      30.7710000000    27.9360000000    30.9360000000
  242      O      30.7590000000    25.5160000000    28.3310000000
  243      C      22.0470000000    23.7560000000    20.8590000000
  244      H      21.5680000000    24.5240000000    20.2460000000
  245      H      21.3630000000    23.0130000000    21.2770000000
  246      H      22.5870000000    24.0780000000    21.7520000000
  247      S      23.1510000000    23.1210000000    19.5770000000
  248      C      24.1960000000    22.2350000000    20.7550000000
  249      H      23.6070000000    21.7560000000    21.5420000000
  250      H      24.8310000000    21.4920000000    20.2640000000
  251      H      24.8320000000    23.0400000000    21.1320000000
  252      O      23.9080000000    24.3000000000    19.0490000000
 ----------------------------------------------------------------
 Nuclear Repulsion Energy =       37322.42406568 hartrees
 There are      518 alpha and      518 beta electrons
 Requested basis set is 6-31+G(d)
 There are 830 shells and 2313 basis functions

 Total QAlloc Memory Limit  12000 MB
 Mega-Array Size      3911 MB
 MEM_STATIC part      4000 MB

 A cutoff of  1.0D-14 yielded 142139 shell pairs
 There are   1221288 function pairs
 Smallest overlap matrix eigenvalue = 5.65E-07
 Linear dependence detected in AO basis
 Tighter screening thresholds may be required for diffuse basis sets
 Use S2THRESH > 14 and THRESH = 14 in case of SCF convergence issues
 Number of orthogonalized atomic orbitals = 2311
 Maximum deviation from orthogonality = 1.731E-10

 Scale SEOQF with 1.000000e-03/1.000000e-03/1.000000e-03

 Standard Electronic Orientation quadrupole field applied
 Nucleus-field energy     =     0.0000001878 hartrees
 Attempting to make child job directory: /global/cscratch1/sd/ymao90/r7.00_frame_0084_almo_B3LYP_dp20220721031443//Frg1/
 Attempting to make child job directory: /global/cscratch1/sd/ymao90/r7.00_frame_0084_almo_B3LYP_dp20220721031443//Frg2/
 Creating input file /global/cscratch1/sd/ymao90/r7.00_frame_0084_almo_B3LYP_dp20220721031443/Frg1.input
 using default PutDataFrgm: nothing
 calling putenv with: QCSCRATCH=/global/cscratch1/sd/ymao90/r7.00_frame_0084_almo_B3LYP_dp20220721031443/ 
 Spawning Job For Fragment 0
 Done Job For Fragment 0
 calling putenv with: QCSCRATCH=/global/cscratch1/sd/ymao90 
 calling putenv with: QCTHREADS=16 
 Creating input file /global/cscratch1/sd/ymao90/r7.00_frame_0084_almo_B3LYP_dp20220721031443/Frg2.input
 using default PutDataFrgm: nothing
 calling putenv with: QCSCRATCH=/global/cscratch1/sd/ymao90/r7.00_frame_0084_almo_B3LYP_dp20220721031443/ 
 Spawning Job For Fragment 1
 Done Job For Fragment 1
 calling putenv with: QCSCRATCH=/global/cscratch1/sd/ymao90 
 calling putenv with: QCTHREADS=16 
 Time for running child jobs:  CPU 0.35 s  wall 7882.66 s

 -----------------------------------------------------------------------
  General SCF calculation program by
  Eric Jon Sundstrom, Paul Horn, Yuezhi Mao, Dmitri Zuev, Alec White,
  David Stuck, Shaama M.S., Shane Yost, Joonho Lee, David Small,
  Daniel Levine, Susi Lehtola, Hugh Burton, Evgeny Epifanovsky,
  Bang C. Huynh
 -----------------------------------------------------------------------
Performing Restricted Closed Shell SCFMI
Doing General SCFMI
 Exchange:     0.2000 Hartree-Fock + 0.0800 Slater + 0.7200 B88
 Correlation:  0.1900 VWN1RPA + 0.8100 LYP
 Using Euler-Maclaurin-Lebedev (75,302) quadrature formula
performing fock build before subrot guess so that all methods have access
 using 16 threads for integral computing
 -------------------------------------------------------
 OpenMP Integral computing Module                
 Release: version 1.0, May 2013, Q-Chem Inc. Pittsburgh 
 -------------------------------------------------------
Printing subrot_rss_gen Method Specification:
Occupied Subspace Method is 0
Virtual Subspace Method is 0
Energy prior to optimization (guess energy) = -13127.948922110299
Begin Timing: Total SCF Calculation
begin iterations for algorithm: DIIS         
the SCF tolerance is set to 1.00e-08
    1  -13127.9489221103      4.01e-05     00000 
    2  -13127.9565657035      2.84e-05     00000 
    3  -13127.9576441827      2.23e-05     00000 
    4  -13127.9585005217      7.70e-06     00000 
    5  -13127.9586141797      3.16e-06     00000 
    6  -13127.9586355965      1.72e-06     00000 
    7  -13127.9586409316      1.20e-06     00000 
    8  -13127.9586432090      6.71e-07     00000 
    9  -13127.9586439562      3.27e-07     00000 
   10  -13127.9586441095      2.05e-07     00000 
   11  -13127.9586441653      1.37e-07     00000 
   12  -13127.9586441946      7.61e-08     00000 
   13  -13127.9586442044      3.88e-08     00000 
   14  -13127.9586442070      2.04e-08     00000 
   15  -13127.9586442076      1.33e-08     00000 
   16  -13127.9586442079      8.17e-09     00000 Convergence criterion met
write pseudocanon occs and virts to disk
write pseudocanon orbital energies to disk
Timing for Total SCF: 11319.00s (wall), 155447.41s (cpu)
SCFMI Energy  -13127.9586442079
<S^2>            0.00000
 Total energy in the final basis set =   -13127.9586442079
    ==================================================
        The end of Object-Oriented SCFman: SCFMI      
    ==================================================

 --------------------------------------------------------------

                    Orbital Energies (a.u.)
 --------------------------------------------------------------

 Alpha MOs
 -- Occupied --
-89.0292 -89.0235 -89.0234 -89.0161 -89.0133 -89.0133 -89.0125 -89.0104
-89.0045 -89.0023 -89.0010 -88.9982 -88.9970 -88.9959 -88.9933 -88.9929
-88.9890 -88.9883 -88.9859 -88.9837 -88.9833 -88.9796 -88.9740 -19.1421
-19.1417 -19.1383 -19.1382 -19.1306 -19.1276 -19.1262 -19.1227 -19.1201
-19.1188 -19.1165 -19.1139 -19.1136 -19.1120 -19.1113 -19.1102 -19.1098
-19.1092 -19.1073 -19.1054 -19.1007 -19.0978 -19.0903 -19.0859 -14.3628
-10.2920 -10.2505 -10.2482 -10.2388 -10.2385 -10.2358 -10.2346 -10.2338
-10.2324 -10.2318 -10.2308 -10.2307 -10.2306 -10.2305 -10.2293 -10.2289
-10.2280 -10.2268 -10.2261 -10.2245 -10.2193 -10.2193 -10.2171 -10.2162
-10.2156 -10.2148 -10.2148 -10.2147 -10.2145 -10.2124 -10.2118 -10.2118
-10.2114 -10.2112 -10.2095 -10.2066 -10.2062 -10.2062 -10.2042 -10.2042
-10.2037 -10.2012 -10.2005 -10.1995 -10.1971 -10.1971 -10.1954 -10.1944
-10.1921 -10.1814 -10.1804 -10.1792 -10.1733  -8.0754  -8.0696  -8.0690
 -8.0621  -8.0599  -8.0594  -8.0589  -8.0568  -8.0503  -8.0487  -8.0463
 -8.0441  -8.0439  -8.0417  -8.0401  -8.0389  -8.0349  -8.0343  -8.0322
 -8.0300  -8.0298  -8.0262  -8.0207  -6.0399  -6.0385  -6.0338  -6.0336
 -6.0327  -6.0325  -6.0321  -6.0273  -6.0265  -6.0264  -6.0250  -6.0241
 -6.0238  -6.0231  -6.0229  -6.0227  -6.0219  -6.0211  -6.0202  -6.0197
 -6.0171  -6.0166  -6.0163  -6.0145  -6.0138  -6.0134  -6.0130  -6.0117
 -6.0107  -6.0095  -6.0085  -6.0082  -6.0080  -6.0073  -6.0071  -6.0063
 -6.0060  -6.0051  -6.0044  -6.0038  -6.0034  -6.0033  -6.0019  -6.0014
 -6.0008  -5.9994  -5.9988  -5.9988  -5.9978  -5.9974  -5.9973  -5.9967
 -5.9962  -5.9953  -5.9944  -5.9940  -5.9931  -5.9929  -5.9923  -5.9916
 -5.9904  -5.9894  -5.9893  -5.9875  -5.9871  -5.9849  -5.9839  -5.9836
 -5.9777  -1.0535  -1.0522  -1.0504  -1.0448  -1.0442  -1.0427  -1.0379
 -1.0358  -1.0319  -1.0299  -1.0245  -1.0234  -1.0227  -1.0220  -1.0218
 -1.0208  -1.0188  -1.0187  -1.0183  -1.0133  -1.0108  -1.0047  -1.0045
 -1.0008  -0.9292  -0.8334  -0.8267  -0.8217  -0.8181  -0.8181  -0.8133
 -0.8125  -0.8088  -0.8044  -0.8037  -0.8024  -0.8004  -0.7997  -0.7993
 -0.7990  -0.7982  -0.7978  -0.7964  -0.7926  -0.7900  -0.7886  -0.7807
 -0.7795  -0.7795  -0.7632  -0.7510  -0.7491  -0.7480  -0.7470  -0.7453
 -0.7450  -0.7446  -0.7435  -0.7430  -0.7378  -0.7367  -0.7323  -0.7306
 -0.7262  -0.7232  -0.7219  -0.7209  -0.7199  -0.7172  -0.7169  -0.7144
 -0.7126  -0.7103  -0.7090  -0.6438  -0.6402  -0.6388  -0.6341  -0.6291
 -0.6270  -0.6270  -0.6265  -0.6242  -0.6222  -0.6198  -0.6124  -0.6119
 -0.6119  -0.6108  -0.6099  -0.6047  -0.6042  -0.6016  -0.5999  -0.5973
 -0.5963  -0.5957  -0.5935  -0.5908  -0.5833  -0.5631  -0.5362  -0.5172
 -0.5055  -0.5050  -0.5019  -0.5015  -0.4968  -0.4961  -0.4944  -0.4917
 -0.4911  -0.4903  -0.4897  -0.4894  -0.4886  -0.4880  -0.4863  -0.4859
 -0.4855  -0.4842  -0.4831  -0.4825  -0.4820  -0.4818  -0.4816  -0.4811
 -0.4801  -0.4785  -0.4781  -0.4778  -0.4775  -0.4768  -0.4762  -0.4753
 -0.4748  -0.4738  -0.4727  -0.4719  -0.4702  -0.4698  -0.4698  -0.4692
 -0.4690  -0.4683  -0.4676  -0.4668  -0.4664  -0.4658  -0.4647  -0.4632
 -0.4627  -0.4618  -0.4612  -0.4608  -0.4604  -0.4602  -0.4590  -0.4575
 -0.4567  -0.4559  -0.4554  -0.4552  -0.4540  -0.4539  -0.4532  -0.4524
 -0.4520  -0.4512  -0.4506  -0.4503  -0.4500  -0.4493  -0.4478  -0.4476
 -0.4456  -0.4454  -0.4442  -0.4424  -0.4419  -0.4416  -0.4400  -0.4393
 -0.4380  -0.4371  -0.4352  -0.4342  -0.4325  -0.4317  -0.4304  -0.4293
 -0.4282  -0.4264  -0.4250  -0.4242  -0.4231  -0.4230  -0.4221  -0.4218
 -0.4214  -0.4198  -0.4187  -0.4182  -0.4177  -0.4173  -0.4159  -0.4154
 -0.4149  -0.4145  -0.4142  -0.4138  -0.4135  -0.4120  -0.4107  -0.4105
 -0.4098  -0.4094  -0.4088  -0.4086  -0.4077  -0.4061  -0.4056  -0.4054
 -0.4048  -0.4035  -0.4031  -0.4026  -0.4009  -0.4002  -0.3990  -0.3987
 -0.3966  -0.3964  -0.3959  -0.3942  -0.3929  -0.3917  -0.3911  -0.3906
 -0.3901  -0.3898  -0.3894  -0.3893  -0.3879  -0.3860  -0.3856  -0.3840
 -0.3822  -0.3808  -0.3804  -0.3782  -0.3772  -0.3763  -0.3757  -0.3742
 -0.3709  -0.3695  -0.3686  -0.3685  -0.3635  -0.3627  -0.3619  -0.3602
 -0.3598  -0.3593  -0.3589  -0.3547  -0.3539  -0.3466  -0.3447  -0.3438
 -0.3410  -0.3370  -0.3363  -0.3209  -0.3128  -0.3072  -0.3032  -0.3029
 -0.3001  -0.2915  -0.2891  -0.2864  -0.2843  -0.2835  -0.2795  -0.2772
 -0.2754  -0.2747  -0.2736  -0.2733  -0.2725  -0.2720  -0.2715  -0.2709
 -0.2706  -0.2689  -0.2684  -0.2641  -0.2622  -0.2616  -0.2612  -0.2594
 -0.2593  -0.2570  -0.2505  -0.2497  -0.2495  -0.2477  -0.2458  -0.2444
 -0.2412  -0.2411  -0.2381  -0.2376  -0.2373  -0.2332  -0.2328  -0.2319
 -0.2313  -0.2280  -0.2219  -0.2214  -0.2154  -0.2125
 -- Virtual --
 -0.0367  -0.0282  -0.0273  -0.0268  -0.0253  -0.0228  -0.0213  -0.0192
 -0.0182  -0.0170  -0.0152  -0.0149  -0.0130  -0.0106  -0.0080  -0.0069
 -0.0056  -0.0049  -0.0042  -0.0034  -0.0017  -0.0004   0.0004   0.0007
  0.0013   0.0016   0.0027   0.0028   0.0032   0.0051   0.0054   0.0056
  0.0074   0.0076   0.0080   0.0088   0.0101   0.0108   0.0118   0.0126
  0.0134   0.0139   0.0145   0.0149   0.0159   0.0165   0.0174   0.0180
  0.0183   0.0192   0.0200   0.0210   0.0223   0.0228   0.0234   0.0245
  0.0252   0.0259   0.0268   0.0280   0.0288   0.0291   0.0303   0.0313
  0.0314   0.0322   0.0329   0.0335   0.0343   0.0349   0.0359   0.0369
  0.0378   0.0380   0.0384   0.0395   0.0406   0.0411   0.0418   0.0425
  0.0432   0.0434   0.0440   0.0442   0.0459   0.0465   0.0469   0.0471
  0.0478   0.0482   0.0498   0.0499   0.0507   0.0509   0.0515   0.0526
  0.0531   0.0543   0.0548   0.0551   0.0556   0.0562   0.0572   0.0579
  0.0588   0.0597   0.0602   0.0613   0.0620   0.0625   0.0635   0.0640
  0.0644   0.0653   0.0656   0.0665   0.0666   0.0675   0.0688   0.0693
  0.0701   0.0702   0.0706   0.0720   0.0726   0.0736   0.0743   0.0756
  0.0759   0.0768   0.0770   0.0774   0.0785   0.0792   0.0807   0.0811
  0.0815   0.0818   0.0826   0.0833   0.0841   0.0847   0.0857   0.0865
  0.0868   0.0880   0.0887   0.0892   0.0903   0.0909   0.0920   0.0930
  0.0933   0.0941   0.0944   0.0952   0.0964   0.0964   0.0971   0.0978
  0.0985   0.0987   0.1003   0.1005   0.1015   0.1021   0.1032   0.1038
  0.1047   0.1056   0.1063   0.1067   0.1072   0.1080   0.1083   0.1092
  0.1095   0.1103   0.1107   0.1117   0.1122   0.1134   0.1144   0.1150
  0.1156   0.1165   0.1169   0.1173   0.1185   0.1191   0.1194   0.1203
  0.1216   0.1219   0.1224   0.1227   0.1242   0.1254   0.1257   0.1261
  0.1267   0.1273   0.1283   0.1290   0.1293   0.1299   0.1301   0.1313
  0.1321   0.1325   0.1338   0.1342   0.1346   0.1355   0.1360   0.1364
  0.1370   0.1377   0.1386   0.1399   0.1401   0.1413   0.1418   0.1423
  0.1427   0.1444   0.1446   0.1451   0.1458   0.1464   0.1471   0.1482
  0.1486   0.1496   0.1499   0.1507   0.1511   0.1518   0.1523   0.1533
  0.1542   0.1548   0.1556   0.1558   0.1568   0.1582   0.1588   0.1597
  0.1602   0.1612   0.1615   0.1627   0.1636   0.1639   0.1641   0.1648
  0.1657   0.1665   0.1669   0.1682   0.1693   0.1700   0.1703   0.1705
  0.1714   0.1719   0.1721   0.1733   0.1738   0.1749   0.1758   0.1763
  0.1768   0.1778   0.1789   0.1797   0.1801   0.1803   0.1804   0.1821
  0.1824   0.1840   0.1847   0.1849   0.1853   0.1862   0.1864   0.1874
  0.1878   0.1891   0.1896   0.1902   0.1913   0.1919   0.1922   0.1927
  0.1938   0.1944   0.1950   0.1958   0.1961   0.1967   0.1972   0.1981
  0.1987   0.2002   0.2005   0.2011   0.2019   0.2025   0.2040   0.2045
  0.2048   0.2056   0.2063   0.2075   0.2077   0.2084   0.2091   0.2096
  0.2104   0.2118   0.2126   0.2132   0.2137   0.2145   0.2151   0.2158
  0.2166   0.2174   0.2178   0.2187   0.2189   0.2198   0.2207   0.2209
  0.2227   0.2233   0.2237   0.2247   0.2248   0.2253   0.2262   0.2271
  0.2276   0.2282   0.2290   0.2293   0.2303   0.2308   0.2314   0.2317
  0.2334   0.2348   0.2358   0.2365   0.2370   0.2374   0.2389   0.2396
  0.2401   0.2406   0.2413   0.2419   0.2423   0.2429   0.2443   0.2447
  0.2458   0.2460   0.2479   0.2485   0.2497   0.2509   0.2511   0.2525
  0.2531   0.2539   0.2551   0.2554   0.2565   0.2569   0.2572   0.2584
  0.2596   0.2600   0.2611   0.2613   0.2629   0.2635   0.2644   0.2652
  0.2659   0.2659   0.2664   0.2676   0.2678   0.2681   0.2694   0.2700
  0.2715   0.2726   0.2727   0.2736   0.2749   0.2764   0.2773   0.2778
  0.2790   0.2798   0.2804   0.2808   0.2813   0.2827   0.2839   0.2852
  0.2856   0.2858   0.2869   0.2883   0.2897   0.2904   0.2921   0.2929
  0.2938   0.2948   0.2957   0.2966   0.2969   0.2976   0.2990   0.2995
  0.3001   0.3010   0.3017   0.3039   0.3049   0.3060   0.3066   0.3085
  0.3088   0.3091   0.3102   0.3122   0.3130   0.3133   0.3137   0.3150
  0.3158   0.3172   0.3184   0.3196   0.3200   0.3207   0.3216   0.3227
  0.3242   0.3253   0.3266   0.3270   0.3274   0.3288   0.3293   0.3305
  0.3316   0.3320   0.3329   0.3340   0.3346   0.3355   0.3368   0.3379
  0.3399   0.3405   0.3411   0.3425   0.3440   0.3444   0.3454   0.3468
  0.3478   0.3488   0.3494   0.3501   0.3503   0.3516   0.3524   0.3528
  0.3537   0.3546   0.3556   0.3569   0.3582   0.3593   0.3608   0.3620
  0.3625   0.3633   0.3641   0.3649   0.3654   0.3661   0.3667   0.3686
  0.3692   0.3702   0.3716   0.3718   0.3730   0.3741   0.3745   0.3747
  0.3755   0.3765   0.3780   0.3792   0.3796   0.3797   0.3810   0.3827
  0.3834   0.3847   0.3855   0.3857   0.3872   0.3876   0.3892   0.3913
  0.3922   0.3930   0.3933   0.3948   0.3951   0.3964   0.3974   0.3984
  0.4001   0.4002   0.4019   0.4025   0.4027   0.4045   0.4050   0.4064
  0.4079   0.4083   0.4088   0.4105   0.4115   0.4126   0.4132   0.4152
  0.4156   0.4158   0.4172   0.4178   0.4185   0.4195   0.4203   0.4222
  0.4231   0.4249   0.4274   0.4277   0.4283   0.4285   0.4301   0.4321
  0.4332   0.4345   0.4350   0.4367   0.4375   0.4385   0.4400   0.4406
  0.4412   0.4440   0.4450   0.4464   0.4467   0.4472   0.4502   0.4521
  0.4526   0.4549   0.4566   0.4576   0.4588   0.4604   0.4617   0.4630
  0.4647   0.4658   0.4681   0.4696   0.4715   0.4730   0.4741   0.4750
  0.4784   0.4797   0.4813   0.4821   0.4848   0.4858   0.4881   0.4900
  0.4910   0.4922   0.4955   0.4965   0.4974   0.4988   0.5008   0.5029
  0.5035   0.5060   0.5070   0.5111   0.5132   0.5144   0.5173   0.5183
  0.5207   0.5239   0.5262   0.5271   0.5279   0.5327   0.5332   0.5347
  0.5386   0.5398   0.5418   0.5436   0.5459   0.5480   0.5485   0.5497
  0.5519   0.5536   0.5544   0.5562   0.5581   0.5613   0.5627   0.5653
  0.5665   0.5678   0.5696   0.5723   0.5734   0.5748   0.5755   0.5770
  0.5780   0.5791   0.5803   0.5816   0.5838   0.5854   0.5879   0.5888
  0.5899   0.5905   0.5919   0.5927   0.5955   0.5987   0.5998   0.6011
  0.6025   0.6041   0.6046   0.6077   0.6095   0.6116   0.6139   0.6142
  0.6162   0.6163   0.6173   0.6190   0.6213   0.6227   0.6244   0.6259
  0.6263   0.6282   0.6286   0.6308   0.6319   0.6328   0.6335   0.6347
  0.6380   0.6385   0.6392   0.6416   0.6438   0.6457   0.6467   0.6475
  0.6485   0.6497   0.6507   0.6528   0.6536   0.6554   0.6569   0.6573
  0.6579   0.6589   0.6605   0.6614   0.6634   0.6650   0.6651   0.6668
  0.6685   0.6687   0.6701   0.6708   0.6718   0.6734   0.6742   0.6768
  0.6788   0.6792   0.6813   0.6827   0.6829   0.6838   0.6864   0.6878
  0.6891   0.6905   0.6912   0.6929   0.6945   0.6954   0.6979   0.6999
  0.7009   0.7013   0.7037   0.7054   0.7066   0.7078   0.7082   0.7099
  0.7120   0.7126   0.7154   0.7167   0.7202   0.7205   0.7209   0.7231
  0.7233   0.7246   0.7262   0.7277   0.7301   0.7303   0.7329   0.7341
  0.7353   0.7386   0.7389   0.7422   0.7448   0.7461   0.7481   0.7493
  0.7512   0.7533   0.7540   0.7556   0.7578   0.7594   0.7604   0.7630
  0.7636   0.7647   0.7665   0.7688   0.7705   0.7713   0.7737   0.7763
  0.7764   0.7767   0.7796   0.7806   0.7828   0.7845   0.7852   0.7873
  0.7891   0.7910   0.7915   0.7933   0.7948   0.7991   0.8005   0.8005
  0.8033   0.8038   0.8053   0.8068   0.8087   0.8113   0.8127   0.8146
  0.8174   0.8186   0.8190   0.8195   0.8210   0.8225   0.8247   0.8266
  0.8271   0.8303   0.8313   0.8327   0.8362   0.8367   0.8376   0.8392
  0.8401   0.8424   0.8428   0.8445   0.8462   0.8470   0.8494   0.8502
  0.8514   0.8536   0.8548   0.8576   0.8581   0.8589   0.8609   0.8623
  0.8645   0.8656   0.8672   0.8694   0.8707   0.8712   0.8722   0.8745
  0.8757   0.8780   0.8782   0.8802   0.8826   0.8838   0.8858   0.8862
  0.8877   0.8894   0.8896   0.8913   0.8929   0.8935   0.8948   0.8964
  0.8978   0.8993   0.8999   0.9019   0.9034   0.9042   0.9063   0.9072
  0.9073   0.9093   0.9103   0.9131   0.9137   0.9149   0.9162   0.9170
  0.9188   0.9214   0.9222   0.9236   0.9255   0.9263   0.9275   0.9291
  0.9308   0.9320   0.9330   0.9350   0.9356   0.9375   0.9403   0.9412
  0.9418   0.9421   0.9442   0.9447   0.9458   0.9472   0.9481   0.9491
  0.9508   0.9517   0.9537   0.9545   0.9554   0.9562   0.9594   0.9596
  0.9606   0.9621   0.9632   0.9644   0.9651   0.9665   0.9682   0.9699
  0.9717   0.9735   0.9756   0.9765   0.9775   0.9784   0.9796   0.9814
  0.9827   0.9844   0.9852   0.9861   0.9874   0.9891   0.9905   0.9914
  0.9932   0.9940   0.9946   0.9972   0.9985   0.9988   1.0001   1.0015
  1.0023   1.0036   1.0051   1.0059   1.0073   1.0077   1.0096   1.0105
  1.0114   1.0125   1.0133   1.0147   1.0169   1.0178   1.0193   1.0204
  1.0214   1.0218   1.0244   1.0247   1.0252   1.0274   1.0291   1.0298
  1.0313   1.0315   1.0335   1.0369   1.0379   1.0380   1.0399   1.0421
  1.0431   1.0444   1.0458   1.0462   1.0484   1.0495   1.0536   1.0539
  1.0558   1.0566   1.0584   1.0599   1.0615   1.0620   1.0656   1.0661
  1.0668   1.0679   1.0715   1.0721   1.0730   1.0738   1.0763   1.0776
  1.0793   1.0804   1.0824   1.0830   1.0860   1.0868   1.0878   1.0913
  1.0923   1.0934   1.0950   1.0968   1.0985   1.0995   1.1008   1.1026
  1.1037   1.1049   1.1057   1.1069   1.1085   1.1111   1.1136   1.1141
  1.1149   1.1172   1.1182   1.1188   1.1196   1.1223   1.1227   1.1250
  1.1266   1.1272   1.1277   1.1309   1.1321   1.1325   1.1348   1.1365
  1.1378   1.1394   1.1413   1.1425   1.1431   1.1443   1.1465   1.1474
  1.1488   1.1505   1.1532   1.1536   1.1545   1.1550   1.1589   1.1596
  1.1605   1.1630   1.1649   1.1665   1.1678   1.1701   1.1720   1.1741
  1.1760   1.1769   1.1786   1.1807   1.1831   1.1834   1.1857   1.1877
  1.1895   1.1910   1.1926   1.1953   1.1966   1.2010   1.2016   1.2026
  1.2051   1.2069   1.2098   1.2112   1.2143   1.2175   1.2188   1.2215
  1.2230   1.2244   1.2264   1.2285   1.2293   1.2304   1.2339   1.2348
  1.2371   1.2376   1.2416   1.2433   1.2459   1.2466   1.2498   1.2531
  1.2554   1.2561   1.2575   1.2590   1.2629   1.2656   1.2689   1.2695
  1.2722   1.2725   1.2783   1.2793   1.2801   1.2840   1.2862   1.2900
  1.2908   1.2921   1.2961   1.2981   1.3035   1.3042   1.3074   1.3107
  1.3111   1.3126   1.3140   1.3178   1.3225   1.3261   1.3278   1.3320
  1.3348   1.3359   1.3389   1.3397   1.3423   1.3443   1.3476   1.3500
  1.3508   1.3529   1.3561   1.3580   1.3603   1.3624   1.3633   1.3654
  1.3663   1.3681   1.3691   1.3719   1.3732   1.3754   1.3766   1.3770
  1.3782   1.3794   1.3827   1.3843   1.3858   1.3868   1.3884   1.3904
  1.3926   1.3933   1.3947   1.3963   1.3990   1.4001   1.4015   1.4023
  1.4032   1.4054   1.4057   1.4081   1.4085   1.4126   1.4141   1.4155
  1.4173   1.4183   1.4206   1.4222   1.4226   1.4233   1.4247   1.4250
  1.4289   1.4299   1.4310   1.4338   1.4348   1.4385   1.4397   1.4429
  1.4452   1.4459   1.4473   1.4481   1.4519   1.4544   1.4557   1.4568
  1.4580   1.4601   1.4619   1.4642   1.4658   1.4668   1.4681   1.4709
  1.4723   1.4748   1.4777   1.4804   1.4827   1.4844   1.4885   1.4896
  1.4905   1.4913   1.4972   1.5013   1.5026   1.5044   1.5050   1.5052
  1.5111   1.5165   1.5186   1.5192   1.5247   1.5274   1.5300   1.5316
  1.5364   1.5368   1.5408   1.5433   1.5447   1.5489   1.5507   1.5538
  1.5563   1.5591   1.5608   1.5635   1.5665   1.5770   1.5824   1.5844
  1.5907   1.5933   1.5959   1.6025   1.6037   1.6081   1.6087   1.6262
  1.6297   1.6327   1.6388   1.6418   1.6447   1.6508   1.6535   1.6573
  1.6598   1.6608   1.6622   1.6635   1.6645   1.6666   1.6697   1.6709
  1.6711   1.6733   1.6754   1.6767   1.6794   1.6807   1.6814   1.6831
  1.6838   1.6844   1.6859   1.6882   1.6894   1.6899   1.6908   1.6915
  1.6924   1.6933   1.6950   1.6965   1.6984   1.6999   1.7011   1.7030
  1.7033   1.7052   1.7056   1.7070   1.7076   1.7098   1.7116   1.7134
  1.7147   1.7176   1.7191   1.7220   1.7234   1.7242   1.7257   1.7264
  1.7270   1.7291   1.7300   1.7317   1.7337   1.7368   1.7376   1.7396
  1.7402   1.7417   1.7432   1.7451   1.7461   1.7510   1.7517   1.7550
  1.7573   1.7606   1.7623   1.7649   1.7662   1.7682   1.7705   1.7709
  1.7728   1.7735   1.7761   1.7775   1.7815   1.7819   1.7825   1.7854
  1.7858   1.7900   1.7934   1.7944   1.7948   1.7976   1.7982   1.8008
  1.8023   1.8040   1.8054   1.8076   1.8108   1.8162   1.8180   1.8220
  1.8252   1.8286   1.8307   1.8357   1.8434   1.8470   1.8486   1.8489
  1.8517   1.8573   1.8608   1.8632   1.8653   1.8689   1.8711   1.8721
  1.8740   1.8755   1.8777   1.8812   1.8827   1.8839   1.8851   1.8867
  1.8883   1.8901   1.8903   1.8914   1.8926   1.8933   1.8948   1.8959
  1.8975   1.8984   1.9004   1.9011   1.9020   1.9031   1.9040   1.9049
  1.9066   1.9076   1.9088   1.9098   1.9125   1.9153   1.9182   1.9190
  1.9192   1.9221   1.9245   1.9254   1.9282   1.9291   1.9303   1.9324
  1.9340   1.9365   1.9377   1.9409   1.9423   1.9445   1.9452   1.9467
  1.9543   1.9561   1.9592   1.9683   1.9709   1.9750   1.9858   1.9904
  1.9932   2.0017   2.0049   2.0107   2.0207   2.0341   2.0405   2.0424
  2.0443   2.0458   2.0485   2.0493   2.0502   2.0505   2.0575   2.0633
  2.0638   2.0657   2.0684   2.0689   2.0700   2.0722   2.0734   2.0739
  2.0755   2.0766   2.0782   2.0804   2.0810   2.0848   2.0860   2.0867
  2.0883   2.0912   2.0917   2.0930   2.0931   2.0942   2.0961   2.0982
  2.0985   2.1007   2.1034   2.1065   2.1097   2.1112   2.1119   2.1145
  2.1155   2.1171   2.1203   2.1246   2.1272   2.1331   2.1374   2.1410
  2.1413   2.1442   2.1476   2.1476   2.1554   2.1606   2.1679   2.1720
  2.1766   2.1783   2.1878   2.1924   2.1957   2.1969   2.1985   2.2029
  2.2031   2.2069   2.2083   2.2103   2.2141   2.2150   2.2157   2.2170
  2.2193   2.2230   2.2237   2.2261   2.2273   2.2287   2.2290   2.2306
  2.2314   2.2316   2.2336   2.2344   2.2355   2.2371   2.2381   2.2396
  2.2405   2.2426   2.2442   2.2448   2.2453   2.2469   2.2477   2.2481
  2.2493   2.2497   2.2518   2.2532   2.2543   2.2547   2.2556   2.2560
  2.2576   2.2576   2.2592   2.2602   2.2625   2.2635   2.2640   2.2648
  2.2659   2.2667   2.2679   2.2685   2.2700   2.2704   2.2712   2.2739
  2.2743   2.2761   2.2767   2.2779   2.2789   2.2795   2.2801   2.2810
  2.2827   2.2835   2.2840   2.2861   2.2876   2.2883   2.2902   2.2904
  2.2922   2.2926   2.2941   2.2960   2.2974   2.2984   2.2993   2.3006
  2.3014   2.3017   2.3022   2.3041   2.3053   2.3058   2.3069   2.3078
  2.3100   2.3119   2.3135   2.3139   2.3157   2.3159   2.3180   2.3188
  2.3201   2.3209   2.3238   2.3243   2.3266   2.3274   2.3279   2.3316
  2.3322   2.3359   2.3371   2.3435   2.3461   2.3465   2.3484   2.3515
  2.3543   2.3579   2.3601   2.3619   2.3640   2.3648   2.3665   2.3716
  2.3739   2.3763   2.3775   2.3780   2.3839   2.3855   2.3884   2.3965
  2.3984   2.4016   2.4306   2.4370   2.4491   2.4736   2.4833   2.5076
  2.5488   2.6141   2.6735   2.7177   2.7336   2.7766   2.8145   2.8188
  2.8209   2.8231   2.8279   2.8301   2.8308   2.8343   2.8445   2.8461
  2.8495   2.8524   2.8541   2.8549   2.8567   2.8575   2.8604   2.8648
  2.8663   2.8696   2.8726   2.8742   2.8772   2.8832   2.8844   2.8865
  2.8966   2.9532   3.1018   3.2759   3.9489   3.9492   3.9514   3.9540
  3.9581   3.9618   3.9638   3.9767   3.9797   3.9837   3.9842   3.9846
  3.9888   3.9906   3.9931   3.9946   3.9984   3.9998   4.0018   4.0043
  4.0089   4.0128   4.0264   4.2163   4.2233   4.2273   4.2295   4.2310
  4.2336   4.2346   4.2374   4.2397   4.2504   4.2528   4.2535   4.2563
  4.2591   4.2635   4.2655   4.2678   4.2715   4.2726   4.2760   4.2794
  4.2822   4.2847   4.2872   4.2896   4.2923   4.2949   4.2967   4.2988
  4.3034   4.3046   4.3070   4.3081   4.3116   4.3120   4.3172   4.3191
  4.3219   4.3246   4.3269   4.3295   4.3337   4.3366   4.3414   4.3451
  4.3462   4.3475   4.3521   4.3540   4.3601   4.3622   4.3644   4.3672
  4.3692   4.3762   4.3767   4.3831   4.3863   4.3903   4.4020   4.4064
  4.4099   4.4203   4.4321   4.4478   4.4584   4.4700   4.5011   4.5186
  4.5345   4.5726   4.5881   4.5986   4.6311   4.7086   4.7478   4.7918
  4.8609
 --------------------------------------------------------------

          Ground-State Mulliken Net Atomic Charges

     Atom                 Charge (a.u.)
  ----------------------------------------
      1 C                     0.108401
      2 C                    -0.573186
      3 C                    -0.475761
      4 C                    -0.335398
      5 C                    -0.363414
      6 C                    -0.724937
      7 H                     0.210343
      8 H                     0.198607
      9 H                     0.211224
     10 H                     0.208203
     11 H                     0.198555
     12 H                     0.191338
     13 H                     0.214467
     14 H                     0.195140
     15 H                     0.202533
     16 H                     0.221042
     17 H                     0.190859
     18 N                    -0.382295
     19 H                     0.501868
     20 C                     0.354033
     21 H                     0.209370
     22 O                    -0.560993
     23 C                    -0.835472
     24 H                     0.237495
     25 H                     0.232234
     26 H                     0.273603
     27 S                     0.899791
     28 C                    -0.799344
     29 H                     0.267405
     30 H                     0.255002
     31 H                     0.241313
     32 O                    -0.672311
     33 C                    -0.722161
     34 H                     0.243286
     35 H                     0.262728
     36 H                     0.230060
     37 S                     0.678305
     38 C                    -0.780720
     39 H                     0.282169
     40 H                     0.251264
     41 H                     0.234983
     42 O                    -0.699812
     43 C                    -0.910690
     44 H                     0.231015
     45 H                     0.247074
     46 H                     0.278877
     47 S                     1.073409
     48 C                    -0.979675
     49 H                     0.283281
     50 H                     0.261362
     51 H                     0.231567
     52 O                    -0.694786
     53 C                    -0.854140
     54 H                     0.243663
     55 H                     0.294448
     56 H                     0.264636
     57 S                     0.554458
     58 C                    -0.508686
     59 H                     0.231746
     60 H                     0.279353
     61 H                     0.234650
     62 O                    -0.681223
     63 C                    -0.876493
     64 H                     0.245411
     65 H                     0.289543
     66 H                     0.241960
     67 S                     0.745752
     68 C                    -0.795228
     69 H                     0.247165
     70 H                     0.242802
     71 H                     0.229945
     72 O                    -0.628855
     73 C                    -0.869493
     74 H                     0.266577
     75 H                     0.266768
     76 H                     0.264505
     77 S                     1.060717
     78 C                    -0.949078
     79 H                     0.283260
     80 H                     0.254060
     81 H                     0.246141
     82 O                    -0.667274
     83 C                    -0.854790
     84 H                     0.243239
     85 H                     0.258636
     86 H                     0.246525
     87 S                     0.452872
     88 C                    -0.729172
     89 H                     0.257475
     90 H                     0.266624
     91 H                     0.266169
     92 O                    -0.508605
     93 C                    -0.772672
     94 H                     0.266012
     95 H                     0.231858
     96 H                     0.295999
     97 S                     0.896317
     98 C                    -0.870378
     99 H                     0.252605
    100 H                     0.233265
    101 H                     0.248499
    102 O                    -0.736932
    103 C                    -0.928957
    104 H                     0.272839
    105 H                     0.244078
    106 H                     0.264498
    107 S                     1.139524
    108 C                    -1.007799
    109 H                     0.241836
    110 H                     0.284052
    111 H                     0.235257
    112 O                    -0.727140
    113 C                    -1.204771
    114 H                     0.277642
    115 H                     0.295463
    116 H                     0.246206
    117 S                     1.327682
    118 C                    -1.006660
    119 H                     0.296110
    120 H                     0.244318
    121 H                     0.267025
    122 O                    -0.806130
    123 C                    -0.804159
    124 H                     0.216497
    125 H                     0.283308
    126 H                     0.255837
    127 S                     0.845853
    128 C                    -0.840269
    129 H                     0.230979
    130 H                     0.235728
    131 H                     0.294471
    132 O                    -0.752561
    133 C                    -0.900330
    134 H                     0.252953
    135 H                     0.238016
    136 H                     0.245570
    137 S                     0.963528
    138 C                    -0.853698
    139 H                     0.276693
    140 H                     0.272331
    141 H                     0.246743
    142 O                    -0.709994
    143 C                    -0.911209
    144 H                     0.231249
    145 H                     0.270920
    146 H                     0.222435
    147 S                     0.897406
    148 C                    -0.757640
    149 H                     0.232066
    150 H                     0.247281
    151 H                     0.265290
    152 O                    -0.704188
    153 C                    -0.874063
    154 H                     0.259180
    155 H                     0.259686
    156 H                     0.199164
    157 S                     1.022294
    158 C                    -0.888049
    159 H                     0.278448
    160 H                     0.260294
    161 H                     0.276363
    162 O                    -0.763726
    163 C                    -0.772783
    164 H                     0.254968
    165 H                     0.259546
    166 H                     0.313794
    167 S                     0.910649
    168 C                    -0.874931
    169 H                     0.179934
    170 H                     0.270516
    171 H                     0.276072
    172 O                    -0.741218
    173 C                    -0.806748
    174 H                     0.248327
    175 H                     0.252734
    176 H                     0.246280
    177 S                     0.715581
    178 C                    -0.743156
    179 H                     0.280491
    180 H                     0.225600
    181 H                     0.263726
    182 O                    -0.690022
    183 C                    -1.026170
    184 H                     0.282115
    185 H                     0.251074
    186 H                     0.250764
    187 S                     1.099872
    188 C                    -0.954959
    189 H                     0.242505
    190 H                     0.303513
    191 H                     0.252472
    192 O                    -0.708775
    193 C                    -0.865306
    194 H                     0.257443
    195 H                     0.234907
    196 H                     0.245692
    197 S                     0.848651
    198 C                    -0.865943
    199 H                     0.273528
    200 H                     0.239709
    201 H                     0.237669
    202 O                    -0.694085
    203 C                    -1.037914
    204 H                     0.254140
    205 H                     0.251975
    206 H                     0.270513
    207 S                     0.934552
    208 C                    -0.805490
    209 H                     0.221832
    210 H                     0.266088
    211 H                     0.262478
    212 O                    -0.631211
    213 C                    -1.034479
    214 H                     0.246432
    215 H                     0.255715
    216 H                     0.266934
    217 S                     1.129689
    218 C                    -0.865906
    219 H                     0.240060
    220 H                     0.246296
    221 H                     0.259458
    222 O                    -0.743032
    223 C                    -0.843750
    224 H                     0.245801
    225 H                     0.299724
    226 H                     0.232523
    227 S                     0.727391
    228 C                    -0.841504
    229 H                     0.252011
    230 H                     0.279227
    231 H                     0.286378
    232 O                    -0.737064
    233 C                    -0.937995
    234 H                     0.270362
    235 H                     0.274970
    236 H                     0.254086
    237 S                     0.923853
    238 C                    -0.850651
    239 H                     0.240070
    240 H                     0.298126
    241 H                     0.274999
    242 O                    -0.768273
    243 C                    -0.803895
    244 H                     0.233885
    245 H                     0.252109
    246 H                     0.300751
    247 S                     0.674266
    248 C                    -0.748016
    249 H                     0.241947
    250 H                     0.245930
    251 H                     0.283427
    252 O                    -0.700509
  ----------------------------------------
  Sum of atomic charges =     0.000000

 -----------------------------------------------------------------
                    Cartesian Multipole Moments
 -----------------------------------------------------------------
    Charge (ESU x 10^10)
                -0.0000
    Dipole Moment (Debye)
         X      -9.6555      Y       1.5107      Z      -8.3547
       Tot      12.8574
    Quadrupole Moments (Debye-Ang)
        XX   -1294.3166     XY    -209.8493     YY    -721.9709
        XZ    -415.9782     YZ    -155.7821     ZZ   -1363.2838
    Octopole Moments (Debye-Ang^2)
       XXX  -86565.1321    XXY  -33497.3160    XYY  -26952.7359
       YYY  -64049.8311    XXZ  -35526.0745    XYZ   -8941.8592
       YYZ  -21857.0986    XZZ  -41302.2019    YZZ  -34603.6063
       ZZZ  -86246.7446
    Hexadecapole Moments (Debye-Ang^3)
      XXXX ************   XXXY ************   XXYY ************
      XYYY ************   YYYY ************   XXXZ ************
      XXYZ -892636.4902   XYYZ -730900.2153   YYYZ ************
      XXZZ ************   XYZZ ************   YYZZ ************
      XZZZ ************   YZZZ ************   ZZZZ ************
 -----------------------------------------------------------------
 Total job time:  20487.34s(wall), 173203.17s(cpu) 
 Thu Jul 21 09:27:15 2022

        *************************************************************
        *                                                           *
        *  Thank you very much for using Q-Chem.  Have a nice day.  *
        *                                                           *
        *************************************************************


 
User input: 2 of 2 
 
                  Welcome to Q-Chem
     A Quantum Leap Into The Future Of Chemistry


 Q-Chem 6.0 (devel), Q-Chem, Inc., Pleasanton, CA (2022)

 E. Epifanovsky,  A. T. B. Gilbert,  Xintian Feng,  Joonho Lee,  Yuezhi Mao,  
 N. Mardirossian,  P. Pokhilko,  A. White,  M. Wormit,  M. P. Coons,  
 A. L. Dempwolff,  Zhengting Gan,  D. Hait,  P. R. Horn,  L. D. Jacobson,  
 I. Kaliman,  J. Kussmann,  A. W. Lange,  Ka Un Lao,  D. S. Levine,  Jie Liu,  
 S. C. McKenzie,  A. F. Morrison,  K. Nanda,  F. Plasser,  D. R. Rehn,  
 M. L. Vidal,  Zhi-Qiang You,  Ying Zhu,  B. Alam,  B. Albrecht,  
 A. Aldossary,  E. Alguire,  J. H. Andersen,  V. Athavale,  D. Barton,  
 K. Begam,  A. Behn,  N. Bellonzi,  Y. A. Bernard,  E. J. Berquist,  
 H. Burton,  A. Carreras,  K. Carter-Fenk,  Romit Chakraborty,  
 Chandrima Chakravarty,  Junhan Chen,  A. D. Chien,  K. D. Closser,  
 V. Cofer-Shabica,  L. Cunha,  S. Dasgupta,  Jia Deng,  M. de Wergifosse,  
 M. Diedenhofen,  Hainam Do,  S. Ehlert,  Po-Tung Fang,  S. Fatehi,  
 Qingguo Feng,  T. Friedhoff,  B. Ganoe,  J. Gayvert,  Qinghui Ge,  
 G. Gidofalvi,  M. Goldey,  J. Gomes,  C. Gonzalez-Espinoza,  S. Gulania,  
 A. Gunina,  J. A. Gyamfi,  M. W. D. Hanson-Heine,  P. H. P. Harbach,  
 A. W. Hauser,  M. F. Herbst,  M. Hernandez Vera,  M. Hodecker,  
 Z. C. Holden,  S. Houck,  Xunkun Huang,  Kerwin Hui,  B. C. Huynh,  
 K. Ikeda,  M. Ivanov,  Hyunjun Ji,  Zuxin Jin,  Hanjie Jiang,  B. Kaduk,  
 S. Kaehler,  R. Kang,  K. Khistyaev,  Jaehoon Kim,  Yongbin Kim,  
 P. Klunzinger,  Z. Koczor-Benda,  Joong Hoon Koh,  D. Kosenkov,  
 Saikiran Kotaru,  L. Koulias,  T. Kowalczyk,  C. M. Krauter,  K. Kue,  
 A. Kunitsa,  T. Kus,  A. Landau,  K. V. Lawler,  D. Lefrancois,  S. Lehtola,  
 Rain Li,  Shaozhi Li,  Yi-Pei Li,  Jiashu Liang,  M. Liebenthal,  
 Hung-Hsuan Lin,  You-Sheng Lin,  Fenglai Liu,  Kuan-Yu Liu,  
 M. Loipersberger,  A. Luenser,  C. Malbon,  A. Manjanath,  P. Manohar,  
 E. Mansoor,  S. F. Manzer,  Shan-Ping Mao,  A. V. Marenich,  T. Markovich,  
 S. Mason,  F. Matz,  S. A. Maurer,  P. F. McLaughlin,  M. F. S. J. Menger,  
 J.-M. Mewes,  S. A. Mewes,  P. Morgante,  Mohammad Mostafanejad,  
 J. W. Mullinax,  K. J. Oosterbaan,  G. Paran,  V. Parravicini,  
 Alexander C. Paul,  Suranjan K. Paul,  F. Pavosevic,  Zheng Pei,  S. Prager,  
 E. I. Proynov,  E. Ramos,  B. Rana,  A. E. Rask,  A. Rettig,  R. M. Richard,  
 F. Rob,  E. Rossomme,  T. Scheele,  M. Scheurer,  M. Schneider,  
 P. E. Schneider,  N. Sergueev,  S. M. Sharada,  Hengyuan Shen,  
 W. Skomorowski,  D. W. Small,  C. J. Stein,  Yingli Su,  Yu-Chuan Su,  
 E. J. Sundstrom,  Zhen Tao,  J. Thirman,  Hung-Yi Tsai,  T. Tsuchimochi,  
 N. M. Tubman,  C. Utku,  S. P. Veccham,  O. Vydrov,  J. Wenzel,  
 Jonathan Wong,  J. Witte,  A. Yamada,  Chou-Hsun Yang,  Kun Yao,  
 S. Yeganeh,  S. R. Yost,  A. Zech,  F. Zeller,  Igor Ying Zhang,  
 Xing Zhang,  Yu Zhang,  D. Zuev,  A. Aspuru-Guzik,  A. T. Bell,  
 N. A. Besley,  K. B. Bravaya,  B. R. Brooks,  D. Casanova,  Jeng-Da Chai,  
 Hsing-Ta Chen,  S. Coriani,  C. J. Cramer,  A. E. DePrince, III,  
 R. A. DiStasio Jr.,  A. Dreuw,  B. D. Dunietz,  T. R. Furlani,  
 W. A. Goddard III,  S. Grimme,  S. Hammes-Schiffer,  T. Head-Gordon,  
 W. J. Hehre,  Chao-Ping Hsu,  T.-C. Jagau,  Yousung Jung,  A. Klamt,  
 Jing Kong,  D. S. Lambrecht,  Xiangyuan Li,  WanZhen Liang,  N. J. Mayhall,  
 C. W. McCurdy,  J. B. Neaton,  T. Neudecker,  C. Ochsenfeld,  
 J. A. Parkhill,  R. Peverati,  V. A. Rassolov,  Haisheng Ren,  Yihan Shao,  
 L. V. Slipchenko,  R. P. Steele,  J. E. Subotnik,  A. J. W. Thom,  
 A. Tkatchenko,  D. G. Truhlar,  T. Van Voorhis,  Fan Wang,  
 T. A. Wesolowski,  K. B. Whaley,  H. L. Woodcock III,  P. M. Zimmerman,  
 S. Faraji,  P. M. W. Gill,  M. Head-Gordon,  J. M. Herbert,  A. I. Krylov

 Contributors to earlier versions of Q-Chem not listed above: 
 R. D. Adamson,  B. Austin,  R. Baer,  J. Baker,  G. J. O. Beran,  
 K. Brandhorst,  S. T. Brown,  E. F. C. Byrd,  Arup K. Chakraborty,  
 G. K. L. Chan,  Chun-Min Chang,  Yunqing Chen,  C.-L. Cheng,  
 Siu Hung Chien,  D. M. Chipman,  D. L. Crittenden,  H. Dachsel,  
 R. J. Doerksen,  A. D. Dutoi,  R. G. Edgar,  J. Fosso-Tande,  
 L. Fusti-Molnar,  D. Ghosh,  A. Ghysels,  A. Golubeva-Zadorozhnaya,  
 J. Gonthier,  M. S. Gordon,  S. R. Gwaltney,  G. Hawkins,  J. E. Herr,  
 A. Heyden,  S. Hirata,  E. G. Hohenstein,  G. Kedziora,  F. J. Keil,  
 C. Kelley,  Jihan Kim,  R. A. King,  R. Z. Khaliullin,  P. P. Korambath,  
 W. Kurlancheek,  A. Laurent,  A. M. Lee,  M. S. Lee,  S. V. Levchenko,  
 Ching Yeh Lin,  D. Liotard,  E. Livshits,  R. C. Lochan,  I. Lotan,  
 L. A. Martinez-Martinez,  P. E. Maslen,  N. Nair,  D. P. O'Neill,  
 D. Neuhauser,  E. Neuscamman,  C. M. Oana,  R. Olivares-Amaya,  R. Olson,  
 T. M. Perrine,  B. Peters,  P. A. Pieniazek,  A. Prociuk,  Y. M. Rhee,  
 J. Ritchie,  M. A. Rohrdanz,  E. Rosta,  N. J. Russ,  H. F. Schaefer III,  
 M. W. Schmidt,  N. E. Schultz,  S. Sharma,  N. Shenvi,  C. D. Sherrill,  
 A. C. Simmonett,  A. Sodt,  T. Stein,  D. Stuck,  K. S. Thanthiriwatte,  
 V. Vanovschi,  L. Vogt,  Tao Wang,  A. Warshel,  M. A. Watson,  
 C. F. Williams,  Q. Wu,  X. Xu,  Jun Yang,  W. Zhang,  Yan Zhao

   Please cite Q-Chem as follows:
  "Software for the frontiers of quantum chemistry:
   An overview of developments in the Q-Chem 5 package"
   J. Chem. Phys. 155, 084801 (2021)
   https://doi.org/10.1063/5.0055522 (open access)

 Q-Chem 6.0.0 for Intel X86 EM64T Linux

 Parts of Q-Chem use Armadillo 9.900.5 (Nocturnal Misbehaviour).
 http://arma.sourceforge.net/

 Q-Chem begins on Thu Jul 21 09:27:16 2022  

 Host: nid00522
0

     Scratch files written to /global/cscratch1/sd/ymao90/r7.00_frame_0084_almo_B3LYP_dp20220721031443//
 Processing $rem in /global/homes/y/ymao90/my_qchem/qchem_embedding_5p4/config/preferences:
 Processing $rem in /global/homes/y/ymao90/.qchemrc:

 Checking the input file for inconsistencies... 	...done.

--------------------------------------------------------------
User input:
--------------------------------------------------------------

$molecule
0 1
@C    29.12800   28.75000   24.35800  
@C    27.72800   28.69800   24.99200  
@C    27.14000   27.27800   24.96500  
@C    28.10700   26.23200   25.54400  
@C    29.43200   26.22900   24.76400  
@C    30.06700   27.62700   24.82900  
@H    26.15100   27.05700   25.38600  
@H    27.83700   28.98100   26.04600  
@H    29.02800   28.66600   23.26900  
@H    29.63200   29.69000   24.61200  
@H    28.44300   26.43500   26.56800  
@H    27.77300   25.18700   25.55500  
@H    30.12300   25.50600   25.21400  
@H    29.25500   25.81200   23.76500  
@H    30.42800   27.80000   25.85000  
@H    31.00900   27.63000   24.26700  
@H    26.98800   26.96500   23.92500  
@N    26.79500   29.62700   24.35700  
@H    26.02700   29.24200   23.81900  
@C    26.90500   30.99900   24.42600  
@H    26.13900   31.42900   23.75500  
@O    27.74800   31.62100   25.04800  
C    22.01300   33.43500   24.20500  
H    20.96100   33.36600   23.91800  
H    22.24500   32.65400   24.93400  
H    22.22900   34.46400   24.50300  
S    22.88200   32.82200   22.74400  
C    22.30300   31.11100   22.69600  
H    22.97500   30.53800   22.05300  
H    22.32800   30.67000   23.69600  
H    21.27000   31.08400   22.34100  
O    24.31600   32.66100   23.14100  
C    35.74700   33.07000   26.38700  
H    34.95200   33.50600   25.77700  
H    36.14300   33.85100   27.04100  
H    36.52400   32.62600   25.76000  
S    34.93200   31.80600   27.39000  
C    34.14100   30.66600   26.23200  
H    33.35000   30.12700   26.75900  
H    33.60800   31.23800   25.46900  
H    34.71900   29.88200   25.73700  
O    33.77400   32.60000   27.90900  
C    31.81300   34.42900   25.37500  
H    32.67000   34.00400   24.84700  
H    31.79200   35.51600   25.48900  
H    31.85700   33.95400   26.35900  
S    30.28300   33.80600   24.64400  
C    30.82200   32.08600   24.50800  
H    30.03300   31.55200   23.97300  
H    31.73100   32.00100   23.90600  
H    30.99800   31.74300   25.53100  
O    30.21700   34.22900   23.20900  
C    32.09400   31.90600   20.76200  
H    32.33600   32.10800   19.71500  
H    31.51000   32.75200   21.13300  
H    32.99700   31.56100   21.27000  
S    31.10200   30.39900   20.67000  
C    29.35500   30.86100   20.66400  
H    28.85200   29.89400   20.75300  
H    29.18900   31.47900   21.55000  
H    29.14100   31.48800   19.79500  
O    31.32100   29.84000   22.04200  
C    29.70300   32.52900   28.75300  
H    29.28200   32.57400   29.76100  
H    30.79500   32.57000   28.78000  
H    29.16700   33.33600   28.24700  
S    29.35100   30.91700   28.01600  
C    27.63000   30.86200   28.56300  
H    26.90900   31.42100   27.96100  
H    27.42500   29.79200   28.47900  
H    27.50700   31.08300   29.62600  
O    30.03200   30.11000   29.07600  
C    22.95600   25.40900   28.65900  
H    22.53500   24.53800   28.14900  
H    22.37600   25.42400   29.58500  
H    22.76100   26.31100   28.07400  
S    24.74300   25.27800   28.89100  
C    24.68100   23.67100   29.71500  
H    25.69000   23.35700   29.99300  
H    23.98900   23.59200   30.55800  
H    24.36300   22.95700   28.95200  
O    25.10600   26.28300   29.94000  
C    29.12900   22.70400   21.28000  
H    28.56900   22.95100   22.18600  
H    28.53800   22.69600   20.36100  
H    29.62500   21.73700   21.39400  
S    30.47800   23.90200   21.19000  
C    31.22000   23.02500   19.79500  
H    32.12000   23.58900   19.53800  
H    31.45800   22.02900   20.17600  
H    30.41900   23.09500   19.05500  
O    31.32600   23.69300   22.40600  
C    29.50200   22.34100   26.25600  
H    30.48200   21.90900   26.03500  
[...]
    3  -1.9889165   0.6015820   0.9432221   2.0199204   0.4721438  -0.0929082
          127         128         129         130         131         132
    1  -1.3134894   0.5247687   0.1592799  -0.5321119   2.1117224   0.2668251
    2   1.8780041   1.4224081  -0.2234365   2.3797390   2.3320517   4.4508536
    3  -0.3942280  -2.2405795  -1.6533985  -3.4506273  -1.5193898  -0.7133222
          133         134         135         136         137         138
    1   3.0848292   2.1196043   3.1142202   3.5505464   1.5128243   2.2706673
    2  -0.8894360  -1.7217080   1.1008440  -2.0605089  -0.4848816  -0.8020525
    3  -1.6078654  -3.1339560  -1.4709700   0.1549518  -1.4837033   0.8047394
          139         140         141         142         143         144
    1   3.1884143   0.2685895   3.2557023   0.6458544   2.8896939   1.6338384
    2   0.7872071  -1.0241653  -2.3276213  -3.6346334   0.6080468   0.1305014
    3  -0.0674993   1.0265288   1.3271560  -1.0970981   0.6444900   1.6847236
          145         146         147         148         149         150
    1   4.3223510   3.0523430   1.2880709   1.0746574   0.0797333   3.1225834
    2  -0.5394674   2.3944864   0.8377300  -1.0002296  -0.4760907  -1.5328475
    3  -0.2450442   0.1808368  -0.7165891  -0.8824463  -2.7683640  -1.4998221
          151         152         153         154         155         156
    1   0.2981419   3.2250435   0.8715252  -0.9006811   2.4782776   0.6447661
    2  -0.5595178   0.3327833   2.1432255   2.3491666   1.4415089   2.5732164
    3   0.8240104  -3.2065780   2.4914335   3.6133864   3.1212954   0.9863368
          157         158         159         160         161         162
    1   0.4989530  -1.9397710  -2.5249138  -1.3965364  -1.9896208  -0.2478759
    2  -0.0749330   0.4434029   0.6011532   2.1796013  -1.1215374  -0.7903660
    3   1.6836886   1.8259159   3.6652497   1.4577347   1.2192191   4.4217739
          163         164         165         166         167         168
    1  -1.1526646  -1.3435433   0.0176624  -1.9864603  -0.2754888   1.1467237
    2   0.1079345   1.5484876   0.3121014  -1.3868590  -0.2988719   1.2444286
    3  -3.1785746  -1.9650617  -4.5971961  -2.6450409  -1.1640911  -2.0177641
          169         170         171         172         173         174
    1  -0.6400878   2.1882260   1.3383536   1.3698007   2.3784437   2.3169544
    2   2.0716988   0.3031549   1.0654350  -1.8935864  -2.3170746  -3.1410443
    3  -1.3856648  -0.8019808  -4.1587693  -3.5681119  -0.0453651   1.4344575
          175         176         177         178         179         180
    1   1.9010033   2.9343358   0.2191958   0.2202073   0.3404259  -1.5079192
    2  -2.7031206  -0.3658938  -2.8467052  -1.2952867  -2.4898469  -1.1764268
    3  -1.9284355   0.5926532  -0.1916976  -1.1418532  -2.5929733  -0.3412948
          181         182         183         184         185         186
    1   1.8148143   0.7467887   1.5846616  -0.2217653   2.0932818   3.2743305
    2  -0.2414525  -1.2866257   0.8950761   1.0975367  -0.5761709   1.4788963
    3   0.1133643   2.8348421   1.6169143   0.6954776   3.2573499   1.2653329
          187         188         189         190         191         192
    1   0.8997536   1.3228132   2.9519420  -0.1772327   1.7308924   4.2861616
    2  -0.3860311  -2.0821697  -1.1714707  -1.3048036  -3.0525714  -0.6113939
    3   0.2735411   1.8263995   3.1611452   2.1796271   0.6487218   0.1671142
          193         194         195         196         197         198
    1  -1.7952788   0.0329170  -2.1612463  -3.6286801  -1.1124290  -0.2197997
    2   1.2697514   1.9177580  -0.6242812   2.1551493   1.0425792  -0.5735541
    3  -0.4521694  -0.3632553  -1.1695375   0.5664540   1.4632490   0.4235516
          199         200         201         202         203         204
    1  -0.9378460  -1.0900188   1.2300993  -4.0447217  -0.7128107   1.3917984
    2  -1.0692063  -0.7626326   0.2652765  -0.3239979   3.1355977   3.4345593
    3   1.9343693  -1.2592103   0.4363347   1.6481738   1.6954762   1.2027472
          205         206         207         208         209         210
    1  -2.2580531  -0.7880019   0.1714390  -1.2893423  -0.4216161   0.0127594
    2   3.2836836   2.2281333   2.0362260   1.9445884   3.6926977   0.4580593
    3   0.5043453   3.4403477   1.3175802  -0.3387283  -0.3143450  -0.7664977
          211         212         213         214         215         216
    1  -3.3211675  -2.3288765   0.3637189   1.8313135   0.0932206  -0.9134281
    2   1.7886312   0.0344802   1.0925272   0.6728778   2.9614668  -0.0327946
    3   0.3582201   2.4492852  -0.6980478  -1.6208556  -0.8080052   0.1116498
          217         218         219         220         221         222
    1  -0.3439802  -2.5876297  -2.9428480  -1.7080918  -3.2948235  -1.3046836
    2   1.7325454   1.5698401  -0.0100841   3.2271326   1.0464558  -1.4782938
    3  -2.6613610  -1.5298002  -0.3293710  -1.0655115  -2.8449766  -2.7100020
          223         224         225         226         227         228
    1  -1.4480656  -0.5464524  -3.1165159  -0.8884655   0.4075107  -0.8201293
    2  -3.4616633  -4.0827470  -2.7044669  -3.6378961  -1.8841942  -1.2487505
    3  -0.1755272   1.1521307   0.4296732  -1.9576506  -0.1754041   1.7397426
          229         230         231         232         233         234
    1  -2.5482019  -0.7692171   0.4440686  -1.7796827  -0.7399811  -1.4996025
    2  -0.9136985  -3.0004984   0.6995828   0.1115268  -0.0121214  -1.3878705
    3   1.3024341   2.2426216   1.1554682  -1.1458204   1.1278151   1.0215340
          235         236         237         238         239         240
    1  -0.4611470   0.3520775   0.5824750   2.1577869   3.4661878   1.7123309
    2   0.7797151   0.5343412  -1.1755748   0.4694068  -0.2090316   1.3526990
    3   2.5112994  -0.9891068   2.6535216   2.4576087   2.5303385   0.5012175
          241         242         243         244         245         246
    1   0.8831573   1.4362536  -2.8619268  -3.4581535  -3.4912452  -1.5203553
    2   0.9023950  -1.4191110  -0.6789603   0.7806842  -2.3315072  -0.3267703
    3   3.6586043  -0.3114243  -0.5654173  -2.0294486  -0.2733946   0.4294834
          247         248         249         250         251         252
    1  -1.7674671  -0.2157038  -1.8802132   0.6382078   0.7811339  -0.1864618
    2  -1.9957386  -2.6447679  -3.2272546  -3.4952336  -0.7812092   0.5249272
    3  -2.1056082  -0.8087018   0.1521400  -2.0204727  -0.5790484  -2.9742814
 EField
            1           2           3           4           5           6
    1   0.0033884  -0.0029989  -0.0022804   0.0032138   0.0033819   0.0005051
    2  -0.0031824  -0.0038925   0.0019301  -0.0008336  -0.0019078  -0.0018287
    3  -0.0056920  -0.0069177  -0.0043347   0.0002892  -0.0001276  -0.0042588
            7           8           9          10          11          12
    1  -0.0005847   0.0002320   0.0083793   0.0047874   0.0050282   0.0046108
    2   0.0032629  -0.0066767  -0.0003459  -0.0091957  -0.0057377   0.0011111
    3  -0.0062963  -0.0088189  -0.0014210  -0.0069377  -0.0001801   0.0021491
           13          14          15          16          17          18
    1   0.0024214   0.0063631  -0.0023098  -0.0030892  -0.0030994  -0.0112708
    2  -0.0013708  -0.0007490  -0.0043938   0.0019138   0.0087151  -0.0079307
    3  -0.0000517   0.0007754  -0.0022158  -0.0072288   0.0010588  -0.0110683
           19          20          21          22          23          24
    1  -0.0257098  -0.0092126  -0.0205375  -0.0038358  -0.0039346  -0.0372819
    2  -0.0169690  -0.0076083  -0.0021241  -0.0075782  -0.0032521   0.0001498
    3  -0.0196499  -0.0099019  -0.0111054  -0.0071001   0.0075005   0.0011969
           25          26          27          28          29          30
    1   0.0032784   0.0143452  -0.0145932   0.0004424   0.0230464   0.0086227
    2  -0.0097286   0.0256996   0.0276752  -0.0113423  -0.0173328  -0.0166396
    3   0.0303761   0.0051980  -0.0502384   0.0034183  -0.0098195   0.0255777
           31          32          33          34          35          36
    1  -0.0299037   0.1086342   0.0013890  -0.0195998   0.0115273   0.0271632
    2  -0.0064941  -0.0168632   0.0052779   0.0169679   0.0190132  -0.0082720
    3  -0.0137549   0.0266961  -0.0073290  -0.0188402   0.0213817  -0.0207674
           37          38          39          40          41          42
    1   0.0392952  -0.0062803  -0.0211242  -0.0141383   0.0277964  -0.0828071
    2  -0.0271563  -0.0058615  -0.0119870   0.0160356  -0.0186334   0.0587182
    3   0.0389918  -0.0086882   0.0244565  -0.0241524  -0.0127317   0.0421715
           43          44          45          46          47          48
    1   0.0090406   0.0287597   0.0051509   0.0109461  -0.0375964   0.0099888
    2   0.0009732   0.0007017   0.0315610  -0.0066413   0.0080142  -0.0106559
    3   0.0036899  -0.0226540  -0.0017102   0.0362936   0.0355764  -0.0044070
           49          50          51          52          53          54
    1  -0.0138766   0.0276261   0.0088722  -0.0047342   0.0023761   0.0159472
    2  -0.0280674  -0.0042930  -0.0269543   0.0341719   0.0072965   0.0125678
    3  -0.0143434  -0.0219623   0.0263246  -0.1079811  -0.0025021  -0.0309332
           55          56          57          58          59          60
    1  -0.0074508   0.0241065   0.0147480  -0.0056889  -0.0221206  -0.0098795
    2   0.0259634  -0.0024382  -0.0323877   0.0034875  -0.0225925   0.0126683
    3   0.0235666   0.0198087  -0.0491911   0.0040215   0.0006314   0.0255713
           61          62          63          64          65          66
    1  -0.0153858   0.0197607   0.0041358  -0.0016699   0.0333780  -0.0030747
    2   0.0110890  -0.0449834   0.0075326  -0.0075956   0.0113482   0.0310689
    3  -0.0305335   0.0990172   0.0081629   0.0328726   0.0049114  -0.0181080
           67          68          69          70          71          72
    1   0.0097942  -0.0092331  -0.0224081  -0.0158890   0.0001011   0.0530887
    2  -0.0049128  -0.0052959   0.0124105  -0.0355627   0.0090394  -0.0605888
    3  -0.0464404   0.0088396  -0.0114917   0.0007720   0.0269495   0.0790325
           73          74          75          76          77          78
    1  -0.0107770  -0.0081373  -0.0076228  -0.0114554   0.0262564   0.0014303
    2   0.0007950  -0.0256322   0.0111847   0.0267901  -0.0060503  -0.0101024
    3  -0.0009323  -0.0222092   0.0335606  -0.0118221  -0.0503352   0.0035458
           79          80          81          82          83          84
    1   0.0294972  -0.0170493  -0.0085850   0.0277060  -0.0030236  -0.0218094
    2  -0.0071350   0.0060389  -0.0267544   0.0725602  -0.0047273   0.0035671
    3   0.0090939   0.0266799  -0.0206938   0.0771206   0.0018530   0.0233525
           85          86          87          88          89          90
    1  -0.0209565   0.0088282  -0.0196961   0.0028404   0.0254423   0.0126448
    2   0.0047417  -0.0307959   0.0539839  -0.0030797   0.0097962  -0.0314184
    3  -0.0240413   0.0086472  -0.0197869  -0.0045388  -0.0156931   0.0017754
           91          92          93          94          95          96
    1  -0.0134632   0.0607846   0.0036741   0.0288198  -0.0143655   0.0029487
    2  -0.0001736  -0.0098450   0.0060422  -0.0102753   0.0096300   0.0317451
    3  -0.0345763   0.0891102  -0.0061755  -0.0094077  -0.0286319   0.0104186
           97          98          99         100         101         102
    1   0.0341656   0.0010199  -0.0131667  -0.0140532   0.0256794  -0.0965823
    2  -0.0162835  -0.0062229  -0.0191295   0.0182455  -0.0206404   0.0484179
    3   0.0412376  -0.0058681   0.0224556  -0.0238107  -0.0105837   0.0148727
          103         104         105         106         107         108
    1   0.0039762   0.0271036   0.0013649  -0.0074399   0.0134074  -0.0042492
    2   0.0057397  -0.0027941   0.0257620   0.0155543  -0.0113280   0.0046638
    3   0.0056920   0.0049798  -0.0205229   0.0294126  -0.0539113   0.0026707
          109         110         111         112         113         114
    1  -0.0207268  -0.0082466  -0.0161031   0.0018997   0.0076174   0.0149180
    2  -0.0181489  -0.0172474   0.0379001  -0.0726325  -0.0024244  -0.0178543
    3  -0.0152556   0.0257636  -0.0014830   0.0825582  -0.0028621   0.0246946
          115         116         117         118         119         120
    1  -0.0037715   0.0092607  -0.0255604  -0.0013520   0.0066102  -0.0307952
    2  -0.0229270   0.0291896  -0.0394291   0.0083884  -0.0226196   0.0017680
    3  -0.0235904  -0.0081531   0.0303530  -0.0109918  -0.0234505   0.0118416
          121         122         123         124         125         126
    1   0.0233404   0.0579813   0.0048916  -0.0107576  -0.0109476   0.0286048
    2   0.0204023   0.1002581   0.0023756   0.0196001  -0.0256844   0.0054651
    3  -0.0104115   0.0494186  -0.0013058   0.0233311   0.0014651  -0.0134526
          127         128         129         130         131         132
    1  -0.0520369   0.0058529  -0.0048984  -0.0078946   0.0279507   0.0361841
    2  -0.0132172  -0.0046632  -0.0366201   0.0148851   0.0128238   0.1040978
    3  -0.0019268  -0.0058311  -0.0027209  -0.0272018  -0.0005970  -0.0160691
          133         134         135         136         137         138
    1   0.0058219  -0.0011433   0.0198801   0.0216569  -0.0305774   0.0013636
    2  -0.0018585  -0.0119843   0.0278262  -0.0160550   0.0440148   0.0048094
    3  -0.0004176  -0.0285486  -0.0047721   0.0185882  -0.0258342   0.0076621
          139         140         141         142         143         144
    1   0.0153633  -0.0281016   0.0181087  -0.0365531   0.0069577  -0.0153866
    2   0.0283399   0.0045442  -0.0207228  -0.1030734  -0.0026676  -0.0164781
    3   0.0149562   0.0113154   0.0153693   0.0061642   0.0027071   0.0226793
          145         146         147         148         149         150
    1   0.0261791   0.0117752  -0.0506951  -0.0018370  -0.0249709   0.0237299
    2  -0.0204880   0.0296682   0.0394790  -0.0075321  -0.0125205  -0.0197250
    3  -0.0029392   0.0020386   0.0037681   0.0006036  -0.0194240  -0.0044734
          151         152         153         154         155         156
    1  -0.0187278   0.0627025  -0.0009290  -0.0235615   0.0300265   0.0047968
    2  -0.0137883  -0.0065860   0.0053397   0.0150051  -0.0053068   0.0247177
    3   0.0233043  -0.0899944   0.0034204   0.0193021   0.0088887  -0.0192770
          157         158         159         160         161         162
    1   0.0303975  -0.0099627  -0.0165684  -0.0183455  -0.0122488  -0.0170321
    2  -0.0293239   0.0034834  -0.0034438   0.0244348  -0.0226790  -0.0353327
    3  -0.0354982   0.0024349   0.0294732  -0.0204351  -0.0175130   0.1041483
          163         164         165         166         167         168
    1  -0.0085379  -0.0155443   0.0058398  -0.0201925  -0.0147589   0.0009989
    2   0.0020949   0.0361224  -0.0000516  -0.0302780  -0.0092811   0.0035762
    3  -0.0037615   0.0008548  -0.0291578  -0.0110150   0.0492571  -0.0015508
          169         170         171         172         173         174
    1  -0.0062637   0.0223212   0.0103270   0.0632678   0.0087555   0.0104686
    2   0.0407670   0.0017033  -0.0011080  -0.0631565   0.0017512  -0.0204448
    3   0.0133236   0.0191526  -0.0285093  -0.0636542  -0.0007132   0.0196118
          175         176         177         178         179         180
    1   0.0073060   0.0187680  -0.0311188   0.0016553   0.0036337  -0.0301910
    2  -0.0100214   0.0260762  -0.0475545   0.0086777  -0.0067299   0.0236285
    3  -0.0310106   0.0066443  -0.0175677  -0.0034327  -0.0305385  -0.0082212
          181         182         183         184         185         186
    1   0.0161808  -0.0025207  -0.0028293  -0.0291771  -0.0051620   0.0223392
    2   0.0267358   0.0395047   0.0018707   0.0148053  -0.0037361   0.0192284
    3   0.0005688   0.1028642   0.0083780   0.0017571   0.0341762  -0.0103289
          187         188         189         190         191         192
    1  -0.0424326  -0.0028417   0.0284345  -0.0356127   0.0035772   0.1066074
    2   0.0027484  -0.0006028  -0.0157948  -0.0046277  -0.0256727  -0.0100916
    3  -0.0456134   0.0090416   0.0245623   0.0139318  -0.0092955  -0.0228211
          193         194         195         196         197         198
    1  -0.0004533   0.0235185  -0.0069552  -0.0274413   0.0260465   0.0024150
    2  -0.0010345   0.0136479  -0.0207591   0.0115472   0.0380819  -0.0103316
    3  -0.0072440  -0.0189301  -0.0260609   0.0023228   0.0397132  -0.0031264
          199         200         201         202         203         204
    1  -0.0042463  -0.0035610   0.0281061  -0.1006952  -0.0032783   0.0243268
    2  -0.0200908  -0.0186376   0.0077867  -0.0417014   0.0075614   0.0248878
    3   0.0233916  -0.0332501  -0.0049927   0.0206290   0.0046207  -0.0111706
          205         206         207         208         209         210
    1  -0.0243457  -0.0135528   0.0568888  -0.0050637  -0.0016874   0.0001690
    2   0.0177135  -0.0044434  -0.0102370   0.0043427   0.0309414  -0.0225287
    3  -0.0109480   0.0330416  -0.0005875  -0.0060817  -0.0168959  -0.0144905
          211         212         213         214         215         216
    1  -0.0318648  -0.0682153   0.0028941   0.0272639   0.0052762  -0.0054936
    2  -0.0074638  -0.0802386   0.0011033  -0.0148506   0.0266438  -0.0223052
    3   0.0035108   0.0384809   0.0111482   0.0010503   0.0270784   0.0223122
          217         218         219         220         221         222
    1   0.0219564  -0.0065443  -0.0057560  -0.0028344  -0.0192975  -0.0203711
    2   0.0289263   0.0016300  -0.0254681   0.0334356   0.0006819  -0.1086204
    3  -0.0313674   0.0051477   0.0178076   0.0087565  -0.0244458  -0.0125899
          223         224         225         226         227         228
    1  -0.0072865   0.0126428  -0.0308494   0.0006110   0.0533253  -0.0041867
    2  -0.0062990  -0.0216347   0.0111770  -0.0107717  -0.0059684   0.0026026
    3   0.0017434   0.0234103   0.0068942  -0.0285670  -0.0078681   0.0084222
          229         230         231         232         233         234
    1  -0.0324088   0.0141116   0.0237865  -0.0667945  -0.0060222  -0.0266357
    2  -0.0060023  -0.0143851   0.0207857   0.0723750   0.0054768  -0.0171784
    3   0.0056473   0.0264740   0.0170156  -0.0456475  -0.0055045  -0.0032120
          235         236         237         238         239         240
    1  -0.0069195   0.0049778  -0.0138426   0.0012592   0.0266160   0.0103956
    2   0.0223574   0.0126997  -0.0375683   0.0131685  -0.0125626   0.0266797
    3   0.0186565  -0.0342295   0.0462257  -0.0022881   0.0047214  -0.0264455
          241         242         243         244         245         246
    1  -0.0107301   0.0357228  -0.0018017  -0.0248776  -0.0258055   0.0221118
    2   0.0120284  -0.0342533   0.0052505   0.0305391  -0.0234870   0.0213157
    3   0.0316414  -0.0969989   0.0071025   0.0007368   0.0012159   0.0224168
          247         248         249         250         251         252
    1  -0.0319667   0.0082875  -0.0154688   0.0173766   0.0188687   0.0531803
    2  -0.0409824   0.0003295  -0.0079267  -0.0199974   0.0185988   0.0839480
    3  -0.0345593   0.0064505   0.0229164  -0.0168806   0.0234955  -0.0446296
  --- DONE ESP SUMMARY ---
 Total job time:  22.93s(wall), 61.70s(cpu) 
 Thu Jul 21 09:27:38 2022

        *************************************************************
        *                                                           *
        *  Thank you very much for using Q-Chem.  Have a nice day.  *
        *                                                           *
        *************************************************************


