                  Welcome to Q-Chem
     A Quantum Leap Into The Future Of Chemistry


 Q-Chem 6.0 (devel), Q-Chem, Inc., Pleasanton, CA (2022)

 E. Epifanovsky,  A. T. B. Gilbert,  Xintian Feng,  Joonho Lee,  Yuezhi Mao,  
 N. Mardirossian,  P. Pokhilko,  A. White,  M. Wormit,  M. P. Coons,  
 A. L. Dempwolff,  Zhengting Gan,  D. Hait,  P. R. Horn,  L. D. Jacobson,  
 I. Kaliman,  J. Kussmann,  A. W. Lange,  Ka Un Lao,  D. S. Levine,  Jie Liu,  
 S. C. McKenzie,  A. F. Morrison,  K. Nanda,  F. Plasser,  D. R. Rehn,  
 M. L. Vidal,  Zhi-Qiang You,  Ying Zhu,  B. Alam,  B. Albrecht,  
 A. Aldossary,  E. Alguire,  J. H. Andersen,  V. Athavale,  D. Barton,  
 K. Begam,  A. Behn,  N. Bellonzi,  Y. A. Bernard,  E. J. Berquist,  
 H. Burton,  A. Carreras,  K. Carter-Fenk,  Romit Chakraborty,  
 Chandrima Chakravarty,  Junhan Chen,  A. D. Chien,  K. D. Closser,  
 V. Cofer-Shabica,  L. Cunha,  S. Dasgupta,  Jia Deng,  M. de Wergifosse,  
 M. Diedenhofen,  Hainam Do,  S. Ehlert,  Po-Tung Fang,  S. Fatehi,  
 Qingguo Feng,  T. Friedhoff,  B. Ganoe,  J. Gayvert,  Qinghui Ge,  
 G. Gidofalvi,  M. Goldey,  J. Gomes,  C. Gonzalez-Espinoza,  S. Gulania,  
 A. Gunina,  J. A. Gyamfi,  M. W. D. Hanson-Heine,  P. H. P. Harbach,  
 A. W. Hauser,  M. F. Herbst,  M. Hernandez Vera,  M. Hodecker,  
 Z. C. Holden,  S. Houck,  Xunkun Huang,  Kerwin Hui,  B. C. Huynh,  
 K. Ikeda,  M. Ivanov,  Hyunjun Ji,  Zuxin Jin,  Hanjie Jiang,  B. Kaduk,  
 S. Kaehler,  R. Kang,  K. Khistyaev,  Jaehoon Kim,  Yongbin Kim,  
 P. Klunzinger,  Z. Koczor-Benda,  Joong Hoon Koh,  D. Kosenkov,  
 Saikiran Kotaru,  L. Koulias,  T. Kowalczyk,  C. M. Krauter,  K. Kue,  
 A. Kunitsa,  T. Kus,  A. Landau,  K. V. Lawler,  D. Lefrancois,  S. Lehtola,  
 Rain Li,  Shaozhi Li,  Yi-Pei Li,  Jiashu Liang,  M. Liebenthal,  
 Hung-Hsuan Lin,  You-Sheng Lin,  Fenglai Liu,  Kuan-Yu Liu,  
 M. Loipersberger,  A. Luenser,  C. Malbon,  A. Manjanath,  P. Manohar,  
 E. Mansoor,  S. F. Manzer,  Shan-Ping Mao,  A. V. Marenich,  T. Markovich,  
 S. Mason,  F. Matz,  S. A. Maurer,  P. F. McLaughlin,  M. F. S. J. Menger,  
 J.-M. Mewes,  S. A. Mewes,  P. Morgante,  Mohammad Mostafanejad,  
 J. W. Mullinax,  K. J. Oosterbaan,  G. Paran,  V. Parravicini,  
 Alexander C. Paul,  Suranjan K. Paul,  F. Pavosevic,  Zheng Pei,  S. Prager,  
 E. I. Proynov,  E. Ramos,  B. Rana,  A. E. Rask,  A. Rettig,  R. M. Richard,  
 F. Rob,  E. Rossomme,  T. Scheele,  M. Scheurer,  M. Schneider,  
 P. E. Schneider,  N. Sergueev,  S. M. Sharada,  Hengyuan Shen,  
 W. Skomorowski,  D. W. Small,  C. J. Stein,  Yingli Su,  Yu-Chuan Su,  
 E. J. Sundstrom,  Zhen Tao,  J. Thirman,  Hung-Yi Tsai,  T. Tsuchimochi,  
 N. M. Tubman,  C. Utku,  S. P. Veccham,  O. Vydrov,  J. Wenzel,  
 Jonathan Wong,  J. Witte,  A. Yamada,  Chou-Hsun Yang,  Kun Yao,  
 S. Yeganeh,  S. R. Yost,  A. Zech,  F. Zeller,  Igor Ying Zhang,  
 Xing Zhang,  Yu Zhang,  D. Zuev,  A. Aspuru-Guzik,  A. T. Bell,  
 N. A. Besley,  K. B. Bravaya,  B. R. Brooks,  D. Casanova,  Jeng-Da Chai,  
 Hsing-Ta Chen,  S. Coriani,  C. J. Cramer,  A. E. DePrince, III,  
 R. A. DiStasio Jr.,  A. Dreuw,  B. D. Dunietz,  T. R. Furlani,  
 W. A. Goddard III,  S. Grimme,  S. Hammes-Schiffer,  T. Head-Gordon,  
 W. J. Hehre,  Chao-Ping Hsu,  T.-C. Jagau,  Yousung Jung,  A. Klamt,  
 Jing Kong,  D. S. Lambrecht,  Xiangyuan Li,  WanZhen Liang,  N. J. Mayhall,  
 C. W. McCurdy,  J. B. Neaton,  T. Neudecker,  C. Ochsenfeld,  
 J. A. Parkhill,  R. Peverati,  V. A. Rassolov,  Haisheng Ren,  Yihan Shao,  
 L. V. Slipchenko,  R. P. Steele,  J. E. Subotnik,  A. J. W. Thom,  
 A. Tkatchenko,  D. G. Truhlar,  T. Van Voorhis,  Fan Wang,  
 T. A. Wesolowski,  K. B. Whaley,  H. L. Woodcock III,  P. M. Zimmerman,  
 S. Faraji,  P. M. W. Gill,  M. Head-Gordon,  J. M. Herbert,  A. I. Krylov

 Contributors to earlier versions of Q-Chem not listed above: 
 R. D. Adamson,  B. Austin,  R. Baer,  J. Baker,  G. J. O. Beran,  
 K. Brandhorst,  S. T. Brown,  E. F. C. Byrd,  Arup K. Chakraborty,  
 G. K. L. Chan,  Chun-Min Chang,  Yunqing Chen,  C.-L. Cheng,  
 Siu Hung Chien,  D. M. Chipman,  D. L. Crittenden,  H. Dachsel,  
 R. J. Doerksen,  A. D. Dutoi,  R. G. Edgar,  J. Fosso-Tande,  
 L. Fusti-Molnar,  D. Ghosh,  A. Ghysels,  A. Golubeva-Zadorozhnaya,  
 J. Gonthier,  M. S. Gordon,  S. R. Gwaltney,  G. Hawkins,  J. E. Herr,  
 A. Heyden,  S. Hirata,  E. G. Hohenstein,  G. Kedziora,  F. J. Keil,  
 C. Kelley,  Jihan Kim,  R. A. King,  R. Z. Khaliullin,  P. P. Korambath,  
 W. Kurlancheek,  A. Laurent,  A. M. Lee,  M. S. Lee,  S. V. Levchenko,  
 Ching Yeh Lin,  D. Liotard,  E. Livshits,  R. C. Lochan,  I. Lotan,  
 L. A. Martinez-Martinez,  P. E. Maslen,  N. Nair,  D. P. O'Neill,  
 D. Neuhauser,  E. Neuscamman,  C. M. Oana,  R. Olivares-Amaya,  R. Olson,  
 T. M. Perrine,  B. Peters,  P. A. Pieniazek,  A. Prociuk,  Y. M. Rhee,  
 J. Ritchie,  M. A. Rohrdanz,  E. Rosta,  N. J. Russ,  H. F. Schaefer III,  
 M. W. Schmidt,  N. E. Schultz,  S. Sharma,  N. Shenvi,  C. D. Sherrill,  
 A. C. Simmonett,  A. Sodt,  T. Stein,  D. Stuck,  K. S. Thanthiriwatte,  
 V. Vanovschi,  L. Vogt,  Tao Wang,  A. Warshel,  M. A. Watson,  
 C. F. Williams,  Q. Wu,  X. Xu,  Jun Yang,  W. Zhang,  Yan Zhao

   Please cite Q-Chem as follows:
  "Software for the frontiers of quantum chemistry:
   An overview of developments in the Q-Chem 5 package"
   J. Chem. Phys. 155, 084801 (2021)
   https://doi.org/10.1063/5.0055522 (open access)

 Q-Chem 6.0.0 for Intel X86 EM64T Linux

 Parts of Q-Chem use Armadillo 9.900.5 (Nocturnal Misbehaviour).
 http://arma.sourceforge.net/

 Q-Chem begins on Thu Jul 21 08:11:03 2022  

 Host: nid00531
0

     Scratch files written to /global/cscratch1/sd/ymao90/r7.00_frame_0096_almo_B3LYP_dp20220721031457//
 Processing $rem in /global/homes/y/ymao90/my_qchem/qchem_embedding_5p4/config/preferences:
 Processing $rem in /global/homes/y/ymao90/.qchemrc:

 Checking the input file for inconsistencies... 	...done.

--------------------------------------------------------------
User input:
--------------------------------------------------------------
$molecule
0 1
--
0 1
C    26.14500   30.46300   26.04900  
C    26.90900   29.63300   27.09300  
C    26.65800   28.11700   27.04000  
C    26.75600   27.57600   25.60400  
C    26.00300   28.39800   24.54500  
C    26.38700   29.88400   24.64500  
H    27.45600   27.67300   27.64800  
H    27.95500   29.68100   26.76800  
H    25.06000   30.58500   26.15600  
H    26.69000   31.41300   25.99800  
H    27.83200   27.64500   25.40300  
H    26.48000   26.51400   25.59400  
H    26.16700   27.94100   23.56200  
H    24.93000   28.27600   24.73800  
H    27.41400   29.99800   24.27700  
H    25.82200   30.49400   23.93000  
H    25.73500   27.82400   27.55400  
N    26.67600   30.10400   28.45800  
H    26.17900   29.43900   29.03900  
C    27.15800   31.27300   29.00600  
H    26.85100   31.41500   30.05900  
O    27.74300   32.13100   28.36900  
--
0 1
C    22.37300   25.88300   20.87800  
H    22.77000   24.91900   21.20300  
H    21.30200   26.04200   21.02800  
H    22.60900   26.12000   19.83700  
S    23.12900   27.34100   21.63200  
C    22.36600   28.65400   20.65300  
H    22.97500   28.91500   19.78400  
H    21.38300   28.33100   20.30200  
H    22.23400   29.59100   21.20100  
O    24.51900   27.25300   21.08300  
C    34.03500   24.79900   24.16300  
H    33.62400   24.37100   23.24500  
H    34.92100   24.21500   24.42500  
H    33.34300   24.70400   25.00400  
S    34.46600   26.48300   23.67000  
C    34.70600   27.11000   25.34800  
H    35.54500   26.67500   25.89700  
H    34.86900   28.18200   25.21600  
H    33.82500   26.93400   25.97000  
O    33.06100   26.93300   23.41400  
C    28.53300   22.74900   30.19000  
H    27.79000   22.18700   30.76300  
H    28.21700   23.79400   30.23000  
H    28.63000   22.46200   29.14000  
S    30.18900   22.83000   30.90900  
C    30.17600   21.09700   31.42300  
H    31.08900   21.00400   32.01700  
H    29.28700   21.01700   32.05400  
H    30.22900   20.39100   30.59100  
O    30.15400   23.66700   32.14900  
C    30.61400   30.51100   29.03500  
H    29.93800   29.97000   29.70200  
H    30.11300   31.17300   28.32400  
H    31.22900   29.78400   28.49800  
S    31.59700   31.63400   30.05400  
C    30.25500   32.75300   30.51500  
H    29.50800   32.23700   31.12400  
H    30.58400   33.59100   31.13400  
H    29.72100   33.17400   29.65900  
O    32.30000   32.39400   28.97300  
C    25.17200   27.70600   16.76200  
H    24.80700   28.37600   15.98000  
H    24.75500   26.70100   16.66100  
H    24.93000   28.21500   17.69900  
S    26.96300   27.53200   16.92300  
C    26.75000   26.54900   18.42400  
H    26.41600   25.55100   18.12700  
H    27.72200   26.45300   18.91500  
H    26.03100   26.99400   19.11600  
O    27.46500   28.85800   17.40300  
C    28.18600   34.18300   25.32400  
H    27.92200   33.75700   26.29600  
H    28.54600   33.39300   24.66100  
H    28.94300   34.96000   25.45900  
S    26.69300   34.80600   24.52000  
C    27.19900   35.18800   22.82700  
H    27.56500   34.22000   22.47600  
H    26.35300   35.49700   22.20700  
H    27.92600   35.98700   22.66600  
O    26.46800   36.15500   25.12800  
C    25.11600   30.66800   19.59300  
H    24.64700   31.43000   18.96500  
H    25.24500   29.72200   19.06200  
H    24.60300   30.51300   20.54600  
S    26.76300   31.15300   20.15800  
C    27.24400   29.58300   20.91400  
H    26.55600   29.42600   21.74900  
H    27.02300   28.81400   20.17000  
H    28.25500   29.77600   21.28100  
O    26.50700   31.88500   21.43900  
C    31.21500   28.83700   25.07900  
H    31.20500   28.02600   24.34700  
H    31.91900   28.59800   25.88100  
H    30.22200   29.02800   25.49400  
S    31.75300   30.23600   24.07100  
C    31.24300   31.45300   25.30600  
H    31.79800   31.37000   26.24300  
H    31.45500   32.44400   24.89400  
H    30.20500   31.26100   25.59000  
O    30.66300   30.29200   23.04600  
C    25.89000   24.80300   30.94000  
H    26.83000   24.98200   31.46700  
H    25.04400   25.07900   31.57500  
H    25.78000   23.73600   30.72700  
S    25.72900   25.74700   29.40800  
C    24.07500   25.11200   29.05600  
H    23.92100   25.69800   28.14600  
H    24.08700   24.04300   28.83000  
H    23.31700   25.34300   29.80900  
O    26.64500   24.86600   28.61700  
C    24.84300   24.65000   24.64100  
H    25.78900   24.81500   24.11900  
H    24.00900   25.24400   24.25900  
H    25.03300   24.92600   25.68100  
S    24.37400   22.90500   24.67800  
C    23.20600   23.01200   26.05300  
H    23.01000   21.99900   26.41400  
H    23.67700   23.67400   26.78400  
H    22.24600   23.39500   25.69700  
O    25.67500   22.27300   25.06300  
C    31.00300   35.70500   35.48300  
H    30.90000   34.89800   36.21300  
H    31.80500   36.43000   35.65100  
H    30.07200   36.27700   35.46700  
S    31.13100   34.95800   33.84300  
C    31.69900   36.49100   33.07400  
H    31.17300   37.38500   33.42000  
H    32.73200   36.42200   33.42600  
H    31.76000   36.46100   31.98300  
O    29.72300   34.73200   33.38700  
C    31.75000   27.52000   20.81800  
H    31.83100   28.24900   21.62800  
H    32.10000   26.49900   20.99200  
H    32.10200   27.97700   19.88900  
S    29.99700   27.25200   20.47300  
C    29.64600   27.17700   22.24400  
H    28.63800   26.80100   22.43700  
H    30.35100   26.49200   22.72000  
H    29.71300   28.15500   22.72800  
O    29.88700   25.80400   20.10700  
C    23.59300   35.19500   20.56400  
H    23.39000   36.26300   20.45400  
H    24.64900   34.93200   20.46200  
H    23.07300   34.54900   19.85200  
S    23.15000   34.83400   22.27800  
C    23.77400   33.15300   22.05700  
H    23.31200   32.53800   22.83400  
H    23.58100   32.67500   21.09300  
H    24.85100   33.20600   22.23200  
O    21.65500   34.74600   22.29100  
C    17.39500   31.68900   27.88800  
H    16.61600   31.32300   27.21400  
H    16.99300   31.93200   28.87500  
H    17.86200   32.53700   27.37900  
S    18.61500   30.35900   27.98300  
C    17.76800   29.56900   29.37000  
H    18.04800   30.10200   30.28200  
H    16.68000   29.65800   29.30400  
H    18.11700   28.53400   29.38500  
O    19.79500   31.00900   28.63700  
C    29.63800   37.73200   30.40700  
H    28.90500   38.43100   29.99400  
H    29.12300   36.94800   30.96800  
H    30.35700   38.22800   31.06300  
S    30.58200   36.88300   29.12200  
C    29.21300   36.06300   28.27400  
H    28.80500   35.42200   29.06100  
H    28.41400   36.74800   27.97800  
H    29.53400   35.45900   27.42200  
O    31.26700   35.85200   29.96400  
C    20.82300   28.18000   25.85400  
H    21.41500   28.67700   25.08100  
H    20.16700   27.41100   25.43900  
H    20.25700   28.88800   26.46500  
S    21.93600   27.38700   27.03600  
C    22.81700   28.94300   27.29700  
H    23.65000   28.81000   27.99200  
H    23.12100   29.22500   26.28600  
H    22.06700   29.66800   27.62400  
O    22.80100   26.61600   26.08800  
C    29.99200   30.28800   35.62200  
H    29.29200   30.12300   36.44500  
H    30.70000   31.11100   35.74100  
H    29.60900   30.48700   34.61700  
S    31.01500   28.80200   35.52500  
C    32.22000   29.48900   34.36700  
H    33.06300   28.79200   34.35400  
H    31.63800   29.52800   33.44300  
H    32.66000   30.46700   34.57500  
O    30.16900   27.89200   34.69000  
C    23.08300   28.41200   32.80200  
H    24.06000   27.94700   32.95700  
H    22.70600   28.95000   33.67600  
H    22.27900   27.76500   32.44300  
S    23.32100   29.59000   31.45200  
C    21.59700   30.03900   31.15200  
H    21.18800   30.73400   31.89000  
H    21.62300   30.45500   30.14200  
H    21.03000   29.12100   30.97800  
O    23.78700   28.58700   30.44300  
C    28.32600   23.32700   22.55500  
H    29.14500   22.60300   22.55500  
H    28.68600   24.33800   22.75800  
H    27.46700   22.87900   23.06400  
S    27.79100   23.73900   20.87900  
C    26.19500   24.44500   21.34800  
H    25.71900   23.78800   22.08000  
H    26.35600   25.43600   21.78000  
H    25.54900   24.59700   20.47900  
O    27.51700   22.32200   20.48000  
C    29.15300   26.41700   29.82600  
H    29.00800   26.26100   28.75400  
H    28.49300   25.81300   30.45400  
H    29.04700   27.46800   30.10900  
S    30.92200   26.05600   29.88800  
C    31.30100   26.65300   31.55100  
H    31.39600   27.74000   31.61300  
H    30.53000   26.37600   32.27400  
H    32.21000   26.25400   32.00700  
O    31.70100   26.85600   28.89100  
C    30.26500   34.23000   21.48000  
H    30.69300   34.32400   20.47900  
H    30.09400   33.21100   21.83600  
H    29.45200   34.92600   21.70500  
S    31.71700   34.70800   22.44300  
C    32.60900   33.16000   22.17600  
H    32.88700   33.26400   21.12400  
H    33.42200   32.98400   22.88500  
H    31.92100   32.31500   22.26400  
O    31.14800   34.52600   23.81600  
C    20.29900   24.71500   30.76400  
H    21.12400   24.20000   31.26200  
H    20.00300   25.71600   31.08900  
H    19.42100   24.09700   30.97000  
S    20.36800   24.62700   28.96000  
C    18.73200   25.34500   28.68900  
H    17.94600   24.67900   29.05200  
H    18.72700   26.32200   29.18000  
H    18.66900   25.47800   27.60600  
O    19.93700   23.23600   28.61400  
C    24.16700   34.59800   26.80700  
H    24.16600   35.26800   27.67000  
H    25.08800   34.01400   26.73000  
H    24.23000   35.08300   25.82900  
S    22.59900   33.70400   26.87400  
C    23.03200   32.58300   28.22400  
H    22.16400   31.94500   28.40600  
H    23.95100   32.00300   28.10500  
H    23.07300   33.18100   29.13800  
O    22.55300   32.86200   25.63700  
C    18.55700   32.51100   23.43600  
H    19.12100   33.38800   23.10700  
H    18.48900   31.80200   22.60800  
H    17.54100   32.66200   23.81200  
S    19.42600   31.55600   24.70000  
C    20.74600   31.19200   23.52100  
H    20.29400   30.65800   22.68200  
H    21.31300   32.05500   23.16400  
H    21.34500   30.50500   24.12600  
O    18.56100   30.34300   24.84500  
C    28.11700   33.78100   35.72700  
H    28.14600   34.84000   35.46100  
H    28.49300   33.73900   36.75200  
H    28.80700   33.20500   35.10400  
S    26.48800   33.05800   35.42800  
C    25.97400   33.74700   37.01700  
H    25.91000   34.83300   36.91500  
H    24.94200   33.42000   37.16900  
H    26.53600   33.40200   37.88900  
O    26.77100   31.65000   35.85200  
C    29.30800   22.73300   26.52000  
H    29.40600   22.61700   25.43700  
H    29.47000   21.73700   26.94000  
H    28.29300   22.93500   26.87400  
S    30.52600   23.96100   27.04200  
C    29.87100   25.22800   25.93300  
H    28.81100   25.45300   26.07500  
H    30.42100   26.16800   26.01900  
H    30.09800   24.90400   24.91400  
O    31.86700   23.55300   26.51700  
C    27.29400   27.68300   32.75100  
H    26.61700   27.51100   33.59200  
H    26.71100   27.75300   31.83000  
H    28.08000   26.93400   32.62600  
S    27.90100   29.37900   32.89600  
C    26.28300   30.16100   33.08200  
H    25.62400   29.52000   33.67400  
H    26.62000   31.14500   33.41900  
H    25.81800   30.35700   32.11200  
O    28.20200   29.58500   31.44400  
C    24.19200   34.87500   32.36400  
H    23.57600   35.27000   31.55200  
H    23.58300   34.35600   33.10800  
H    24.65800   35.75500   32.81500  
S    25.64300   33.87300   31.97000  
C    26.04100   34.77200   30.45400  
H    26.69000   35.64500   30.56900  
H    26.69100   34.02800   29.98600  
H    25.13100   35.01600   29.90100  
O    24.98000   32.62900   31.46600  
$end

$rem
JOBTYPE  SP
METHOD  B3LYP
BASIS  6-31+G(D)
SYMMETRY  FALSE
SYM_IGNORE  TRUE
MEM_TOTAL  12000
MEM_STATIC  4000
BASIS_LIN_DEP_THRESH  6
THRESH  14
SCF_CONVERGENCE  8
FD_MAT_VEC_PROD  FALSE
XC_GRID  000075000302
NL_GRID  1
MAX_SCF_CYCLES  200
FRGM_METHOD  STOLL
SCFMI_MODE  1
ALMO_EFIELD  TRUE
$end

$rem_frgm
SCF_CONVERGENCE  4
$end


--------------------------------------------------------------
 ----------------------------------------------------------------
             Standard Nuclear Orientation (Angstroms)
    I     Atom           X                Y                Z
 ----------------------------------------------------------------
    1      C      26.1450000000    30.4630000000    26.0490000000
    2      C      26.9090000000    29.6330000000    27.0930000000
    3      C      26.6580000000    28.1170000000    27.0400000000
    4      C      26.7560000000    27.5760000000    25.6040000000
    5      C      26.0030000000    28.3980000000    24.5450000000
    6      C      26.3870000000    29.8840000000    24.6450000000
    7      H      27.4560000000    27.6730000000    27.6480000000
    8      H      27.9550000000    29.6810000000    26.7680000000
    9      H      25.0600000000    30.5850000000    26.1560000000
   10      H      26.6900000000    31.4130000000    25.9980000000
   11      H      27.8320000000    27.6450000000    25.4030000000
   12      H      26.4800000000    26.5140000000    25.5940000000
   13      H      26.1670000000    27.9410000000    23.5620000000
   14      H      24.9300000000    28.2760000000    24.7380000000
   15      H      27.4140000000    29.9980000000    24.2770000000
   16      H      25.8220000000    30.4940000000    23.9300000000
   17      H      25.7350000000    27.8240000000    27.5540000000
   18      N      26.6760000000    30.1040000000    28.4580000000
   19      H      26.1790000000    29.4390000000    29.0390000000
   20      C      27.1580000000    31.2730000000    29.0060000000
   21      H      26.8510000000    31.4150000000    30.0590000000
   22      O      27.7430000000    32.1310000000    28.3690000000
   23      C      22.3730000000    25.8830000000    20.8780000000
   24      H      22.7700000000    24.9190000000    21.2030000000
   25      H      21.3020000000    26.0420000000    21.0280000000
   26      H      22.6090000000    26.1200000000    19.8370000000
   27      S      23.1290000000    27.3410000000    21.6320000000
   28      C      22.3660000000    28.6540000000    20.6530000000
   29      H      22.9750000000    28.9150000000    19.7840000000
   30      H      21.3830000000    28.3310000000    20.3020000000
   31      H      22.2340000000    29.5910000000    21.2010000000
   32      O      24.5190000000    27.2530000000    21.0830000000
   33      C      34.0350000000    24.7990000000    24.1630000000
   34      H      33.6240000000    24.3710000000    23.2450000000
   35      H      34.9210000000    24.2150000000    24.4250000000
   36      H      33.3430000000    24.7040000000    25.0040000000
   37      S      34.4660000000    26.4830000000    23.6700000000
   38      C      34.7060000000    27.1100000000    25.3480000000
   39      H      35.5450000000    26.6750000000    25.8970000000
   40      H      34.8690000000    28.1820000000    25.2160000000
   41      H      33.8250000000    26.9340000000    25.9700000000
   42      O      33.0610000000    26.9330000000    23.4140000000
   43      C      28.5330000000    22.7490000000    30.1900000000
   44      H      27.7900000000    22.1870000000    30.7630000000
   45      H      28.2170000000    23.7940000000    30.2300000000
   46      H      28.6300000000    22.4620000000    29.1400000000
   47      S      30.1890000000    22.8300000000    30.9090000000
   48      C      30.1760000000    21.0970000000    31.4230000000
   49      H      31.0890000000    21.0040000000    32.0170000000
   50      H      29.2870000000    21.0170000000    32.0540000000
   51      H      30.2290000000    20.3910000000    30.5910000000
   52      O      30.1540000000    23.6670000000    32.1490000000
   53      C      30.6140000000    30.5110000000    29.0350000000
   54      H      29.9380000000    29.9700000000    29.7020000000
   55      H      30.1130000000    31.1730000000    28.3240000000
   56      H      31.2290000000    29.7840000000    28.4980000000
   57      S      31.5970000000    31.6340000000    30.0540000000
   58      C      30.2550000000    32.7530000000    30.5150000000
   59      H      29.5080000000    32.2370000000    31.1240000000
   60      H      30.5840000000    33.5910000000    31.1340000000
   61      H      29.7210000000    33.1740000000    29.6590000000
   62      O      32.3000000000    32.3940000000    28.9730000000
   63      C      25.1720000000    27.7060000000    16.7620000000
   64      H      24.8070000000    28.3760000000    15.9800000000
   65      H      24.7550000000    26.7010000000    16.6610000000
   66      H      24.9300000000    28.2150000000    17.6990000000
   67      S      26.9630000000    27.5320000000    16.9230000000
   68      C      26.7500000000    26.5490000000    18.4240000000
   69      H      26.4160000000    25.5510000000    18.1270000000
   70      H      27.7220000000    26.4530000000    18.9150000000
   71      H      26.0310000000    26.9940000000    19.1160000000
   72      O      27.4650000000    28.8580000000    17.4030000000
   73      C      28.1860000000    34.1830000000    25.3240000000
   74      H      27.9220000000    33.7570000000    26.2960000000
   75      H      28.5460000000    33.3930000000    24.6610000000
   76      H      28.9430000000    34.9600000000    25.4590000000
   77      S      26.6930000000    34.8060000000    24.5200000000
   78      C      27.1990000000    35.1880000000    22.8270000000
   79      H      27.5650000000    34.2200000000    22.4760000000
   80      H      26.3530000000    35.4970000000    22.2070000000
   81      H      27.9260000000    35.9870000000    22.6660000000
   82      O      26.4680000000    36.1550000000    25.1280000000
   83      C      25.1160000000    30.6680000000    19.5930000000
   84      H      24.6470000000    31.4300000000    18.9650000000
   85      H      25.2450000000    29.7220000000    19.0620000000
   86      H      24.6030000000    30.5130000000    20.5460000000
   87      S      26.7630000000    31.1530000000    20.1580000000
   88      C      27.2440000000    29.5830000000    20.9140000000
   89      H      26.5560000000    29.4260000000    21.7490000000
   90      H      27.0230000000    28.8140000000    20.1700000000
   91      H      28.2550000000    29.7760000000    21.2810000000
   92      O      26.5070000000    31.8850000000    21.4390000000
   93      C      31.2150000000    28.8370000000    25.0790000000
   94      H      31.2050000000    28.0260000000    24.3470000000
   95      H      31.9190000000    28.5980000000    25.8810000000
   96      H      30.2220000000    29.0280000000    25.4940000000
   97      S      31.7530000000    30.2360000000    24.0710000000
   98      C      31.2430000000    31.4530000000    25.3060000000
   99      H      31.7980000000    31.3700000000    26.2430000000
  100      H      31.4550000000    32.4440000000    24.8940000000
  101      H      30.2050000000    31.2610000000    25.5900000000
  102      O      30.6630000000    30.2920000000    23.0460000000
  103      C      25.8900000000    24.8030000000    30.9400000000
  104      H      26.8300000000    24.9820000000    31.4670000000
  105      H      25.0440000000    25.0790000000    31.5750000000
  106      H      25.7800000000    23.7360000000    30.7270000000
  107      S      25.7290000000    25.7470000000    29.4080000000
  108      C      24.0750000000    25.1120000000    29.0560000000
  109      H      23.9210000000    25.6980000000    28.1460000000
  110      H      24.0870000000    24.0430000000    28.8300000000
  111      H      23.3170000000    25.3430000000    29.8090000000
  112      O      26.6450000000    24.8660000000    28.6170000000
  113      C      24.8430000000    24.6500000000    24.6410000000
  114      H      25.7890000000    24.8150000000    24.1190000000
  115      H      24.0090000000    25.2440000000    24.2590000000
  116      H      25.0330000000    24.9260000000    25.6810000000
  117      S      24.3740000000    22.9050000000    24.6780000000
  118      C      23.2060000000    23.0120000000    26.0530000000
  119      H      23.0100000000    21.9990000000    26.4140000000
  120      H      23.6770000000    23.6740000000    26.7840000000
  121      H      22.2460000000    23.3950000000    25.6970000000
  122      O      25.6750000000    22.2730000000    25.0630000000
  123      C      31.0030000000    35.7050000000    35.4830000000
  124      H      30.9000000000    34.8980000000    36.2130000000
  125      H      31.8050000000    36.4300000000    35.6510000000
  126      H      30.0720000000    36.2770000000    35.4670000000
  127      S      31.1310000000    34.9580000000    33.8430000000
  128      C      31.6990000000    36.4910000000    33.0740000000
  129      H      31.1730000000    37.3850000000    33.4200000000
  130      H      32.7320000000    36.4220000000    33.4260000000
  131      H      31.7600000000    36.4610000000    31.9830000000
  132      O      29.7230000000    34.7320000000    33.3870000000
  133      C      31.7500000000    27.5200000000    20.8180000000
  134      H      31.8310000000    28.2490000000    21.6280000000
  135      H      32.1000000000    26.4990000000    20.9920000000
  136      H      32.1020000000    27.9770000000    19.8890000000
  137      S      29.9970000000    27.2520000000    20.4730000000
  138      C      29.6460000000    27.1770000000    22.2440000000
  139      H      28.6380000000    26.8010000000    22.4370000000
  140      H      30.3510000000    26.4920000000    22.7200000000
  141      H      29.7130000000    28.1550000000    22.7280000000
  142      O      29.8870000000    25.8040000000    20.1070000000
  143      C      23.5930000000    35.1950000000    20.5640000000
  144      H      23.3900000000    36.2630000000    20.4540000000
  145      H      24.6490000000    34.9320000000    20.4620000000
  146      H      23.0730000000    34.5490000000    19.8520000000
  147      S      23.1500000000    34.8340000000    22.2780000000
  148      C      23.7740000000    33.1530000000    22.0570000000
  149      H      23.3120000000    32.5380000000    22.8340000000
  150      H      23.5810000000    32.6750000000    21.0930000000
  151      H      24.8510000000    33.2060000000    22.2320000000
  152      O      21.6550000000    34.7460000000    22.2910000000
  153      C      17.3950000000    31.6890000000    27.8880000000
  154      H      16.6160000000    31.3230000000    27.2140000000
  155      H      16.9930000000    31.9320000000    28.8750000000
  156      H      17.8620000000    32.5370000000    27.3790000000
  157      S      18.6150000000    30.3590000000    27.9830000000
  158      C      17.7680000000    29.5690000000    29.3700000000
  159      H      18.0480000000    30.1020000000    30.2820000000
  160      H      16.6800000000    29.6580000000    29.3040000000
  161      H      18.1170000000    28.5340000000    29.3850000000
  162      O      19.7950000000    31.0090000000    28.6370000000
  163      C      29.6380000000    37.7320000000    30.4070000000
  164      H      28.9050000000    38.4310000000    29.9940000000
  165      H      29.1230000000    36.9480000000    30.9680000000
  166      H      30.3570000000    38.2280000000    31.0630000000
  167      S      30.5820000000    36.8830000000    29.1220000000
  168      C      29.2130000000    36.0630000000    28.2740000000
  169      H      28.8050000000    35.4220000000    29.0610000000
  170      H      28.4140000000    36.7480000000    27.9780000000
  171      H      29.5340000000    35.4590000000    27.4220000000
  172      O      31.2670000000    35.8520000000    29.9640000000
  173      C      20.8230000000    28.1800000000    25.8540000000
  174      H      21.4150000000    28.6770000000    25.0810000000
  175      H      20.1670000000    27.4110000000    25.4390000000
  176      H      20.2570000000    28.8880000000    26.4650000000
  177      S      21.9360000000    27.3870000000    27.0360000000
  178      C      22.8170000000    28.9430000000    27.2970000000
  179      H      23.6500000000    28.8100000000    27.9920000000
  180      H      23.1210000000    29.2250000000    26.2860000000
  181      H      22.0670000000    29.6680000000    27.6240000000
  182      O      22.8010000000    26.6160000000    26.0880000000
  183      C      29.9920000000    30.2880000000    35.6220000000
  184      H      29.2920000000    30.1230000000    36.4450000000
  185      H      30.7000000000    31.1110000000    35.7410000000
  186      H      29.6090000000    30.4870000000    34.6170000000
  187      S      31.0150000000    28.8020000000    35.5250000000
  188      C      32.2200000000    29.4890000000    34.3670000000
  189      H      33.0630000000    28.7920000000    34.3540000000
  190      H      31.6380000000    29.5280000000    33.4430000000
  191      H      32.6600000000    30.4670000000    34.5750000000
  192      O      30.1690000000    27.8920000000    34.6900000000
  193      C      23.0830000000    28.4120000000    32.8020000000
  194      H      24.0600000000    27.9470000000    32.9570000000
  195      H      22.7060000000    28.9500000000    33.6760000000
  196      H      22.2790000000    27.7650000000    32.4430000000
  197      S      23.3210000000    29.5900000000    31.4520000000
  198      C      21.5970000000    30.0390000000    31.1520000000
  199      H      21.1880000000    30.7340000000    31.8900000000
  200      H      21.6230000000    30.4550000000    30.1420000000
  201      H      21.0300000000    29.1210000000    30.9780000000
  202      O      23.7870000000    28.5870000000    30.4430000000
  203      C      28.3260000000    23.3270000000    22.5550000000
  204      H      29.1450000000    22.6030000000    22.5550000000
  205      H      28.6860000000    24.3380000000    22.7580000000
  206      H      27.4670000000    22.8790000000    23.0640000000
  207      S      27.7910000000    23.7390000000    20.8790000000
  208      C      26.1950000000    24.4450000000    21.3480000000
  209      H      25.7190000000    23.7880000000    22.0800000000
  210      H      26.3560000000    25.4360000000    21.7800000000
  211      H      25.5490000000    24.5970000000    20.4790000000
  212      O      27.5170000000    22.3220000000    20.4800000000
  213      C      29.1530000000    26.4170000000    29.8260000000
  214      H      29.0080000000    26.2610000000    28.7540000000
  215      H      28.4930000000    25.8130000000    30.4540000000
  216      H      29.0470000000    27.4680000000    30.1090000000
  217      S      30.9220000000    26.0560000000    29.8880000000
  218      C      31.3010000000    26.6530000000    31.5510000000
  219      H      31.3960000000    27.7400000000    31.6130000000
  220      H      30.5300000000    26.3760000000    32.2740000000
  221      H      32.2100000000    26.2540000000    32.0070000000
  222      O      31.7010000000    26.8560000000    28.8910000000
  223      C      30.2650000000    34.2300000000    21.4800000000
  224      H      30.6930000000    34.3240000000    20.4790000000
  225      H      30.0940000000    33.2110000000    21.8360000000
  226      H      29.4520000000    34.9260000000    21.7050000000
  227      S      31.7170000000    34.7080000000    22.4430000000
  228      C      32.6090000000    33.1600000000    22.1760000000
  229      H      32.8870000000    33.2640000000    21.1240000000
  230      H      33.4220000000    32.9840000000    22.8850000000
  231      H      31.9210000000    32.3150000000    22.2640000000
  232      O      31.1480000000    34.5260000000    23.8160000000
  233      C      20.2990000000    24.7150000000    30.7640000000
  234      H      21.1240000000    24.2000000000    31.2620000000
  235      H      20.0030000000    25.7160000000    31.0890000000
  236      H      19.4210000000    24.0970000000    30.9700000000
  237      S      20.3680000000    24.6270000000    28.9600000000
  238      C      18.7320000000    25.3450000000    28.6890000000
  239      H      17.9460000000    24.6790000000    29.0520000000
  240      H      18.7270000000    26.3220000000    29.1800000000
  241      H      18.6690000000    25.4780000000    27.6060000000
  242      O      19.9370000000    23.2360000000    28.6140000000
  243      C      24.1670000000    34.5980000000    26.8070000000
  244      H      24.1660000000    35.2680000000    27.6700000000
  245      H      25.0880000000    34.0140000000    26.7300000000
  246      H      24.2300000000    35.0830000000    25.8290000000
  247      S      22.5990000000    33.7040000000    26.8740000000
  248      C      23.0320000000    32.5830000000    28.2240000000
  249      H      22.1640000000    31.9450000000    28.4060000000
  250      H      23.9510000000    32.0030000000    28.1050000000
  251      H      23.0730000000    33.1810000000    29.1380000000
  252      O      22.5530000000    32.8620000000    25.6370000000
  253      C      18.5570000000    32.5110000000    23.4360000000
  254      H      19.1210000000    33.3880000000    23.1070000000
  255      H      18.4890000000    31.8020000000    22.6080000000
  256      H      17.5410000000    32.6620000000    23.8120000000
  257      S      19.4260000000    31.5560000000    24.7000000000
  258      C      20.7460000000    31.1920000000    23.5210000000
  259      H      20.2940000000    30.6580000000    22.6820000000
  260      H      21.3130000000    32.0550000000    23.1640000000
  261      H      21.3450000000    30.5050000000    24.1260000000
  262      O      18.5610000000    30.3430000000    24.8450000000
  263      C      28.1170000000    33.7810000000    35.7270000000
  264      H      28.1460000000    34.8400000000    35.4610000000
  265      H      28.4930000000    33.7390000000    36.7520000000
  266      H      28.8070000000    33.2050000000    35.1040000000
  267      S      26.4880000000    33.0580000000    35.4280000000
  268      C      25.9740000000    33.7470000000    37.0170000000
  269      H      25.9100000000    34.8330000000    36.9150000000
  270      H      24.9420000000    33.4200000000    37.1690000000
  271      H      26.5360000000    33.4020000000    37.8890000000
  272      O      26.7710000000    31.6500000000    35.8520000000
  273      C      29.3080000000    22.7330000000    26.5200000000
  274      H      29.4060000000    22.6170000000    25.4370000000
  275      H      29.4700000000    21.7370000000    26.9400000000
  276      H      28.2930000000    22.9350000000    26.8740000000
  277      S      30.5260000000    23.9610000000    27.0420000000
  278      C      29.8710000000    25.2280000000    25.9330000000
  279      H      28.8110000000    25.4530000000    26.0750000000
  280      H      30.4210000000    26.1680000000    26.0190000000
  281      H      30.0980000000    24.9040000000    24.9140000000
  282      O      31.8670000000    23.5530000000    26.5170000000
  283      C      27.2940000000    27.6830000000    32.7510000000
  284      H      26.6170000000    27.5110000000    33.5920000000
  285      H      26.7110000000    27.7530000000    31.8300000000
  286      H      28.0800000000    26.9340000000    32.6260000000
  287      S      27.9010000000    29.3790000000    32.8960000000
  288      C      26.2830000000    30.1610000000    33.0820000000
  289      H      25.6240000000    29.5200000000    33.6740000000
  290      H      26.6200000000    31.1450000000    33.4190000000
  291      H      25.8180000000    30.3570000000    32.1120000000
  292      O      28.2020000000    29.5850000000    31.4440000000
  293      C      24.1920000000    34.8750000000    32.3640000000
  294      H      23.5760000000    35.2700000000    31.5520000000
  295      H      23.5830000000    34.3560000000    33.1080000000
  296      H      24.6580000000    35.7550000000    32.8150000000
  297      S      25.6430000000    33.8730000000    31.9700000000
  298      C      26.0410000000    34.7720000000    30.4540000000
  299      H      26.6900000000    35.6450000000    30.5690000000
  300      H      26.6910000000    34.0280000000    29.9860000000
  301      H      25.1310000000    35.0160000000    29.9010000000
  302      O      24.9800000000    32.6290000000    31.4660000000
 ----------------------------------------------------------------
 Nuclear Repulsion Energy =       50924.08804073 hartrees
 There are      623 alpha and      623 beta electrons
 Requested basis set is 6-31+G(d)
 There are 995 shells and 2773 basis functions

 Total QAlloc Memory Limit  12000 MB
 Mega-Array Size      3911 MB
 MEM_STATIC part      4000 MB

 A cutoff of  1.0D-14 yielded 185508 shell pairs
 There are   1613478 function pairs
 Smallest overlap matrix eigenvalue = 5.21E-07
 Linear dependence detected in AO basis
 Tighter screening thresholds may be required for diffuse basis sets
 Use S2THRESH > 14 and THRESH = 14 in case of SCF convergence issues
 Number of orthogonalized atomic orbitals = 2771
 Maximum deviation from orthogonality = 2.114E-10

 Scale SEOQF with 1.000000e-03/1.000000e-03/1.000000e-03

 Standard Electronic Orientation quadrupole field applied
 Nucleus-field energy     =     0.0000001121 hartrees
 Attempting to make child job directory: /global/cscratch1/sd/ymao90/r7.00_frame_0096_almo_B3LYP_dp20220721031457//Frg1/
 Attempting to make child job directory: /global/cscratch1/sd/ymao90/r7.00_frame_0096_almo_B3LYP_dp20220721031457//Frg2/
 Creating input file /global/cscratch1/sd/ymao90/r7.00_frame_0096_almo_B3LYP_dp20220721031457/Frg1.input
 using default PutDataFrgm: nothing
 calling putenv with: QCSCRATCH=/global/cscratch1/sd/ymao90/r7.00_frame_0096_almo_B3LYP_dp20220721031457/ 
 Spawning Job For Fragment 0
 Done Job For Fragment 0
 calling putenv with: QCSCRATCH=/global/cscratch1/sd/ymao90 
 calling putenv with: QCTHREADS=16 
 Creating input file /global/cscratch1/sd/ymao90/r7.00_frame_0096_almo_B3LYP_dp20220721031457/Frg2.input
 using default PutDataFrgm: nothing
 calling putenv with: QCSCRATCH=/global/cscratch1/sd/ymao90/r7.00_frame_0096_almo_B3LYP_dp20220721031457/ 
 Spawning Job For Fragment 1
 Done Job For Fragment 1
 calling putenv with: QCSCRATCH=/global/cscratch1/sd/ymao90 
 calling putenv with: QCTHREADS=16 
 Time for running child jobs:  CPU 0.52 s  wall 18132.48 s

 -----------------------------------------------------------------------
  General SCF calculation program by
  Eric Jon Sundstrom, Paul Horn, Yuezhi Mao, Dmitri Zuev, Alec White,
  David Stuck, Shaama M.S., Shane Yost, Joonho Lee, David Small,
  Daniel Levine, Susi Lehtola, Hugh Burton, Evgeny Epifanovsky,
  Bang C. Huynh
 -----------------------------------------------------------------------
Performing Restricted Closed Shell SCFMI
Doing General SCFMI
 Exchange:     0.2000 Hartree-Fock + 0.0800 Slater + 0.7200 B88
 Correlation:  0.1900 VWN1RPA + 0.8100 LYP
 Using Euler-Maclaurin-Lebedev (75,302) quadrature formula
performing fock build before subrot guess so that all methods have access
 using 16 threads for integral computing
 -------------------------------------------------------
 OpenMP Integral computing Module                
 Release: version 1.0, May 2013, Q-Chem Inc. Pittsburgh 
 -------------------------------------------------------
Printing subrot_rss_gen Method Specification:
Occupied Subspace Method is 0
Virtual Subspace Method is 0
Energy prior to optimization (guess energy) = -15893.840751030257
Begin Timing: Total SCF Calculation
begin iterations for algorithm: DIIS         
the SCF tolerance is set to 1.00e-08
    1  -15893.8407510303      2.64e-05     00000 
    2  -15893.8457860854      1.89e-05     00000 
    3  -15893.8465592422      1.43e-05     00000 
    4  -15893.8470556645      5.31e-06     00000 
    5  -15893.8471337851      2.21e-06     00000 
    6  -15893.8471489312      1.18e-06     00000 
    7  -15893.8471527598      8.64e-07     00000 
    8  -15893.8471542088      5.99e-07     00000 
    9  -15893.8471550397      3.01e-07     00000 
   10  -15893.8471552671      1.76e-07     00000 
   11  -15893.8471553475      1.19e-07     00000 
   12  -15893.8471553755      7.92e-08     00000 
   13  -15893.8471553898      4.38e-08     00000 
   14  -15893.8471553944      2.47e-08     00000 
   15  -15893.8471553960      1.35e-08     00000 
   16  -15893.8471553964      9.12e-09     00000 Convergence criterion met
write pseudocanon occs and virts to disk
write pseudocanon orbital energies to disk
Timing for Total SCF: 19185.00s (wall), 262355.27s (cpu)
SCFMI Energy  -15893.8471553964
<S^2>            0.00000
 Total energy in the final basis set =   -15893.8471553964
    ==================================================
        The end of Object-Oriented SCFman: SCFMI      
    ==================================================

 --------------------------------------------------------------

                    Orbital Energies (a.u.)
 --------------------------------------------------------------

 Alpha MOs
 -- Occupied --
-89.0207 -89.0182 -89.0172 -89.0141 -89.0132 -89.0110 -89.0105 -89.0035
-88.9999 -88.9951 -88.9931 -88.9928 -88.9913 -88.9890 -88.9887 -88.9870
-88.9862 -88.9858 -88.9818 -88.9817 -88.9794 -88.9772 -88.9746 -88.9733
-88.9628 -88.9623 -88.9589 -88.9497 -19.1354 -19.1336 -19.1269 -19.1259
-19.1250 -19.1226 -19.1220 -19.1201 -19.1166 -19.1150 -19.1104 -19.1093
-19.1079 -19.1067 -19.1067 -19.1063 -19.1061 -19.1000 -19.0987 -19.0957
-19.0957 -19.0944 -19.0941 -19.0941 -19.0924 -19.0917 -19.0818 -19.0642
-19.0569 -14.3502 -10.2746 -10.2390 -10.2371 -10.2364 -10.2363 -10.2353
-10.2346 -10.2342 -10.2338 -10.2322 -10.2321 -10.2316 -10.2273 -10.2199
-10.2196 -10.2174 -10.2166 -10.2157 -10.2157 -10.2156 -10.2145 -10.2129
-10.2116 -10.2109 -10.2103 -10.2102 -10.2084 -10.2081 -10.2080 -10.2076
-10.2071 -10.2051 -10.2049 -10.2031 -10.2025 -10.2009 -10.2005 -10.2002
-10.1990 -10.1969 -10.1933 -10.1931 -10.1918 -10.1904 -10.1895 -10.1895
-10.1876 -10.1862 -10.1858 -10.1857 -10.1804 -10.1777 -10.1767 -10.1756
-10.1756 -10.1746 -10.1736 -10.1712 -10.1670 -10.1666 -10.1648 -10.1648
-10.1618  -8.0666  -8.0637  -8.0631  -8.0604  -8.0592  -8.0569  -8.0567
 -8.0491  -8.0461  -8.0412  -8.0396  -8.0389  -8.0365  -8.0348  -8.0348
 -8.0341  -8.0327  -8.0321  -8.0281  -8.0278  -8.0254  -8.0233  -8.0208
 -8.0183  -8.0088  -8.0084  -8.0043  -7.9962  -6.0307  -6.0293  -6.0280
 -6.0275  -6.0268  -6.0261  -6.0247  -6.0245  -6.0236  -6.0236  -6.0224
 -6.0213  -6.0213  -6.0211  -6.0205  -6.0199  -6.0199  -6.0179  -6.0163
 -6.0143  -6.0138  -6.0132  -6.0123  -6.0105  -6.0089  -6.0067  -6.0055
 -6.0040  -6.0039  -6.0038  -6.0032  -6.0028  -6.0022  -6.0010  -5.9997
 -5.9991  -5.9991  -5.9987  -5.9984  -5.9977  -5.9977  -5.9971  -5.9970
 -5.9969  -5.9962  -5.9962  -5.9957  -5.9951  -5.9940  -5.9925  -5.9925
 -5.9924  -5.9922  -5.9916  -5.9911  -5.9910  -5.9900  -5.9898  -5.9897
 -5.9885  -5.9877  -5.9862  -5.9855  -5.9852  -5.9849  -5.9840  -5.9827
 -5.9826  -5.9815  -5.9810  -5.9781  -5.9756  -5.9731  -5.9728  -5.9718
 -5.9717  -5.9686  -5.9674  -5.9665  -5.9651  -5.9620  -5.9605  -5.9593
 -5.9533  -1.0449  -1.0429  -1.0401  -1.0398  -1.0360  -1.0351  -1.0345
 -1.0303  -1.0282  -1.0272  -1.0267  -1.0188  -1.0169  -1.0154  -1.0134
 -1.0132  -1.0122  -1.0108  -1.0105  -1.0100  -1.0092  -1.0079  -1.0028
 -0.9999  -0.9982  -0.9939  -0.9920  -0.9767  -0.9722  -0.9111  -0.8224
 -0.8189  -0.8161  -0.8156  -0.8155  -0.8151  -0.8139  -0.8117  -0.8048
 -0.8021  -0.8001  -0.7977  -0.7965  -0.7960  -0.7943  -0.7936  -0.7907
 -0.7887  -0.7878  -0.7848  -0.7813  -0.7782  -0.7758  -0.7739  -0.7729
 -0.7710  -0.7667  -0.7585  -0.7494  -0.7481  -0.7476  -0.7465  -0.7448
 -0.7441  -0.7390  -0.7358  -0.7326  -0.7304  -0.7277  -0.7262  -0.7234
 -0.7205  -0.7188  -0.7177  -0.7172  -0.7159  -0.7141  -0.7138  -0.7133
 -0.7107  -0.7083  -0.7061  -0.7046  -0.6987  -0.6969  -0.6936  -0.6898
 -0.6856  -0.6798  -0.6352  -0.6334  -0.6301  -0.6296  -0.6278  -0.6248
 -0.6237  -0.6226  -0.6179  -0.6117  -0.6079  -0.6075  -0.6073  -0.6063
 -0.6030  -0.6021  -0.6019  -0.6007  -0.6002  -0.5968  -0.5941  -0.5926
 -0.5911  -0.5887  -0.5878  -0.5866  -0.5796  -0.5749  -0.5706  -0.5688
 -0.5677  -0.5468  -0.5168  -0.5057  -0.5026  -0.4977  -0.4977  -0.4968
 -0.4956  -0.4909  -0.4906  -0.4899  -0.4892  -0.4880  -0.4876  -0.4862
 -0.4853  -0.4840  -0.4822  -0.4822  -0.4818  -0.4802  -0.4789  -0.4785
 -0.4779  -0.4776  -0.4764  -0.4761  -0.4750  -0.4746  -0.4738  -0.4737
 -0.4724  -0.4719  -0.4713  -0.4704  -0.4701  -0.4691  -0.4686  -0.4677
 -0.4674  -0.4647  -0.4641  -0.4639  -0.4630  -0.4627  -0.4625  -0.4606
 -0.4599  -0.4592  -0.4583  -0.4580  -0.4575  -0.4569  -0.4564  -0.4562
 -0.4551  -0.4540  -0.4538  -0.4534  -0.4529  -0.4527  -0.4518  -0.4508
 -0.4504  -0.4496  -0.4489  -0.4484  -0.4476  -0.4473  -0.4469  -0.4465
 -0.4463  -0.4453  -0.4446  -0.4431  -0.4430  -0.4428  -0.4421  -0.4411
 -0.4401  -0.4391  -0.4385  -0.4376  -0.4366  -0.4362  -0.4354  -0.4344
 -0.4341  -0.4336  -0.4329  -0.4318  -0.4313  -0.4303  -0.4299  -0.4293
 -0.4291  -0.4274  -0.4266  -0.4266  -0.4243  -0.4242  -0.4237  -0.4230
 -0.4224  -0.4219  -0.4217  -0.4213  -0.4210  -0.4201  -0.4198  -0.4188
 -0.4182  -0.4171  -0.4160  -0.4152  -0.4143  -0.4141  -0.4137  -0.4132
 -0.4119  -0.4114  -0.4112  -0.4109  -0.4097  -0.4085  -0.4078  -0.4069
 -0.4054  -0.4050  -0.4045  -0.4027  -0.4014  -0.4005  -0.4001  -0.3997
 -0.3993  -0.3991  -0.3981  -0.3977  -0.3966  -0.3961  -0.3960  -0.3948
 -0.3938  -0.3936  -0.3934  -0.3924  -0.3910  -0.3908  -0.3900  -0.3888
 -0.3875  -0.3867  -0.3859  -0.3857  -0.3856  -0.3845  -0.3842  -0.3838
 -0.3830  -0.3819  -0.3808  -0.3799  -0.3797  -0.3791  -0.3789  -0.3787
 -0.3768  -0.3752  -0.3740  -0.3729  -0.3725  -0.3719  -0.3718  -0.3702
 -0.3673  -0.3665  -0.3653  -0.3641  -0.3638  -0.3625  -0.3612  -0.3588
 -0.3569  -0.3567  -0.3555  -0.3545  -0.3541  -0.3541  -0.3537  -0.3531
 -0.3529  -0.3523  -0.3514  -0.3508  -0.3492  -0.3457  -0.3433  -0.3430
 -0.3421  -0.3400  -0.3397  -0.3386  -0.3349  -0.3333  -0.3293  -0.3262
 -0.3181  -0.3135  -0.3080  -0.2992  -0.2970  -0.2924  -0.2919  -0.2880
 -0.2877  -0.2861  -0.2818  -0.2797  -0.2777  -0.2724  -0.2708  -0.2703
 -0.2686  -0.2683  -0.2674  -0.2672  -0.2656  -0.2647  -0.2635  -0.2599
 -0.2586  -0.2573  -0.2568  -0.2562  -0.2556  -0.2543  -0.2543  -0.2535
 -0.2533  -0.2531  -0.2527  -0.2525  -0.2490  -0.2482  -0.2448  -0.2439
 -0.2429  -0.2423  -0.2408  -0.2395  -0.2351  -0.2328  -0.2307  -0.2305
 -0.2287  -0.2268  -0.2261  -0.2260  -0.2254  -0.2233  -0.2232  -0.2164
 -0.2161  -0.2132  -0.2118  -0.2102  -0.1973  -0.1947  -0.1836
 -- Virtual --
 -0.0392  -0.0367  -0.0295  -0.0287  -0.0227  -0.0212  -0.0196  -0.0182
 -0.0174  -0.0152  -0.0135  -0.0119  -0.0111  -0.0094  -0.0085  -0.0073
 -0.0059  -0.0047  -0.0035  -0.0023  -0.0015  -0.0004   0.0005   0.0017
  0.0035   0.0053   0.0058   0.0066   0.0068   0.0074   0.0080   0.0085
  0.0099   0.0107   0.0110   0.0121   0.0125   0.0128   0.0146   0.0151
  0.0152   0.0161   0.0170   0.0176   0.0179   0.0185   0.0188   0.0194
  0.0198   0.0203   0.0211   0.0217   0.0228   0.0239   0.0242   0.0246
  0.0251   0.0262   0.0269   0.0273   0.0284   0.0288   0.0294   0.0303
  0.0311   0.0312   0.0319   0.0327   0.0329   0.0337   0.0341   0.0344
  0.0350   0.0357   0.0366   0.0370   0.0378   0.0382   0.0389   0.0391
  0.0398   0.0412   0.0413   0.0419   0.0433   0.0441   0.0442   0.0450
  0.0456   0.0459   0.0462   0.0471   0.0475   0.0481   0.0485   0.0495
  0.0501   0.0509   0.0511   0.0515   0.0522   0.0531   0.0534   0.0545
  0.0548   0.0554   0.0558   0.0562   0.0572   0.0577   0.0580   0.0587
  0.0590   0.0605   0.0606   0.0611   0.0616   0.0623   0.0637   0.0643
  0.0650   0.0655   0.0661   0.0662   0.0676   0.0682   0.0685   0.0696
  0.0698   0.0705   0.0713   0.0721   0.0726   0.0727   0.0734   0.0740
  0.0745   0.0754   0.0757   0.0765   0.0771   0.0779   0.0789   0.0791
  0.0799   0.0801   0.0805   0.0815   0.0825   0.0827   0.0829   0.0839
  0.0848   0.0854   0.0856   0.0861   0.0878   0.0880   0.0884   0.0891
  0.0896   0.0903   0.0906   0.0911   0.0926   0.0930   0.0937   0.0941
  0.0948   0.0955   0.0956   0.0961   0.0972   0.0977   0.0985   0.0987
  0.0994   0.1001   0.1008   0.1018   0.1027   0.1030   0.1036   0.1041
  0.1048   0.1053   0.1064   0.1065   0.1071   0.1080   0.1084   0.1090
  0.1094   0.1102   0.1106   0.1110   0.1124   0.1130   0.1138   0.1143
  0.1148   0.1153   0.1163   0.1165   0.1168   0.1175   0.1176   0.1184
  0.1197   0.1201   0.1207   0.1212   0.1222   0.1223   0.1229   0.1236
  0.1236   0.1246   0.1249   0.1256   0.1266   0.1270   0.1276   0.1277
  0.1279   0.1294   0.1301   0.1304   0.1308   0.1315   0.1320   0.1338
  0.1342   0.1349   0.1352   0.1357   0.1369   0.1372   0.1375   0.1386
  0.1389   0.1394   0.1403   0.1408   0.1412   0.1417   0.1423   0.1430
  0.1436   0.1444   0.1453   0.1456   0.1458   0.1464   0.1471   0.1474
  0.1481   0.1486   0.1496   0.1506   0.1512   0.1513   0.1517   0.1521
  0.1530   0.1535   0.1542   0.1543   0.1552   0.1557   0.1563   0.1569
  0.1583   0.1584   0.1588   0.1599   0.1602   0.1604   0.1608   0.1612
  0.1620   0.1625   0.1631   0.1634   0.1639   0.1646   0.1654   0.1662
  0.1669   0.1672   0.1685   0.1691   0.1693   0.1699   0.1712   0.1714
  0.1720   0.1723   0.1729   0.1735   0.1742   0.1751   0.1759   0.1768
  0.1770   0.1777   0.1787   0.1794   0.1800   0.1807   0.1809   0.1814
  0.1818   0.1820   0.1834   0.1836   0.1844   0.1852   0.1859   0.1862
  0.1865   0.1873   0.1879   0.1887   0.1891   0.1897   0.1902   0.1911
  0.1916   0.1924   0.1926   0.1929   0.1931   0.1936   0.1938   0.1956
  0.1959   0.1964   0.1976   0.1979   0.1982   0.1986   0.1992   0.1999
  0.2004   0.2009   0.2015   0.2020   0.2031   0.2033   0.2038   0.2043
  0.2048   0.2051   0.2060   0.2063   0.2071   0.2081   0.2082   0.2086
  0.2092   0.2099   0.2110   0.2111   0.2118   0.2127   0.2132   0.2135
  0.2146   0.2149   0.2153   0.2157   0.2168   0.2172   0.2174   0.2180
  0.2187   0.2197   0.2203   0.2204   0.2214   0.2225   0.2227   0.2231
  0.2243   0.2245   0.2247   0.2253   0.2260   0.2271   0.2279   0.2287
  0.2289   0.2294   0.2299   0.2302   0.2310   0.2317   0.2326   0.2328
  0.2339   0.2350   0.2351   0.2357   0.2368   0.2370   0.2373   0.2378
  0.2385   0.2397   0.2408   0.2410   0.2415   0.2421   0.2431   0.2435
  0.2438   0.2451   0.2457   0.2458   0.2467   0.2470   0.2486   0.2491
  0.2496   0.2501   0.2502   0.2504   0.2510   0.2519   0.2526   0.2534
  0.2541   0.2550   0.2553   0.2562   0.2564   0.2574   0.2581   0.2587
  0.2593   0.2600   0.2609   0.2614   0.2619   0.2626   0.2633   0.2636
  0.2643   0.2645   0.2652   0.2659   0.2667   0.2675   0.2682   0.2687
  0.2699   0.2704   0.2706   0.2717   0.2723   0.2728   0.2737   0.2741
  0.2743   0.2752   0.2761   0.2767   0.2771   0.2772   0.2789   0.2796
  0.2797   0.2814   0.2822   0.2825   0.2838   0.2841   0.2849   0.2857
  0.2871   0.2884   0.2884   0.2891   0.2904   0.2907   0.2910   0.2916
  0.2919   0.2926   0.2933   0.2942   0.2949   0.2962   0.2965   0.2971
  0.2987   0.2994   0.2997   0.3001   0.3003   0.3018   0.3031   0.3035
  0.3037   0.3050   0.3057   0.3070   0.3082   0.3086   0.3095   0.3099
  0.3107   0.3115   0.3121   0.3131   0.3137   0.3146   0.3152   0.3156
  0.3177   0.3178   0.3189   0.3201   0.3202   0.3218   0.3222   0.3230
  0.3238   0.3247   0.3258   0.3265   0.3268   0.3277   0.3288   0.3301
  0.3313   0.3315   0.3322   0.3326   0.3339   0.3346   0.3353   0.3358
  0.3372   0.3377   0.3381   0.3395   0.3405   0.3412   0.3417   0.3428
  0.3434   0.3444   0.3448   0.3458   0.3471   0.3479   0.3485   0.3498
  0.3502   0.3514   0.3523   0.3525   0.3540   0.3543   0.3550   0.3557
  0.3563   0.3570   0.3575   0.3585   0.3588   0.3595   0.3609   0.3625
  0.3628   0.3634   0.3650   0.3651   0.3661   0.3666   0.3672   0.3687
  0.3700   0.3703   0.3713   0.3724   0.3729   0.3743   0.3750   0.3753
  0.3765   0.3776   0.3779   0.3788   0.3793   0.3807   0.3809   0.3822
  0.3829   0.3838   0.3846   0.3851   0.3859   0.3862   0.3878   0.3891
  0.3896   0.3904   0.3908   0.3923   0.3927   0.3933   0.3938   0.3950
  0.3957   0.3964   0.3975   0.3980   0.3985   0.3994   0.4011   0.4013
  0.4026   0.4038   0.4044   0.4062   0.4073   0.4075   0.4087   0.4092
  0.4095   0.4111   0.4115   0.4126   0.4131   0.4141   0.4156   0.4163
  0.4171   0.4181   0.4192   0.4201   0.4204   0.4210   0.4215   0.4235
  0.4247   0.4252   0.4256   0.4271   0.4276   0.4282   0.4285   0.4312
  0.4316   0.4334   0.4335   0.4352   0.4359   0.4377   0.4386   0.4400
  0.4404   0.4423   0.4428   0.4431   0.4439   0.4447   0.4455   0.4474
  0.4491   0.4501   0.4508   0.4518   0.4527   0.4535   0.4548   0.4557
  0.4569   0.4585   0.4588   0.4604   0.4622   0.4640   0.4648   0.4653
  0.4659   0.4667   0.4681   0.4699   0.4711   0.4722   0.4728   0.4740
  0.4744   0.4758   0.4774   0.4790   0.4796   0.4815   0.4836   0.4843
  0.4843   0.4856   0.4870   0.4892   0.4899   0.4912   0.4935   0.4944
  0.4948   0.4966   0.4987   0.5001   0.5007   0.5027   0.5041   0.5049
  0.5069   0.5085   0.5093   0.5108   0.5126   0.5144   0.5160   0.5168
  0.5185   0.5197   0.5206   0.5215   0.5229   0.5249   0.5262   0.5289
  0.5291   0.5301   0.5304   0.5322   0.5329   0.5334   0.5366   0.5370
  0.5381   0.5394   0.5405   0.5422   0.5441   0.5450   0.5461   0.5473
  0.5490   0.5508   0.5518   0.5531   0.5550   0.5554   0.5582   0.5602
  0.5608   0.5623   0.5660   0.5664   0.5670   0.5680   0.5693   0.5706
  0.5739   0.5755   0.5759   0.5763   0.5782   0.5785   0.5817   0.5834
  0.5837   0.5854   0.5864   0.5880   0.5883   0.5895   0.5908   0.5910
  0.5932   0.5938   0.5956   0.5971   0.5979   0.6003   0.6010   0.6015
  0.6033   0.6053   0.6066   0.6076   0.6089   0.6101   0.6121   0.6129
  0.6140   0.6149   0.6155   0.6169   0.6171   0.6203   0.6213   0.6218
  0.6230   0.6239   0.6262   0.6269   0.6278   0.6305   0.6315   0.6327
  0.6329   0.6352   0.6367   0.6373   0.6376   0.6384   0.6397   0.6420
  0.6432   0.6439   0.6451   0.6459   0.6464   0.6468   0.6480   0.6508
  0.6518   0.6525   0.6529   0.6548   0.6559   0.6564   0.6583   0.6592
  0.6597   0.6600   0.6615   0.6627   0.6634   0.6655   0.6662   0.6670
  0.6677   0.6693   0.6700   0.6709   0.6715   0.6724   0.6727   0.6738
  0.6755   0.6760   0.6787   0.6795   0.6802   0.6812   0.6821   0.6835
  0.6839   0.6851   0.6854   0.6873   0.6880   0.6887   0.6904   0.6904
  0.6910   0.6918   0.6937   0.6948   0.6955   0.6963   0.6980   0.6990
  0.7003   0.7015   0.7027   0.7034   0.7038   0.7048   0.7057   0.7081
  0.7091   0.7093   0.7114   0.7120   0.7147   0.7175   0.7179   0.7184
  0.7204   0.7216   0.7232   0.7239   0.7251   0.7260   0.7284   0.7295
  0.7299   0.7321   0.7324   0.7340   0.7345   0.7362   0.7376   0.7381
  0.7388   0.7418   0.7426   0.7447   0.7449   0.7453   0.7475   0.7492
  0.7500   0.7516   0.7531   0.7548   0.7561   0.7568   0.7577   0.7599
  0.7610   0.7619   0.7629   0.7651   0.7664   0.7666   0.7681   0.7699
  0.7708   0.7715   0.7729   0.7737   0.7774   0.7782   0.7811   0.7828
  0.7836   0.7851   0.7863   0.7873   0.7901   0.7919   0.7921   0.7931
  0.7953   0.7972   0.7977   0.7991   0.8014   0.8036   0.8041   0.8058
  0.8068   0.8084   0.8109   0.8120   0.8136   0.8141   0.8153   0.8163
  0.8178   0.8197   0.8205   0.8219   0.8229   0.8251   0.8263   0.8283
  0.8288   0.8295   0.8310   0.8327   0.8334   0.8348   0.8351   0.8362
  0.8375   0.8383   0.8388   0.8403   0.8414   0.8418   0.8447   0.8451
  0.8463   0.8468   0.8487   0.8491   0.8515   0.8524   0.8540   0.8553
  0.8559   0.8567   0.8572   0.8578   0.8601   0.8609   0.8630   0.8643
  0.8652   0.8665   0.8672   0.8680   0.8700   0.8713   0.8722   0.8737
  0.8738   0.8770   0.8779   0.8791   0.8807   0.8814   0.8831   0.8852
  0.8858   0.8870   0.8886   0.8891   0.8903   0.8926   0.8933   0.8943
  0.8950   0.8963   0.8975   0.8987   0.8994   0.9015   0.9016   0.9027
  0.9030   0.9054   0.9063   0.9079   0.9098   0.9110   0.9114   0.9125
  0.9132   0.9154   0.9166   0.9170   0.9192   0.9195   0.9226   0.9234
  0.9250   0.9254   0.9264   0.9277   0.9297   0.9308   0.9313   0.9323
  0.9344   0.9356   0.9368   0.9383   0.9390   0.9397   0.9412   0.9420
  0.9436   0.9441   0.9449   0.9460   0.9467   0.9486   0.9498   0.9516
  0.9526   0.9534   0.9540   0.9557   0.9564   0.9575   0.9591   0.9594
  0.9608   0.9622   0.9630   0.9633   0.9652   0.9658   0.9671   0.9683
  0.9700   0.9708   0.9717   0.9729   0.9743   0.9748   0.9752   0.9773
  0.9783   0.9791   0.9807   0.9823   0.9828   0.9837   0.9850   0.9860
  0.9873   0.9882   0.9892   0.9899   0.9908   0.9924   0.9932   0.9939
  0.9948   0.9960   0.9979   0.9999   1.0006   1.0017   1.0020   1.0029
  1.0045   1.0055   1.0060   1.0071   1.0079   1.0087   1.0097   1.0105
  1.0121   1.0127   1.0141   1.0151   1.0163   1.0167   1.0188   1.0207
  1.0212   1.0224   1.0243   1.0248   1.0250   1.0274   1.0281   1.0289
  1.0300   1.0310   1.0312   1.0326   1.0344   1.0347   1.0359   1.0362
  1.0376   1.0390   1.0392   1.0412   1.0417   1.0437   1.0443   1.0457
  1.0472   1.0473   1.0486   1.0496   1.0498   1.0520   1.0532   1.0544
  1.0555   1.0558   1.0566   1.0583   1.0589   1.0604   1.0615   1.0624
  1.0639   1.0652   1.0663   1.0672   1.0679   1.0692   1.0697   1.0723
  1.0733   1.0750   1.0757   1.0772   1.0783   1.0803   1.0807   1.0818
  1.0827   1.0835   1.0851   1.0866   1.0877   1.0887   1.0901   1.0925
  1.0930   1.0951   1.0960   1.0976   1.0987   1.0992   1.1012   1.1020
  1.1032   1.1051   1.1054   1.1065   1.1086   1.1110   1.1124   1.1134
  1.1150   1.1158   1.1168   1.1180   1.1196   1.1221   1.1229   1.1236
  1.1259   1.1272   1.1296   1.1303   1.1313   1.1316   1.1329   1.1339
  1.1349   1.1363   1.1380   1.1396   1.1412   1.1418   1.1432   1.1442
  1.1450   1.1461   1.1481   1.1488   1.1505   1.1514   1.1519   1.1545
  1.1550   1.1570   1.1573   1.1578   1.1602   1.1613   1.1632   1.1641
  1.1667   1.1686   1.1694   1.1699   1.1713   1.1726   1.1739   1.1755
  1.1761   1.1776   1.1787   1.1793   1.1814   1.1821   1.1839   1.1848
  1.1857   1.1867   1.1872   1.1896   1.1897   1.1936   1.1937   1.1955
  1.1962   1.1994   1.2001   1.2013   1.2029   1.2033   1.2053   1.2072
  1.2086   1.2089   1.2117   1.2145   1.2161   1.2167   1.2194   1.2216
  1.2234   1.2244   1.2263   1.2289   1.2307   1.2341   1.2355   1.2362
  1.2371   1.2406   1.2425   1.2431   1.2443   1.2477   1.2480   1.2509
  1.2543   1.2558   1.2578   1.2589   1.2594   1.2631   1.2634   1.2655
  1.2687   1.2709   1.2718   1.2741   1.2744   1.2770   1.2788   1.2807
  1.2838   1.2853   1.2869   1.2896   1.2918   1.2932   1.2951   1.2963
  1.2982   1.3000   1.3020   1.3034   1.3040   1.3084   1.3123   1.3137
  1.3148   1.3160   1.3190   1.3199   1.3230   1.3286   1.3293   1.3305
  1.3325   1.3341   1.3352   1.3377   1.3410   1.3419   1.3426   1.3468
  1.3477   1.3502   1.3512   1.3523   1.3530   1.3561   1.3575   1.3581
  1.3615   1.3620   1.3630   1.3646   1.3658   1.3685   1.3703   1.3707
  1.3722   1.3729   1.3751   1.3779   1.3806   1.3815   1.3829   1.3843
  1.3860   1.3866   1.3868   1.3898   1.3925   1.3943   1.3959   1.3980
  1.3989   1.4019   1.4058   1.4062   1.4064   1.4079   1.4088   1.4115
  1.4133   1.4149   1.4163   1.4173   1.4185   1.4207   1.4215   1.4226
  1.4248   1.4250   1.4268   1.4281   1.4298   1.4314   1.4330   1.4341
  1.4359   1.4371   1.4393   1.4406   1.4421   1.4430   1.4447   1.4459
  1.4465   1.4474   1.4500   1.4508   1.4524   1.4537   1.4554   1.4571
  1.4588   1.4614   1.4633   1.4637   1.4651   1.4664   1.4672   1.4692
  1.4701   1.4724   1.4735   1.4744   1.4784   1.4799   1.4807   1.4818
  1.4834   1.4845   1.4870   1.4880   1.4889   1.4910   1.4918   1.4944
  1.4948   1.4986   1.5011   1.5026   1.5056   1.5064   1.5076   1.5101
  1.5111   1.5129   1.5130   1.5158   1.5171   1.5193   1.5206   1.5223
  1.5254   1.5265   1.5296   1.5318   1.5344   1.5351   1.5399   1.5420
  1.5438   1.5452   1.5475   1.5482   1.5511   1.5568   1.5585   1.5596
  1.5612   1.5620   1.5651   1.5682   1.5715   1.5738   1.5767   1.5802
  1.5832   1.5858   1.5876   1.5921   1.5940   1.5968   1.6015   1.6041
  1.6079   1.6121   1.6145   1.6202   1.6262   1.6277   1.6295   1.6328
  1.6340   1.6374   1.6387   1.6411   1.6469   1.6523   1.6542   1.6564
  1.6600   1.6612   1.6627   1.6636   1.6673   1.6710   1.6737   1.6744
  1.6763   1.6773   1.6794   1.6824   1.6844   1.6853   1.6868   1.6886
  1.6894   1.6905   1.6914   1.6924   1.6934   1.6951   1.6958   1.6964
  1.6977   1.6998   1.7001   1.7020   1.7030   1.7043   1.7062   1.7070
  1.7089   1.7094   1.7100   1.7116   1.7117   1.7130   1.7135   1.7159
  1.7173   1.7188   1.7201   1.7216   1.7232   1.7251   1.7260   1.7274
  1.7287   1.7323   1.7326   1.7344   1.7361   1.7368   1.7377   1.7387
  1.7390   1.7408   1.7426   1.7432   1.7444   1.7450   1.7463   1.7478
  1.7496   1.7507   1.7517   1.7532   1.7546   1.7554   1.7572   1.7575
  1.7584   1.7597   1.7620   1.7629   1.7639   1.7662   1.7668   1.7689
  1.7704   1.7716   1.7735   1.7754   1.7756   1.7771   1.7795   1.7810
  1.7822   1.7836   1.7852   1.7859   1.7883   1.7892   1.7906   1.7926
  1.7932   1.7947   1.7958   1.7980   1.7996   1.8001   1.8027   1.8054
  1.8079   1.8088   1.8122   1.8156   1.8199   1.8222   1.8240   1.8252
  1.8283   1.8288   1.8329   1.8346   1.8365   1.8381   1.8442   1.8465
  1.8478   1.8511   1.8530   1.8569   1.8574   1.8613   1.8621   1.8629
  1.8651   1.8661   1.8671   1.8697   1.8711   1.8726   1.8747   1.8764
  1.8790   1.8811   1.8826   1.8854   1.8858   1.8872   1.8895   1.8905
  1.8921   1.8930   1.8937   1.8962   1.8973   1.8989   1.8995   1.9025
  1.9030   1.9046   1.9070   1.9082   1.9084   1.9095   1.9119   1.9129
  1.9144   1.9155   1.9162   1.9166   1.9186   1.9212   1.9214   1.9230
  1.9240   1.9245   1.9260   1.9279   1.9289   1.9295   1.9314   1.9343
  1.9347   1.9363   1.9368   1.9387   1.9409   1.9422   1.9436   1.9455
  1.9466   1.9475   1.9501   1.9517   1.9526   1.9535   1.9586   1.9599
  1.9616   1.9628   1.9655   1.9687   1.9701   1.9742   1.9762   1.9771
  1.9810   1.9857   1.9881   1.9903   1.9973   2.0000   2.0102   2.0128
  2.0181   2.0256   2.0275   2.0324   2.0422   2.0462   2.0526   2.0533
  2.0555   2.0586   2.0591   2.0595   2.0602   2.0643   2.0649   2.0687
  2.0697   2.0714   2.0727   2.0735   2.0794   2.0808   2.0824   2.0827
  2.0832   2.0850   2.0854   2.0863   2.0882   2.0888   2.0892   2.0910
  2.0912   2.0930   2.0946   2.0953   2.0977   2.0990   2.1003   2.1015
  2.1020   2.1037   2.1055   2.1061   2.1068   2.1093   2.1103   2.1112
  2.1120   2.1136   2.1152   2.1157   2.1217   2.1230   2.1253   2.1282
  2.1298   2.1316   2.1338   2.1374   2.1392   2.1424   2.1451   2.1466
  2.1525   2.1537   2.1568   2.1632   2.1681   2.1716   2.1721   2.1725
  2.1737   2.1794   2.1811   2.1830   2.1882   2.1893   2.1908   2.1911
  2.1925   2.1958   2.1983   2.1995   2.2013   2.2032   2.2047   2.2120
  2.2175   2.2201   2.2209   2.2214   2.2228   2.2234   2.2250   2.2267
  2.2274   2.2282   2.2295   2.2304   2.2309   2.2323   2.2338   2.2343
  2.2357   2.2379   2.2384   2.2393   2.2406   2.2430   2.2442   2.2453
  2.2466   2.2473   2.2481   2.2494   2.2506   2.2517   2.2541   2.2547
  2.2557   2.2564   2.2580   2.2589   2.2594   2.2608   2.2613   2.2624
  2.2634   2.2642   2.2649   2.2662   2.2666   2.2681   2.2686   2.2688
  2.2698   2.2711   2.2717   2.2727   2.2734   2.2742   2.2753   2.2775
  2.2784   2.2792   2.2797   2.2806   2.2820   2.2830   2.2837   2.2844
  2.2863   2.2880   2.2890   2.2893   2.2904   2.2909   2.2919   2.2926
  2.2929   2.2944   2.2951   2.2964   2.2972   2.2975   2.2987   2.2995
  2.3005   2.3021   2.3035   2.3044   2.3052   2.3062   2.3075   2.3092
  2.3102   2.3115   2.3132   2.3135   2.3144   2.3154   2.3168   2.3171
  2.3198   2.3210   2.3216   2.3223   2.3262   2.3276   2.3282   2.3293
  2.3301   2.3320   2.3328   2.3356   2.3360   2.3379   2.3386   2.3405
  2.3422   2.3429   2.3445   2.3473   2.3480   2.3488   2.3495   2.3498
  2.3520   2.3535   2.3555   2.3575   2.3584   2.3590   2.3629   2.3643
  2.3653   2.3670   2.3689   2.3707   2.3729   2.3751   2.3770   2.3784
  2.3792   2.3815   2.3834   2.3847   2.3869   2.3877   2.3898   2.3913
  2.3960   2.3995   2.4015   2.4062   2.4079   2.4096   2.4136   2.4192
  2.4194   2.4251   2.4306   2.4318   2.4365   2.4501   2.4849   2.4877
  2.5029   2.5476   2.5629   2.5920   2.6861   2.7562   2.7667   2.7945
  2.8257   2.8327   2.8391   2.8411   2.8422   2.8459   2.8467   2.8475
  2.8479   2.8494   2.8529   2.8542   2.8571   2.8584   2.8595   2.8608
  2.8631   2.8673   2.8707   2.8730   2.8760   2.8804   2.8829   2.8836
  2.8866   2.8919   2.8937   2.8993   2.9022   2.9061   2.9105   2.9205
  2.9724   3.1201   3.2788   3.9479   3.9536   3.9622   3.9655   3.9760
  3.9778   3.9803   3.9846   3.9874   3.9894   3.9902   3.9916   3.9940
  3.9958   4.0040   4.0052   4.0064   4.0123   4.0154   4.0167   4.0195
  4.0203   4.0242   4.0297   4.0323   4.0355   4.0440   4.0475   4.2071
  4.2229   4.2286   4.2367   4.2378   4.2459   4.2520   4.2554   4.2569
  4.2623   4.2628   4.2646   4.2675   4.2695   4.2711   4.2757   4.2802
  4.2820   4.2842   4.2882   4.2897   4.2928   4.2949   4.2956   4.2996
  4.3000   4.3016   4.3030   4.3048   4.3077   4.3094   4.3120   4.3187
  4.3200   4.3215   4.3243   4.3272   4.3295   4.3339   4.3347   4.3359
  4.3371   4.3403   4.3447   4.3466   4.3498   4.3536   4.3554   4.3576
  4.3625   4.3666   4.3692   4.3742   4.3751   4.3772   4.3812   4.3833
  4.3867   4.3904   4.3925   4.3963   4.3982   4.4034   4.4047   4.4083
  4.4102   4.4157   4.4221   4.4255   4.4319   4.4389   4.4411   4.4443
  4.4611   4.4650   4.4684   4.4874   4.4963   4.5078   4.5157   4.5182
  4.5578   4.5660   4.5808   4.5927   4.6214   4.6511   4.6824   4.7253
  4.7448   4.7617   4.8075   4.9349
 --------------------------------------------------------------

          Ground-State Mulliken Net Atomic Charges

     Atom                 Charge (a.u.)
  ----------------------------------------
      1 C                    -0.181543
      2 C                    -0.467412
      3 C                    -0.442785
      4 C                    -0.315067
      5 C                    -0.385504
      6 C                    -0.615633
      7 H                     0.228308
      8 H                     0.212733
      9 H                     0.209108
     10 H                     0.223604
     11 H                     0.199532
     12 H                     0.190815
     13 H                     0.211708
     14 H                     0.214386
     15 H                     0.232621
     16 H                     0.229830
     17 H                     0.178742
     18 N                    -0.354982
     19 H                     0.436176
     20 C                     0.381292
     21 H                     0.180356
     22 O                    -0.566286
     23 C                    -0.755141
     24 H                     0.277531
     25 H                     0.232129
     26 H                     0.255893
     27 S                     0.857727
     28 C                    -0.951697
     29 H                     0.275535
     30 H                     0.243061
     31 H                     0.265321
     32 O                    -0.656902
     33 C                    -0.833251
     34 H                     0.242351
     35 H                     0.225991
     36 H                     0.317402
     37 S                     0.923393
     38 C                    -0.800016
     39 H                     0.237087
     40 H                     0.240011
     41 H                     0.287162
     42 O                    -0.781658
     43 C                    -0.799051
     44 H                     0.228875
     45 H                     0.250318
     46 H                     0.253403
     47 S                     1.067689
     48 C                    -1.028322
     49 H                     0.247965
     50 H                     0.237917
     51 H                     0.240189
     52 O                    -0.640742
     53 C                    -0.695549
     54 H                     0.269527
     55 H                     0.274013
     56 H                     0.273073
     57 S                     0.524996
     58 C                    -0.717888
     59 H                     0.241535
     60 H                     0.279715
     61 H                     0.275572
     62 O                    -0.685609
     63 C                    -0.766423
     64 H                     0.245136
     65 H                     0.231906
     66 H                     0.219751
     67 S                     0.828110
     68 C                    -0.926820
     69 H                     0.241235
     70 H                     0.303452
     71 H                     0.291719
     72 O                    -0.710551
     73 C                    -0.894613
     74 H                     0.299507
     75 H                     0.254807
     76 H                     0.277101
     77 S                     0.995218
     78 C                    -0.955100
     79 H                     0.266665
     80 H                     0.239670
     81 H                     0.246165
     82 O                    -0.706802
     83 C                    -1.079618
     84 H                     0.244315
     85 H                     0.245096
     86 H                     0.258330
     87 S                     1.265820
     88 C                    -0.936886
     89 H                     0.291122
     90 H                     0.266057
     91 H                     0.273711
     92 O                    -0.761455
     93 C                    -0.894512
     94 H                     0.298665
     95 H                     0.270603
     96 H                     0.250327
     97 S                     0.724432
     98 C                    -0.856798
     99 H                     0.294625
    100 H                     0.306366
    101 H                     0.250186
    102 O                    -0.649995
    103 C                    -0.952796
    104 H                     0.266715
    105 H                     0.225852
    106 H                     0.275324
    107 S                     0.878512
    108 C                    -0.900694
    109 H                     0.263635
    110 H                     0.266679
    111 H                     0.242908
    112 O                    -0.616859
    113 C                    -0.969100
    114 H                     0.271695
    115 H                     0.261477
    116 H                     0.269030
    117 S                     0.838031
    118 C                    -0.735759
    119 H                     0.256290
    120 H                     0.225071
    121 H                     0.255574
    122 O                    -0.652767
    123 C                    -0.853032
    124 H                     0.246419
    125 H                     0.244848
    126 H                     0.260453
    127 S                     1.023223
    128 C                    -0.953964
    129 H                     0.234944
    130 H                     0.227769
    131 H                     0.335465
    132 O                    -0.702786
    133 C                    -1.056122
    134 H                     0.290464
    135 H                     0.274848
    136 H                     0.223629
    137 S                     1.276358
    138 C                    -1.192820
    139 H                     0.249481
    140 H                     0.285974
    141 H                     0.298315
    142 O                    -0.684443
    143 C                    -0.906872
    144 H                     0.237518
    145 H                     0.245813
    146 H                     0.258819
    147 S                     1.049305
    148 C                    -0.987007
    149 H                     0.250742
    150 H                     0.228660
    151 H                     0.314834
    152 O                    -0.735718
    153 C                    -0.994008
    154 H                     0.263554
    155 H                     0.240161
    156 H                     0.274125
    157 S                     1.130494
    158 C                    -1.000735
    159 H                     0.272862
    160 H                     0.248759
    161 H                     0.226123
    162 O                    -0.696508
    163 C                    -0.838779
    164 H                     0.230149
    165 H                     0.264246
    166 H                     0.242076
    167 S                     0.753072
    168 C                    -0.722604
    169 H                     0.243811
    170 H                     0.262082
    171 H                     0.270147
    172 O                    -0.685231
    173 C                    -0.729233
    174 H                     0.243632
    175 H                     0.249780
    176 H                     0.243893
    177 S                     0.348819
    178 C                    -0.626566
    179 H                     0.297837
    180 H                     0.260449
    181 H                     0.266423
    182 O                    -0.548214
    183 C                    -0.718311
    184 H                     0.270972
    185 H                     0.215174
    186 H                     0.262791
    187 S                     0.689203
    188 C                    -0.766705
    189 H                     0.247569
    190 H                     0.271956
    191 H                     0.233659
    192 O                    -0.703027
    193 C                    -0.734018
    194 H                     0.262252
    195 H                     0.241248
    196 H                     0.239369
    197 S                     0.587715
    198 C                    -0.772670
    199 H                     0.238252
    200 H                     0.299985
    201 H                     0.237241
    202 O                    -0.555505
    203 C                    -0.719444
    204 H                     0.261286
    205 H                     0.204309
    206 H                     0.280203
    207 S                     0.846478
    208 C                    -0.880220
    209 H                     0.237762
    210 H                     0.272008
    211 H                     0.246577
    212 O                    -0.748788
    213 C                    -0.894788
    214 H                     0.273546
    215 H                     0.207260
    216 H                     0.299550
    217 S                     0.823212
    218 C                    -1.047146
    219 H                     0.250241
    220 H                     0.293409
    221 H                     0.257435
    222 O                    -0.534190
    223 C                    -0.716337
    224 H                     0.216343
    225 H                     0.276581
    226 H                     0.232032
    227 S                     0.790020
    228 C                    -0.838152
    229 H                     0.219729
    230 H                     0.264300
    231 H                     0.273687
    232 O                    -0.779671
    233 C                    -0.857817
    234 H                     0.253108
    235 H                     0.228663
    236 H                     0.264904
    237 S                     0.902235
    238 C                    -0.808521
    239 H                     0.271911
    240 H                     0.194708
    241 H                     0.256001
    242 O                    -0.686906
    243 C                    -0.733973
    244 H                     0.208833
    245 H                     0.269513
    246 H                     0.283058
    247 S                     0.714413
    248 C                    -0.811456
    249 H                     0.270460
    250 H                     0.287752
    251 H                     0.238260
    252 O                    -0.682884
    253 C                    -0.944731
    254 H                     0.290207
    255 H                     0.231976
    256 H                     0.235474
    257 S                     0.985459
    258 C                    -0.861236
    259 H                     0.228134
    260 H                     0.296085
    261 H                     0.234563
    262 O                    -0.682856
    263 C                    -0.923540
    264 H                     0.253815
    265 H                     0.244431
    266 H                     0.278870
    267 S                     1.008802
    268 C                    -0.912647
    269 H                     0.226414
    270 H                     0.240339
    271 H                     0.266941
    272 O                    -0.690093
    273 C                    -0.844226
    274 H                     0.244505
    275 H                     0.249770
    276 H                     0.292536
    277 S                     0.652250
    278 C                    -0.811594
    279 H                     0.269333
    280 H                     0.287392
    281 H                     0.262832
    282 O                    -0.621287
    283 C                    -0.858531
    284 H                     0.224155
    285 H                     0.280954
    286 H                     0.291407
    287 S                     0.831276
    288 C                    -1.039502
    289 H                     0.215815
    290 H                     0.236979
    291 H                     0.320903
    292 O                    -0.625169
    293 C                    -0.815407
    294 H                     0.251111
    295 H                     0.256077
    296 H                     0.234842
    297 S                     0.428420
    298 C                    -0.544977
    299 H                     0.243624
    300 H                     0.299135
    301 H                     0.230657
    302 O                    -0.610961
  ----------------------------------------
  Sum of atomic charges =     0.000000

[...]
    2   1.4298540   1.5938508  -0.4121335   2.9590304   2.4594253   0.3026132
    3  -2.6322399  -4.0843621  -1.6658028  -1.8663298  -1.7133861  -1.6727082
          229         230         231         232         233         234
    1   2.7983826   4.0345787   1.2899204   0.9342089  -1.5909673  -0.1027487
    2   0.7842928   0.5970543  -0.4533300   1.8309302  -1.3407924  -2.4587973
    3  -3.5326068  -0.0559626  -1.7827650   1.1692421   2.7863595   2.9424157
          235         236         237         238         239         240
    1  -2.3027745  -3.2045007  -1.2356445  -3.5309514  -4.1740780  -2.9625500
    2   0.5049185  -2.4644699  -1.1536564  -0.6614554  -2.0350927   0.7491641
    3   2.7495332   2.5240869   0.5589281   0.2281684   0.9957458   1.4762325
          241         242         243         244         245         246
    1  -3.1336410  -2.2328167   0.0182266  -0.6085805   1.1745209  -0.7205644
    2  -0.8414380  -4.0169136   2.6875933   3.7506808   0.7628678   3.3180663
    3  -1.9292813  -0.1445588   0.2810560   1.6847319   0.2369128  -1.3383537
          247         248         249         250         251         252
    1  -1.7675651  -0.8123041  -2.4242647   0.9655448  -1.2837597  -1.1611140
    2   2.3979522   0.6862922   0.1625256  -0.1916571   2.3002772   0.2545670
    3   0.6240297   1.3496511   1.2657449   0.3629779   2.4295382  -1.8171976
          253         254         255         256         257         258
    1  -2.9846688  -1.6860773  -2.8304233  -4.3350173  -1.8925584  -0.8816453
    2   1.8189592   3.0017614  -0.1635298   1.6392320   1.3438260   0.1840948
    3  -1.9426792  -1.9339207  -3.3456157  -0.6849664  -0.4528603  -2.0983781
          259         260         261         262         263         264
    1  -2.2815211  -0.6425240  -0.0965723  -3.7932461   1.1021944   0.1818268
    2  -0.8078780   1.7299467  -0.9453252  -1.6012127   1.6645400   3.4905415
    3  -3.3542195  -2.1489821  -0.6444587  -0.8430710   2.4967434   1.8708145
          265         266         267         268         269         270
    1   1.3647849   1.8792549  -1.0721183  -1.1808233  -1.0260910  -2.9257958
    2   1.0987979   0.1138550   1.3956673   1.5102600   3.3532434   0.4780032
    3   4.2642251   1.4033888   1.6919630   3.4468615   2.4359668   2.9834469
          271         272         273         274         275         276
    1   0.2609710  -0.2497031  -0.0875071   0.6142005   0.6769284  -1.4645884
    2   0.3914771  -1.7197200  -3.3489968  -3.1633513  -4.6929179  -2.5119542
    3   4.3954242   3.1954277  -0.5658246  -2.3105889   0.3422373   0.2439060
          277         278         279         280         281         282
    1   1.0218539   0.3930062  -1.3190750   1.6401687   1.1260912   3.6762090
    2  -1.7713334  -0.3610639  -0.3088074   0.8675954  -1.5898255  -2.6641708
    3   0.4203261  -1.0824275  -0.4874030  -0.4201638  -2.4868502  -0.7502877
          283         284         285         286         287         288
    1  -0.5028294  -1.6378567  -1.3458632   1.0689817   0.5012172  -1.4484290
    2  -2.1677854  -2.0217457  -1.2801534  -2.7058837  -0.1674614   0.3797080
    3   2.1525894   3.8532209   0.2771766   2.0482563   2.4709361   2.1669743
          289         290         291         292         293         294
    1  -2.1476466  -0.2645666  -1.3400012   0.8643486  -2.3336064  -2.8241824
    2  -1.1574584   1.7574926   0.6258939   0.4116457   2.6832220   3.0079349
    3   3.5421739   2.2548877   0.1195451  -0.9630654   1.6771273   0.0236491
          295         296         297         298         299         300
    1  -3.0166182  -0.8158634  -0.1293057  -0.1565781   0.5808575   1.0292827
    2   1.1631559   3.9909158   1.9509542   2.6629653   3.8095877   0.6897690
    3   2.9226892   2.2412191   1.6319918  -0.3223436   0.5528715  -0.8363305
          301         302
    1  -1.9686412  -1.7213965
    2   2.9015869  -0.4093624
    3  -0.6602872   0.4345477
 EField
            1           2           3           4           5           6
    1  -0.0011560  -0.0009367  -0.0002731  -0.0027863  -0.0014676   0.0000956
    2  -0.0032354  -0.0037423  -0.0014076  -0.0005297  -0.0013671   0.0006385
    3  -0.0021292   0.0032076   0.0022270   0.0014458   0.0003687  -0.0027935
            7           8           9          10          11          12
    1  -0.0014636  -0.0033241  -0.0008763  -0.0029521  -0.0025417  -0.0029949
    2  -0.0011106  -0.0039743  -0.0005197  -0.0065338   0.0007151   0.0004808
    3   0.0032758   0.0029223  -0.0035440  -0.0041585   0.0006017   0.0039176
           13          14          15          16          17          18
    1  -0.0035263  -0.0016615   0.0010196   0.0026523   0.0035351   0.0006359
    2  -0.0013625  -0.0062993   0.0017802   0.0049566   0.0023077  -0.0061251
    3  -0.0016206   0.0020836  -0.0052345  -0.0053776   0.0005056   0.0098036
           19          20          21          22          23          24
    1  -0.0001476  -0.0014687  -0.0030924  -0.0025975  -0.0038339   0.0127809
    2  -0.0037743  -0.0129225  -0.0158585  -0.0125435  -0.0024724  -0.0236054
    3   0.0118268   0.0106778   0.0111273   0.0047537  -0.0066763   0.0127370
           25          26          27          28          29          30
    1  -0.0360471   0.0053829  -0.0093408  -0.0027014   0.0221620  -0.0313692
    2  -0.0125968  -0.0122219   0.0037469   0.0063523  -0.0019235  -0.0053874
    3   0.0025040  -0.0358154   0.0606457  -0.0076575  -0.0232356  -0.0126919
           31          32          33          34          35          36
    1  -0.0024834   0.1026127  -0.0041936  -0.0186276   0.0272014  -0.0272149
    2   0.0223960  -0.0074825  -0.0108042  -0.0180179  -0.0217462   0.0024336
    3   0.0229639  -0.0371885   0.0048874  -0.0209850   0.0079273   0.0215294
           37          38          39          40          41          42
    1   0.0393945  -0.0013991   0.0286629   0.0042106  -0.0300869  -0.1025663
    2   0.0009956   0.0025528  -0.0129152   0.0327711  -0.0055856   0.0307916
    3  -0.0280600   0.0095051   0.0136778   0.0047344   0.0117987  -0.0204204
           43          44          45          46          47          48
    1  -0.0072791  -0.0182425  -0.0150294  -0.0052668   0.0412404   0.0004581
    2   0.0060652  -0.0209999   0.0248402  -0.0083717   0.0079682  -0.0035501
    3  -0.0028661   0.0150236  -0.0137268  -0.0279799  -0.0491896   0.0054601
           49          50          51          52          53          54
    1   0.0231291  -0.0220518  -0.0029920   0.0015103  -0.0063309  -0.0323753
    2  -0.0099172  -0.0133960  -0.0200599   0.0635051  -0.0105247  -0.0203057
    3   0.0219113   0.0215970  -0.0252794   0.0891472  -0.0011397   0.0173711
           55          56          57          58          59          60
    1  -0.0136458   0.0233831   0.0248812  -0.0060832  -0.0251865   0.0177100
    2   0.0066227  -0.0237157  -0.0250341   0.0059475  -0.0250131   0.0248304
    3  -0.0175284  -0.0093378   0.0417427   0.0082089   0.0224384   0.0144778
           61          62          63          64          65          66
    1   0.0012924   0.0552352  -0.0056716  -0.0020532  -0.0203938  -0.0184160
    2   0.0080099   0.0561912   0.0031028   0.0162808  -0.0264672   0.0072707
    3  -0.0221599  -0.0779615   0.0021441  -0.0296292  -0.0004524   0.0263630
           67          68          69          70          71          72
    1   0.0245070   0.0018778  -0.0075737   0.0291441  -0.0209978   0.0415529
    2  -0.0318026  -0.0043778  -0.0327601  -0.0080421   0.0112719   0.0965240
    3  -0.0403727   0.0110681  -0.0032173   0.0131631   0.0232769   0.0322981
           73          74          75          76          77          78
    1   0.0109408  -0.0092662   0.0241552   0.0238099  -0.0417743   0.0048640
    2  -0.0008438  -0.0097817  -0.0262722   0.0235393  -0.0390992  -0.0015514
    3  -0.0036667   0.0161616  -0.0175701  -0.0101716  -0.0022132  -0.0098069
           79          80          81          82          83          84
    1   0.0084670  -0.0302561   0.0248249  -0.0176921  -0.0041891  -0.0119919
    2  -0.0278660   0.0041137   0.0244332   0.1013617  -0.0057334   0.0211681
    3  -0.0267363  -0.0110107   0.0111436   0.0422941   0.0017440  -0.0170577
           85          86          87          88          89          90
    1  -0.0006517  -0.0193588   0.0366685  -0.0007553  -0.0187838   0.0141952
    2  -0.0243047  -0.0047806   0.0139377  -0.0092983  -0.0028133  -0.0310179
    3  -0.0174362   0.0242542  -0.0399751   0.0033742   0.0275888  -0.0165325
           91          92          93          94          95          96
    1   0.0306440  -0.0169076  -0.0023796   0.0024075   0.0186899  -0.0317758
    2  -0.0076643   0.0501552  -0.0117938  -0.0310783  -0.0102002   0.0028993
    3   0.0098495   0.0942906   0.0011522  -0.0102865   0.0229709   0.0087603
           97          98          99         100         101         102
    1   0.0537246   0.0000347   0.0243255  -0.0060064  -0.0317604  -0.0790098
    2  -0.0007921   0.0082118  -0.0019681   0.0333916  -0.0004571   0.0033481
    3  -0.0047983   0.0043628   0.0274901  -0.0083108  -0.0041902  -0.0752201
          103         104         105         106         107         108
    1  -0.0018297   0.0234452  -0.0207807   0.0012960   0.0020850  -0.0055878
    2  -0.0028294   0.0062478   0.0089613  -0.0265552   0.0541630  -0.0000801
    3   0.0062302   0.0149188   0.0278411  -0.0143991   0.0063562  -0.0065739
          109         110         111         112         113         114
    1  -0.0258138   0.0076864  -0.0186684   0.0680212   0.0020309   0.0224305
    2   0.0069776  -0.0286139   0.0146358  -0.0626054   0.0112907   0.0002056
    3  -0.0332836  -0.0064241   0.0198113  -0.0570039   0.0049546  -0.0174899
          115         116         117         118         119         120
    1  -0.0195587   0.0068557  -0.0275649  -0.0021807  -0.0017600   0.0039630
    2   0.0270444   0.0168310  -0.0139746   0.0024256  -0.0276883   0.0155653
    3  -0.0061339   0.0306251  -0.0514435   0.0079420   0.0163719   0.0260082
          121         122         123         124         125         126
    1  -0.0258890   0.0964417  -0.0033434   0.0031029   0.0264164  -0.0290033
    2   0.0184183  -0.0473162   0.0042406  -0.0174987   0.0136869   0.0156144
    3  -0.0078939   0.0245494   0.0050585   0.0268140   0.0133203   0.0001982
          127         128         129         130         131         132
    1   0.0411792   0.0047863  -0.0151279   0.0386757  -0.0049682  -0.1012112
    2  -0.0384625   0.0050737   0.0247748   0.0188006  -0.0127617  -0.0193743
    3  -0.0049101  -0.0094947   0.0119039   0.0046565  -0.0328857  -0.0345173
          133         134         135         136         137         138
    1   0.0064048   0.0120769   0.0194671   0.0249518  -0.0227572  -0.0011686
    2  -0.0000258   0.0125389  -0.0221739   0.0083093   0.0430054   0.0019186
    3   0.0030720   0.0254034   0.0107852  -0.0247042  -0.0236253   0.0100819
          139         140         141         142         143         144
    1  -0.0309684   0.0231924   0.0036087  -0.0100386   0.0004434  -0.0034507
    2  -0.0104234  -0.0204476   0.0316484  -0.1057719   0.0017467   0.0295564
    3   0.0013717   0.0099518   0.0101975  -0.0276226  -0.0054468  -0.0174753
          145         146         147         148         149         150
    1   0.0342148  -0.0260154   0.0319249   0.0065128  -0.0046282  -0.0077302
    2   0.0015924  -0.0128093   0.0250913  -0.0096861  -0.0176589  -0.0076245
    3  -0.0084740  -0.0167255   0.0340029   0.0038695   0.0275709  -0.0283915
          151         152         153         154         155         156
    1   0.0328997  -0.1092188  -0.0044722  -0.0277497  -0.0081341   0.0144773
    2  -0.0149590  -0.0041094   0.0061789  -0.0074741   0.0133632   0.0258778
    3   0.0014668   0.0034661  -0.0029926  -0.0192128   0.0266730  -0.0083186
          157         158         159         160         161         162
    1   0.0008460  -0.0015950   0.0164747  -0.0320268   0.0032337   0.0856995
    2  -0.0334292  -0.0012202   0.0148943  -0.0066809  -0.0311249   0.0477008
    3  -0.0486632   0.0061139   0.0249086  -0.0058859   0.0079053   0.0459525
          163         164         165         166         167         168
    1  -0.0050890  -0.0199121  -0.0114375   0.0183819   0.0312255  -0.0064775
    2   0.0014020   0.0257436  -0.0217617   0.0171102   0.0398448  -0.0029476
    3   0.0051418  -0.0095675   0.0225114   0.0177877  -0.0348014  -0.0017074
          169         170         171         172         173         174
    1  -0.0109600  -0.0214182   0.0168609   0.0546349  -0.0048221   0.0159552
    2  -0.0225664   0.0247976  -0.0111666  -0.0756463   0.0043112   0.0075737
    3   0.0172386  -0.0155290  -0.0208308   0.0593748  -0.0020082  -0.0217791
          175         176         177         178         179         180
    1  -0.0200357  -0.0266517  -0.0237337   0.0075248   0.0258547   0.0229420
    2  -0.0166424   0.0242008  -0.0150751   0.0065173  -0.0003834   0.0115571
    3  -0.0160833   0.0001154   0.0416877   0.0011027   0.0258784  -0.0256567
          181         182         183         184         185         186
    1  -0.0131748   0.0639039  -0.0040039  -0.0291188   0.0144233  -0.0268438
    2   0.0270178  -0.0564714   0.0048337   0.0074730   0.0307741  -0.0049561
    3   0.0167807  -0.0692297  -0.0031956   0.0146174   0.0193848  -0.0213786
          187         188         189         190         191         192
    1   0.0204545   0.0027652   0.0215457  -0.0065766   0.0079883  -0.0626874
    2  -0.0119361   0.0008218  -0.0225819  -0.0025422   0.0312472  -0.0691794
    3   0.0508482  -0.0080705  -0.0127302  -0.0341711   0.0101601  -0.0587726
          193         194         195         196         197         198
    1  -0.0016380   0.0215478  -0.0053614  -0.0135709   0.0367243  -0.0050804
    2  -0.0022667  -0.0187099   0.0107629  -0.0297478   0.0498147  -0.0006617
    3   0.0023583   0.0042556   0.0323707  -0.0082366   0.0182014  -0.0085990
          199         200         201         202         203         204
    1  -0.0124630  -0.0088086  -0.0221574   0.0427367  -0.0006054   0.0227771
    2   0.0193961   0.0226790  -0.0262852  -0.0717765  -0.0005913  -0.0176417
    3   0.0183916  -0.0259490   0.0017303  -0.0738883   0.0051763  -0.0100385
          205         206         207         208         209         210
    1   0.0164391  -0.0205767   0.0364854  -0.0046280  -0.0160877  -0.0022347
    2   0.0251337  -0.0075497   0.0329332   0.0015218  -0.0210297   0.0322570
    3   0.0427082   0.0238324  -0.0281793   0.0044839   0.0156125   0.0131981
          211         212         213         214         215         216
    1  -0.0153813  -0.0164008  -0.0082918  -0.0275075  -0.0090267  -0.0151521
    2   0.0015457  -0.1048682   0.0091782  -0.0011036  -0.0201193   0.0343581
    3  -0.0244732  -0.0281874  -0.0038719  -0.0285539   0.0132126   0.0015367
          217         218         219         220         221         222
    1   0.0061401  -0.0008494  -0.0001544  -0.0241726   0.0281904   0.0600606
    2  -0.0708396   0.0055392   0.0328493  -0.0120984  -0.0192594   0.0531092
    3   0.0037245   0.0119044  -0.0063236   0.0193658   0.0016808  -0.0729095
          223         224         225         226         227         228
    1  -0.0035524  -0.0109310  -0.0188145  -0.0187656   0.0233315  -0.0007296
    2  -0.0043343  -0.0060783  -0.0296709   0.0153219   0.0409857  -0.0093860
    3  -0.0023241  -0.0439942   0.0006272   0.0004268  -0.0170622  -0.0025714
          229         230         231         232         233         234
    1   0.0250241   0.0276993  -0.0218811  -0.0411436  -0.0053058   0.0282864
    2  -0.0127597   0.0034512  -0.0253421  -0.0119355  -0.0038044  -0.0060674
    3  -0.0313747   0.0153368   0.0007789   0.0997962   0.0054171   0.0137807
          235         236         237         238         239         240
    1   0.0044270  -0.0242775   0.0405604  -0.0049572  -0.0169302  -0.0118727
    2   0.0304308  -0.0234179   0.0268835   0.0028655  -0.0238844   0.0322959
    3   0.0170371   0.0101960  -0.0255823  -0.0002665   0.0096991   0.0108762
          241         242         243         244         245         246
    1  -0.0091230  -0.0319237   0.0054219   0.0062558   0.0158901  -0.0075519
    2   0.0029666  -0.1024080   0.0043833   0.0294507  -0.0280783   0.0314473
    3  -0.0301917  -0.0278348  -0.0057173   0.0171545   0.0091282  -0.0218181
          247         248         249         250         251         252
    1  -0.0410768  -0.0011178  -0.0265925   0.0235274   0.0091473  -0.0061309
    2   0.0342287  -0.0083964  -0.0234780  -0.0172020   0.0132409  -0.0614894
    3   0.0168224   0.0075531  -0.0016137  -0.0067452   0.0323610  -0.0910593
          253         254         255         256         257         258
    1  -0.0035549   0.0130005  -0.0096742  -0.0283792   0.0206847   0.0075851
    2   0.0022905   0.0302424  -0.0170729   0.0133641   0.0361821  -0.0029251
    3  -0.0060895  -0.0063435  -0.0277075   0.0063699   0.0433671  -0.0036220
          259         260         261         262         263         264
    1  -0.0123114   0.0130986   0.0320751  -0.0633046   0.0115407   0.0043986
    2  -0.0194180   0.0285236  -0.0150535  -0.0876375   0.0030893   0.0273171
    3  -0.0233596   0.0000112   0.0051655   0.0132539  -0.0034999  -0.0203453
          265         266         267         268         269         270
    1   0.0002163   0.0195863  -0.0216850  -0.0060097   0.0014245  -0.0314495
    2  -0.0136556  -0.0062765   0.0166039   0.0013951   0.0352638  -0.0116258
    3   0.0333410  -0.0228951  -0.0360247   0.0066956   0.0062210   0.0091492
          271         272         273         274         275         276
    1   0.0226951   0.0199700  -0.0073873  -0.0067426   0.0182492  -0.0337893
    2  -0.0132011  -0.1046968  -0.0060517  -0.0035474  -0.0286185   0.0192055
    3   0.0162858   0.0302575  -0.0056776  -0.0313756   0.0116413  -0.0020162
          277         278         279         280         281         282
    1  -0.0111471  -0.0012819  -0.0340836   0.0187495   0.0007356   0.0991593
    2   0.0167835   0.0072459   0.0010654   0.0250888  -0.0125464  -0.0301569
    3   0.0614879  -0.0074495   0.0058815   0.0130484  -0.0308439  -0.0334480
          283         284         285         286         287         288
    1  -0.0045767  -0.0145275  -0.0177505   0.0239458   0.0309213  -0.0053689
    2  -0.0041279  -0.0189173   0.0018035  -0.0148443   0.0099635   0.0055526
    3  -0.0041696   0.0252586  -0.0326421   0.0053810   0.0418275  -0.0090975
          289         290         291         292         293         294
    1  -0.0183424  -0.0141742  -0.0047888   0.0167736  -0.0048509  -0.0170248
    2  -0.0008134   0.0237848   0.0031112   0.0144695   0.0038828  -0.0012210
    3   0.0289348   0.0230013  -0.0372280  -0.1080583   0.0033790  -0.0288222
          295         296         297         298         299         300
    1  -0.0176071   0.0026031   0.0363016   0.0010297   0.0131927   0.0067512
    2  -0.0160996   0.0326419   0.0011341   0.0013507   0.0300818  -0.0186366
    3   0.0198760   0.0229744   0.0391242  -0.0049424   0.0119439  -0.0239170
          301         302
    1  -0.0242290  -0.0473677
    2   0.0011638  -0.0962859
    3  -0.0191608  -0.0349782
  --- DONE ESP SUMMARY ---
 Total job time:  31.79s(wall), 72.03s(cpu) 
 Thu Jul 21 19:10:18 2022

        *************************************************************
        *                                                           *
        *  Thank you very much for using Q-Chem.  Have a nice day.  *
        *                                                           *
        *************************************************************


