                  Welcome to Q-Chem
     A Quantum Leap Into The Future Of Chemistry


 Q-Chem 5.2 (devel), Q-Chem, Inc., Pleasanton, CA (2019)

 Yihan Shao,  Zhengting Gan,  E. Epifanovsky,  A. T. B. Gilbert,  M. Wormit,  
 J. Kussmann,  A. W. Lange,  A. Behn,  Jia Deng,  Xintian Feng,  D. Ghosh,  
 M. Goldey,  P. R. Horn,  L. D. Jacobson,  I. Kaliman,  T. Kus,  A. Landau,  
 Jie Liu,  E. I. Proynov,  R. M. Richard,  R. P. Steele,  E. J. Sundstrom,  
 H. L. Woodcock III,  P. M. Zimmerman,  D. Zuev,  B. Alam,  B. Albrecht,  
 E. Alguire,  S. A. Baeppler,  D. Barton,  Z. Benda,  Y. A. Bernard,  
 E. J. Berquist,  K. B. Bravaya,  H. Burton,  K. Carter-Fenk,  D. Casanova,  
 Chun-Min Chang,  Yunqing Chen,  A. Chien,  K. D. Closser,  M. P. Coons,  
 S. Coriani,  S. Dasgupta,  A. L. Dempwolff,  M. Diedenhofen,  Hainam Do,  
 R. G. Edgar,  Po-Tung Fang,  S. Faraji,  S. Fatehi,  Qingguo Feng,  
 J. Fosso-Tande,  J. Gayvert,  Qinghui Ge,  A. Ghysels,  G. Gidofalvi,  
 J. Gomes,  J. Gonthier,  A. Gunina,  D. Hait,  M. W. D. Hanson-Heine,  
 P. H. P. Harbach,  A. W. Hauser,  M. F. Herbst,  J. E. Herr,  
 E. G. Hohenstein,  Z. C. Holden,  Kerwin Hui,  B. C. Huynh,  T.-C. Jagau,  
 Hyunjun Ji,  B. Kaduk,  K. Khistyaev,  Jaehoon Kim,  P. Klunzinger,  K. Koh,  
 D. Kosenkov,  L. Koulias,  T. Kowalczyk,  C. M. Krauter,  A. Kunitsa,  
 Ka Un Lao,  A. Laurent,  K. V. Lawler,  Joonho Lee,  D. Lefrancois,  
 S. Lehtola,  D. S. Levine,  Yi-Pei Li,  You-Sheng Lin,  Fenglai Liu,  
 Kuan-Yu Liu,  E. Livshits,  M. Loipersberger,  A. Luenser,  P. Manohar,  
 E. Mansoor,  S. F. Manzer,  Shan-Ping Mao,  Yuezhi Mao,  N. Mardirossian,  
 A. V. Marenich,  T. Markovich,  L. A. Martinez-Martinez,  S. A. Maurer,  
 N. J. Mayhall,  S. C. McKenzie,  J.-M. Mewes,  P. Morgante,  A. F. Morrison,  
 J. W. Mullinax,  K. Nanda,  T. S. Nguyen-Beck,  R. Olivares-Amaya,  
 J. A. Parkhill,  S. K. Paul,  F. Pavosevic,  Zheng Pei,  T. M. Perrine,  
 F. Plasser,  P. Pokhilko,  S. Prager,  A. Prociuk,  E. Ramos,  B. Rana,  
 D. R. Rehn,  F. Rob,  M. Scheurer,  M. Schneider,  N. Sergueev,  
 S. M. Sharada,  S. Sharma,  D. W. Small,  T. Stauch,  C. J. Stein,  
 T. Stein,  Yu-Chuan Su,  S. P. Veccham,  Zhen Tao,  A. J. W. Thom,  
 A. Tkatchenko,  T. Tsuchimochi,  N. M. Tubman,  L. Vogt,  M. L. Vidal,  
 O. Vydrov,  M. A. Watson,  J. Wenzel,  M. de Wergifosse,  T. A. Wesolowski,  
 A. White,  J. Witte,  A. Yamada,  Jun Yang,  K. Yao,  S. Yeganeh,  
 S. R. Yost,  Zhi-Qiang You,  A. Zech,  Igor Ying Zhang,  Xing Zhang,  
 Yan Zhao,  Ying Zhu,  B. R. Brooks,  G. K. L. Chan,  C. J. Cramer,  
 M. S. Gordon,  W. J. Hehre,  A. Klamt,  M. W. Schmidt,  C. D. Sherrill,  
 D. G. Truhlar,  A. Aspuru-Guzik,  R. Baer,  A. T. Bell,  N. A. Besley,  
 Jeng-Da Chai,  A. E. DePrince, III,  R. A. DiStasio Jr.,  A. Dreuw,  
 B. D. Dunietz,  T. R. Furlani,  Chao-Ping Hsu,  Yousung Jung,  Jing Kong,  
 D. S. Lambrecht,  WanZhen Liang,  C. Ochsenfeld,  V. A. Rassolov,  
 L. V. Slipchenko,  J. E. Subotnik,  T. Van Voorhis,  J. M. Herbert,  
 A. I. Krylov,  P. M. W. Gill,  M. Head-Gordon

 Contributors to earlier versions of Q-Chem not listed above: 
 R. D. Adamson,  B. Austin,  J. Baker,  G. J. O. Beran,  K. Brandhorst,  
 S. T. Brown,  E. F. C. Byrd,  A. K. Chakraborty,  C.-L. Cheng,  
 Siu Hung Chien,  D. M. Chipman,  D. L. Crittenden,  H. Dachsel,  
 R. J. Doerksen,  A. D. Dutoi,  L. Fusti-Molnar,  W. A. Goddard III,  
 A. Golubeva-Zadorozhnaya,  S. R. Gwaltney,  G. Hawkins,  A. Heyden,  
 S. Hirata,  G. Kedziora,  F. J. Keil,  C. Kelley,  Jihan Kim,  R. A. King,  
 R. Z. Khaliullin,  P. P. Korambath,  W. Kurlancheek,  A. M. Lee,  M. S. Lee,  
 S. V. Levchenko,  Ching Yeh Lin,  D. Liotard,  R. C. Lochan,  I. Lotan,  
 P. E. Maslen,  N. Nair,  D. P. O'Neill,  D. Neuhauser,  E. Neuscamman,  
 C. M. Oana,  R. Olson,  B. Peters,  R. Peverati,  P. A. Pieniazek,  
 Y. M. Rhee,  J. Ritchie,  M. A. Rohrdanz,  E. Rosta,  N. J. Russ,  
 H. F. Schaefer III,  N. E. Schultz,  N. Shenvi,  A. C. Simmonett,  A. Sodt,  
 D. Stuck,  K. S. Thanthiriwatte,  V. Vanovschi,  Tao Wang,  A. Warshel,  
 C. F. Williams,  Q. Wu,  X. Xu,  W. Zhang

 Please cite Q-Chem as follows:
 Y. Shao et al., Mol. Phys. 113, 184-215 (2015)
 DOI: 10.1080/00268976.2014.952696

 Q-Chem 5.2.2 for Intel X86 EM64T Linux

 Parts of Q-Chem use Armadillo 9.800.1 (Horizon Scraper).
 http://arma.sourceforge.net/

 Q-Chem begins on Thu Mar 11 13:37:42 2021  

Host: n0094.mhg0
0

     Scratch files written to /local/scratch/users/ymao/r7.00_frame_0036_almo_B3LYP_dp.in20210311133740//

Checking the input file for inconsistencies... 	...done.

--------------------------------------------------------------
User input:
--------------------------------------------------------------
$molecule
0 1
--
0 1
C    23.55300   15.93400   28.60800  
C    22.55300   15.51900   29.70000  
C    22.75100   16.34000   30.98500  
C    22.79700   17.85900   30.75000  
C    23.61600   18.31100   29.53000  
C    23.48600   17.43400   28.27400  
H    22.03100   16.03900   31.75600  
H    21.56900   15.69300   29.24700  
H    24.57600   15.72500   28.94400  
H    23.33900   15.34900   27.70500  
H    21.81200   18.23400   30.44900  
H    23.04300   18.34800   31.70100  
H    23.28400   19.31800   29.25000  
H    24.65000   18.40300   29.88600  
H    22.44100   17.53700   27.95800  
H    24.15100   17.68800   27.43900  
H    23.70300   16.05600   31.45000  
N    22.67000   14.08800   29.97500  
H    23.59000   13.73400   30.21000  
C    21.77500   13.11700   29.58000  
H    22.26000   12.12700   29.50500  
O    20.65400   13.34100   29.16000  
--
0 1
C    24.67400   19.22500   23.88100  
H    24.95900   18.95700   22.86100  
H    25.53600   19.57500   24.45500  
H    24.38200   18.29300   24.37200  
S    23.27700   20.36100   24.03200  
C    22.41600   19.65000   25.45300  
H    21.69600   20.42000   25.74200  
H    22.10700   18.63600   25.18600  
H    23.21700   19.59900   26.19500  
O    22.38400   19.96100   22.90000  
C    16.88000   18.30200   32.59700  
H    16.60500   19.12500   31.93200  
H    16.82800   17.37600   32.01900  
H    16.17000   18.31700   33.42800  
S    18.49100   18.57400   33.36700  
C    18.14900   20.09400   34.28200  
H    17.85000   20.84700   33.54900  
H    17.33500   19.91600   34.99000  
H    18.95800   20.31900   34.98300  
O    19.33500   19.11000   32.25300  
C    22.56900   16.97600   21.09800  
H    21.71200   17.36900   21.65200  
H    23.42000   17.66100   21.13800  
H    22.22700   16.91900   20.06200  
S    23.02500   15.42500   21.90600  
C    24.42200   14.92600   20.87400  
H    25.08900   14.21900   21.37300  
H    23.96500   14.61800   19.92900  
H    24.99900   15.84300   20.72700  
O    21.94600   14.41100   21.68400  
C    24.81800   25.38200   31.65100  
H    23.84600   25.40700   32.15100  
H    25.54200   26.15700   31.91500  
H    24.63700   25.39400   30.57400  
S    25.63700   23.83000   32.08500  
C    27.01700   24.05700   30.94100  
H    27.74100   23.24900   31.07000  
H    26.62200   24.01400   29.92300  
H    27.50700   25.02900   31.04000  
O    24.75500   22.96200   31.24200  
C    29.96100   13.88200   25.03700  
H    29.23800   13.98500   24.22400  
H    30.87600   13.73200   24.45900  
H    29.76600   12.94300   25.56300  
S    29.89400   15.31800   26.13200  
C    30.84900   14.38300   27.34800  
H    31.62500   13.75900   26.89800  
H    31.24800   14.98600   28.16800  
H    30.16000   13.62400   27.72600  
O    28.50500   15.37300   26.68700  
C    26.16100   19.90900   32.01800  
H    25.88100   19.68000   33.04900  
H    25.56200   20.80600   31.84100  
H    26.09600   19.08600   31.30100  
S    27.87500   20.48000   31.96300  
C    28.52900   19.10400   32.93500  
H    27.77300   18.85400   33.68300  
H    28.73200   18.26800   32.26100  
H    29.39300   19.47000   33.49600  
O    27.88600   21.62900   32.92200  
C    24.43700   21.38100   34.59700  
H    24.53800   21.92900   33.65700  
H    23.94200   22.05200   35.30500  
H    25.40300   21.06700   35.00100  
S    23.12000   20.14400   34.56400  
C    22.13000   21.27300   33.55800  
H    22.49700   21.18200   32.53300  
H    21.10300   20.91300   33.66700  
H    22.11300   22.33100   33.83100  
O    22.37700   20.21000   35.86200  
C    24.21500   10.35600   31.59100  
H    23.71800   10.33400   30.61800  
H    25.28500   10.25600   31.39300  
H    23.95500   9.43400    32.11600  
S    23.92000   11.83300   32.59000  
C    24.31600   11.17500   34.22500  
H    23.93300   11.93800   34.90700  
H    23.77500   10.22700   34.28800  
H    25.39600   11.04400   34.33200  
O    22.44100   12.06800   32.58900  
C    21.38100   14.53100   25.33400  
H    22.41200   14.57500   24.97300  
H    20.59500   14.80600   24.62700  
H    21.14700   15.22800   26.14200  
S    21.09900   12.77300   25.64300  
C    21.23800   12.15000   23.95300  
H    20.76100   11.16700   23.96500  
H    20.63700   12.90100   23.43400  
H    22.26900   12.07500   23.59600  
O    19.62000   12.59000   25.77800  
C    30.67700   20.16000   27.50500  
H    30.30000   20.95900   28.14800  
H    31.74700   19.93400   27.50800  
H    30.32600   20.32500   26.48300  
S    29.90700   18.65200   28.13600  
C    28.21400   19.20200   27.82600  
H    27.53600   18.50200   28.32200  
H    28.18000   20.19000   28.29200  
H    28.05700   19.25800   26.74600  
O    30.15200   18.74400   29.61000  
C    18.97100   15.60800   30.68800  
H    18.78600   16.01100   31.68700  
H    19.97300   15.18100   30.59800  
H    18.87500   16.39800   29.93900  
S    17.67100   14.41500   30.29500  
C    17.82700   14.48800   28.49600  
H    17.28900   13.67600   28.00100  
H    17.45300   15.47100   28.20000  
H    18.86900   14.47100   28.16600  
O    16.47800   15.25800   30.62200  
C    21.46200   17.05000   34.84800  
H    21.10600   17.98900   35.27900  
H    22.53300   16.90800   35.01500  
H    21.31800   17.12100   33.76600  
S    20.64500   15.60000   35.55100  
C    21.62300   14.25400   34.84700  
H    21.37600   14.10600   33.79200  
H    22.67000   14.49900   35.03900  
H    21.39500   13.35700   35.42800  
O    19.38500   15.46600   34.75300  
C    27.97500   11.08100   32.69200  
H    27.69800   10.29500   33.39900  
H    27.85100   12.05800   33.16700  
H    27.22100   10.99600   31.90500  
S    29.57600   10.92000   31.87100  
C    30.62100   11.37400   33.27400  
H    30.38100   10.74200   34.13300  
H    31.64500   11.37100   32.89400  
H    30.28200   12.39300   33.47600  
O    29.67300   11.97300   30.81100  
C    23.09200   6.23300    32.17700  
H    22.69400   5.76400    33.08100  
H    22.59300   7.18500    31.97800  
H    23.20500   5.65600    31.25600  
S    24.72900   6.90300    32.54800  
C    25.70500   5.42000    32.88200  
H    25.80800   4.90100    31.92500  
H    26.72200   5.70700    33.16300  
H    25.36600   4.83000    33.73700  
O    24.38600   7.46300    33.89400  
C    17.50900   18.34200   25.84000  
H    17.15500   17.82600   24.94500  
H    17.37700   17.76800   26.76100  
H    16.98200   19.29400   25.93700  
S    19.23200   18.67500   25.41100  
C    18.93200   19.25500   23.72600  
H    18.11900   19.97000   23.87600  
H    19.79800   19.81500   23.36400  
H    18.73000   18.39600   23.08100  
O    19.90400   17.35800   25.17800  
C    19.29200   21.60400   28.78500  
H    18.67300   21.25400   27.95500  
H    18.77700   21.43800   29.73400  
H    19.34500   22.69500   28.76000  
S    20.97200   21.01500   28.47300  
C    21.63500   21.40000   30.10900  
H    21.17700   20.69800   30.81100  
H    22.72300   21.29000   30.10300  
H    21.28600   22.41200   30.32900  
O    21.51100   22.06500   27.55200  
C    26.87000   15.51800   35.89400  
H    26.73600   14.46200   36.14000  
H    27.74600   15.70500   35.26900  
H    26.91700   16.03000   36.85900  
S    25.49700   15.97200   34.81000  
C    25.71500   14.70100   33.54400  
H    26.60400   14.89400   32.93800  
H    25.85800   13.71500   33.99400  
H    24.81000   14.62100   32.93700  
O    25.98700   17.26900   34.24600  
C    17.05500   13.22500   35.69700  
H    16.03300   13.17800   36.08000  
H    17.52400   12.27900   35.98100  
H    17.47900   14.07200   36.24300  
S    16.99700   13.50200   33.91300  
C    15.89800   14.93600   33.90300  
H    15.11000   14.78100   34.64500  
H    16.48200   15.84900   34.04700  
H    15.51300   15.01600   32.88400  
O    16.13900   12.39000   33.39400  
C    28.74100   17.80600   21.93700  
H    28.32400   18.36700   21.09800  
H    29.80400   17.96900   22.13600  
H    28.47700   16.74600   21.93500  
S    27.88900   18.49400   23.37400  
C    27.78000   20.20700   22.80700  
H    26.86400   20.51100   22.29400  
H    27.84100   20.77100   23.74100  
H    28.72600   20.39200   22.29200  
O    29.05000   18.63400   24.30900  
C    25.04100   13.34700   24.43200  
H    24.23000   13.66300   23.77100  
H    25.60400   12.49600   24.04100  
H    24.64700   13.11800   25.42600  
S    26.24000   14.68600   24.62400  
C    25.23400   15.62500   25.79600  
H    24.28300   15.63800   25.25600  
H    25.31100   15.09300   26.74700  
H    25.65400   16.61100   26.00800  
O    26.00600   15.51000   23.39600  
C    16.37000   10.59400   25.54600  
H    16.27400   10.50500   24.46000  
H    15.32600   10.49500   25.85500  
H    16.83900   11.55700   25.76400  
S    17.17300   9.16100    26.29800  
C    18.29800   9.00100    24.89300  
H    18.96700   9.86400    24.85400  
H    18.77800   8.06400    25.18700  
H    17.76600   8.91500    23.94300  
O    16.24200   8.06000    25.89300  
C    20.81200   9.20900    31.26100  
H    21.13800   8.39100    30.61300  
H    21.59700   9.75800    31.78800  
H    20.08700   8.84800    31.99400  
S    19.72200   10.24900   30.26300  
C    19.06500   11.19900   31.65300  
H    19.67300   12.04100   31.99400  
H    18.10000   11.62400   31.36600  
H    18.96900   10.46300   32.45500  
O    18.74000   9.18000    29.89800  
C    16.05500   11.00000   29.74400  
H    15.58300   10.76600   28.78600  
H    15.86500   12.04700   29.99500  
H    17.12900   10.84100   29.61400  
S    15.34900   9.81600    30.91200  
C    15.40200   8.51800    29.65600  
H    15.19300   7.65400    30.29200  
H    14.59700   8.67000    28.93300  
H    16.32300   8.44900    29.07000  
O    13.88200   10.10400   30.83100  
C    24.71100   23.77200   27.56400  
H    24.12700   23.76900   28.48800  
H    25.71100   24.08100   27.87800  
H    24.23500   24.56900   26.98600  
S    24.71000   22.17400   26.72200  
C    25.35000   21.35700   28.20100  
H    25.67200   20.36800   27.86500  
H    26.20900   21.96500   28.49600  
H    24.61300   21.36200   29.00800  
O    25.94700   22.10100   25.88200  
C    26.51600   6.64000    29.14200  
H    26.19500   6.68600    28.09900  
H    27.32600   5.90600    29.13700  
H    25.67800   6.34600    29.77900  
S    27.09700   8.29300    29.58300  
C    28.50800   8.26100    28.45500  
H    29.31300   7.79700    29.03100  
H    28.25300   7.64600    27.58800  
H    28.77700   9.27500    28.14900  
O    27.75500   8.12400    30.91700  
C    27.45400   11.76600   28.75300  
H    28.45800   12.02900   28.41000  
H    27.38300   11.28600   29.73300  
H    26.90000   11.11900   28.06800  
S    26.40900   13.23900   28.72100  
C    27.53500   14.34400   29.60200  
H    28.29300   14.67100   28.88600  
H    26.98800   15.20100   30.00500  
H    28.01100   13.68600   30.33400  
O    25.34000   12.84800   29.69300  
C    22.34900   8.86500    26.08600  
H    23.24300   8.72300    25.47300  
H    21.91500   7.86700    26.18700  
H    21.64000   9.59900    25.69400  
S    22.92500   9.18900    27.76800  
C    24.17900   10.45600   27.47100  
H    24.98300   10.06300   26.84200  
H    23.63600   11.23800   26.93500  
H    24.62400   10.80000   28.40800  
O    23.77600   8.03300    28.19200  
$end

$rem
JOBTYPE  SP
METHOD  B3LYP
BASIS  6-31+G(D)
SYMMETRY  FALSE
SYM_IGNORE  TRUE
MEM_TOTAL  16000
MEM_STATIC  8000
MAX_SUB_FILE_NUM  16000
BASIS_LIN_DEP_THRESH  6
THRESH  14
SCF_CONVERGENCE  8
GEN_SCFMAN  TRUE
SCF_GUESS  FRAGMO
FD_MAT_VEC_PROD  FALSE
XC_GRID  000075000302
NL_GRID  1
MAX_SCF_CYCLES  200
FRGM_METHOD  STOLL
SCFMI_MODE  1
$end

$development
almo_efield  1
$end

$rem_frgm
SCF_CONVERGENCE  4
$end

--------------------------------------------------------------
 ----------------------------------------------------------------
             Standard Nuclear Orientation (Angstroms)
    I     Atom           X                Y                Z
 ----------------------------------------------------------------
    1      C      23.5530000000    15.9340000000    28.6080000000
    2      C      22.5530000000    15.5190000000    29.7000000000
    3      C      22.7510000000    16.3400000000    30.9850000000
    4      C      22.7970000000    17.8590000000    30.7500000000
    5      C      23.6160000000    18.3110000000    29.5300000000
    6      C      23.4860000000    17.4340000000    28.2740000000
    7      H      22.0310000000    16.0390000000    31.7560000000
    8      H      21.5690000000    15.6930000000    29.2470000000
    9      H      24.5760000000    15.7250000000    28.9440000000
   10      H      23.3390000000    15.3490000000    27.7050000000
   11      H      21.8120000000    18.2340000000    30.4490000000
   12      H      23.0430000000    18.3480000000    31.7010000000
   13      H      23.2840000000    19.3180000000    29.2500000000
   14      H      24.6500000000    18.4030000000    29.8860000000
   15      H      22.4410000000    17.5370000000    27.9580000000
   16      H      24.1510000000    17.6880000000    27.4390000000
   17      H      23.7030000000    16.0560000000    31.4500000000
   18      N      22.6700000000    14.0880000000    29.9750000000
   19      H      23.5900000000    13.7340000000    30.2100000000
   20      C      21.7750000000    13.1170000000    29.5800000000
   21      H      22.2600000000    12.1270000000    29.5050000000
   22      O      20.6540000000    13.3410000000    29.1600000000
   23      C      24.6740000000    19.2250000000    23.8810000000
   24      H      24.9590000000    18.9570000000    22.8610000000
   25      H      25.5360000000    19.5750000000    24.4550000000
   26      H      24.3820000000    18.2930000000    24.3720000000
   27      S      23.2770000000    20.3610000000    24.0320000000
   28      C      22.4160000000    19.6500000000    25.4530000000
   29      H      21.6960000000    20.4200000000    25.7420000000
   30      H      22.1070000000    18.6360000000    25.1860000000
   31      H      23.2170000000    19.5990000000    26.1950000000
   32      O      22.3840000000    19.9610000000    22.9000000000
   33      C      16.8800000000    18.3020000000    32.5970000000
   34      H      16.6050000000    19.1250000000    31.9320000000
   35      H      16.8280000000    17.3760000000    32.0190000000
   36      H      16.1700000000    18.3170000000    33.4280000000
   37      S      18.4910000000    18.5740000000    33.3670000000
   38      C      18.1490000000    20.0940000000    34.2820000000
   39      H      17.8500000000    20.8470000000    33.5490000000
   40      H      17.3350000000    19.9160000000    34.9900000000
   41      H      18.9580000000    20.3190000000    34.9830000000
   42      O      19.3350000000    19.1100000000    32.2530000000
   43      C      22.5690000000    16.9760000000    21.0980000000
   44      H      21.7120000000    17.3690000000    21.6520000000
   45      H      23.4200000000    17.6610000000    21.1380000000
   46      H      22.2270000000    16.9190000000    20.0620000000
   47      S      23.0250000000    15.4250000000    21.9060000000
   48      C      24.4220000000    14.9260000000    20.8740000000
   49      H      25.0890000000    14.2190000000    21.3730000000
   50      H      23.9650000000    14.6180000000    19.9290000000
   51      H      24.9990000000    15.8430000000    20.7270000000
   52      O      21.9460000000    14.4110000000    21.6840000000
   53      C      24.8180000000    25.3820000000    31.6510000000
   54      H      23.8460000000    25.4070000000    32.1510000000
   55      H      25.5420000000    26.1570000000    31.9150000000
   56      H      24.6370000000    25.3940000000    30.5740000000
   57      S      25.6370000000    23.8300000000    32.0850000000
   58      C      27.0170000000    24.0570000000    30.9410000000
   59      H      27.7410000000    23.2490000000    31.0700000000
   60      H      26.6220000000    24.0140000000    29.9230000000
   61      H      27.5070000000    25.0290000000    31.0400000000
   62      O      24.7550000000    22.9620000000    31.2420000000
   63      C      29.9610000000    13.8820000000    25.0370000000
   64      H      29.2380000000    13.9850000000    24.2240000000
   65      H      30.8760000000    13.7320000000    24.4590000000
   66      H      29.7660000000    12.9430000000    25.5630000000
   67      S      29.8940000000    15.3180000000    26.1320000000
   68      C      30.8490000000    14.3830000000    27.3480000000
   69      H      31.6250000000    13.7590000000    26.8980000000
   70      H      31.2480000000    14.9860000000    28.1680000000
   71      H      30.1600000000    13.6240000000    27.7260000000
   72      O      28.5050000000    15.3730000000    26.6870000000
   73      C      26.1610000000    19.9090000000    32.0180000000
   74      H      25.8810000000    19.6800000000    33.0490000000
   75      H      25.5620000000    20.8060000000    31.8410000000
   76      H      26.0960000000    19.0860000000    31.3010000000
   77      S      27.8750000000    20.4800000000    31.9630000000
   78      C      28.5290000000    19.1040000000    32.9350000000
   79      H      27.7730000000    18.8540000000    33.6830000000
   80      H      28.7320000000    18.2680000000    32.2610000000
   81      H      29.3930000000    19.4700000000    33.4960000000
   82      O      27.8860000000    21.6290000000    32.9220000000
   83      C      24.4370000000    21.3810000000    34.5970000000
   84      H      24.5380000000    21.9290000000    33.6570000000
   85      H      23.9420000000    22.0520000000    35.3050000000
   86      H      25.4030000000    21.0670000000    35.0010000000
   87      S      23.1200000000    20.1440000000    34.5640000000
   88      C      22.1300000000    21.2730000000    33.5580000000
   89      H      22.4970000000    21.1820000000    32.5330000000
   90      H      21.1030000000    20.9130000000    33.6670000000
   91      H      22.1130000000    22.3310000000    33.8310000000
   92      O      22.3770000000    20.2100000000    35.8620000000
   93      C      24.2150000000    10.3560000000    31.5910000000
   94      H      23.7180000000    10.3340000000    30.6180000000
   95      H      25.2850000000    10.2560000000    31.3930000000
   96      H      23.9550000000     9.4340000000    32.1160000000
   97      S      23.9200000000    11.8330000000    32.5900000000
   98      C      24.3160000000    11.1750000000    34.2250000000
   99      H      23.9330000000    11.9380000000    34.9070000000
  100      H      23.7750000000    10.2270000000    34.2880000000
  101      H      25.3960000000    11.0440000000    34.3320000000
  102      O      22.4410000000    12.0680000000    32.5890000000
  103      C      21.3810000000    14.5310000000    25.3340000000
  104      H      22.4120000000    14.5750000000    24.9730000000
  105      H      20.5950000000    14.8060000000    24.6270000000
  106      H      21.1470000000    15.2280000000    26.1420000000
  107      S      21.0990000000    12.7730000000    25.6430000000
  108      C      21.2380000000    12.1500000000    23.9530000000
  109      H      20.7610000000    11.1670000000    23.9650000000
  110      H      20.6370000000    12.9010000000    23.4340000000
  111      H      22.2690000000    12.0750000000    23.5960000000
  112      O      19.6200000000    12.5900000000    25.7780000000
  113      C      30.6770000000    20.1600000000    27.5050000000
  114      H      30.3000000000    20.9590000000    28.1480000000
  115      H      31.7470000000    19.9340000000    27.5080000000
  116      H      30.3260000000    20.3250000000    26.4830000000
  117      S      29.9070000000    18.6520000000    28.1360000000
  118      C      28.2140000000    19.2020000000    27.8260000000
  119      H      27.5360000000    18.5020000000    28.3220000000
  120      H      28.1800000000    20.1900000000    28.2920000000
  121      H      28.0570000000    19.2580000000    26.7460000000
  122      O      30.1520000000    18.7440000000    29.6100000000
  123      C      18.9710000000    15.6080000000    30.6880000000
  124      H      18.7860000000    16.0110000000    31.6870000000
  125      H      19.9730000000    15.1810000000    30.5980000000
  126      H      18.8750000000    16.3980000000    29.9390000000
  127      S      17.6710000000    14.4150000000    30.2950000000
  128      C      17.8270000000    14.4880000000    28.4960000000
  129      H      17.2890000000    13.6760000000    28.0010000000
  130      H      17.4530000000    15.4710000000    28.2000000000
  131      H      18.8690000000    14.4710000000    28.1660000000
  132      O      16.4780000000    15.2580000000    30.6220000000
  133      C      21.4620000000    17.0500000000    34.8480000000
  134      H      21.1060000000    17.9890000000    35.2790000000
  135      H      22.5330000000    16.9080000000    35.0150000000
  136      H      21.3180000000    17.1210000000    33.7660000000
  137      S      20.6450000000    15.6000000000    35.5510000000
  138      C      21.6230000000    14.2540000000    34.8470000000
  139      H      21.3760000000    14.1060000000    33.7920000000
  140      H      22.6700000000    14.4990000000    35.0390000000
  141      H      21.3950000000    13.3570000000    35.4280000000
  142      O      19.3850000000    15.4660000000    34.7530000000
  143      C      27.9750000000    11.0810000000    32.6920000000
  144      H      27.6980000000    10.2950000000    33.3990000000
  145      H      27.8510000000    12.0580000000    33.1670000000
  146      H      27.2210000000    10.9960000000    31.9050000000
  147      S      29.5760000000    10.9200000000    31.8710000000
  148      C      30.6210000000    11.3740000000    33.2740000000
  149      H      30.3810000000    10.7420000000    34.1330000000
  150      H      31.6450000000    11.3710000000    32.8940000000
  151      H      30.2820000000    12.3930000000    33.4760000000
  152      O      29.6730000000    11.9730000000    30.8110000000
  153      C      23.0920000000     6.2330000000    32.1770000000
  154      H      22.6940000000     5.7640000000    33.0810000000
  155      H      22.5930000000     7.1850000000    31.9780000000
  156      H      23.2050000000     5.6560000000    31.2560000000
  157      S      24.7290000000     6.9030000000    32.5480000000
  158      C      25.7050000000     5.4200000000    32.8820000000
  159      H      25.8080000000     4.9010000000    31.9250000000
  160      H      26.7220000000     5.7070000000    33.1630000000
  161      H      25.3660000000     4.8300000000    33.7370000000
  162      O      24.3860000000     7.4630000000    33.8940000000
  163      C      17.5090000000    18.3420000000    25.8400000000
  164      H      17.1550000000    17.8260000000    24.9450000000
  165      H      17.3770000000    17.7680000000    26.7610000000
  166      H      16.9820000000    19.2940000000    25.9370000000
  167      S      19.2320000000    18.6750000000    25.4110000000
  168      C      18.9320000000    19.2550000000    23.7260000000
  169      H      18.1190000000    19.9700000000    23.8760000000
  170      H      19.7980000000    19.8150000000    23.3640000000
  171      H      18.7300000000    18.3960000000    23.0810000000
  172      O      19.9040000000    17.3580000000    25.1780000000
  173      C      19.2920000000    21.6040000000    28.7850000000
  174      H      18.6730000000    21.2540000000    27.9550000000
  175      H      18.7770000000    21.4380000000    29.7340000000
  176      H      19.3450000000    22.6950000000    28.7600000000
  177      S      20.9720000000    21.0150000000    28.4730000000
  178      C      21.6350000000    21.4000000000    30.1090000000
  179      H      21.1770000000    20.6980000000    30.8110000000
  180      H      22.7230000000    21.2900000000    30.1030000000
  181      H      21.2860000000    22.4120000000    30.3290000000
  182      O      21.5110000000    22.0650000000    27.5520000000
  183      C      26.8700000000    15.5180000000    35.8940000000
  184      H      26.7360000000    14.4620000000    36.1400000000
  185      H      27.7460000000    15.7050000000    35.2690000000
  186      H      26.9170000000    16.0300000000    36.8590000000
  187      S      25.4970000000    15.9720000000    34.8100000000
  188      C      25.7150000000    14.7010000000    33.5440000000
  189      H      26.6040000000    14.8940000000    32.9380000000
  190      H      25.8580000000    13.7150000000    33.9940000000
  191      H      24.8100000000    14.6210000000    32.9370000000
  192      O      25.9870000000    17.2690000000    34.2460000000
  193      C      17.0550000000    13.2250000000    35.6970000000
  194      H      16.0330000000    13.1780000000    36.0800000000
  195      H      17.5240000000    12.2790000000    35.9810000000
  196      H      17.4790000000    14.0720000000    36.2430000000
  197      S      16.9970000000    13.5020000000    33.9130000000
  198      C      15.8980000000    14.9360000000    33.9030000000
  199      H      15.1100000000    14.7810000000    34.6450000000
  200      H      16.4820000000    15.8490000000    34.0470000000
  201      H      15.5130000000    15.0160000000    32.8840000000
  202      O      16.1390000000    12.3900000000    33.3940000000
  203      C      28.7410000000    17.8060000000    21.9370000000
  204      H      28.3240000000    18.3670000000    21.0980000000
  205      H      29.8040000000    17.9690000000    22.1360000000
  206      H      28.4770000000    16.7460000000    21.9350000000
  207      S      27.8890000000    18.4940000000    23.3740000000
  208      C      27.7800000000    20.2070000000    22.8070000000
  209      H      26.8640000000    20.5110000000    22.2940000000
  210      H      27.8410000000    20.7710000000    23.7410000000
  211      H      28.7260000000    20.3920000000    22.2920000000
  212      O      29.0500000000    18.6340000000    24.3090000000
  213      C      25.0410000000    13.3470000000    24.4320000000
  214      H      24.2300000000    13.6630000000    23.7710000000
  215      H      25.6040000000    12.4960000000    24.0410000000
  216      H      24.6470000000    13.1180000000    25.4260000000
  217      S      26.2400000000    14.6860000000    24.6240000000
  218      C      25.2340000000    15.6250000000    25.7960000000
  219      H      24.2830000000    15.6380000000    25.2560000000
  220      H      25.3110000000    15.0930000000    26.7470000000
  221      H      25.6540000000    16.6110000000    26.0080000000
  222      O      26.0060000000    15.5100000000    23.3960000000
  223      C      16.3700000000    10.5940000000    25.5460000000
  224      H      16.2740000000    10.5050000000    24.4600000000
  225      H      15.3260000000    10.4950000000    25.8550000000
  226      H      16.8390000000    11.5570000000    25.7640000000
  227      S      17.1730000000     9.1610000000    26.2980000000
  228      C      18.2980000000     9.0010000000    24.8930000000
  229      H      18.9670000000     9.8640000000    24.8540000000
  230      H      18.7780000000     8.0640000000    25.1870000000
  231      H      17.7660000000     8.9150000000    23.9430000000
  232      O      16.2420000000     8.0600000000    25.8930000000
  233      C      20.8120000000     9.2090000000    31.2610000000
  234      H      21.1380000000     8.3910000000    30.6130000000
  235      H      21.5970000000     9.7580000000    31.7880000000
  236      H      20.0870000000     8.8480000000    31.9940000000
  237      S      19.7220000000    10.2490000000    30.2630000000
  238      C      19.0650000000    11.1990000000    31.6530000000
  239      H      19.6730000000    12.0410000000    31.9940000000
  240      H      18.1000000000    11.6240000000    31.3660000000
  241      H      18.9690000000    10.4630000000    32.4550000000
  242      O      18.7400000000     9.1800000000    29.8980000000
  243      C      16.0550000000    11.0000000000    29.7440000000
  244      H      15.5830000000    10.7660000000    28.7860000000
  245      H      15.8650000000    12.0470000000    29.9950000000
  246      H      17.1290000000    10.8410000000    29.6140000000
  247      S      15.3490000000     9.8160000000    30.9120000000
  248      C      15.4020000000     8.5180000000    29.6560000000
  249      H      15.1930000000     7.6540000000    30.2920000000
  250      H      14.5970000000     8.6700000000    28.9330000000
  251      H      16.3230000000     8.4490000000    29.0700000000
  252      O      13.8820000000    10.1040000000    30.8310000000
  253      C      24.7110000000    23.7720000000    27.5640000000
  254      H      24.1270000000    23.7690000000    28.4880000000
  255      H      25.7110000000    24.0810000000    27.8780000000
  256      H      24.2350000000    24.5690000000    26.9860000000
  257      S      24.7100000000    22.1740000000    26.7220000000
  258      C      25.3500000000    21.3570000000    28.2010000000
  259      H      25.6720000000    20.3680000000    27.8650000000
  260      H      26.2090000000    21.9650000000    28.4960000000
  261      H      24.6130000000    21.3620000000    29.0080000000
  262      O      25.9470000000    22.1010000000    25.8820000000
  263      C      26.5160000000     6.6400000000    29.1420000000
  264      H      26.1950000000     6.6860000000    28.0990000000
  265      H      27.3260000000     5.9060000000    29.1370000000
  266      H      25.6780000000     6.3460000000    29.7790000000
  267      S      27.0970000000     8.2930000000    29.5830000000
  268      C      28.5080000000     8.2610000000    28.4550000000
  269      H      29.3130000000     7.7970000000    29.0310000000
  270      H      28.2530000000     7.6460000000    27.5880000000
  271      H      28.7770000000     9.2750000000    28.1490000000
  272      O      27.7550000000     8.1240000000    30.9170000000
  273      C      27.4540000000    11.7660000000    28.7530000000
  274      H      28.4580000000    12.0290000000    28.4100000000
  275      H      27.3830000000    11.2860000000    29.7330000000
  276      H      26.9000000000    11.1190000000    28.0680000000
  277      S      26.4090000000    13.2390000000    28.7210000000
  278      C      27.5350000000    14.3440000000    29.6020000000
  279      H      28.2930000000    14.6710000000    28.8860000000
  280      H      26.9880000000    15.2010000000    30.0050000000
  281      H      28.0110000000    13.6860000000    30.3340000000
  282      O      25.3400000000    12.8480000000    29.6930000000
  283      C      22.3490000000     8.8650000000    26.0860000000
  284      H      23.2430000000     8.7230000000    25.4730000000
  285      H      21.9150000000     7.8670000000    26.1870000000
  286      H      21.6400000000     9.5990000000    25.6940000000
  287      S      22.9250000000     9.1890000000    27.7680000000
  288      C      24.1790000000    10.4560000000    27.4710000000
  289      H      24.9830000000    10.0630000000    26.8420000000
  290      H      23.6360000000    11.2380000000    26.9350000000
  291      H      24.6240000000    10.8000000000    28.4080000000
  292      O      23.7760000000     8.0330000000    28.1920000000
 ----------------------------------------------------------------
 Nuclear Repulsion Energy =       48401.05717221 hartrees
 There are      602 alpha and      602 beta electrons
 Requested basis set is 6-31+G(d)
 There are 962 shells and 2681 basis functions

 Total QAlloc Memory Limit  16000 MB
 Mega-Array Size      7821 MB
 MEM_STATIC part      8000 MB
 A cutoff of  1.0D-14 yielded 175880 shell pairs
 There are   1537213 function pairs
 Smallest overlap matrix eigenvalue = 4.20E-07
 Linear dependence detected in AO basis
 Tighter screening thresholds may be required for diffuse basis sets
 Use S2THRESH > 14 and THRESH = 14 in case of SCF convergence issues
 Number of orthogonalized atomic orbitals = 2678
 Maximum deviation from orthogonality = 9.082E-11

 Scale SEOQF with 1.000000e-03/1.000000e-03/1.000000e-03

 Standard Electronic Orientation quadrupole field applied
 Nucleus-field energy     =    -0.0000006670 hartrees
Attempting to make child job directory: /local/scratch/users/ymao/r7.00_frame_0036_almo_B3LYP_dp.in20210311133740//Frg1/
Attempting to make child job directory: /local/scratch/users/ymao/r7.00_frame_0036_almo_B3LYP_dp.in20210311133740//Frg2/
Creating input file /local/scratch/users/ymao/r7.00_frame_0036_almo_B3LYP_dp.in20210311133740/Frg1.input
using default PutDataFrgm: nothing
calling putenv with: QCSCRATCH=/local/scratch/users/ymao/r7.00_frame_0036_almo_B3LYP_dp.in20210311133740/ 
Spawning Job For Fragment 0
Done Job For Fragment 0
calling putenv with: QCSCRATCH=/local/scratch/users/ymao 
calling putenv with: QCTHREADS=8 
Creating input file /local/scratch/users/ymao/r7.00_frame_0036_almo_B3LYP_dp.in20210311133740/Frg2.input
using default PutDataFrgm: nothing
calling putenv with: QCSCRATCH=/local/scratch/users/ymao/r7.00_frame_0036_almo_B3LYP_dp.in20210311133740/ 
Spawning Job For Fragment 1
Done Job For Fragment 1
calling putenv with: QCSCRATCH=/local/scratch/users/ymao 
calling putenv with: QCTHREADS=8 
 Time for running child jobs:  CPU 0.88 s  wall 24035.20 s

 -----------------------------------------------------------------------
  General SCF calculation program by
  Eric Jon Sundstrom, Paul Horn, Yuezhi Mao, Dmitri Zuev, Alec White,
  David Stuck, Shaama M.S., Shane Yost, Joonho Lee, David Small,
  Daniel Levine, Susi Lehtola, Hugh Burton, Evgeny Epifanovsky,
  Bang C. Huynh
 -----------------------------------------------------------------------
Performing Restricted Closed Shell SCFMI
Doing General SCFMI
 Exchange:     0.2000 Hartree-Fock + 0.0800 Slater + 0.7200 B88
 Correlation:  0.1900 VWN1RPA + 0.8100 LYP
 Using Euler-Maclaurin-Lebedev (75,302) quadrature formula
performing fock build before subrot guess so that all methods have access
Printing subrot_rss_gen Method Specification:
Occupied Subspace Method is 0
Virtual Subspace Method is 0
Energy prior to optimization (guess energy) = -15340.712881482665
Begin Timing: Total SCF Calculation
begin iterations for algorithm: DIIS         
the SCF tolerance is set to 1.00e-08
    1  -15340.7128814827      3.50e-05     00000 
    2  -15340.7164913167      4.01e-05     00000 
    3  -15340.7204787931      1.84e-05     00000 
    4  -15340.7212451851      6.52e-06     00000 
    5  -15340.7213644357      2.84e-06     00000 
    6  -15340.7213850180      1.95e-06     00000 
    7  -15340.7213943299      1.30e-06     00000 
    8  -15340.7213990762      6.58e-07     00000 
    9  -15340.7214000925      4.21e-07     00000 
   10  -15340.7214004236      2.94e-07     00000 
   11  -15340.7214005947      1.82e-07     00000 
   12  -15340.7214006755      9.59e-08     00000 
   13  -15340.7214006997      5.68e-08     00000 
   14  -15340.7214007079      3.68e-08     00000 
   15  -15340.7214007111      2.56e-08     00000 
   16  -15340.7214007126      1.24e-08     00000 
   17  -15340.7214007134      6.55e-09     00000 Convergence criterion met
write pseudocanon occs and virts to disk
write pseudocanon orbital energies to disk
Timing for Total SCF: 53342.00s (wall), 422900.33s (cpu)
SCFMI Energy  -15340.7214007134
<S^2>            0.00000
 Total energy in the final basis set =   -15340.7214007134
    ==================================================
        The end of Object-Oriented SCFman: SCFMI      
    ==================================================
 
 --------------------------------------------------------------
 
                    Orbital Energies (a.u.)
 --------------------------------------------------------------
 
 Alpha MOs
 -- Occupied --
-89.0259 -89.0252 -89.0209 -89.0193 -89.0189 -89.0144 -89.0136 -89.0112
-89.0092 -89.0058 -89.0051 -89.0005 -88.9993 -88.9971 -88.9961 -88.9958
-88.9927 -88.9913 -88.9891 -88.9885 -88.9869 -88.9866 -88.9691 -88.9690
-88.9679 -88.9585 -88.9378 -19.1494 -19.1462 -19.1404 -19.1377 -19.1321
-19.1318 -19.1271 -19.1242 -19.1236 -19.1234 -19.1233 -19.1166 -19.1162
-19.1147 -19.1145 -19.1133 -19.1119 -19.1102 -19.1099 -19.1067 -19.1015
-19.0995 -19.0990 -19.0870 -19.0846 -19.0775 -19.0699 -19.0471 -14.3551
-10.2861 -10.2460 -10.2434 -10.2431 -10.2431 -10.2408 -10.2388 -10.2377
-10.2365 -10.2357 -10.2353 -10.2349 -10.2335 -10.2322 -10.2303 -10.2295
-10.2263 -10.2262 -10.2252 -10.2243 -10.2234 -10.2228 -10.2228 -10.2211
-10.2208 -10.2192 -10.2189 -10.2155 -10.2138 -10.2127 -10.2125 -10.2123
-10.2122 -10.2115 -10.2114 -10.2103 -10.2075 -10.2069 -10.2067 -10.2066
-10.2064 -10.2056 -10.2050 -10.2037 -10.2013 -10.2010 -10.1991 -10.1979
-10.1977 -10.1954 -10.1920 -10.1914 -10.1891 -10.1855 -10.1812 -10.1798
-10.1787 -10.1773 -10.1747 -10.1522 -10.1485  -8.0708  -8.0707  -8.0670
 -8.0655  -8.0646  -8.0600  -8.0598  -8.0571  -8.0549  -8.0517  -8.0516
 -8.0472  -8.0457  -8.0427  -8.0420  -8.0418  -8.0385  -8.0374  -8.0350
 -8.0344  -8.0333  -8.0328  -8.0154  -8.0147  -8.0136  -8.0037  -7.9836
 -6.0352  -6.0350  -6.0341  -6.0337  -6.0315  -6.0300  -6.0299  -6.0290
 -6.0287  -6.0282  -6.0281  -6.0277  -6.0244  -6.0243  -6.0241  -6.0232
 -6.0227  -6.0223  -6.0221  -6.0215  -6.0201  -6.0194  -6.0182  -6.0174
 -6.0171  -6.0161  -6.0160  -6.0149  -6.0148  -6.0146  -6.0120  -6.0114
 -6.0102  -6.0101  -6.0091  -6.0089  -6.0087  -6.0070  -6.0063  -6.0063
 -6.0057  -6.0049  -6.0049  -6.0046  -6.0030  -6.0029  -6.0018  -6.0017
 -6.0004  -6.0002  -5.9998  -5.9995  -5.9989  -5.9988  -5.9983  -5.9978
 -5.9976  -5.9972  -5.9962  -5.9959  -5.9959  -5.9948  -5.9921  -5.9920
 -5.9907  -5.9898  -5.9794  -5.9791  -5.9785  -5.9779  -5.9779  -5.9767
 -5.9732  -5.9721  -5.9710  -5.9680  -5.9670  -5.9610  -5.9477  -5.9467
 -5.9414  -1.0528  -1.0520  -1.0518  -1.0467  -1.0427  -1.0406  -1.0401
 -1.0384  -1.0377  -1.0347  -1.0327  -1.0297  -1.0292  -1.0250  -1.0229
 -1.0224  -1.0212  -1.0187  -1.0167  -1.0151  -1.0138  -1.0117  -1.0115
 -0.9977  -0.9957  -0.9917  -0.9787  -0.9592  -0.9238  -0.8366  -0.8300
 -0.8293  -0.8264  -0.8230  -0.8202  -0.8165  -0.8159  -0.8131  -0.8069
 -0.8064  -0.8057  -0.8025  -0.8020  -0.8005  -0.7995  -0.7986  -0.7954
 -0.7940  -0.7910  -0.7900  -0.7891  -0.7876  -0.7709  -0.7661  -0.7655
 -0.7603  -0.7581  -0.7569  -0.7556  -0.7540  -0.7510  -0.7472  -0.7443
 -0.7433  -0.7428  -0.7426  -0.7410  -0.7361  -0.7360  -0.7347  -0.7334
 -0.7287  -0.7273  -0.7239  -0.7233  -0.7231  -0.7213  -0.7196  -0.7185
 -0.7157  -0.7117  -0.6966  -0.6952  -0.6944  -0.6910  -0.6599  -0.6465
 -0.6443  -0.6393  -0.6368  -0.6317  -0.6307  -0.6287  -0.6281  -0.6268
 -0.6253  -0.6233  -0.6196  -0.6156  -0.6140  -0.6136  -0.6107  -0.6101
 -0.6088  -0.6039  -0.6022  -0.6017  -0.6005  -0.5983  -0.5977  -0.5882
 -0.5844  -0.5834  -0.5811  -0.5736  -0.5722  -0.5533  -0.5307  -0.5095
 -0.5087  -0.5079  -0.5066  -0.5044  -0.5017  -0.4977  -0.4974  -0.4965
 -0.4952  -0.4935  -0.4917  -0.4902  -0.4898  -0.4894  -0.4888  -0.4883
 -0.4874  -0.4869  -0.4861  -0.4857  -0.4850  -0.4834  -0.4833  -0.4824
 -0.4823  -0.4815  -0.4812  -0.4805  -0.4797  -0.4793  -0.4792  -0.4789
 -0.4784  -0.4770  -0.4765  -0.4763  -0.4756  -0.4737  -0.4727  -0.4707
 -0.4702  -0.4695  -0.4690  -0.4679  -0.4670  -0.4655  -0.4645  -0.4643
 -0.4630  -0.4626  -0.4626  -0.4619  -0.4612  -0.4611  -0.4602  -0.4598
 -0.4596  -0.4591  -0.4589  -0.4585  -0.4579  -0.4568  -0.4563  -0.4558
 -0.4546  -0.4541  -0.4538  -0.4537  -0.4535  -0.4527  -0.4525  -0.4521
 -0.4516  -0.4506  -0.4502  -0.4492  -0.4484  -0.4481  -0.4477  -0.4469
 -0.4442  -0.4424  -0.4423  -0.4413  -0.4395  -0.4378  -0.4364  -0.4353
 -0.4346  -0.4344  -0.4338  -0.4325  -0.4316  -0.4311  -0.4304  -0.4301
 -0.4296  -0.4295  -0.4278  -0.4268  -0.4261  -0.4256  -0.4251  -0.4246
 -0.4244  -0.4234  -0.4228  -0.4223  -0.4220  -0.4212  -0.4211  -0.4207
 -0.4193  -0.4190  -0.4186  -0.4177  -0.4173  -0.4168  -0.4163  -0.4155
 -0.4138  -0.4131  -0.4129  -0.4115  -0.4104  -0.4096  -0.4090  -0.4085
 -0.4081  -0.4064  -0.4059  -0.4056  -0.4042  -0.4039  -0.4034  -0.4025
 -0.4020  -0.4015  -0.4011  -0.4004  -0.3998  -0.3988  -0.3986  -0.3979
 -0.3965  -0.3963  -0.3956  -0.3948  -0.3944  -0.3939  -0.3909  -0.3905
 -0.3900  -0.3885  -0.3883  -0.3870  -0.3860  -0.3859  -0.3855  -0.3849
 -0.3844  -0.3818  -0.3813  -0.3808  -0.3805  -0.3795  -0.3779  -0.3775
 -0.3753  -0.3752  -0.3692  -0.3682  -0.3678  -0.3677  -0.3671  -0.3664
 -0.3653  -0.3637  -0.3630  -0.3603  -0.3593  -0.3585  -0.3572  -0.3558
 -0.3553  -0.3548  -0.3544  -0.3521  -0.3512  -0.3504  -0.3496  -0.3454
 -0.3424  -0.3365  -0.3351  -0.3325  -0.3310  -0.3273  -0.3242  -0.3191
 -0.3156  -0.3126  -0.3084  -0.3021  -0.3001  -0.3000  -0.2946  -0.2934
 -0.2916  -0.2872  -0.2838  -0.2819  -0.2772  -0.2768  -0.2760  -0.2743
 -0.2734  -0.2730  -0.2727  -0.2714  -0.2709  -0.2673  -0.2668  -0.2641
 -0.2628  -0.2621  -0.2616  -0.2608  -0.2594  -0.2581  -0.2573  -0.2537
 -0.2530  -0.2514  -0.2502  -0.2481  -0.2462  -0.2443  -0.2430  -0.2423
 -0.2422  -0.2400  -0.2389  -0.2367  -0.2350  -0.2345  -0.2326  -0.2292
 -0.2290  -0.2265  -0.2245  -0.2225  -0.2133  -0.2110  -0.2085  -0.2042
 -0.1941  -0.1795
 -- Virtual --
 -0.0422  -0.0371  -0.0289  -0.0242  -0.0235  -0.0217  -0.0207  -0.0189
 -0.0184  -0.0159  -0.0159  -0.0145  -0.0131  -0.0123  -0.0119  -0.0099
 -0.0096  -0.0079  -0.0068  -0.0060  -0.0054  -0.0048  -0.0047  -0.0034
 -0.0022  -0.0016  -0.0014   0.0000   0.0010   0.0031   0.0036   0.0042
  0.0060   0.0065   0.0070   0.0078   0.0080   0.0086   0.0090   0.0097
  0.0111   0.0119   0.0121   0.0130   0.0137   0.0141   0.0148   0.0154
  0.0166   0.0168   0.0169   0.0176   0.0192   0.0200   0.0203   0.0209
  0.0211   0.0216   0.0235   0.0237   0.0239   0.0242   0.0249   0.0254
  0.0263   0.0267   0.0272   0.0279   0.0283   0.0296   0.0309   0.0317
  0.0319   0.0335   0.0337   0.0349   0.0355   0.0359   0.0367   0.0371
  0.0380   0.0388   0.0392   0.0395   0.0402   0.0406   0.0410   0.0415
  0.0422   0.0430   0.0437   0.0445   0.0450   0.0457   0.0461   0.0465
  0.0472   0.0475   0.0482   0.0484   0.0500   0.0504   0.0506   0.0521
  0.0527   0.0529   0.0533   0.0537   0.0550   0.0551   0.0558   0.0559
  0.0565   0.0574   0.0579   0.0583   0.0599   0.0603   0.0610   0.0614
  0.0616   0.0618   0.0633   0.0639   0.0649   0.0655   0.0660   0.0664
  0.0669   0.0674   0.0677   0.0691   0.0692   0.0697   0.0706   0.0713
  0.0721   0.0724   0.0728   0.0742   0.0746   0.0750   0.0753   0.0759
  0.0766   0.0767   0.0784   0.0787   0.0794   0.0801   0.0806   0.0811
  0.0815   0.0825   0.0834   0.0841   0.0848   0.0853   0.0857   0.0872
  0.0874   0.0877   0.0884   0.0889   0.0894   0.0901   0.0908   0.0912
  0.0919   0.0926   0.0931   0.0943   0.0948   0.0958   0.0962   0.0964
  0.0974   0.0980   0.0984   0.0993   0.0997   0.1000   0.1010   0.1012
  0.1020   0.1027   0.1038   0.1040   0.1047   0.1060   0.1061   0.1065
  0.1068   0.1078   0.1084   0.1088   0.1097   0.1105   0.1111   0.1114
  0.1124   0.1127   0.1138   0.1142   0.1156   0.1157   0.1164   0.1170
  0.1176   0.1182   0.1189   0.1192   0.1200   0.1208   0.1212   0.1220
  0.1228   0.1233   0.1237   0.1242   0.1248   0.1254   0.1257   0.1262
  0.1270   0.1279   0.1286   0.1287   0.1296   0.1307   0.1313   0.1316
  0.1325   0.1329   0.1333   0.1339   0.1344   0.1345   0.1356   0.1368
  0.1375   0.1382   0.1385   0.1391   0.1394   0.1403   0.1405   0.1413
  0.1422   0.1425   0.1433   0.1439   0.1452   0.1455   0.1458   0.1460
  0.1470   0.1478   0.1487   0.1490   0.1496   0.1502   0.1511   0.1515
  0.1522   0.1529   0.1535   0.1549   0.1554   0.1559   0.1561   0.1562
  0.1570   0.1575   0.1586   0.1588   0.1590   0.1599   0.1602   0.1605
  0.1617   0.1626   0.1630   0.1640   0.1644   0.1650   0.1654   0.1661
  0.1665   0.1669   0.1676   0.1677   0.1682   0.1687   0.1701   0.1708
  0.1716   0.1724   0.1725   0.1729   0.1734   0.1745   0.1749   0.1756
  0.1758   0.1765   0.1772   0.1777   0.1782   0.1786   0.1793   0.1800
  0.1805   0.1807   0.1815   0.1826   0.1833   0.1837   0.1841   0.1845
  0.1856   0.1864   0.1870   0.1878   0.1881   0.1886   0.1889   0.1894
  0.1907   0.1914   0.1921   0.1926   0.1929   0.1937   0.1941   0.1946
  0.1952   0.1956   0.1972   0.1979   0.1981   0.1983   0.1997   0.2006
  0.2011   0.2012   0.2019   0.2028   0.2033   0.2036   0.2042   0.2055
  0.2062   0.2063   0.2073   0.2078   0.2080   0.2088   0.2098   0.2103
  0.2107   0.2117   0.2122   0.2130   0.2135   0.2137   0.2145   0.2151
  0.2161   0.2162   0.2170   0.2178   0.2184   0.2188   0.2196   0.2199
  0.2201   0.2210   0.2218   0.2222   0.2232   0.2236   0.2237   0.2240
  0.2254   0.2261   0.2268   0.2276   0.2280   0.2290   0.2294   0.2303
  0.2308   0.2309   0.2321   0.2326   0.2331   0.2332   0.2339   0.2352
  0.2355   0.2364   0.2371   0.2375   0.2381   0.2384   0.2393   0.2405
  0.2406   0.2414   0.2421   0.2426   0.2427   0.2443   0.2451   0.2453
  0.2466   0.2472   0.2475   0.2482   0.2494   0.2494   0.2502   0.2505
  0.2511   0.2516   0.2518   0.2526   0.2531   0.2540   0.2552   0.2555
  0.2562   0.2571   0.2578   0.2582   0.2594   0.2595   0.2613   0.2622
  0.2624   0.2628   0.2639   0.2648   0.2656   0.2662   0.2679   0.2683
  0.2685   0.2695   0.2699   0.2705   0.2712   0.2716   0.2721   0.2730
  0.2735   0.2745   0.2753   0.2758   0.2759   0.2772   0.2785   0.2794
  0.2802   0.2804   0.2810   0.2820   0.2824   0.2837   0.2844   0.2853
  0.2858   0.2869   0.2876   0.2877   0.2888   0.2897   0.2908   0.2929
  0.2933   0.2936   0.2942   0.2955   0.2957   0.2969   0.2977   0.2983
  0.2990   0.2999   0.3006   0.3015   0.3020   0.3032   0.3035   0.3049
  0.3060   0.3077   0.3079   0.3091   0.3094   0.3101   0.3111   0.3112
  0.3125   0.3133   0.3143   0.3146   0.3164   0.3169   0.3176   0.3177
  0.3187   0.3201   0.3207   0.3214   0.3222   0.3227   0.3240   0.3254
  0.3259   0.3270   0.3276   0.3281   0.3287   0.3300   0.3309   0.3315
  0.3327   0.3330   0.3336   0.3353   0.3362   0.3366   0.3374   0.3385
  0.3392   0.3401   0.3408   0.3423   0.3426   0.3432   0.3433   0.3439
  0.3445   0.3466   0.3471   0.3488   0.3499   0.3507   0.3515   0.3519
  0.3525   0.3536   0.3543   0.3546   0.3557   0.3561   0.3573   0.3585
  0.3587   0.3603   0.3608   0.3619   0.3621   0.3627   0.3638   0.3656
  0.3657   0.3665   0.3677   0.3687   0.3698   0.3705   0.3715   0.3716
  0.3733   0.3737   0.3753   0.3764   0.3771   0.3774   0.3778   0.3786
  0.3796   0.3810   0.3819   0.3819   0.3826   0.3838   0.3843   0.3853
  0.3860   0.3869   0.3881   0.3890   0.3900   0.3907   0.3931   0.3935
  0.3941   0.3948   0.3959   0.3962   0.3971   0.3979   0.3987   0.3996
  0.4005   0.4012   0.4026   0.4033   0.4047   0.4062   0.4071   0.4075
  0.4085   0.4094   0.4099   0.4108   0.4114   0.4125   0.4131   0.4141
  0.4148   0.4153   0.4164   0.4172   0.4176   0.4185   0.4199   0.4213
  0.4220   0.4227   0.4235   0.4249   0.4255   0.4266   0.4279   0.4286
  0.4292   0.4308   0.4319   0.4323   0.4328   0.4335   0.4345   0.4358
  0.4364   0.4380   0.4391   0.4399   0.4409   0.4416   0.4424   0.4437
  0.4448   0.4458   0.4468   0.4484   0.4487   0.4512   0.4516   0.4526
  0.4533   0.4542   0.4560   0.4575   0.4588   0.4599   0.4604   0.4624
  0.4626   0.4631   0.4646   0.4666   0.4685   0.4692   0.4698   0.4701
  0.4705   0.4720   0.4736   0.4747   0.4759   0.4768   0.4780   0.4793
  0.4811   0.4818   0.4836   0.4840   0.4857   0.4876   0.4883   0.4904
  0.4905   0.4926   0.4929   0.4936   0.4971   0.4977   0.4981   0.5008
  0.5019   0.5032   0.5055   0.5068   0.5089   0.5098   0.5127   0.5137
  0.5155   0.5176   0.5183   0.5200   0.5213   0.5242   0.5262   0.5286
  0.5297   0.5307   0.5318   0.5346   0.5377   0.5400   0.5421   0.5435
  0.5440   0.5459   0.5470   0.5527   0.5530   0.5567   0.5600   0.5612
  0.5615   0.5627   0.5638   0.5665   0.5687   0.5695   0.5716   0.5729
  0.5755   0.5770   0.5786   0.5798   0.5813   0.5825   0.5838   0.5853
  0.5862   0.5873   0.5897   0.5910   0.5934   0.5937   0.5957   0.5968
  0.5973   0.5980   0.5998   0.6008   0.6037   0.6044   0.6057   0.6066
  0.6081   0.6096   0.6105   0.6120   0.6126   0.6145   0.6158   0.6169
  0.6175   0.6186   0.6188   0.6192   0.6226   0.6240   0.6249   0.6267
  0.6278   0.6282   0.6288   0.6301   0.6316   0.6320   0.6328   0.6342
  0.6364   0.6376   0.6383   0.6397   0.6406   0.6413   0.6432   0.6453
  0.6460   0.6469   0.6481   0.6487   0.6497   0.6515   0.6519   0.6542
  0.6549   0.6563   0.6578   0.6585   0.6614   0.6619   0.6623   0.6629
  0.6646   0.6659   0.6674   0.6681   0.6693   0.6704   0.6712   0.6717
  0.6741   0.6749   0.6754   0.6766   0.6785   0.6793   0.6809   0.6818
  0.6830   0.6839   0.6846   0.6856   0.6865   0.6876   0.6884   0.6898
  0.6916   0.6923   0.6936   0.6941   0.6945   0.6959   0.6965   0.6980
  0.6990   0.7013   0.7015   0.7020   0.7031   0.7048   0.7059   0.7070
  0.7072   0.7088   0.7091   0.7105   0.7128   0.7132   0.7149   0.7151
  0.7185   0.7194   0.7202   0.7215   0.7224   0.7239   0.7242   0.7258
  0.7270   0.7287   0.7297   0.7311   0.7321   0.7322   0.7350   0.7354
  0.7364   0.7375   0.7394   0.7406   0.7419   0.7426   0.7442   0.7443
  0.7456   0.7473   0.7486   0.7497   0.7510   0.7531   0.7533   0.7550
  0.7564   0.7586   0.7598   0.7602   0.7612   0.7618   0.7641   0.7646
  0.7668   0.7684   0.7703   0.7706   0.7718   0.7727   0.7747   0.7762
  0.7778   0.7781   0.7798   0.7809   0.7831   0.7836   0.7860   0.7886
  0.7898   0.7908   0.7924   0.7929   0.7961   0.7975   0.7988   0.8017
  0.8035   0.8046   0.8061   0.8073   0.8093   0.8111   0.8114   0.8132
  0.8141   0.8152   0.8160   0.8168   0.8187   0.8192   0.8202   0.8214
  0.8237   0.8242   0.8261   0.8276   0.8287   0.8300   0.8304   0.8317
  0.8332   0.8340   0.8354   0.8367   0.8385   0.8393   0.8403   0.8423
  0.8437   0.8448   0.8465   0.8479   0.8488   0.8505   0.8518   0.8531
  0.8548   0.8558   0.8565   0.8574   0.8585   0.8592   0.8614   0.8623
  0.8633   0.8651   0.8663   0.8668   0.8686   0.8690   0.8723   0.8730
  0.8751   0.8758   0.8765   0.8781   0.8790   0.8802   0.8816   0.8823
  0.8837   0.8857   0.8862   0.8883   0.8896   0.8911   0.8916   0.8926
  0.8943   0.8971   0.8975   0.8985   0.8987   0.9001   0.9003   0.9026
  0.9032   0.9043   0.9051   0.9074   0.9083   0.9096   0.9107   0.9123
  0.9127   0.9145   0.9150   0.9172   0.9185   0.9200   0.9209   0.9214
  0.9227   0.9240   0.9248   0.9269   0.9281   0.9290   0.9295   0.9314
  0.9326   0.9345   0.9356   0.9368   0.9382   0.9385   0.9410   0.9415
  0.9429   0.9439   0.9441   0.9454   0.9457   0.9472   0.9481   0.9497
  0.9513   0.9530   0.9538   0.9546   0.9550   0.9561   0.9570   0.9585
  0.9595   0.9611   0.9622   0.9628   0.9632   0.9649   0.9666   0.9673
  0.9686   0.9697   0.9706   0.9717   0.9726   0.9732   0.9752   0.9755
  0.9763   0.9787   0.9791   0.9804   0.9819   0.9820   0.9833   0.9843
  0.9856   0.9858   0.9883   0.9888   0.9905   0.9913   0.9923   0.9937
  0.9953   0.9960   0.9973   0.9985   0.9993   1.0004   1.0008   1.0024
  1.0027   1.0034   1.0036   1.0055   1.0074   1.0088   1.0093   1.0102
  1.0106   1.0118   1.0134   1.0144   1.0157   1.0159   1.0170   1.0181
  1.0184   1.0201   1.0218   1.0229   1.0239   1.0245   1.0249   1.0266
  1.0284   1.0287   1.0293   1.0299   1.0315   1.0323   1.0333   1.0345
  1.0354   1.0380   1.0381   1.0394   1.0407   1.0427   1.0438   1.0439
  1.0448   1.0463   1.0483   1.0486   1.0503   1.0515   1.0519   1.0538
  1.0543   1.0555   1.0565   1.0574   1.0574   1.0589   1.0600   1.0619
  1.0627   1.0637   1.0645   1.0658   1.0663   1.0676   1.0691   1.0696
  1.0707   1.0718   1.0736   1.0743   1.0760   1.0783   1.0790   1.0800
  1.0819   1.0828   1.0854   1.0861   1.0889   1.0894   1.0922   1.0938
  1.0954   1.0960   1.0976   1.0982   1.0985   1.1004   1.1022   1.1026
  1.1039   1.1046   1.1060   1.1084   1.1108   1.1118   1.1138   1.1152
  1.1162   1.1170   1.1177   1.1206   1.1222   1.1226   1.1238   1.1257
  1.1265   1.1273   1.1295   1.1317   1.1341   1.1357   1.1367   1.1391
  1.1401   1.1423   1.1425   1.1430   1.1456   1.1467   1.1473   1.1477
  1.1501   1.1509   1.1521   1.1535   1.1542   1.1557   1.1565   1.1567
  1.1580   1.1596   1.1614   1.1628   1.1646   1.1661   1.1670   1.1681
  1.1689   1.1701   1.1711   1.1742   1.1753   1.1771   1.1777   1.1800
  1.1817   1.1828   1.1843   1.1860   1.1867   1.1899   1.1924   1.1933
  1.1944   1.1953   1.1957   1.1995   1.2009   1.2016   1.2036   1.2046
  1.2054   1.2057   1.2081   1.2085   1.2105   1.2125   1.2149   1.2151
  1.2163   1.2178   1.2188   1.2210   1.2231   1.2242   1.2252   1.2260
  1.2288   1.2289   1.2314   1.2344   1.2350   1.2376   1.2398   1.2414
  1.2465   1.2469   1.2498   1.2502   1.2513   1.2528   1.2539   1.2573
  1.2596   1.2602   1.2631   1.2644   1.2672   1.2692   1.2731   1.2742
  1.2754   1.2760   1.2772   1.2818   1.2849   1.2870   1.2898   1.2917
  1.2932   1.2958   1.2986   1.3022   1.3038   1.3056   1.3103   1.3130
  1.3147   1.3164   1.3182   1.3214   1.3233   1.3276   1.3282   1.3303
  1.3332   1.3346   1.3369   1.3389   1.3421   1.3435   1.3457   1.3482
  1.3525   1.3535   1.3573   1.3584   1.3600   1.3614   1.3628   1.3638
  1.3654   1.3674   1.3682   1.3701   1.3722   1.3742   1.3753   1.3763
  1.3776   1.3799   1.3811   1.3819   1.3848   1.3853   1.3859   1.3897
  1.3909   1.3920   1.3930   1.3955   1.3960   1.3985   1.4007   1.4013
  1.4022   1.4059   1.4073   1.4086   1.4101   1.4116   1.4125   1.4132
  1.4141   1.4160   1.4172   1.4188   1.4199   1.4211   1.4219   1.4234
  1.4238   1.4260   1.4271   1.4291   1.4300   1.4327   1.4344   1.4353
  1.4370   1.4380   1.4409   1.4424   1.4426   1.4432   1.4446   1.4459
  1.4483   1.4491   1.4516   1.4542   1.4556   1.4559   1.4578   1.4596
  1.4607   1.4614   1.4624   1.4648   1.4670   1.4689   1.4706   1.4721
  1.4741   1.4748   1.4764   1.4774   1.4791   1.4804   1.4828   1.4847
  1.4850   1.4860   1.4874   1.4904   1.4921   1.4952   1.4963   1.4972
  1.4987   1.5007   1.5026   1.5054   1.5068   1.5085   1.5097   1.5135
  1.5141   1.5167   1.5177   1.5211   1.5240   1.5256   1.5277   1.5295
  1.5319   1.5339   1.5363   1.5385   1.5407   1.5428   1.5440   1.5473
  1.5519   1.5529   1.5550   1.5574   1.5606   1.5631   1.5666   1.5701
  1.5720   1.5753   1.5781   1.5798   1.5859   1.5905   1.5913   1.5928
  1.5946   1.6043   1.6050   1.6068   1.6125   1.6165   1.6194   1.6225
  1.6273   1.6311   1.6408   1.6414   1.6469   1.6534   1.6537   1.6573
  1.6575   1.6613   1.6631   1.6655   1.6687   1.6710   1.6729   1.6738
  1.6745   1.6757   1.6777   1.6785   1.6806   1.6811   1.6824   1.6827
  1.6845   1.6857   1.6862   1.6872   1.6886   1.6891   1.6898   1.6908
  1.6919   1.6937   1.6942   1.6952   1.6975   1.7000   1.7012   1.7020
  1.7035   1.7053   1.7056   1.7095   1.7103   1.7117   1.7132   1.7135
  1.7156   1.7176   1.7191   1.7218   1.7231   1.7242   1.7252   1.7272
  1.7281   1.7300   1.7322   1.7326   1.7334   1.7345   1.7357   1.7371
  1.7386   1.7408   1.7420   1.7438   1.7466   1.7481   1.7493   1.7510
  1.7518   1.7539   1.7547   1.7562   1.7577   1.7579   1.7592   1.7607
  1.7614   1.7641   1.7648   1.7659   1.7679   1.7682   1.7707   1.7716
  1.7741   1.7757   1.7766   1.7797   1.7808   1.7818   1.7825   1.7831
  1.7865   1.7874   1.7888   1.7909   1.7920   1.7923   1.7952   1.7954
  1.7978   1.8011   1.8030   1.8050   1.8056   1.8108   1.8120   1.8128
  1.8146   1.8170   1.8188   1.8219   1.8245   1.8286   1.8344   1.8360
  1.8383   1.8400   1.8412   1.8427   1.8453   1.8475   1.8500   1.8525
  1.8552   1.8605   1.8619   1.8631   1.8660   1.8672   1.8690   1.8727
  1.8734   1.8754   1.8776   1.8787   1.8803   1.8812   1.8821   1.8830
  1.8833   1.8863   1.8868   1.8877   1.8903   1.8912   1.8927   1.8933
  1.8943   1.8949   1.8956   1.8977   1.9007   1.9015   1.9034   1.9041
  1.9061   1.9075   1.9083   1.9091   1.9100   1.9113   1.9126   1.9149
  1.9154   1.9178   1.9187   1.9194   1.9217   1.9221   1.9239   1.9260
  1.9271   1.9290   1.9305   1.9306   1.9320   1.9343   1.9360   1.9396
  1.9428   1.9446   1.9461   1.9480   1.9496   1.9506   1.9513   1.9540
  1.9554   1.9582   1.9598   1.9624   1.9649   1.9671   1.9686   1.9724
  1.9764   1.9794   1.9816   1.9858   1.9894   1.9900   2.0008   2.0066
  2.0113   2.0140   2.0253   2.0327   2.0384   2.0434   2.0505   2.0518
  2.0566   2.0587   2.0593   2.0604   2.0621   2.0630   2.0650   2.0658
  2.0671   2.0673   2.0713   2.0737   2.0748   2.0756   2.0760   2.0768
  2.0785   2.0820   2.0825   2.0840   2.0863   2.0873   2.0893   2.0898
  2.0909   2.0922   2.0937   2.0947   2.0966   2.0992   2.0997   2.1009
  2.1022   2.1034   2.1063   2.1074   2.1081   2.1094   2.1126   2.1135
  2.1146   2.1161   2.1174   2.1188   2.1201   2.1243   2.1263   2.1270
  2.1308   2.1359   2.1381   2.1437   2.1464   2.1476   2.1536   2.1549
  2.1574   2.1590   2.1635   2.1655   2.1675   2.1697   2.1719   2.1747
  2.1763   2.1772   2.1795   2.1833   2.1850   2.1869   2.1888   2.1913
  2.1917   2.1970   2.1989   2.2068   2.2083   2.2100   2.2110   2.2165
  2.2175   2.2194   2.2210   2.2213   2.2224   2.2237   2.2247   2.2266
  2.2298   2.2316   2.2328   2.2334   2.2341   2.2368   2.2370   2.2380
  2.2404   2.2430   2.2437   2.2454   2.2458   2.2460   2.2479   2.2496
  2.2502   2.2526   2.2530   2.2542   2.2546   2.2547   2.2568   2.2586
  2.2601   2.2607   2.2616   2.2625   2.2638   2.2653   2.2659   2.2677
  2.2682   2.2685   2.2699   2.2712   2.2717   2.2722   2.2726   2.2738
  2.2749   2.2753   2.2756   2.2763   2.2766   2.2773   2.2780   2.2788
  2.2802   2.2807   2.2821   2.2829   2.2837   2.2847   2.2860   2.2867
  2.2873   2.2875   2.2890   2.2905   2.2917   2.2923   2.2931   2.2936
  2.2950   2.2956   2.2967   2.2981   2.2990   2.2999   2.3011   2.3016
  2.3025   2.3033   2.3042   2.3053   2.3063   2.3067   2.3073   2.3095
  2.3107   2.3117   2.3126   2.3133   2.3151   2.3164   2.3172   2.3192
  2.3203   2.3212   2.3232   2.3245   2.3246   2.3264   2.3277   2.3280
  2.3291   2.3305   2.3314   2.3353   2.3361   2.3367   2.3386   2.3396
  2.3398   2.3425   2.3430   2.3441   2.3471   2.3475   2.3492   2.3504
  2.3520   2.3560   2.3588   2.3595   2.3604   2.3623   2.3650   2.3661
  2.3669   2.3704   2.3729   2.3736   2.3769   2.3783   2.3804   2.3838
  2.3850   2.3862   2.3886   2.3924   2.3935   2.3954   2.4008   2.4071
  2.4140   2.4233   2.4330   2.4340   2.4599   2.4948   2.5086   2.5371
  2.6032   2.6856   2.7083   2.7519   2.7900   2.8024   2.8110   2.8237
  2.8283   2.8317   2.8341   2.8348   2.8431   2.8445   2.8477   2.8490
  2.8505   2.8514   2.8541   2.8558   2.8582   2.8611   2.8650   2.8667
  2.8686   2.8699   2.8716   2.8755   2.8761   2.8787   2.8857   2.8951
  2.8975   2.9053   2.9099   2.9237   2.9400   3.1043   3.2565   3.9475
  3.9563   3.9678   3.9690   3.9742   3.9758   3.9768   3.9794   3.9830
  3.9869   3.9890   3.9912   3.9941   3.9962   3.9985   3.9998   4.0032
  4.0045   4.0070   4.0100   4.0124   4.0145   4.0214   4.0259   4.0349
  4.0477   4.0518   4.2125   4.2254   4.2270   4.2341   4.2384   4.2424
  4.2445   4.2461   4.2499   4.2518   4.2563   4.2585   4.2617   4.2634
  4.2657   4.2668   4.2713   4.2744   4.2770   4.2789   4.2841   4.2895
  4.2899   4.2946   4.2974   4.3005   4.3029   4.3036   4.3059   4.3076
  4.3087   4.3102   4.3136   4.3148   4.3177   4.3190   4.3206   4.3235
  4.3292   4.3309   4.3340   4.3370   4.3381   4.3401   4.3452   4.3480
  4.3505   4.3525   4.3576   4.3595   4.3627   4.3655   4.3671   4.3691
  4.3736   4.3759   4.3795   4.3821   4.3826   4.3894   4.3960   4.3976
  4.4009   4.4058   4.4140   4.4200   4.4210   4.4268   4.4310   4.4369
  4.4395   4.4454   4.4468   4.4520   4.4604   4.4652   4.4819   4.4901
  4.5004   4.5100   4.5240   4.5501   4.5631   4.6082   4.6392   4.6744
  4.6895   4.7335   4.7655   4.9270
 --------------------------------------------------------------
 
          Ground-State Mulliken Net Atomic Charges

     Atom                 Charge (a.u.)
  ----------------------------------------
      1 C                    -0.327288
      2 C                    -0.720481
      3 C                    -0.195099
      4 C                    -0.325376
      5 C                    -0.460462
      6 C                    -0.329679
      7 H                     0.218374
      8 H                     0.226315
      9 H                     0.185994
     10 H                     0.206926
     11 H                     0.223304
     12 H                     0.212485
     13 H                     0.176938
     14 H                     0.178567
     15 H                     0.221912
     16 H                     0.179931
     17 H                     0.183211
     18 N                    -0.276294
     19 H                     0.466589
     20 C                     0.345209
     21 H                     0.140232
     22 O                    -0.531311
     23 C                    -0.848747
     24 H                     0.251467
     25 H                     0.262548
     26 H                     0.259635
     27 S                     0.968822
     28 C                    -1.043352
     29 H                     0.288609
     30 H                     0.304180
     31 H                     0.234263
     32 O                    -0.700004
     33 C                    -0.799942
     34 H                     0.249365
     35 H                     0.327376
     36 H                     0.230436
     37 S                     0.648412
     38 C                    -0.773283
     39 H                     0.249178
     40 H                     0.237590
     41 H                     0.270359
     42 O                    -0.654162
     43 C                    -0.856019
     44 H                     0.282734
     45 H                     0.235168
     46 H                     0.245986
     47 S                     0.818581
     48 C                    -0.748233
     49 H                     0.260041
     50 H                     0.251506
     51 H                     0.239076
     52 O                    -0.672148
     53 C                    -0.757620
     54 H                     0.249166
     55 H                     0.223752
     56 H                     0.258428
     57 S                     0.840278
     58 C                    -0.784558
     59 H                     0.294170
     60 H                     0.240204
     61 H                     0.229254
     62 O                    -0.755378
     63 C                    -0.960791
     64 H                     0.262210
     65 H                     0.256738
     66 H                     0.241892
     67 S                     1.193124
     68 C                    -0.910539
     69 H                     0.249599
     70 H                     0.267077
     71 H                     0.254710
     72 O                    -0.712025
     73 C                    -1.094666
     74 H                     0.287647
     75 H                     0.300155
     76 H                     0.218449
     77 S                     1.229746
     78 C                    -1.001025
     79 H                     0.275059
     80 H                     0.253466
     81 H                     0.254465
     82 O                    -0.736800
     83 C                    -1.107331
     84 H                     0.258638
     85 H                     0.260222
     86 H                     0.271720
     87 S                     1.243300
     88 C                    -0.958327
     89 H                     0.252729
     90 H                     0.262479
     91 H                     0.249879
     92 O                    -0.731682
     93 C                    -1.321033
     94 H                     0.297789
     95 H                     0.249331
     96 H                     0.268189
     97 S                     0.900499
     98 C                    -0.708985
     99 H                     0.255044
    100 H                     0.306069
    101 H                     0.235873
    102 O                    -0.564413
    103 C                    -0.804771
    104 H                     0.194909
    105 H                     0.292517
    106 H                     0.297494
    107 S                     0.671052
    108 C                    -0.764989
    109 H                     0.237851
    110 H                     0.286930
    111 H                     0.224576
    112 O                    -0.687782
    113 C                    -0.848637
    114 H                     0.244871
    115 H                     0.239070
    116 H                     0.267966
    117 S                     0.611737
    118 C                    -0.718420
    119 H                     0.246937
    120 H                     0.247535
    121 H                     0.291186
    122 O                    -0.649089
    123 C                    -0.969136
    124 H                     0.263649
    125 H                     0.252408
    126 H                     0.240465
    127 S                     1.157286
    128 C                    -1.024959
    129 H                     0.253631
    130 H                     0.232919
    131 H                     0.307755
    132 O                    -0.731663
    133 C                    -0.764878
    134 H                     0.288385
    135 H                     0.231269
    136 H                     0.290244
    137 S                     0.651063
    138 C                    -0.731998
    139 H                     0.319005
    140 H                     0.201187
    141 H                     0.251561
    142 O                    -0.745114
    143 C                    -0.971171
    144 H                     0.280235
    145 H                     0.237074
    146 H                     0.255298
    147 S                     0.843237
    148 C                    -0.800867
    149 H                     0.245756
    150 H                     0.254854
    151 H                     0.243933
    152 O                    -0.626839
    153 C                    -0.737462
    154 H                     0.266777
    155 H                     0.250450
    156 H                     0.227462
    157 S                     0.857024
    158 C                    -0.878558
    159 H                     0.225733
    160 H                     0.271950
    161 H                     0.257177
    162 O                    -0.743646
    163 C                    -0.877169
    164 H                     0.254051
    165 H                     0.264450
    166 H                     0.235090
    167 S                     0.942518
    168 C                    -0.846769
    169 H                     0.217684
    170 H                     0.310697
    171 H                     0.264302
    172 O                    -0.668689
    173 C                    -1.006863
    174 H                     0.237425
    175 H                     0.263309
    176 H                     0.267150
    177 S                     1.200300
    178 C                    -1.052409
    179 H                     0.299417
    180 H                     0.256853
    181 H                     0.245056
    182 O                    -0.673623
    183 C                    -0.790888
    184 H                     0.220744
    185 H                     0.259460
    186 H                     0.262374
    187 S                     0.696203
    188 C                    -0.714100
    189 H                     0.267170
    190 H                     0.230818
    191 H                     0.282769
    192 O                    -0.658337
    193 C                    -1.022935
    194 H                     0.245905
    195 H                     0.243220
    196 H                     0.254081
    197 S                     1.018519
    198 C                    -0.858851
    199 H                     0.224726
    200 H                     0.233457
    201 H                     0.313174
    202 O                    -0.663480
    203 C                    -0.963299
    204 H                     0.233149
    205 H                     0.275923
    206 H                     0.263487
    207 S                     1.090213
    208 C                    -0.939711
    209 H                     0.240997
    210 H                     0.299084
    211 H                     0.245610
    212 O                    -0.755127
    213 C                    -0.976682
    214 H                     0.287178
    215 H                     0.243512
    216 H                     0.251157
    217 S                     0.832703
    218 C                    -0.941703
    219 H                     0.257949
    220 H                     0.260401
    221 H                     0.279456
    222 O                    -0.623396
    223 C                    -0.894971
    224 H                     0.237850
    225 H                     0.255987
    226 H                     0.268563
    227 S                     1.111750
    228 C                    -0.948090
    229 H                     0.231638
    230 H                     0.225340
    231 H                     0.257624
    232 O                    -0.752070
    233 C                    -0.748646
    234 H                     0.242503
    235 H                     0.262902
    236 H                     0.243447
    237 S                     0.812798
    238 C                    -0.799752
    239 H                     0.282498
    240 H                     0.297868
    241 H                     0.226449
    242 O                    -0.684478
    243 C                    -0.902001
    244 H                     0.238308
    245 H                     0.263307
    246 H                     0.229244
    247 S                     1.167494
    248 C                    -0.946038
    249 H                     0.219087
    250 H                     0.274716
    251 H                     0.266414
    252 O                    -0.764015
    253 C                    -1.060007
    254 H                     0.284241
    255 H                     0.236202
    256 H                     0.251678
    257 S                     1.044502
    258 C                    -0.932822
    259 H                     0.251267
    260 H                     0.246061
    261 H                     0.262221
    262 O                    -0.669557
    263 C                    -1.039935
    264 H                     0.271749
    265 H                     0.252417
    266 H                     0.261889
    267 S                     1.292419
    268 C                    -1.034834
    269 H                     0.284204
    270 H                     0.238898
    271 H                     0.255089
    272 O                    -0.650215
    273 C                    -1.047335
    274 H                     0.266634
    275 H                     0.275847
    276 H                     0.248335
    277 S                     0.720462
    278 C                    -0.855268
    279 H                     0.309207
    280 H                     0.253478
    281 H                     0.294365
    282 O                    -0.590540
    283 C                    -1.062448
    284 H                     0.244610
    285 H                     0.273330
    286 H                     0.258225
    287 S                     1.054255
    288 C                    -0.954086
    289 H                     0.243051
    290 H                     0.248255
    291 H                     0.288226
    292 O                    -0.645561
  ----------------------------------------
  Sum of atomic charges =     0.000000

 -----------------------------------------------------------------
                    Cartesian Multipole Moments
 -----------------------------------------------------------------
    Charge (ESU x 10^10)
                -0.0000
    Dipole Moment (Debye)
         X      30.0273      Y       6.7917      Z      -1.7620
       Tot      30.8362
    Quadrupole Moments (Debye-Ang)
        XX     316.2243     XY     392.9591     YY    -702.0121
        XZ     826.2279     YZ     182.3789     ZZ   -1024.9969
    Octopole Moments (Debye-Ang^2)
       XXX  -24564.2185    XXY    -796.8563    XYY  -15230.9140
       YYY  -36238.5149    XXZ    7415.6583    XYZ   10832.8509
       YYZ  -20450.9444    XZZ    1681.8290    YZZ   -9386.4432
       ZZZ  -85552.9075
    Hexadecapole Moments (Debye-Ang^3)
      XXXX ************   XXXY -598948.5361   XXYY -589204.3243
      XYYY -865644.7474   YYYY ************   XXXZ -778329.8006
      XXYZ  -49998.9030   XYYZ -449334.7337   YYYZ ************
      XXZZ -341208.3222   XYZZ  -31310.7432   YYZZ -852144.6435
      XZZZ ************   YZZZ ************   ZZZZ ************
 -----------------------------------------------------------------
Archival summary:
[...]
    1   0.0060378  -0.0048461   0.0347418  -0.0085723   0.0024017   0.0038838
    2   0.0073340   0.0245227   0.0088245  -0.0029505   0.0003807  -0.0043986
    3  -0.0062191   0.0197244   0.0061204  -0.0335511   0.0544840  -0.0068549
          139         140         141         142         143         144
    1  -0.0035605   0.0368219  -0.0090625  -0.0911853  -0.0106294   0.0019155
    2  -0.0055629   0.0022931  -0.0284925  -0.0100426   0.0026434  -0.0283250
    3  -0.0287419  -0.0027082   0.0106770  -0.0581092   0.0020273   0.0185648
          145         146         147         148         149         150
    1  -0.0032754  -0.0209698   0.0101722   0.0018934   0.0019483   0.0317236
    2   0.0314722   0.0006861  -0.0671019   0.0064043  -0.0209423  -0.0010670
    3   0.0111250  -0.0221347  -0.0143433   0.0033859   0.0249536  -0.0013729
          151         152         153         154         155         156
    1   0.0021676   0.0082031  -0.0044836  -0.0115187  -0.0289920  -0.0139811
    2   0.0353559   0.0729345  -0.0003802  -0.0153169   0.0182203  -0.0229933
    3   0.0129977  -0.0804846  -0.0009868   0.0227157  -0.0073937  -0.0271021
          157         158         159         160         161         162
    1   0.0187594   0.0050663   0.0031004   0.0295210  -0.0211245  -0.0260132
    2   0.0290128  -0.0056392  -0.0273270   0.0172728  -0.0181624   0.0408877
    3  -0.0429273   0.0031148  -0.0226134   0.0047123   0.0203113   0.0993089
          163         164         165         166         167         168
    1  -0.0075891  -0.0229733   0.0000893  -0.0196681   0.0248751   0.0018165
    2  -0.0025810  -0.0231543  -0.0186322   0.0281338   0.0434716   0.0036906
    3  -0.0014575  -0.0182071   0.0224018   0.0034774   0.0316851  -0.0078042
          169         170         171         172         173         174
    1  -0.0294271   0.0308897  -0.0082382   0.0514808  -0.0084329  -0.0194756
    2   0.0224154   0.0108311  -0.0237414  -0.0946682   0.0066782  -0.0070835
    3  -0.0153337  -0.0120994  -0.0180456  -0.0182897   0.0015257  -0.0222929
          175         176         177         178         179         180
    1  -0.0077527   0.0064280   0.0045340   0.0016218  -0.0128346   0.0306592
    2  -0.0230266   0.0337082  -0.0589176  -0.0002009  -0.0228467   0.0026358
    3   0.0313026  -0.0126888  -0.0085370   0.0080402   0.0243584   0.0033957
          181         182         183         184         185         186
    1   0.0018494   0.0395090   0.0071449   0.0056762   0.0314299  -0.0024331
    2   0.0317844   0.0752189  -0.0031458  -0.0350386   0.0057936   0.0250070
    3   0.0120588  -0.0684507   0.0019646   0.0077492  -0.0110319   0.0206211
          187         188         189         190         191         192
    1  -0.0524044   0.0016886   0.0212408   0.0022995  -0.0235385   0.0340078
    2  -0.0046386  -0.0056734   0.0114346  -0.0291812   0.0003994   0.0960765
    3   0.0256140  -0.0099676  -0.0229907   0.0120278  -0.0264780  -0.0409094
          193         194         195         196         197         198
    1  -0.0028606  -0.0349442   0.0173421   0.0239473   0.0535783  -0.0056868
    2   0.0011822  -0.0085481  -0.0260501   0.0249289   0.0122922   0.0059539
    3   0.0092536   0.0056559   0.0011794   0.0096232  -0.0241868  -0.0023924
          199         200         201         202         203         204
    1  -0.0264532   0.0177849  -0.0141824  -0.0628957   0.0032510  -0.0021147
    2  -0.0008821   0.0248027  -0.0040662  -0.0819876  -0.0024091   0.0065298
    3   0.0179756   0.0141616  -0.0306232  -0.0386072  -0.0024825  -0.0367738
          205         206         207         208         209         210
    1   0.0291718  -0.0052733  -0.0499549   0.0017567  -0.0234663  -0.0014563
    2   0.0066342  -0.0316656  -0.0251298   0.0089061   0.0090470   0.0204405
    3   0.0044782  -0.0081317   0.0112674   0.0017157  -0.0197167   0.0265886
          211         212         213         214         215         216
    1   0.0235654   0.0853890  -0.0048401  -0.0179636   0.0086270  -0.0134857
    2   0.0134340   0.0090033  -0.0023494   0.0099692  -0.0282471  -0.0136240
    3  -0.0190971   0.0677038  -0.0002621  -0.0203711  -0.0138122   0.0282843
          217         218         219         220         221         222
    1   0.0506448  -0.0043647  -0.0327718  -0.0122660   0.0142389  -0.0166160
    2  -0.0166751   0.0028428   0.0118734  -0.0166164   0.0300076   0.0612833
    3   0.0211837   0.0068817  -0.0007369   0.0331280  -0.0030659  -0.0882973
          223         224         225         226         227         228
    1  -0.0068634   0.0034412  -0.0315063   0.0118747   0.0224645   0.0038801
    2   0.0060409  -0.0091973   0.0065314   0.0274745   0.0077640  -0.0008837
    3  -0.0041512  -0.0323025   0.0158159   0.0099162   0.0431879  -0.0041753
          229         230         231         232         233         234
    1   0.0240513   0.0238760  -0.0224157  -0.0685400   0.0039351   0.0113212
    2   0.0235869  -0.0288281  -0.0089465  -0.0829111  -0.0022968  -0.0216200
    3  -0.0013143  -0.0085012  -0.0212189  -0.0290047   0.0069594  -0.0167981
          235         236         237         238         239         240
    1   0.0241453  -0.0135051   0.0330781  -0.0062782   0.0287695  -0.0306226
    2   0.0185797  -0.0236455   0.0311779   0.0018770   0.0181665   0.0061075
    3   0.0124018   0.0224766  -0.0371979   0.0122899   0.0107511   0.0040050
          241         242         243         244         245         246
    1  -0.0148654  -0.0698672   0.0020809  -0.0189269  -0.0144064   0.0240991
    2  -0.0136170  -0.0813454   0.0040755  -0.0009969   0.0248657  -0.0137893
    3   0.0312231  -0.0283560  -0.0050969  -0.0259779   0.0160112  -0.0048133
          247         248         249         250         251         252
    1   0.0282013  -0.0000125  -0.0046242  -0.0306666   0.0329929  -0.1086332
    2  -0.0109678  -0.0053578  -0.0386358   0.0075085  -0.0089516   0.0204579
    3   0.0422901  -0.0060916   0.0025156  -0.0113443  -0.0045954  -0.0038450
          253         254         255         256         257         258
    1  -0.0008472  -0.0206417   0.0333169  -0.0090636  -0.0533299   0.0018146
    2   0.0092653  -0.0113828   0.0065973   0.0198872  -0.0193048  -0.0013787
    3   0.0053137   0.0273646  -0.0030344  -0.0250138  -0.0152660   0.0061081
          259         260         261         262         263         264
    1   0.0099285   0.0272767  -0.0166764   0.0890440  -0.0038768  -0.0246405
    2  -0.0288535   0.0092970  -0.0032442  -0.0057348  -0.0074226   0.0011505
    3  -0.0022753   0.0107500   0.0275559  -0.0630233  -0.0042980  -0.0277281
          265         266         267         268         269         270
    1   0.0256023  -0.0231550  -0.0392611   0.0069123   0.0235075  -0.0007339
    2  -0.0205919  -0.0048405   0.0400414  -0.0015478  -0.0110417  -0.0152970
    3   0.0119650   0.0130321  -0.0121791  -0.0021250   0.0173894  -0.0285157
          271         272         273         274         275         276
    1   0.0112397   0.0479010   0.0022360   0.0307975   0.0036377  -0.0052009
    2   0.0276481  -0.0114790  -0.0053081  -0.0026409  -0.0021335  -0.0248753
    3  -0.0075376   0.0977969   0.0030435  -0.0019298   0.0275610  -0.0218588
          277         278         279         280         281         282
    1  -0.0098685   0.0084233   0.0173669  -0.0164409   0.0167084  -0.0902868
    2   0.0202411   0.0024908   0.0165747   0.0215210  -0.0081852  -0.0236771
    3  -0.0519719   0.0054538  -0.0209010   0.0142792   0.0297762   0.0752573
          283         284         285         286         287         288
    1   0.0004745   0.0241771  -0.0191528  -0.0190487  -0.0424952   0.0042617
    2  -0.0046805  -0.0021570  -0.0278327   0.0185396   0.0251532   0.0078551
    3  -0.0075076  -0.0244775  -0.0025365  -0.0090035   0.0373105   0.0010260
          289         290         291         292
    1   0.0203794  -0.0071977   0.0022235   0.0620344
    2  -0.0159833   0.0352802   0.0169156  -0.0834641
    3  -0.0183794  -0.0085910   0.0313706   0.0344840
  --- DONE ESP SUMMARY ---
Archival summary:
1\1\n0094.mhg0\SP\ProcedureUnspecified\6-31+G*\272754h22\ymao\FriMar1213:09:522021FriMar1213:09:522021\0\\#,ProcedureUnspecified,6-31+G*,\\0,1\S\O,1,1.49681\C,1,1.80632,2,100.874\H,3,1.09305,1,100.275,2,81.4721,0\H,3,1.09308,1,109.245,2,-158.128,0\H,3,1.09355,1,109.649,2,-29.3151,0\C,1,1.80695,2,106.749,3,-101.278,0\H,7,1.09277,1,107.204,2,-177.432,0\H,7,1.09333,1,103.279,2,68.1247,0\H,7,1.09365,1,110.316,2,-56.7896,0\Gh,2,2.02849,1,131.878,3,-172.433,0\Gh,11,1.01338,2,151.245,1,60.0732,0\Gh,12,1.37837,11,114.196,2,65.8006,0\Gh,13,1.10497,12,111.445,11,-5.15355,0\Gh,13,1.21787,12,124.536,11,-174.162,0\Gh,12,1.46187,11,117.273,2,-96.3013,0\Gh,16,1.09715,12,107.74,11,167.267,0\Gh,16,1.53768,12,110.802,11,-69.7996,0\Gh,18,1.0969,16,109.134,12,54.0046,0\Gh,18,1.09702,16,110.874,12,-57.0713,0\Gh,16,1.53775,12,110.225,11,54.0329,0\Gh,21,1.09686,16,109.728,12,-60.4594,0\Gh,21,1.09701,16,108.286,12,58.9141,0\Gh,18,1.53776,16,113.8,12,173.596,0\Gh,24,1.09611,18,110.673,16,69.1277,0\Gh,24,1.09729,18,108.329,16,-174.248,0\Gh,24,1.53736,18,115.317,16,-42.4614,0\Gh,27,1.09666,24,108.138,18,159.356,0\Gh,27,1.09743,24,105.614,18,-86.4649,0\Gh,27,1.53739,24,115.821,18,39.5492,0\Gh,30,1.09658,27,105.214,24,65.1029,0\Gh,30,1.09725,27,116.002,24,-173.52,0\H,29,2.13533,27,151.62,24,-47.7349,0\C,33,1.09345,29,135.686,27,-26.2895,0\H,34,1.09261,33,116.472,29,96.0369,0\H,34,1.09304,33,118.614,29,-24.3791,0\S,34,1.80745,33,105.914,29,-141.649,0\O,37,1.49666,34,103.297,33,178.055,0\C,37,1.80717,34,94.9492,33,-76.5688,0\H,39,1.09249,37,106.982,34,-35.6212,0\H,39,1.09288,37,108.539,34,85.4957,0\H,39,1.09324,37,107.885,34,-149.047,0\H,17,2.1528,16,111.597,12,62.8818,0\C,43,1.0929,17,129.677,16,149.285,0\H,44,1.09285,43,107.85,17,-0.0441834,0\H,44,1.09299,43,111.994,17,-121.443,0\S,44,1.80768,43,112.556,17,115.748,0\O,47,1.49694,44,98.8581,43,175.453,0\C,47,1.80723,44,97.3356,43,-77.7521,0\H,49,1.0926,47,106.05,44,-70.1282,0\H,49,1.09262,47,112.238,44,167.064,0\H,49,1.09314,47,112.468,44,44.0797,0\H,6,2.19725,3,161.548,1,-37.5015,0\C,53,1.09321,6,130.58,3,-77.7941,0\H,54,1.09287,53,103.59,6,-144.397,0\H,54,1.0934,53,107.698,6,99.7157,0\S,54,1.80642,53,106.091,6,-20.5863,0\O,57,1.49727,54,108.451,53,56.8792,0\C,57,1.80736,54,97.8885,53,170.66,0\H,59,1.09224,57,105.742,54,-176.957,0\H,59,1.09274,57,101.442,54,-61.0928,0\H,59,1.09312,57,109.745,54,54.1075,0\H,53,2.13491,6,82.8505,3,111.316,0\C,63,1.09275,53,144.368,6,-126.076,0\H,64,1.09239,63,104.058,53,-110.262,0\H,64,1.0928,63,106.389,53,136.23,0\S,64,1.80736,63,109.558,53,10.4301,0\O,67,1.49755,64,106.802,63,168.678,0\C,67,1.80638,64,99.6038,63,-81.3434,0\H,69,1.09269,67,103.517,64,-166.931,0\H,69,1.09317,67,110.416,64,73.4459,0\H,69,1.09332,67,105.042,64,-47.8276,0\H,23,2.20728,21,104.172,16,-148.042,0\C,73,1.09241,23,104.974,21,-115.782,0\H,74,1.09249,73,104.093,23,95.6135,0\H,74,1.0937,73,119.795,23,-34.3275,0\S,74,1.80758,73,105.797,23,-145.77,0\O,77,1.49724,74,99.1438,73,178.764,0\C,77,1.80759,74,94.8483,73,75.2236,0\H,79,1.09273,77,105.852,74,-159.914,0\H,79,1.09293,77,110.015,74,77.6675,0\H,79,1.09349,77,107.312,74,-42.0591,0\H,76,2.17041,74,143.914,73,-24.3125,0\C,83,1.09326,76,142.149,74,92.9162,0\H,84,1.09237,83,117.047,76,114.004,0\H,84,1.09244,83,114.869,76,-2.07145,0\S,84,1.80709,83,104.051,76,-131.831,0\O,87,1.49638,84,106.777,83,-164.902,0\C,87,1.80653,84,99.4114,83,-64.8128,0\H,89,1.09269,87,105.449,84,-161.475,0\H,89,1.09296,87,99.4946,84,-44.7674,0\H,89,1.09363,87,113.676,84,77.0887,0\H,28,2.22061,27,142.546,24,42.5913,0\C,93,1.09356,28,110.047,27,-102.13,0\H,94,1.09286,93,114.329,28,-168.607,0\H,94,1.09333,93,110.837,28,67.2407,0\S,94,1.80673,93,109.797,28,-50.6486,0\O,97,1.49708,94,105.991,93,-64.8546,0\C,97,1.80739,94,96.6233,93,-169.664,0\H,99,1.09242,97,122.591,94,-39.7586,0\H,99,1.09257,97,106.044,94,75.3312,0\H,99,1.09296,97,106.917,94,-168.167,0\H,93,2.18548,28,67.5621,27,110.774,0\C,103,1.09291,93,162.362,28,70.3178,0\H,104,1.09296,103,109.157,93,150.88,0\H,104,1.09302,103,115.454,93,-83.5772,0\S,104,1.8068,103,111.315,93,36.227,0\O,107,1.49703,104,98.3124,103,175.699,0\C,107,1.80626,104,91.0466,103,67.628,0\H,109,1.09274,107,112.621,104,61.6302,0\H,109,1.09309,107,113.037,104,-56.2566,0\H,109,1.09356,107,113.463,104,-172.407,0\H,96,2.22305,94,96.2479,93,49.5037,0\C,113,1.09252,96,123.053,94,139.153,0\H,114,1.09279,113,108.678,96,-106.115,0\H,114,1.09371,113,112.428,96,11.1643,0\S,114,1.80742,113,106.629,96,125.319,0\O,117,1.49707,114,100.556,113,-171.416,0\C,117,1.80714,114,88.9554,113,80.0553,0\H,119,1.09275,117,113.261,114,-36.9357,0\H,119,1.09315,117,117.01,114,-170.071,0\H,119,1.09386,117,95.8499,114,74.3131,0\H,110,2.23974,109,128.765,107,-102.727,0\C,123,1.09279,110,175.14,109,-77.5093,0\H,124,1.09256,123,108.688,110,-177.884,0\H,124,1.09302,123,106.344,110,-58.9289,0\S,124,1.80684,123,107.987,110,63.0727,0\O,127,1.49733,124,99.5704,123,30.0852,0\C,127,1.80771,124,94.9427,123,-66.3426,0\H,129,1.09217,127,108.739,124,56.0541,0\H,129,1.09293,127,104.518,124,-61.2639,0\H,129,1.09335,127,108.217,124,172.728,0\O,8,2.31805,7,140.862,1,41.7619,0\S,133,1.49679,8,115.182,7,-162.789,0\C,134,1.80691,133,105.067,8,11.1394,0\H,135,1.09256,134,105.011,133,35.9209,0\H,135,1.09273,134,113.184,133,145.366,0\H,135,1.09326,134,114.346,133,-85.6412,0\C,134,1.8071,133,106.755,8,104.359,0\H,139,1.09262,134,117.432,133,174.195,0\H,139,1.09284,134,110.57,133,60.3979,0\H,139,1.09381,134,112.593,133,-61.4176,0\H,4,2.32326,3,119.084,1,-51.1924,0\C,143,1.09285,4,108.461,3,159.431,0\H,144,1.09255,143,113.435,4,-102.67,0\H,144,1.09385,143,107.868,4,19.3013,0\S,144,1.80721,143,111.243,4,140.824,0\O,147,1.49677,144,101.157,143,-70.7559,0\C,147,1.80717,144,101.18,143,178.308,0\H,149,1.09296,147,101.786,144,158.139,0\H,149,1.09321,147,114.84,144,-79.5758,0\H,149,1.09324,147,106.531,144,48.4587,0\H,19,2.34432,18,146.846,16,-88.85,0\C,153,1.09265,19,134.32,18,-153.602,0\H,154,1.09307,153,112.245,19,-59.088,0\H,154,1.09323,153,105.722,19,-174.595,0\S,154,1.80713,153,109.923,19,65.288,0\O,157,1.4968,154,107.817,153,-91.3442,0\C,157,1.80729,154,98.7351,153,163.788,0\H,159,1.09223,157,102.89,154,64.7439,0\H,159,1.09252,157,106.54,154,-54.4785,0\H,159,1.09342,157,116.383,154,-171.163,0\H,90,2.38884,89,145.348,87,37.1276,0\C,163,1.09263,90,154.678,89,164.765,0\H,164,1.09221,163,109.231,90,-58.2213,0\H,164,1.09307,163,114.695,90,68.9202,0\S,164,1.807,163,109.817,90,178.17,0\O,167,1.49766,164,96.4112,163,167.791,0\C,167,1.8066,164,91.3357,163,66.362,0\H,169,1.09309,167,115.156,164,-87.2157,0\H,169,1.09326,167,103.59,164,145.496,0\H,169,1.09386,167,112.813,164,37.2486,0\H,20,2.39148,18,131.471,16,-163.016,0\C,173,1.09385,20,139.708,18,-104.519,0\H,174,1.0928,173,106.946,20,164.14,0\H,174,1.0932,173,106.769,20,44.3815,0\S,174,1.80671,173,112.176,20,-71.586,0\O,177,1.49745,174,104.179,173,-36.194,0\C,177,1.8066,174,101.626,173,67.8555,0\H,179,1.09229,177,106.457,174,50.131,0\H,179,1.09277,177,106.944,174,164.136,0\H,179,1.09359,177,110.762,174,-75.0637,0\H,65,2.40265,64,93.1047,63,-164.957,0\C,183,1.09332,65,134.647,64,117.224,0\H,184,1.09235,183,108.605,65,115.568,0\H,184,1.0933,183,116.57,65,-9.83538,0\S,184,1.80713,183,114.223,65,-134.733,0\O,187,1.49677,184,96.856,183,-172.782,0\C,187,1.80728,184,95.5684,183,-62.9001,0\H,189,1.09276,187,104.026,184,-37.7536,0\H,189,1.0928,187,108.872,184,-157.501,0\H,189,1.09312,187,116.271,184,83.0869,0\H,191,2.15068,189,118.102,187,15.0286,0\C,193,1.09346,191,107.077,189,153.456,0\H,194,1.0933,193,106.782,191,170.207,0\H,194,1.0933,193,109.709,191,51.8217,0\S,194,1.8068,193,111.43,191,-75.7581,0\O,197,1.4972,194,102.817,193,-174.111,0\C,197,1.80697,194,90.5687,193,-76.3588,0\H,199,1.09264,197,109.779,194,-75.5757,0\H,199,1.09301,197,99.0768,194,168.413,0\H,199,1.0938,197,116.257,194,44.6113,0\H,186,2.33124,184,103.069,183,48.9862,0\C,203,1.09312,186,147.356,184,158.661,0\H,204,1.09268,203,110.711,186,25.9717,0\H,204,1.09343,203,110.972,186,-110.626,0\S,204,1.80729,203,97.3534,186,136.175,0\O,207,1.49765,204,96.6421,203,73.4031,0\C,207,1.80649,204,102.884,203,-179.149,0\H,209,1.09272,207,114.854,204,-62.0732,0\H,209,1.09344,207,109.545,204,-177.697,0\H,209,1.09354,207,106.183,204,69.2015,0\H,46,2.40982,44,118.184,43,168.437,0\C,213,1.09282,46,120.942,44,-136.124,0\H,214,1.09311,213,112.507,46,-124.03,0\H,214,1.09324,213,107.71,46,118.558,0\S,214,1.80616,213,113.299,46,-5.55128,0\O,217,1.49687,214,103.861,213,79.7854,0\C,217,1.80682,214,100.006,213,-176.665,0\H,219,1.09257,217,106.968,214,-59.5724,0\H,219,1.09341,217,109.383,214,59.5957,0\H,219,1.09385,217,110.952,214,168.663,0\H,98,2.45282,97,90.6159,94,144.285,0\C,223,1.09308,98,135.825,97,-81.5852,0\H,224,1.09305,223,109.639,98,3.01924,0\H,224,1.09315,223,122.128,98,132.619,0\S,224,1.80723,223,104.156,98,-105.177,0\O,227,1.49629,224,101.85,223,-86.6776,0\C,227,1.80691,224,100.761,223,167.108,0\H,229,1.09245,227,115.719,224,140.29,0\H,229,1.09315,227,106.975,224,22.1343,0\H,229,1.09317,227,111.376,224,-91.2978,0\H,48,2.47112,47,117.131,44,-94.9737,0\C,233,1.09224,48,136.346,47,43.1354,0\H,234,1.09333,233,104.477,48,58.3539,0\H,234,1.0934,233,112.921,48,-176.662,0\S,234,1.80673,233,106.124,48,-57.5653,0\O,237,1.49735,234,103.826,233,-54.8299,0\C,237,1.80631,234,98.4365,233,-161.897,0\H,239,1.09242,237,108.834,234,51.6923,0\H,239,1.0933,237,112.761,234,-61.6606,0\H,239,1.0934,237,113.765,234,169.425,0\H,230,2.52298,229,104.816,227,96.8806,0\C,243,1.093,230,110.854,229,74.4368,0\H,244,1.09278,243,107.721,230,-93.8393,0\H,244,1.09287,243,117.205,230,147.507,0\S,244,1.80769,243,117.472,230,21.2264,0\O,247,1.49725,244,98.8602,243,-164.779,0\C,247,1.80671,244,98.0371,243,94.133,0\H,249,1.09203,247,103.614,244,-35.4735,0\H,249,1.09238,247,104.892,244,-155.168,0\H,249,1.09368,247,104.884,244,86.3172,0\O,226,2.54687,224,135.295,223,-5.0441,0\S,253,1.49678,226,86.9238,224,11.1644,0\C,254,1.80656,253,107.636,226,-168.64,0\H,255,1.09206,254,101.633,253,-60.5534,0\H,255,1.09245,254,108.696,253,-175.6,0\H,255,1.09323,254,114.33,253,62.4632,0\C,254,1.8071,253,102.227,226,89.8144,0\H,259,1.09298,254,109.983,253,-88.2006,0\H,259,1.09302,254,101.857,253,158.088,0\H,259,1.09303,254,109.188,253,33.4663,0\H,106,2.55031,104,107.541,103,-118.463,0\C,263,1.09291,106,91.2778,104,-176.503,0\H,264,1.09279,263,111.753,106,69.9336,0\H,264,1.09348,263,111.47,106,-57.69,0\S,264,1.80689,263,103.366,106,-173.408,0\O,267,1.49705,264,107.671,263,54.3374,0\C,267,1.80697,264,94.895,263,-50.85,0\H,269,1.09269,267,104.935,264,60.9892,0\H,269,1.09312,267,108.399,264,-55.5993,0\H,269,1.09361,267,104.094,264,-173.087,0\H,78,2.56907,77,115.155,74,-124.441,0\C,273,1.09258,78,104.618,77,145.158,0\H,274,1.09336,273,106.377,78,51.7213,0\H,274,1.09396,273,117.864,78,175.552,0\S,274,1.80711,273,112.942,78,-62.5411,0\O,277,1.49724,274,106.584,273,-87.2833,0\C,277,1.80732,274,100.178,273,158.728,0\H,279,1.09248,277,117.269,274,63.1666,0\H,279,1.09317,277,108.964,274,-60.0084,0\H,279,1.09353,277,106.24,274,179.755,0\H,212,2.59041,209,117.099,207,26.4924,0\C,283,1.09291,212,126.472,209,104.881,0\H,284,1.09225,283,110.033,212,145.915,0\H,284,1.09311,283,112.968,212,30.1978,0\S,284,1.80678,283,110.513,212,-96.3811,0\O,287,1.49702,284,104.807,283,70.499,0\C,287,1.80675,284,94.7347,283,174.443,0\H,289,1.09279,287,110.526,284,152.892,0\H,289,1.09313,287,108.842,284,30.8211,0\H,289,1.0932,287,104.693,284,-87.3925,0\\\@

 Total job time:  70.05s(wall), 244.78s(cpu) 
 Fri Mar 12 13:09:52 2021

        *************************************************************
        *                                                           *
        *  Thank you very much for using Q-Chem.  Have a nice day.  *
        *                                                           *
        *************************************************************


