                  Welcome to Q-Chem
     A Quantum Leap Into The Future Of Chemistry


 Q-Chem 6.0 (devel), Q-Chem, Inc., Pleasanton, CA (2022)

 E. Epifanovsky,  A. T. B. Gilbert,  Xintian Feng,  Joonho Lee,  Yuezhi Mao,  
 N. Mardirossian,  P. Pokhilko,  A. White,  M. Wormit,  M. P. Coons,  
 A. L. Dempwolff,  Zhengting Gan,  D. Hait,  P. R. Horn,  L. D. Jacobson,  
 I. Kaliman,  J. Kussmann,  A. W. Lange,  Ka Un Lao,  D. S. Levine,  Jie Liu,  
 S. C. McKenzie,  A. F. Morrison,  K. Nanda,  F. Plasser,  D. R. Rehn,  
 M. L. Vidal,  Zhi-Qiang You,  Ying Zhu,  B. Alam,  B. Albrecht,  
 A. Aldossary,  E. Alguire,  J. H. Andersen,  V. Athavale,  D. Barton,  
 K. Begam,  A. Behn,  N. Bellonzi,  Y. A. Bernard,  E. J. Berquist,  
 H. Burton,  A. Carreras,  K. Carter-Fenk,  Romit Chakraborty,  
 Chandrima Chakravarty,  Junhan Chen,  A. D. Chien,  K. D. Closser,  
 V. Cofer-Shabica,  L. Cunha,  S. Dasgupta,  Jia Deng,  M. de Wergifosse,  
 M. Diedenhofen,  Hainam Do,  S. Ehlert,  Po-Tung Fang,  S. Fatehi,  
 Qingguo Feng,  T. Friedhoff,  B. Ganoe,  J. Gayvert,  Qinghui Ge,  
 G. Gidofalvi,  M. Goldey,  J. Gomes,  C. Gonzalez-Espinoza,  S. Gulania,  
 A. Gunina,  J. A. Gyamfi,  M. W. D. Hanson-Heine,  P. H. P. Harbach,  
 A. W. Hauser,  M. F. Herbst,  M. Hernandez Vera,  M. Hodecker,  
 Z. C. Holden,  S. Houck,  Xunkun Huang,  Kerwin Hui,  B. C. Huynh,  
 K. Ikeda,  M. Ivanov,  Hyunjun Ji,  Zuxin Jin,  Hanjie Jiang,  B. Kaduk,  
 S. Kaehler,  R. Kang,  K. Khistyaev,  Jaehoon Kim,  Yongbin Kim,  
 P. Klunzinger,  Z. Koczor-Benda,  Joong Hoon Koh,  D. Kosenkov,  
 Saikiran Kotaru,  L. Koulias,  T. Kowalczyk,  C. M. Krauter,  K. Kue,  
 A. Kunitsa,  T. Kus,  A. Landau,  K. V. Lawler,  D. Lefrancois,  S. Lehtola,  
 Rain Li,  Shaozhi Li,  Yi-Pei Li,  Jiashu Liang,  M. Liebenthal,  
 Hung-Hsuan Lin,  You-Sheng Lin,  Fenglai Liu,  Kuan-Yu Liu,  
 M. Loipersberger,  A. Luenser,  C. Malbon,  A. Manjanath,  P. Manohar,  
 E. Mansoor,  S. F. Manzer,  Shan-Ping Mao,  A. V. Marenich,  T. Markovich,  
 S. Mason,  F. Matz,  S. A. Maurer,  P. F. McLaughlin,  M. F. S. J. Menger,  
 J.-M. Mewes,  S. A. Mewes,  P. Morgante,  Mohammad Mostafanejad,  
 J. W. Mullinax,  K. J. Oosterbaan,  G. Paran,  V. Parravicini,  
 Alexander C. Paul,  Suranjan K. Paul,  F. Pavosevic,  Zheng Pei,  S. Prager,  
 E. I. Proynov,  E. Ramos,  B. Rana,  A. E. Rask,  A. Rettig,  R. M. Richard,  
 F. Rob,  E. Rossomme,  T. Scheele,  M. Scheurer,  M. Schneider,  
 P. E. Schneider,  N. Sergueev,  S. M. Sharada,  Hengyuan Shen,  
 W. Skomorowski,  D. W. Small,  C. J. Stein,  Yingli Su,  Yu-Chuan Su,  
 E. J. Sundstrom,  Zhen Tao,  J. Thirman,  Hung-Yi Tsai,  T. Tsuchimochi,  
 N. M. Tubman,  C. Utku,  S. P. Veccham,  O. Vydrov,  J. Wenzel,  
 Jonathan Wong,  J. Witte,  A. Yamada,  Chou-Hsun Yang,  Kun Yao,  
 S. Yeganeh,  S. R. Yost,  A. Zech,  F. Zeller,  Igor Ying Zhang,  
 Xing Zhang,  Yu Zhang,  D. Zuev,  A. Aspuru-Guzik,  A. T. Bell,  
 N. A. Besley,  K. B. Bravaya,  B. R. Brooks,  D. Casanova,  Jeng-Da Chai,  
 Hsing-Ta Chen,  S. Coriani,  C. J. Cramer,  A. E. DePrince, III,  
 R. A. DiStasio Jr.,  A. Dreuw,  B. D. Dunietz,  T. R. Furlani,  
 W. A. Goddard III,  S. Grimme,  S. Hammes-Schiffer,  T. Head-Gordon,  
 W. J. Hehre,  Chao-Ping Hsu,  T.-C. Jagau,  Yousung Jung,  A. Klamt,  
 Jing Kong,  D. S. Lambrecht,  Xiangyuan Li,  WanZhen Liang,  N. J. Mayhall,  
 C. W. McCurdy,  J. B. Neaton,  T. Neudecker,  C. Ochsenfeld,  
 J. A. Parkhill,  R. Peverati,  V. A. Rassolov,  Haisheng Ren,  Yihan Shao,  
 L. V. Slipchenko,  R. P. Steele,  J. E. Subotnik,  A. J. W. Thom,  
 A. Tkatchenko,  D. G. Truhlar,  T. Van Voorhis,  Fan Wang,  
 T. A. Wesolowski,  K. B. Whaley,  H. L. Woodcock III,  P. M. Zimmerman,  
 S. Faraji,  P. M. W. Gill,  M. Head-Gordon,  J. M. Herbert,  A. I. Krylov

 Contributors to earlier versions of Q-Chem not listed above: 
 R. D. Adamson,  B. Austin,  R. Baer,  J. Baker,  G. J. O. Beran,  
 K. Brandhorst,  S. T. Brown,  E. F. C. Byrd,  Arup K. Chakraborty,  
 G. K. L. Chan,  Chun-Min Chang,  Yunqing Chen,  C.-L. Cheng,  
 Siu Hung Chien,  D. M. Chipman,  D. L. Crittenden,  H. Dachsel,  
 R. J. Doerksen,  A. D. Dutoi,  R. G. Edgar,  J. Fosso-Tande,  
 L. Fusti-Molnar,  D. Ghosh,  A. Ghysels,  A. Golubeva-Zadorozhnaya,  
 J. Gonthier,  M. S. Gordon,  S. R. Gwaltney,  G. Hawkins,  J. E. Herr,  
 A. Heyden,  S. Hirata,  E. G. Hohenstein,  G. Kedziora,  F. J. Keil,  
 C. Kelley,  Jihan Kim,  R. A. King,  R. Z. Khaliullin,  P. P. Korambath,  
 W. Kurlancheek,  A. Laurent,  A. M. Lee,  M. S. Lee,  S. V. Levchenko,  
 Ching Yeh Lin,  D. Liotard,  E. Livshits,  R. C. Lochan,  I. Lotan,  
 L. A. Martinez-Martinez,  P. E. Maslen,  N. Nair,  D. P. O'Neill,  
 D. Neuhauser,  E. Neuscamman,  C. M. Oana,  R. Olivares-Amaya,  R. Olson,  
 T. M. Perrine,  B. Peters,  P. A. Pieniazek,  A. Prociuk,  Y. M. Rhee,  
 J. Ritchie,  M. A. Rohrdanz,  E. Rosta,  N. J. Russ,  H. F. Schaefer III,  
 M. W. Schmidt,  N. E. Schultz,  S. Sharma,  N. Shenvi,  C. D. Sherrill,  
 A. C. Simmonett,  A. Sodt,  T. Stein,  D. Stuck,  K. S. Thanthiriwatte,  
 V. Vanovschi,  L. Vogt,  Tao Wang,  A. Warshel,  M. A. Watson,  
 C. F. Williams,  Q. Wu,  X. Xu,  Jun Yang,  W. Zhang,  Yan Zhao

   Please cite Q-Chem as follows:
  "Software for the frontiers of quantum chemistry:
   An overview of developments in the Q-Chem 5 package"
   J. Chem. Phys. 155, 084801 (2021)
   https://doi.org/10.1063/5.0055522 (open access)

 Q-Chem 6.0.0 for Intel X86 EM64T Linux

 Parts of Q-Chem use Armadillo 9.900.5 (Nocturnal Misbehaviour).
 http://arma.sourceforge.net/

 Q-Chem begins on Thu Jul 21 07:38:41 2022  

 Host: nid00564
0

     Scratch files written to /global/cscratch1/sd/ymao90/r7.00_frame_0067_almo_B3LYP_dp20220721031455//
 Processing $rem in /global/homes/y/ymao90/my_qchem/qchem_embedding_5p4/config/preferences:
 Processing $rem in /global/homes/y/ymao90/.qchemrc:

 Checking the input file for inconsistencies... 	...done.

--------------------------------------------------------------
User input:
--------------------------------------------------------------
$molecule
0 1
--
0 1
C    28.15000   22.90200   26.07900  
C    27.93100   24.17600   26.91000  
C    27.33200   25.19400   25.92700  
C    26.06300   24.66700   25.23600  
C    26.29200   23.35700   24.46400  
C    26.94800   22.28300   25.34700  
H    27.13500   26.17900   26.36900  
H    27.20200   23.98800   27.70800  
H    28.94200   23.20800   25.38400  
H    28.60700   22.19000   26.77800  
H    25.32300   24.48300   26.02500  
H    25.71200   25.41800   24.51800  
H    25.36600   22.97600   24.01700  
H    26.96700   23.72800   23.68300  
H    26.27900   21.84800   26.10000  
H    27.39700   21.47200   24.76100  
H    28.05100   25.38000   25.11900  
N    29.12500   24.58400   27.64900  
H    30.01900   24.71200   27.19000  
C    29.28800   24.78900   29.00300  
H    30.32700   24.99800   29.31600  
O    28.38300   24.72700   29.81600  
--
0 1
C    24.10700   30.50500   25.28600  
H    24.45900   31.52500   25.11400  
H    23.58900   30.52200   26.24800  
H    25.00900   29.89100   25.35400  
S    22.87000   29.92300   24.10500  
C    22.71600   28.20600   24.64800  
H    23.55000   27.58900   24.30400  
H    22.51100   28.13700   25.72000  
H    21.84200   27.86600   24.08700  
O    23.47300   29.71700   22.75000  
C    24.97800   27.46000   29.21200  
H    23.89100   27.36700   29.15800  
H    25.42000   28.31700   28.69900  
H    25.43500   26.55300   28.80800  
S    25.38600   27.61300   30.96600  
C    25.21700   25.93100   31.60500  
H    24.30300   25.65000   31.07600  
H    26.11800   25.35900   31.36900  
H    25.12600   25.91300   32.69400  
O    24.27000   28.22400   31.75500  
C    30.48600   29.37400   32.40000  
H    31.03400   28.99600   31.53300  
H    30.55100   30.45800   32.51800  
H    30.91000   28.89600   33.28700  
S    28.73500   28.93100   32.33600  
C    28.97700   27.19200   31.90700  
H    29.41100   27.17100   30.90500  
H    29.60100   26.75400   32.69000  
H    28.03700   26.67000   31.71400  
O    28.30900   29.53000   31.03200  
C    31.99900   24.46500   32.23500  
H    31.77200   24.33300   31.17400  
H    32.10300   23.45500   32.64100  
H    31.14600   24.91900   32.74600  
S    33.43800   25.45600   32.69600  
C    32.80800   25.45700   34.39000  
H    32.67400   24.47400   34.85000  
H    33.46700   26.07100   35.00900  
H    31.86000   26.00000   34.41600  
O    33.09700   26.75200   32.02900  
C    27.48600   19.27300   20.31800  
H    26.43400   19.23100   20.02200  
H    28.05200   20.08900   19.86000  
H    27.87000   18.27100   20.11400  
S    27.45400   19.37400   22.12200  
C    29.22800   19.59900   22.37900  
H    29.36900   20.61500   22.00100  
H    29.41300   19.57600   23.45600  
H    29.75700   18.83800   21.80000  
O    27.24500   17.94000   22.49700  
C    35.27200   28.62900   30.18600  
H    36.16400   29.21800   30.41500  
H    34.64800   28.26200   31.00500  
H    35.56200   27.80900   29.52400  
S    34.22100   29.87400   29.40400  
C    32.77900   28.83800   29.06600  
H    32.99000   28.27500   28.15300  
H    32.52200   28.22700   29.93500  
H    32.02600   29.56400   28.74900  
O    34.76300   30.00700   28.01400  
C    31.66000   19.86700   26.39800  
H    31.45000   19.33000   25.46900  
H    30.78400   20.11500   27.00200  
H    32.21700   20.76400   26.11500  
S    32.77100   18.83600   27.38100  
C    34.15700   18.53300   26.26200  
H    34.75700   19.40300   25.98300  
H    34.72200   17.78400   26.82200  
H    33.65300   18.10600   25.39200  
O    32.13400   17.49700   27.59300  
C    29.54800   21.32200   31.52100  
H    28.72000   20.61700   31.62500  
H    30.10600   21.27400   32.46000  
H    29.22200   22.31500   31.20100  
S    30.70500   20.82600   30.22500  
C    31.09200   19.19300   30.89700  
H    31.99600   18.82500   30.40500  
H    31.30200   19.20400   31.96900  
H    30.30200   18.51100   30.57200  
O    31.93700   21.60400   30.56900  
C    27.67900   24.54600   19.21000  
H    26.62000   24.81500   19.23900  
H    28.17500   25.03700   20.05100  
H    27.96000   24.98100   18.24700  
S    27.92100   22.75900   19.31800  
C    26.82000   22.20100   17.99900  
H    26.80100   21.12300   18.17500  
H    25.83400   22.65500   18.12600  
H    27.21500   22.54600   17.03900  
O    27.05900   22.42300   20.49600  
C    27.53200   22.82200   34.02700  
H    26.46400   22.84000   34.26000  
H    27.75800   23.22300   33.03600  
H    27.96900   21.82100   33.98100  
S    28.54400   23.83500   35.13100  
C    27.54700   25.29200   34.74800  
H    26.46400   25.16300   34.82500  
H    27.94900   26.05300   35.42200  
H    27.72900   25.46700   33.68500  
O    29.83300   23.74400   34.37600  
C    23.20800   20.51100   26.47400  
H    23.69900   20.72000   27.42800  
H    23.63600   19.63700   25.97500  
H    23.27300   21.37700   25.81100  
S    21.46700   20.08100   26.69600  
C    20.71800   20.61400   25.14000  
H    20.84500   19.78600   24.43700  
H    19.62900   20.56500   25.22000  
H    21.16100   21.53100   24.74400  
O    20.99100   21.14200   27.63800  
C    33.74200   28.16300   25.27600  
H    33.92100   28.45400   24.23800  
H    32.94900   27.42700   25.43100  
H    33.45600   29.10900   25.74200  
S    35.24100   27.40400   25.94000  
C    36.46100   28.62100   25.39300  
H    36.13600   29.49100   25.97000  
H    37.47900   28.32500   25.65900  
H    36.42400   28.82600   24.32000  
O    35.42300   26.39500   24.84900  
C    18.56700   28.00700   26.67600  
H    19.25800   28.03000   27.52300  
H    18.40300   29.00500   26.26200  
H    17.64000   27.49600   26.95000  
S    19.27700   27.00200   25.35200  
C    17.80800   26.98500   24.30000  
H    17.51100   28.00300   24.03600  
H    18.10400   26.54100   23.34600  
H    17.02800   26.38900   24.78000  
O    19.26800   25.62500   25.93900  
C    29.92700   29.35400   25.72100  
H    29.80100   28.46500   25.09900  
H    30.21600   30.24300   25.15500  
H    30.68200   29.21700   26.50000  
S    28.30300   29.54200   26.49000  
C    28.52000   28.64600   28.04400  
H    29.28700   29.01400   28.72900  
H    27.57000   28.72100   28.58000  
H    28.83200   27.64400   27.73800  
O    27.46300   28.67800   25.60200  
C    29.14600   28.52300   21.60200  
H    29.79700   29.14800   20.98500  
H    29.27100   28.90500   22.61800  
H    29.38300   27.45900   21.52400  
S    27.45900   28.83600   21.03500  
C    26.53800   28.01400   22.35400  
H    25.48700   27.90400   22.07500  
H    26.86400   26.97200   22.40400  
H    26.70900   28.71400   23.17600  
O    27.39000   28.04900   19.76300  
C    35.17200   23.12300   22.94700  
H    34.19300   23.38700   22.53800  
H    35.87900   23.93600   22.76500  
H    35.52800   22.19800   22.48600  
S    34.75500   23.00700   24.70200  
C    36.14600   21.89100   24.99400  
H    37.04100   22.50200   25.13100  
H    35.92900   21.37500   25.93300  
H    36.17300   21.16600   24.17600  
O    33.58500   22.08700   24.54400  
C    22.12100   24.17600   26.69700  
H    21.19000   23.60400   26.71300  
H    21.92200   25.23300   26.89400  
H    22.60900   24.05900   25.72600  
S    23.34000   23.55100   27.87500  
C    22.13300   23.86700   29.18300  
H    22.74600   24.17300   30.03400  
H    21.55500   24.76900   28.96600  
H    21.53900   22.95300   29.26500  
O    24.20900   24.71400   28.23900  
C    23.77500   15.82800   23.11500  
H    22.80700   15.74000   23.61600  
H    23.64900   16.59300   22.34400  
H    24.13100   14.89300   22.67400  
S    24.99400   16.51000   24.26100  
C    25.32700   15.01600   25.22100  
H    25.72800   15.26100   26.20800  
H    24.32900   14.57000   25.19600  
H    25.99700   14.44000   24.57800  
O    24.16200   17.35300   25.17600  
C    30.21500   15.47200   22.17300  
H    29.84400   14.55500   22.63800  
H    29.40400   16.18300   21.99400  
H    30.84600   15.26900   21.30400  
S    31.32700   16.17700   23.41200  
C    30.22000   16.19000   24.84000  
H    30.68200   15.45700   25.50600  
H    30.38000   17.18100   25.27100  
H    29.15900   15.96600   24.70500  
O    31.54500   17.62000   23.08100  
C    23.37700   20.76400   19.91700  
H    24.25300   21.40500   20.04800  
H    23.60300   19.73400   19.63000  
H    22.72400   21.24200   19.18200  
S    22.48900   20.80000   21.49000  
C    23.00300   19.18000   22.10300  
H    22.33800   19.01700   22.95500  
H    22.87600   18.41300   21.33400  
H    24.03100   19.29800   22.45400  
O    21.01100   20.81500   21.25500  
C    26.27300   21.80300   29.33800  
H    26.95300   21.05600   29.75400  
H    26.21900   21.65400   28.25700  
H    26.64700   22.75500   29.72400  
S    24.63700   21.54000   30.05700  
C    25.10400   22.23300   31.65900  
H    24.91000   23.30000   31.79500  
H    24.46500   21.83300   32.45000  
H    26.15400   21.96800   31.81200  
O    24.54900   20.09400   30.43500  
C    23.24100   26.34500   19.56300  
H    22.83200   27.10000   20.23900  
H    24.33200   26.33200   19.51400  
H    22.65300   26.32400   18.64100  
S    23.06600   24.74800   20.39100  
C    24.58600   24.67900   21.36600  
H    25.33500   24.37100   20.63200  
H    24.85800   25.68100   21.70900  
H    24.41800   24.04800   22.24200  
O    23.35300   23.88000   19.20700  
C    31.04700   23.45600   23.07100  
H    29.98900   23.68400   23.22300  
H    31.36600   22.52600   22.59500  
H    31.38200   23.35800   24.10700  
S    31.79900   24.91800   22.32000  
C    31.55900   25.97600   23.76500  
H    31.65000   27.05200   23.60100  
H    30.57000   25.80900   24.20000  
H    32.29300   25.67800   24.51800  
O    30.78600   25.43800   21.34800  
C    28.04700   18.22900   26.01200  
H    28.86400   18.73700   25.49200  
H    27.84600   17.21500   25.65700  
H    27.14400   18.83600   25.90700  
S    28.44600   18.29600   27.77300  
C    26.90900   17.60500   28.42500  
H    26.66800   16.63600   27.98000  
H    26.98300   17.44900   29.50500  
H    26.15400   18.33900   28.13400  
O    28.38800   19.70400   28.27800  
C    33.47900   23.12700   27.64500  
H    33.10100   22.70200   26.71200  
H    34.48400   22.72500   27.79600  
H    32.81300   22.84600   28.46500  
S    33.45300   24.90800   27.33900  
C    33.79000   25.51100   29.00900  
H    33.08200   25.09800   29.73200  
H    34.82500   25.19600   29.16600  
H    33.83000   26.60300   28.99100  
O    32.03600   25.26800   27.01700  
$end

$rem
JOBTYPE  SP
METHOD  B3LYP
BASIS  6-31+G(D)
SYMMETRY  FALSE
SYM_IGNORE  TRUE
MEM_TOTAL  12000
MEM_STATIC  4000
BASIS_LIN_DEP_THRESH  6
THRESH  14
SCF_CONVERGENCE  8
FD_MAT_VEC_PROD  FALSE
XC_GRID  000075000302
NL_GRID  1
MAX_SCF_CYCLES  200
FRGM_METHOD  STOLL
SCFMI_MODE  1
ALMO_EFIELD  TRUE
$end

$rem_frgm
SCF_CONVERGENCE  4
$end


--------------------------------------------------------------
 ----------------------------------------------------------------
             Standard Nuclear Orientation (Angstroms)
    I     Atom           X                Y                Z
 ----------------------------------------------------------------
    1      C      28.1500000000    22.9020000000    26.0790000000
    2      C      27.9310000000    24.1760000000    26.9100000000
    3      C      27.3320000000    25.1940000000    25.9270000000
    4      C      26.0630000000    24.6670000000    25.2360000000
    5      C      26.2920000000    23.3570000000    24.4640000000
    6      C      26.9480000000    22.2830000000    25.3470000000
    7      H      27.1350000000    26.1790000000    26.3690000000
    8      H      27.2020000000    23.9880000000    27.7080000000
    9      H      28.9420000000    23.2080000000    25.3840000000
   10      H      28.6070000000    22.1900000000    26.7780000000
   11      H      25.3230000000    24.4830000000    26.0250000000
   12      H      25.7120000000    25.4180000000    24.5180000000
   13      H      25.3660000000    22.9760000000    24.0170000000
   14      H      26.9670000000    23.7280000000    23.6830000000
   15      H      26.2790000000    21.8480000000    26.1000000000
   16      H      27.3970000000    21.4720000000    24.7610000000
   17      H      28.0510000000    25.3800000000    25.1190000000
   18      N      29.1250000000    24.5840000000    27.6490000000
   19      H      30.0190000000    24.7120000000    27.1900000000
   20      C      29.2880000000    24.7890000000    29.0030000000
   21      H      30.3270000000    24.9980000000    29.3160000000
   22      O      28.3830000000    24.7270000000    29.8160000000
   23      C      24.1070000000    30.5050000000    25.2860000000
   24      H      24.4590000000    31.5250000000    25.1140000000
   25      H      23.5890000000    30.5220000000    26.2480000000
   26      H      25.0090000000    29.8910000000    25.3540000000
   27      S      22.8700000000    29.9230000000    24.1050000000
   28      C      22.7160000000    28.2060000000    24.6480000000
   29      H      23.5500000000    27.5890000000    24.3040000000
   30      H      22.5110000000    28.1370000000    25.7200000000
   31      H      21.8420000000    27.8660000000    24.0870000000
   32      O      23.4730000000    29.7170000000    22.7500000000
   33      C      24.9780000000    27.4600000000    29.2120000000
   34      H      23.8910000000    27.3670000000    29.1580000000
   35      H      25.4200000000    28.3170000000    28.6990000000
   36      H      25.4350000000    26.5530000000    28.8080000000
   37      S      25.3860000000    27.6130000000    30.9660000000
   38      C      25.2170000000    25.9310000000    31.6050000000
   39      H      24.3030000000    25.6500000000    31.0760000000
   40      H      26.1180000000    25.3590000000    31.3690000000
   41      H      25.1260000000    25.9130000000    32.6940000000
   42      O      24.2700000000    28.2240000000    31.7550000000
   43      C      30.4860000000    29.3740000000    32.4000000000
   44      H      31.0340000000    28.9960000000    31.5330000000
   45      H      30.5510000000    30.4580000000    32.5180000000
   46      H      30.9100000000    28.8960000000    33.2870000000
   47      S      28.7350000000    28.9310000000    32.3360000000
   48      C      28.9770000000    27.1920000000    31.9070000000
   49      H      29.4110000000    27.1710000000    30.9050000000
   50      H      29.6010000000    26.7540000000    32.6900000000
   51      H      28.0370000000    26.6700000000    31.7140000000
   52      O      28.3090000000    29.5300000000    31.0320000000
   53      C      31.9990000000    24.4650000000    32.2350000000
   54      H      31.7720000000    24.3330000000    31.1740000000
   55      H      32.1030000000    23.4550000000    32.6410000000
   56      H      31.1460000000    24.9190000000    32.7460000000
   57      S      33.4380000000    25.4560000000    32.6960000000
   58      C      32.8080000000    25.4570000000    34.3900000000
   59      H      32.6740000000    24.4740000000    34.8500000000
   60      H      33.4670000000    26.0710000000    35.0090000000
   61      H      31.8600000000    26.0000000000    34.4160000000
   62      O      33.0970000000    26.7520000000    32.0290000000
   63      C      27.4860000000    19.2730000000    20.3180000000
   64      H      26.4340000000    19.2310000000    20.0220000000
   65      H      28.0520000000    20.0890000000    19.8600000000
   66      H      27.8700000000    18.2710000000    20.1140000000
   67      S      27.4540000000    19.3740000000    22.1220000000
   68      C      29.2280000000    19.5990000000    22.3790000000
   69      H      29.3690000000    20.6150000000    22.0010000000
   70      H      29.4130000000    19.5760000000    23.4560000000
   71      H      29.7570000000    18.8380000000    21.8000000000
   72      O      27.2450000000    17.9400000000    22.4970000000
   73      C      35.2720000000    28.6290000000    30.1860000000
   74      H      36.1640000000    29.2180000000    30.4150000000
   75      H      34.6480000000    28.2620000000    31.0050000000
   76      H      35.5620000000    27.8090000000    29.5240000000
   77      S      34.2210000000    29.8740000000    29.4040000000
   78      C      32.7790000000    28.8380000000    29.0660000000
   79      H      32.9900000000    28.2750000000    28.1530000000
   80      H      32.5220000000    28.2270000000    29.9350000000
   81      H      32.0260000000    29.5640000000    28.7490000000
   82      O      34.7630000000    30.0070000000    28.0140000000
   83      C      31.6600000000    19.8670000000    26.3980000000
   84      H      31.4500000000    19.3300000000    25.4690000000
   85      H      30.7840000000    20.1150000000    27.0020000000
   86      H      32.2170000000    20.7640000000    26.1150000000
   87      S      32.7710000000    18.8360000000    27.3810000000
   88      C      34.1570000000    18.5330000000    26.2620000000
   89      H      34.7570000000    19.4030000000    25.9830000000
   90      H      34.7220000000    17.7840000000    26.8220000000
   91      H      33.6530000000    18.1060000000    25.3920000000
   92      O      32.1340000000    17.4970000000    27.5930000000
   93      C      29.5480000000    21.3220000000    31.5210000000
   94      H      28.7200000000    20.6170000000    31.6250000000
   95      H      30.1060000000    21.2740000000    32.4600000000
   96      H      29.2220000000    22.3150000000    31.2010000000
   97      S      30.7050000000    20.8260000000    30.2250000000
   98      C      31.0920000000    19.1930000000    30.8970000000
   99      H      31.9960000000    18.8250000000    30.4050000000
  100      H      31.3020000000    19.2040000000    31.9690000000
  101      H      30.3020000000    18.5110000000    30.5720000000
  102      O      31.9370000000    21.6040000000    30.5690000000
  103      C      27.6790000000    24.5460000000    19.2100000000
  104      H      26.6200000000    24.8150000000    19.2390000000
  105      H      28.1750000000    25.0370000000    20.0510000000
  106      H      27.9600000000    24.9810000000    18.2470000000
  107      S      27.9210000000    22.7590000000    19.3180000000
  108      C      26.8200000000    22.2010000000    17.9990000000
  109      H      26.8010000000    21.1230000000    18.1750000000
  110      H      25.8340000000    22.6550000000    18.1260000000
  111      H      27.2150000000    22.5460000000    17.0390000000
  112      O      27.0590000000    22.4230000000    20.4960000000
  113      C      27.5320000000    22.8220000000    34.0270000000
  114      H      26.4640000000    22.8400000000    34.2600000000
  115      H      27.7580000000    23.2230000000    33.0360000000
  116      H      27.9690000000    21.8210000000    33.9810000000
  117      S      28.5440000000    23.8350000000    35.1310000000
  118      C      27.5470000000    25.2920000000    34.7480000000
  119      H      26.4640000000    25.1630000000    34.8250000000
  120      H      27.9490000000    26.0530000000    35.4220000000
  121      H      27.7290000000    25.4670000000    33.6850000000
  122      O      29.8330000000    23.7440000000    34.3760000000
  123      C      23.2080000000    20.5110000000    26.4740000000
  124      H      23.6990000000    20.7200000000    27.4280000000
  125      H      23.6360000000    19.6370000000    25.9750000000
  126      H      23.2730000000    21.3770000000    25.8110000000
  127      S      21.4670000000    20.0810000000    26.6960000000
  128      C      20.7180000000    20.6140000000    25.1400000000
  129      H      20.8450000000    19.7860000000    24.4370000000
  130      H      19.6290000000    20.5650000000    25.2200000000
  131      H      21.1610000000    21.5310000000    24.7440000000
  132      O      20.9910000000    21.1420000000    27.6380000000
  133      C      33.7420000000    28.1630000000    25.2760000000
  134      H      33.9210000000    28.4540000000    24.2380000000
  135      H      32.9490000000    27.4270000000    25.4310000000
  136      H      33.4560000000    29.1090000000    25.7420000000
  137      S      35.2410000000    27.4040000000    25.9400000000
  138      C      36.4610000000    28.6210000000    25.3930000000
  139      H      36.1360000000    29.4910000000    25.9700000000
  140      H      37.4790000000    28.3250000000    25.6590000000
  141      H      36.4240000000    28.8260000000    24.3200000000
  142      O      35.4230000000    26.3950000000    24.8490000000
  143      C      18.5670000000    28.0070000000    26.6760000000
  144      H      19.2580000000    28.0300000000    27.5230000000
  145      H      18.4030000000    29.0050000000    26.2620000000
  146      H      17.6400000000    27.4960000000    26.9500000000
  147      S      19.2770000000    27.0020000000    25.3520000000
  148      C      17.8080000000    26.9850000000    24.3000000000
  149      H      17.5110000000    28.0030000000    24.0360000000
  150      H      18.1040000000    26.5410000000    23.3460000000
  151      H      17.0280000000    26.3890000000    24.7800000000
  152      O      19.2680000000    25.6250000000    25.9390000000
  153      C      29.9270000000    29.3540000000    25.7210000000
  154      H      29.8010000000    28.4650000000    25.0990000000
  155      H      30.2160000000    30.2430000000    25.1550000000
  156      H      30.6820000000    29.2170000000    26.5000000000
  157      S      28.3030000000    29.5420000000    26.4900000000
  158      C      28.5200000000    28.6460000000    28.0440000000
  159      H      29.2870000000    29.0140000000    28.7290000000
  160      H      27.5700000000    28.7210000000    28.5800000000
  161      H      28.8320000000    27.6440000000    27.7380000000
  162      O      27.4630000000    28.6780000000    25.6020000000
  163      C      29.1460000000    28.5230000000    21.6020000000
  164      H      29.7970000000    29.1480000000    20.9850000000
  165      H      29.2710000000    28.9050000000    22.6180000000
  166      H      29.3830000000    27.4590000000    21.5240000000
  167      S      27.4590000000    28.8360000000    21.0350000000
  168      C      26.5380000000    28.0140000000    22.3540000000
  169      H      25.4870000000    27.9040000000    22.0750000000
  170      H      26.8640000000    26.9720000000    22.4040000000
  171      H      26.7090000000    28.7140000000    23.1760000000
  172      O      27.3900000000    28.0490000000    19.7630000000
  173      C      35.1720000000    23.1230000000    22.9470000000
  174      H      34.1930000000    23.3870000000    22.5380000000
  175      H      35.8790000000    23.9360000000    22.7650000000
  176      H      35.5280000000    22.1980000000    22.4860000000
  177      S      34.7550000000    23.0070000000    24.7020000000
  178      C      36.1460000000    21.8910000000    24.9940000000
  179      H      37.0410000000    22.5020000000    25.1310000000
  180      H      35.9290000000    21.3750000000    25.9330000000
  181      H      36.1730000000    21.1660000000    24.1760000000
  182      O      33.5850000000    22.0870000000    24.5440000000
  183      C      22.1210000000    24.1760000000    26.6970000000
  184      H      21.1900000000    23.6040000000    26.7130000000
  185      H      21.9220000000    25.2330000000    26.8940000000
  186      H      22.6090000000    24.0590000000    25.7260000000
  187      S      23.3400000000    23.5510000000    27.8750000000
  188      C      22.1330000000    23.8670000000    29.1830000000
  189      H      22.7460000000    24.1730000000    30.0340000000
  190      H      21.5550000000    24.7690000000    28.9660000000
  191      H      21.5390000000    22.9530000000    29.2650000000
  192      O      24.2090000000    24.7140000000    28.2390000000
  193      C      23.7750000000    15.8280000000    23.1150000000
  194      H      22.8070000000    15.7400000000    23.6160000000
  195      H      23.6490000000    16.5930000000    22.3440000000
  196      H      24.1310000000    14.8930000000    22.6740000000
  197      S      24.9940000000    16.5100000000    24.2610000000
  198      C      25.3270000000    15.0160000000    25.2210000000
  199      H      25.7280000000    15.2610000000    26.2080000000
  200      H      24.3290000000    14.5700000000    25.1960000000
  201      H      25.9970000000    14.4400000000    24.5780000000
  202      O      24.1620000000    17.3530000000    25.1760000000
  203      C      30.2150000000    15.4720000000    22.1730000000
  204      H      29.8440000000    14.5550000000    22.6380000000
  205      H      29.4040000000    16.1830000000    21.9940000000
  206      H      30.8460000000    15.2690000000    21.3040000000
  207      S      31.3270000000    16.1770000000    23.4120000000
  208      C      30.2200000000    16.1900000000    24.8400000000
  209      H      30.6820000000    15.4570000000    25.5060000000
  210      H      30.3800000000    17.1810000000    25.2710000000
  211      H      29.1590000000    15.9660000000    24.7050000000
  212      O      31.5450000000    17.6200000000    23.0810000000
  213      C      23.3770000000    20.7640000000    19.9170000000
  214      H      24.2530000000    21.4050000000    20.0480000000
  215      H      23.6030000000    19.7340000000    19.6300000000
  216      H      22.7240000000    21.2420000000    19.1820000000
  217      S      22.4890000000    20.8000000000    21.4900000000
  218      C      23.0030000000    19.1800000000    22.1030000000
  219      H      22.3380000000    19.0170000000    22.9550000000
  220      H      22.8760000000    18.4130000000    21.3340000000
  221      H      24.0310000000    19.2980000000    22.4540000000
  222      O      21.0110000000    20.8150000000    21.2550000000
  223      C      26.2730000000    21.8030000000    29.3380000000
  224      H      26.9530000000    21.0560000000    29.7540000000
  225      H      26.2190000000    21.6540000000    28.2570000000
  226      H      26.6470000000    22.7550000000    29.7240000000
  227      S      24.6370000000    21.5400000000    30.0570000000
  228      C      25.1040000000    22.2330000000    31.6590000000
  229      H      24.9100000000    23.3000000000    31.7950000000
  230      H      24.4650000000    21.8330000000    32.4500000000
  231      H      26.1540000000    21.9680000000    31.8120000000
  232      O      24.5490000000    20.0940000000    30.4350000000
  233      C      23.2410000000    26.3450000000    19.5630000000
  234      H      22.8320000000    27.1000000000    20.2390000000
  235      H      24.3320000000    26.3320000000    19.5140000000
  236      H      22.6530000000    26.3240000000    18.6410000000
  237      S      23.0660000000    24.7480000000    20.3910000000
  238      C      24.5860000000    24.6790000000    21.3660000000
  239      H      25.3350000000    24.3710000000    20.6320000000
  240      H      24.8580000000    25.6810000000    21.7090000000
  241      H      24.4180000000    24.0480000000    22.2420000000
  242      O      23.3530000000    23.8800000000    19.2070000000
  243      C      31.0470000000    23.4560000000    23.0710000000
  244      H      29.9890000000    23.6840000000    23.2230000000
  245      H      31.3660000000    22.5260000000    22.5950000000
  246      H      31.3820000000    23.3580000000    24.1070000000
  247      S      31.7990000000    24.9180000000    22.3200000000
  248      C      31.5590000000    25.9760000000    23.7650000000
  249      H      31.6500000000    27.0520000000    23.6010000000
  250      H      30.5700000000    25.8090000000    24.2000000000
  251      H      32.2930000000    25.6780000000    24.5180000000
  252      O      30.7860000000    25.4380000000    21.3480000000
  253      C      28.0470000000    18.2290000000    26.0120000000
  254      H      28.8640000000    18.7370000000    25.4920000000
  255      H      27.8460000000    17.2150000000    25.6570000000
  256      H      27.1440000000    18.8360000000    25.9070000000
  257      S      28.4460000000    18.2960000000    27.7730000000
  258      C      26.9090000000    17.6050000000    28.4250000000
  259      H      26.6680000000    16.6360000000    27.9800000000
  260      H      26.9830000000    17.4490000000    29.5050000000
  261      H      26.1540000000    18.3390000000    28.1340000000
  262      O      28.3880000000    19.7040000000    28.2780000000
  263      C      33.4790000000    23.1270000000    27.6450000000
  264      H      33.1010000000    22.7020000000    26.7120000000
  265      H      34.4840000000    22.7250000000    27.7960000000
  266      H      32.8130000000    22.8460000000    28.4650000000
  267      S      33.4530000000    24.9080000000    27.3390000000
  268      C      33.7900000000    25.5110000000    29.0090000000
  269      H      33.0820000000    25.0980000000    29.7320000000
  270      H      34.8250000000    25.1960000000    29.1660000000
  271      H      33.8300000000    26.6030000000    28.9910000000
  272      O      32.0360000000    25.2680000000    27.0170000000
 ----------------------------------------------------------------
 Nuclear Repulsion Energy =       42426.00603681 hartrees
 There are      560 alpha and      560 beta electrons
 Requested basis set is 6-31+G(d)
 There are 896 shells and 2497 basis functions

 Total QAlloc Memory Limit  12000 MB
 Mega-Array Size      3911 MB
 MEM_STATIC part      4000 MB

 A cutoff of  1.0D-14 yielded 159019 shell pairs
 There are   1373739 function pairs
 Smallest overlap matrix eigenvalue = 8.93E-07
 Linear dependence detected in AO basis
 Tighter screening thresholds may be required for diffuse basis sets
 Use S2THRESH > 14 and THRESH = 14 in case of SCF convergence issues
 Number of orthogonalized atomic orbitals = 2496
 Maximum deviation from orthogonality = 1.231E-10

 Scale SEOQF with 1.000000e-03/1.000000e-03/1.000000e-03

 Standard Electronic Orientation quadrupole field applied
 Nucleus-field energy     =    -0.0000000665 hartrees
 Attempting to make child job directory: /global/cscratch1/sd/ymao90/r7.00_frame_0067_almo_B3LYP_dp20220721031455//Frg1/
 Attempting to make child job directory: /global/cscratch1/sd/ymao90/r7.00_frame_0067_almo_B3LYP_dp20220721031455//Frg2/
 Creating input file /global/cscratch1/sd/ymao90/r7.00_frame_0067_almo_B3LYP_dp20220721031455/Frg1.input
 using default PutDataFrgm: nothing
 calling putenv with: QCSCRATCH=/global/cscratch1/sd/ymao90/r7.00_frame_0067_almo_B3LYP_dp20220721031455/ 
 Spawning Job For Fragment 0
 Done Job For Fragment 0
 calling putenv with: QCSCRATCH=/global/cscratch1/sd/ymao90 
 calling putenv with: QCTHREADS=16 
 Creating input file /global/cscratch1/sd/ymao90/r7.00_frame_0067_almo_B3LYP_dp20220721031455/Frg2.input
 using default PutDataFrgm: nothing
 calling putenv with: QCSCRATCH=/global/cscratch1/sd/ymao90/r7.00_frame_0067_almo_B3LYP_dp20220721031455/ 
 Spawning Job For Fragment 1
 Done Job For Fragment 1
 calling putenv with: QCSCRATCH=/global/cscratch1/sd/ymao90 
 calling putenv with: QCTHREADS=16 
 Time for running child jobs:  CPU 0.43 s  wall 10088.28 s

 -----------------------------------------------------------------------
  General SCF calculation program by
  Eric Jon Sundstrom, Paul Horn, Yuezhi Mao, Dmitri Zuev, Alec White,
  David Stuck, Shaama M.S., Shane Yost, Joonho Lee, David Small,
  Daniel Levine, Susi Lehtola, Hugh Burton, Evgeny Epifanovsky,
  Bang C. Huynh
 -----------------------------------------------------------------------
Performing Restricted Closed Shell SCFMI
Doing General SCFMI
 Exchange:     0.2000 Hartree-Fock + 0.0800 Slater + 0.7200 B88
 Correlation:  0.1900 VWN1RPA + 0.8100 LYP
 Using Euler-Maclaurin-Lebedev (75,302) quadrature formula
performing fock build before subrot guess so that all methods have access
 using 16 threads for integral computing
 -------------------------------------------------------
 OpenMP Integral computing Module                
 Release: version 1.0, May 2013, Q-Chem Inc. Pittsburgh 
 -------------------------------------------------------
Printing subrot_rss_gen Method Specification:
Occupied Subspace Method is 0
Virtual Subspace Method is 0
Energy prior to optimization (guess energy) = -14234.328979191167
Begin Timing: Total SCF Calculation
begin iterations for algorithm: DIIS         
the SCF tolerance is set to 1.00e-08
    1  -14234.3289791912      3.18e-05     00000 
    2  -14234.3345879352      2.60e-05     00000 
    3  -14234.3357421499      1.89e-05     00000 
    4  -14234.3364663236      6.02e-06     00000 
    5  -14234.3365514803      2.54e-06     00000 
    6  -14234.3365673882      1.32e-06     00000 
    7  -14234.3365710318      9.25e-07     00000 
    8  -14234.3365725869      5.53e-07     00000 
    9  -14234.3365732392      2.57e-07     00000 
   10  -14234.3365733478      1.79e-07     00000 
   11  -14234.3365734022      1.15e-07     00000 
   12  -14234.3365734255      6.90e-08     00000 
   13  -14234.3365734357      3.04e-08     00000 
   14  -14234.3365734375      1.92e-08     00000 
   15  -14234.3365734382      1.08e-08     00000 
   16  -14234.3365734384      6.72e-09     00000 Convergence criterion met
write pseudocanon occs and virts to disk
write pseudocanon orbital energies to disk
Timing for Total SCF: 14915.00s (wall), 204896.33s (cpu)
SCFMI Energy  -14234.3365734384
<S^2>            0.00000
 Total energy in the final basis set =   -14234.3365734384
    ==================================================
        The end of Object-Oriented SCFman: SCFMI      
    ==================================================

 --------------------------------------------------------------

                    Orbital Energies (a.u.)
 --------------------------------------------------------------

 Alpha MOs
 -- Occupied --
-89.0160 -89.0118 -89.0092 -89.0091 -89.0082 -89.0018 -89.0013 -88.9986
-88.9982 -88.9970 -88.9969 -88.9967 -88.9956 -88.9932 -88.9931 -88.9920
-88.9909 -88.9888 -88.9864 -88.9803 -88.9778 -88.9768 -88.9766 -88.9709
-88.9694 -19.1418 -19.1355 -19.1343 -19.1317 -19.1249 -19.1227 -19.1227
-19.1186 -19.1168 -19.1164 -19.1135 -19.1123 -19.1086 -19.1078 -19.1066
-19.1063 -19.1063 -19.1038 -19.1014 -19.1007 -19.0994 -19.0941 -19.0915
-19.0888 -19.0887 -19.0875 -14.3618 -10.2939 -10.2373 -10.2308 -10.2294
-10.2287 -10.2282 -10.2266 -10.2238 -10.2235 -10.2235 -10.2231 -10.2223
-10.2222 -10.2221 -10.2199 -10.2190 -10.2188 -10.2179 -10.2170 -10.2166
-10.2159 -10.2154 -10.2148 -10.2136 -10.2135 -10.2135 -10.2108 -10.2108
-10.2108 -10.2107 -10.2093 -10.2077 -10.2077 -10.2074 -10.2073 -10.2069
-10.2069 -10.2054 -10.2046 -10.2029 -10.2015 -10.2005 -10.2003 -10.1979
-10.1971 -10.1953 -10.1947 -10.1939 -10.1918 -10.1916 -10.1863 -10.1855
-10.1854 -10.1781 -10.1759 -10.1712 -10.1709  -8.0625  -8.0576  -8.0557
 -8.0556  -8.0542  -8.0478  -8.0473  -8.0455  -8.0442  -8.0435  -8.0434
 -8.0428  -8.0407  -8.0397  -8.0390  -8.0378  -8.0372  -8.0352  -8.0323
 -8.0265  -8.0241  -8.0240  -8.0235  -8.0178  -8.0158  -6.0267  -6.0254
 -6.0221  -6.0204  -6.0199  -6.0199  -6.0199  -6.0189  -6.0187  -6.0184
 -6.0173  -6.0153  -6.0132  -6.0130  -6.0120  -6.0116  -6.0111  -6.0109
 -6.0105  -6.0098  -6.0087  -6.0084  -6.0078  -6.0077  -6.0073  -6.0073
 -6.0067  -6.0066  -6.0060  -6.0053  -6.0051  -6.0050  -6.0040  -6.0038
 -6.0034  -6.0028  -6.0025  -6.0023  -6.0021  -6.0016  -6.0016  -6.0009
 -6.0005  -6.0003  -6.0002  -5.9998  -5.9996  -5.9985  -5.9982  -5.9972
 -5.9965  -5.9963  -5.9953  -5.9951  -5.9945  -5.9921  -5.9909  -5.9898
 -5.9897  -5.9884  -5.9883  -5.9878  -5.9873  -5.9871  -5.9860  -5.9836
 -5.9821  -5.9813  -5.9813  -5.9812  -5.9811  -5.9803  -5.9789  -5.9747
 -5.9729  -1.0476  -1.0459  -1.0420  -1.0409  -1.0399  -1.0344  -1.0291
 -1.0264  -1.0260  -1.0260  -1.0233  -1.0199  -1.0198  -1.0191  -1.0186
 -1.0182  -1.0177  -1.0155  -1.0138  -1.0102  -1.0088  -1.0063  -1.0034
 -1.0013  -0.9978  -0.9945  -0.9216  -0.8252  -0.8230  -0.8138  -0.8120
 -0.8103  -0.8089  -0.8083  -0.8067  -0.8034  -0.8030  -0.7988  -0.7976
 -0.7955  -0.7945  -0.7939  -0.7926  -0.7915  -0.7901  -0.7896  -0.7891
 -0.7851  -0.7828  -0.7790  -0.7785  -0.7765  -0.7760  -0.7422  -0.7416
 -0.7413  -0.7403  -0.7389  -0.7375  -0.7368  -0.7325  -0.7323  -0.7319
 -0.7294  -0.7279  -0.7277  -0.7276  -0.7249  -0.7239  -0.7228  -0.7189
 -0.7183  -0.7168  -0.7168  -0.7161  -0.7152  -0.7139  -0.7125  -0.7060
 -0.6932  -0.6366  -0.6331  -0.6252  -0.6237  -0.6220  -0.6169  -0.6145
 -0.6139  -0.6134  -0.6127  -0.6123  -0.6090  -0.6085  -0.6084  -0.6054
 -0.6053  -0.6048  -0.6044  -0.6028  -0.6006  -0.5997  -0.5949  -0.5916
 -0.5908  -0.5884  -0.5846  -0.5813  -0.5764  -0.5641  -0.5241  -0.5028
 -0.5008  -0.4934  -0.4933  -0.4923  -0.4920  -0.4880  -0.4867  -0.4860
 -0.4854  -0.4845  -0.4844  -0.4837  -0.4834  -0.4832  -0.4824  -0.4820
 -0.4806  -0.4795  -0.4787  -0.4784  -0.4781  -0.4779  -0.4776  -0.4759
 -0.4748  -0.4747  -0.4736  -0.4731  -0.4730  -0.4719  -0.4708  -0.4705
 -0.4695  -0.4691  -0.4687  -0.4685  -0.4684  -0.4683  -0.4675  -0.4662
 -0.4659  -0.4649  -0.4646  -0.4637  -0.4631  -0.4629  -0.4626  -0.4618
 -0.4605  -0.4590  -0.4585  -0.4575  -0.4574  -0.4559  -0.4553  -0.4549
 -0.4540  -0.4536  -0.4533  -0.4525  -0.4521  -0.4505  -0.4495  -0.4492
 -0.4488  -0.4483  -0.4475  -0.4466  -0.4459  -0.4448  -0.4441  -0.4424
 -0.4419  -0.4412  -0.4410  -0.4407  -0.4402  -0.4398  -0.4392  -0.4377
 -0.4359  -0.4356  -0.4352  -0.4341  -0.4340  -0.4328  -0.4313  -0.4310
 -0.4294  -0.4280  -0.4276  -0.4268  -0.4253  -0.4250  -0.4241  -0.4237
 -0.4233  -0.4229  -0.4222  -0.4195  -0.4184  -0.4177  -0.4170  -0.4159
 -0.4150  -0.4143  -0.4141  -0.4132  -0.4129  -0.4127  -0.4117  -0.4097
 -0.4088  -0.4086  -0.4083  -0.4073  -0.4066  -0.4061  -0.4059  -0.4050
 -0.4043  -0.4040  -0.4036  -0.4031  -0.4025  -0.4014  -0.4014  -0.4011
 -0.3995  -0.3991  -0.3989  -0.3982  -0.3979  -0.3974  -0.3964  -0.3963
 -0.3946  -0.3939  -0.3934  -0.3921  -0.3917  -0.3912  -0.3895  -0.3885
 -0.3879  -0.3874  -0.3863  -0.3859  -0.3849  -0.3849  -0.3841  -0.3807
 -0.3788  -0.3775  -0.3772  -0.3764  -0.3760  -0.3738  -0.3737  -0.3716
 -0.3689  -0.3688  -0.3669  -0.3658  -0.3651  -0.3634  -0.3601  -0.3599
 -0.3584  -0.3565  -0.3541  -0.3535  -0.3534  -0.3529  -0.3525  -0.3520
 -0.3482  -0.3464  -0.3435  -0.3425  -0.3417  -0.3394  -0.3362  -0.3357
 -0.3315  -0.3188  -0.3107  -0.2998  -0.2993  -0.2990  -0.2918  -0.2863
 -0.2835  -0.2815  -0.2811  -0.2806  -0.2788  -0.2768  -0.2726  -0.2717
 -0.2699  -0.2698  -0.2678  -0.2678  -0.2675  -0.2650  -0.2643  -0.2637
 -0.2621  -0.2595  -0.2595  -0.2587  -0.2534  -0.2528  -0.2526  -0.2515
 -0.2503  -0.2499  -0.2479  -0.2478  -0.2442  -0.2419  -0.2405  -0.2380
 -0.2379  -0.2354  -0.2353  -0.2344  -0.2332  -0.2329  -0.2306  -0.2292
 -0.2276  -0.2260  -0.2228  -0.2163  -0.2158  -0.2142  -0.2079  -0.2044
 -- Virtual --
 -0.0297  -0.0222  -0.0210  -0.0163  -0.0148  -0.0135  -0.0127  -0.0108
 -0.0091  -0.0081  -0.0077  -0.0055  -0.0048  -0.0042  -0.0038  -0.0035
 -0.0028  -0.0026  -0.0006  -0.0003   0.0005   0.0012   0.0020   0.0032
  0.0034   0.0046   0.0050   0.0075   0.0080   0.0084   0.0094   0.0104
  0.0109   0.0116   0.0130   0.0132   0.0137   0.0147   0.0152   0.0152
  0.0161   0.0171   0.0181   0.0184   0.0194   0.0196   0.0200   0.0207
  0.0220   0.0225   0.0229   0.0234   0.0242   0.0243   0.0250   0.0258
  0.0267   0.0275   0.0278   0.0292   0.0299   0.0301   0.0307   0.0312
  0.0318   0.0333   0.0340   0.0351   0.0357   0.0364   0.0367   0.0376
  0.0380   0.0388   0.0392   0.0401   0.0406   0.0419   0.0425   0.0434
  0.0440   0.0445   0.0450   0.0458   0.0459   0.0462   0.0467   0.0475
  0.0486   0.0488   0.0493   0.0498   0.0508   0.0510   0.0517   0.0526
  0.0528   0.0541   0.0553   0.0557   0.0564   0.0568   0.0575   0.0581
  0.0586   0.0593   0.0600   0.0603   0.0607   0.0621   0.0623   0.0631
  0.0636   0.0641   0.0651   0.0656   0.0664   0.0669   0.0680   0.0687
  0.0689   0.0701   0.0703   0.0714   0.0723   0.0730   0.0732   0.0735
  0.0747   0.0754   0.0763   0.0772   0.0775   0.0779   0.0789   0.0795
  0.0810   0.0814   0.0817   0.0826   0.0828   0.0830   0.0836   0.0855
  0.0857   0.0863   0.0871   0.0878   0.0883   0.0891   0.0896   0.0903
  0.0909   0.0916   0.0924   0.0929   0.0937   0.0944   0.0947   0.0958
  0.0962   0.0966   0.0978   0.0979   0.0991   0.0996   0.1003   0.1006
  0.1011   0.1023   0.1035   0.1038   0.1043   0.1048   0.1059   0.1067
  0.1069   0.1074   0.1082   0.1085   0.1094   0.1100   0.1105   0.1115
  0.1124   0.1130   0.1135   0.1142   0.1146   0.1152   0.1156   0.1163
  0.1171   0.1173   0.1181   0.1193   0.1197   0.1198   0.1207   0.1210
  0.1222   0.1222   0.1234   0.1241   0.1250   0.1251   0.1256   0.1262
  0.1272   0.1277   0.1284   0.1295   0.1299   0.1303   0.1320   0.1323
  0.1325   0.1330   0.1340   0.1345   0.1349   0.1358   0.1361   0.1366
  0.1376   0.1385   0.1395   0.1401   0.1411   0.1420   0.1424   0.1433
  0.1442   0.1447   0.1449   0.1451   0.1461   0.1468   0.1472   0.1475
  0.1484   0.1492   0.1495   0.1507   0.1509   0.1520   0.1527   0.1535
  0.1544   0.1546   0.1557   0.1558   0.1562   0.1567   0.1574   0.1578
  0.1581   0.1596   0.1603   0.1609   0.1617   0.1618   0.1627   0.1637
  0.1639   0.1642   0.1657   0.1661   0.1671   0.1672   0.1686   0.1688
  0.1695   0.1699   0.1705   0.1712   0.1717   0.1719   0.1727   0.1729
  0.1737   0.1744   0.1748   0.1756   0.1762   0.1768   0.1775   0.1779
  0.1782   0.1787   0.1799   0.1808   0.1814   0.1821   0.1836   0.1839
  0.1840   0.1845   0.1854   0.1860   0.1863   0.1869   0.1875   0.1881
  0.1889   0.1894   0.1905   0.1911   0.1916   0.1923   0.1930   0.1932
  0.1937   0.1947   0.1954   0.1962   0.1966   0.1971   0.1979   0.1985
  0.1988   0.2000   0.2003   0.2006   0.2018   0.2024   0.2029   0.2033
  0.2040   0.2042   0.2051   0.2058   0.2062   0.2067   0.2076   0.2080
  0.2085   0.2100   0.2105   0.2107   0.2113   0.2123   0.2136   0.2140
  0.2149   0.2152   0.2157   0.2165   0.2170   0.2176   0.2179   0.2189
  0.2191   0.2202   0.2210   0.2217   0.2224   0.2227   0.2242   0.2244
  0.2256   0.2264   0.2271   0.2279   0.2283   0.2291   0.2296   0.2296
  0.2304   0.2313   0.2325   0.2337   0.2341   0.2343   0.2349   0.2352
  0.2360   0.2377   0.2380   0.2391   0.2393   0.2398   0.2409   0.2412
  0.2417   0.2423   0.2437   0.2439   0.2447   0.2457   0.2466   0.2474
  0.2485   0.2489   0.2506   0.2507   0.2518   0.2521   0.2525   0.2533
  0.2536   0.2538   0.2552   0.2555   0.2568   0.2574   0.2583   0.2585
  0.2593   0.2606   0.2608   0.2614   0.2624   0.2627   0.2642   0.2648
  0.2656   0.2662   0.2672   0.2679   0.2687   0.2707   0.2715   0.2719
  0.2725   0.2727   0.2731   0.2734   0.2745   0.2756   0.2767   0.2774
  0.2786   0.2795   0.2805   0.2811   0.2820   0.2824   0.2836   0.2841
  0.2843   0.2853   0.2865   0.2880   0.2886   0.2896   0.2911   0.2920
  0.2931   0.2934   0.2942   0.2950   0.2959   0.2969   0.2972   0.2985
  0.2996   0.3005   0.3011   0.3014   0.3020   0.3033   0.3044   0.3058
  0.3059   0.3064   0.3066   0.3080   0.3088   0.3097   0.3100   0.3116
  0.3125   0.3128   0.3141   0.3153   0.3159   0.3165   0.3173   0.3179
  0.3187   0.3201   0.3209   0.3213   0.3225   0.3238   0.3242   0.3248
  0.3261   0.3266   0.3275   0.3284   0.3296   0.3302   0.3315   0.3322
  0.3327   0.3336   0.3344   0.3363   0.3367   0.3370   0.3383   0.3395
  0.3407   0.3417   0.3429   0.3430   0.3436   0.3454   0.3461   0.3462
  0.3482   0.3497   0.3498   0.3508   0.3514   0.3520   0.3541   0.3554
  0.3559   0.3562   0.3571   0.3582   0.3590   0.3606   0.3614   0.3621
  0.3626   0.3634   0.3640   0.3644   0.3657   0.3671   0.3679   0.3685
  0.3702   0.3710   0.3714   0.3718   0.3732   0.3737   0.3741   0.3755
  0.3768   0.3775   0.3792   0.3799   0.3800   0.3806   0.3815   0.3830
  0.3835   0.3840   0.3848   0.3850   0.3861   0.3877   0.3880   0.3895
  0.3909   0.3913   0.3926   0.3940   0.3944   0.3955   0.3961   0.3968
  0.3987   0.3992   0.4001   0.4004   0.4015   0.4031   0.4038   0.4045
  0.4053   0.4067   0.4074   0.4085   0.4092   0.4098   0.4109   0.4121
  0.4132   0.4136   0.4165   0.4168   0.4181   0.4182   0.4195   0.4205
  0.4217   0.4217   0.4239   0.4242   0.4244   0.4258   0.4270   0.4276
  0.4291   0.4309   0.4311   0.4325   0.4336   0.4343   0.4348   0.4376
  0.4380   0.4386   0.4392   0.4400   0.4418   0.4435   0.4442   0.4449
  0.4452   0.4477   0.4493   0.4503   0.4511   0.4517   0.4538   0.4551
  0.4554   0.4571   0.4581   0.4586   0.4598   0.4617   0.4625   0.4631
  0.4639   0.4654   0.4659   0.4687   0.4693   0.4706   0.4720   0.4741
  0.4747   0.4769   0.4773   0.4807   0.4822   0.4834   0.4838   0.4854
  0.4874   0.4881   0.4912   0.4929   0.4939   0.4940   0.4976   0.4991
  0.5002   0.5023   0.5041   0.5047   0.5071   0.5080   0.5096   0.5126
  0.5148   0.5174   0.5183   0.5202   0.5216   0.5225   0.5237   0.5258
  0.5276   0.5290   0.5302   0.5326   0.5333   0.5353   0.5374   0.5386
  0.5390   0.5411   0.5450   0.5458   0.5484   0.5503   0.5511   0.5524
  0.5544   0.5549   0.5570   0.5590   0.5602   0.5623   0.5628   0.5651
  0.5661   0.5673   0.5709   0.5719   0.5741   0.5755   0.5763   0.5769
  0.5782   0.5801   0.5813   0.5823   0.5832   0.5854   0.5874   0.5888
  0.5896   0.5911   0.5932   0.5947   0.5954   0.5971   0.5986   0.6015
  0.6025   0.6032   0.6049   0.6063   0.6076   0.6093   0.6107   0.6122
  0.6133   0.6145   0.6150   0.6172   0.6177   0.6210   0.6216   0.6222
  0.6232   0.6248   0.6270   0.6281   0.6294   0.6312   0.6338   0.6345
  0.6353   0.6367   0.6379   0.6392   0.6399   0.6415   0.6426   0.6432
  0.6448   0.6463   0.6468   0.6474   0.6497   0.6513   0.6520   0.6525
  0.6539   0.6540   0.6552   0.6569   0.6579   0.6588   0.6604   0.6615
  0.6625   0.6637   0.6645   0.6650   0.6663   0.6667   0.6684   0.6685
  0.6702   0.6717   0.6730   0.6745   0.6763   0.6775   0.6779   0.6790
  0.6805   0.6810   0.6822   0.6844   0.6850   0.6857   0.6878   0.6890
  0.6901   0.6914   0.6920   0.6951   0.6971   0.6996   0.7003   0.7008
  0.7012   0.7017   0.7044   0.7047   0.7073   0.7078   0.7091   0.7094
  0.7113   0.7126   0.7162   0.7164   0.7180   0.7192   0.7212   0.7222
  0.7226   0.7250   0.7261   0.7277   0.7286   0.7294   0.7316   0.7331
  0.7349   0.7382   0.7386   0.7392   0.7411   0.7429   0.7442   0.7450
  0.7472   0.7481   0.7501   0.7526   0.7549   0.7551   0.7582   0.7587
  0.7597   0.7629   0.7643   0.7649   0.7676   0.7682   0.7709   0.7714
  0.7725   0.7745   0.7757   0.7767   0.7794   0.7806   0.7827   0.7848
  0.7854   0.7870   0.7884   0.7903   0.7928   0.7929   0.7943   0.7955
  0.7978   0.7989   0.7994   0.8006   0.8014   0.8036   0.8048   0.8066
  0.8082   0.8089   0.8099   0.8137   0.8164   0.8171   0.8181   0.8204
  0.8207   0.8218   0.8232   0.8249   0.8263   0.8276   0.8296   0.8307
  0.8318   0.8325   0.8329   0.8353   0.8360   0.8370   0.8379   0.8395
  0.8406   0.8411   0.8420   0.8435   0.8453   0.8467   0.8490   0.8526
  0.8545   0.8551   0.8563   0.8568   0.8583   0.8598   0.8619   0.8628
  0.8645   0.8652   0.8657   0.8667   0.8691   0.8705   0.8725   0.8744
  0.8754   0.8765   0.8777   0.8793   0.8797   0.8808   0.8811   0.8836
  0.8853   0.8875   0.8882   0.8892   0.8905   0.8911   0.8939   0.8946
  0.8962   0.8972   0.8974   0.8985   0.8999   0.9003   0.9039   0.9061
  0.9079   0.9086   0.9095   0.9102   0.9114   0.9135   0.9144   0.9154
  0.9168   0.9180   0.9197   0.9218   0.9222   0.9233   0.9252   0.9264
  0.9282   0.9296   0.9301   0.9320   0.9326   0.9343   0.9351   0.9362
  0.9378   0.9383   0.9403   0.9410   0.9415   0.9425   0.9443   0.9455
  0.9462   0.9487   0.9496   0.9506   0.9514   0.9525   0.9533   0.9555
  0.9563   0.9571   0.9578   0.9601   0.9608   0.9617   0.9624   0.9649
  0.9657   0.9658   0.9671   0.9695   0.9710   0.9722   0.9732   0.9743
  0.9748   0.9765   0.9779   0.9796   0.9802   0.9819   0.9824   0.9831
  0.9854   0.9859   0.9871   0.9885   0.9889   0.9898   0.9919   0.9925
  0.9935   0.9946   0.9961   0.9973   0.9983   0.9991   0.9999   1.0020
  1.0027   1.0035   1.0057   1.0068   1.0074   1.0091   1.0101   1.0105
  1.0123   1.0129   1.0137   1.0155   1.0162   1.0169   1.0176   1.0201
  1.0211   1.0226   1.0233   1.0233   1.0247   1.0258   1.0272   1.0275
  1.0290   1.0299   1.0319   1.0329   1.0351   1.0357   1.0377   1.0385
  1.0402   1.0413   1.0421   1.0434   1.0442   1.0445   1.0456   1.0475
  1.0486   1.0501   1.0513   1.0529   1.0551   1.0573   1.0590   1.0600
  1.0613   1.0620   1.0641   1.0663   1.0672   1.0688   1.0700   1.0719
  1.0720   1.0746   1.0760   1.0773   1.0794   1.0808   1.0816   1.0832
  1.0844   1.0851   1.0861   1.0892   1.0913   1.0932   1.0935   1.0949
  1.0967   1.0979   1.0988   1.1001   1.1015   1.1019   1.1042   1.1050
  1.1058   1.1062   1.1067   1.1095   1.1111   1.1126   1.1154   1.1159
  1.1165   1.1186   1.1208   1.1220   1.1224   1.1232   1.1248   1.1278
  1.1299   1.1313   1.1326   1.1347   1.1354   1.1372   1.1381   1.1388
  1.1411   1.1417   1.1431   1.1444   1.1463   1.1468   1.1479   1.1509
  1.1513   1.1534   1.1540   1.1556   1.1575   1.1586   1.1589   1.1601
  1.1616   1.1635   1.1641   1.1647   1.1659   1.1679   1.1687   1.1707
  1.1739   1.1756   1.1778   1.1787   1.1797   1.1800   1.1836   1.1853
  1.1859   1.1869   1.1901   1.1914   1.1927   1.1946   1.1969   1.1981
  1.1997   1.2019   1.2042   1.2062   1.2077   1.2089   1.2106   1.2111
  1.2138   1.2159   1.2173   1.2205   1.2227   1.2256   1.2258   1.2280
  1.2307   1.2324   1.2342   1.2352   1.2361   1.2381   1.2411   1.2447
  1.2454   1.2468   1.2500   1.2509   1.2513   1.2567   1.2596   1.2606
  1.2632   1.2652   1.2665   1.2708   1.2717   1.2734   1.2753   1.2776
  1.2790   1.2821   1.2834   1.2854   1.2868   1.2895   1.2930   1.2945
  1.2965   1.2973   1.3005   1.3026   1.3055   1.3089   1.3104   1.3128
  1.3166   1.3180   1.3187   1.3209   1.3222   1.3286   1.3286   1.3293
  1.3323   1.3341   1.3366   1.3384   1.3395   1.3431   1.3440   1.3478
  1.3493   1.3512   1.3518   1.3520   1.3546   1.3579   1.3586   1.3599
  1.3640   1.3660   1.3671   1.3687   1.3707   1.3730   1.3749   1.3756
  1.3760   1.3774   1.3798   1.3814   1.3839   1.3848   1.3861   1.3877
  1.3900   1.3921   1.3924   1.3943   1.3960   1.3984   1.3994   1.4015
  1.4025   1.4033   1.4047   1.4077   1.4089   1.4104   1.4106   1.4117
  1.4145   1.4154   1.4160   1.4201   1.4209   1.4222   1.4232   1.4234
  1.4246   1.4278   1.4301   1.4306   1.4313   1.4340   1.4355   1.4361
  1.4382   1.4400   1.4420   1.4428   1.4444   1.4449   1.4467   1.4486
  1.4497   1.4535   1.4547   1.4547   1.4576   1.4588   1.4602   1.4613
  1.4641   1.4667   1.4672   1.4683   1.4713   1.4727   1.4756   1.4771
  1.4780   1.4790   1.4827   1.4854   1.4874   1.4884   1.4914   1.4922
  1.4961   1.4987   1.4990   1.5041   1.5049   1.5064   1.5083   1.5118
  1.5144   1.5153   1.5195   1.5222   1.5243   1.5282   1.5290   1.5306
  1.5343   1.5360   1.5384   1.5410   1.5439   1.5456   1.5491   1.5510
  1.5562   1.5581   1.5609   1.5658   1.5677   1.5693   1.5730   1.5756
  1.5798   1.5812   1.5857   1.5882   1.5929   1.5972   1.6039   1.6062
  1.6075   1.6161   1.6165   1.6224   1.6240   1.6308   1.6314   1.6386
  1.6480   1.6529   1.6551   1.6565   1.6609   1.6622   1.6635   1.6649
  1.6664   1.6693   1.6727   1.6754   1.6770   1.6778   1.6790   1.6808
  1.6817   1.6827   1.6850   1.6860   1.6867   1.6875   1.6887   1.6900
  1.6905   1.6919   1.6923   1.6940   1.6944   1.6961   1.6974   1.6977
  1.6993   1.7000   1.7030   1.7051   1.7066   1.7073   1.7087   1.7091
  1.7096   1.7115   1.7127   1.7139   1.7147   1.7159   1.7178   1.7203
  1.7222   1.7238   1.7240   1.7260   1.7274   1.7302   1.7307   1.7317
  1.7336   1.7367   1.7382   1.7410   1.7421   1.7446   1.7468   1.7479
  1.7486   1.7498   1.7509   1.7531   1.7544   1.7569   1.7596   1.7606
  1.7615   1.7630   1.7645   1.7650   1.7672   1.7679   1.7701   1.7707
  1.7744   1.7758   1.7792   1.7802   1.7823   1.7848   1.7855   1.7865
  1.7894   1.7899   1.7917   1.7931   1.7938   1.7966   1.7981   1.8008
  1.8025   1.8043   1.8075   1.8112   1.8127   1.8146   1.8166   1.8174
  1.8208   1.8233   1.8248   1.8269   1.8291   1.8298   1.8333   1.8375
  1.8426   1.8457   1.8480   1.8496   1.8503   1.8551   1.8554   1.8600
  1.8632   1.8661   1.8663   1.8680   1.8712   1.8743   1.8759   1.8772
  1.8786   1.8820   1.8839   1.8843   1.8863   1.8871   1.8880   1.8893
  1.8900   1.8912   1.8922   1.8931   1.8942   1.8946   1.8953   1.8968
  1.8980   1.8988   1.9009   1.9035   1.9042   1.9066   1.9083   1.9095
  1.9109   1.9125   1.9137   1.9144   1.9161   1.9174   1.9183   1.9206
  1.9221   1.9239   1.9263   1.9286   1.9292   1.9318   1.9336   1.9357
  1.9406   1.9419   1.9425   1.9447   1.9485   1.9538   1.9541   1.9548
  1.9568   1.9577   1.9582   1.9597   1.9618   1.9642   1.9662   1.9733
  1.9747   1.9793   1.9842   1.9886   2.0054   2.0085   2.0160   2.0200
  2.0331   2.0358   2.0384   2.0438   2.0492   2.0505   2.0538   2.0569
  2.0603   2.0612   2.0633   2.0638   2.0686   2.0709   2.0725   2.0733
  2.0752   2.0755   2.0781   2.0793   2.0802   2.0819   2.0827   2.0833
  2.0843   2.0864   2.0886   2.0899   2.0905   2.0912   2.0928   2.0938
  2.0948   2.0959   2.0983   2.0991   2.1029   2.1036   2.1051   2.1053
  2.1068   2.1087   2.1104   2.1107   2.1123   2.1137   2.1152   2.1174
  2.1225   2.1243   2.1251   2.1319   2.1375   2.1393   2.1422   2.1485
  2.1537   2.1567   2.1585   2.1661   2.1708   2.1733   2.1750   2.1795
  2.1832   2.1856   2.1874   2.1899   2.1959   2.1974   2.2000   2.2030
  2.2061   2.2067   2.2093   2.2099   2.2114   2.2146   2.2170   2.2183
  2.2196   2.2216   2.2232   2.2258   2.2268   2.2279   2.2299   2.2308
  2.2323   2.2337   2.2358   2.2361   2.2375   2.2379   2.2405   2.2421
  2.2424   2.2428   2.2441   2.2447   2.2466   2.2473   2.2488   2.2507
  2.2508   2.2522   2.2528   2.2549   2.2558   2.2569   2.2585   2.2592
  2.2609   2.2625   2.2631   2.2640   2.2642   2.2651   2.2659   2.2667
  2.2682   2.2690   2.2695   2.2702   2.2721   2.2732   2.2735   2.2744
  2.2756   2.2759   2.2771   2.2793   2.2806   2.2814   2.2824   2.2842
  2.2852   2.2860   2.2868   2.2868   2.2883   2.2894   2.2900   2.2905
  2.2915   2.2918   2.2928   2.2946   2.2962   2.2968   2.2979   2.2991
  2.3006   2.3008   2.3016   2.3023   2.3036   2.3052   2.3055   2.3072
  2.3077   2.3090   2.3097   2.3108   2.3115   2.3135   2.3146   2.3163
  2.3165   2.3181   2.3189   2.3203   2.3222   2.3235   2.3256   2.3262
  2.3279   2.3288   2.3300   2.3318   2.3332   2.3342   2.3348   2.3350
  2.3382   2.3391   2.3410   2.3437   2.3468   2.3486   2.3500   2.3507
  2.3525   2.3540   2.3555   2.3563   2.3568   2.3588   2.3596   2.3609
  2.3662   2.3682   2.3686   2.3703   2.3754   2.3768   2.3785   2.3807
  2.3832   2.3856   2.3895   2.3914   2.3946   2.4074   2.4091   2.4299
  2.4425   2.4495   2.4862   2.4956   2.5266   2.5469   2.5894   2.6637
  2.7397   2.7623   2.7759   2.7955   2.8186   2.8284   2.8353   2.8371
  2.8377   2.8421   2.8427   2.8437   2.8490   2.8507   2.8513   2.8535
  2.8550   2.8553   2.8575   2.8602   2.8626   2.8653   2.8670   2.8691
  2.8708   2.8734   2.8764   2.8778   2.8848   2.8918   2.9071   2.9188
  2.9333   3.0977   3.2591   3.9560   3.9628   3.9669   3.9677   3.9705
  3.9731   3.9753   3.9767   3.9785   3.9808   3.9845   3.9851   3.9866
  3.9901   3.9950   3.9972   3.9979   4.0000   4.0026   4.0066   4.0079
  4.0123   4.0136   4.0258   4.0671   4.2264   4.2323   4.2358   4.2360
  4.2396   4.2445   4.2518   4.2533   4.2564   4.2591   4.2605   4.2619
  4.2648   4.2708   4.2743   4.2767   4.2781   4.2811   4.2817   4.2862
  4.2872   4.2901   4.2935   4.2950   4.2963   4.2982   4.3009   4.3034
  4.3062   4.3077   4.3095   4.3114   4.3158   4.3168   4.3186   4.3197
  4.3211   4.3257   4.3287   4.3346   4.3370   4.3386   4.3402   4.3434
  4.3463   4.3476   4.3503   4.3561   4.3592   4.3611   4.3651   4.3691
  4.3728   4.3750   4.3795   4.3804   4.3875   4.3909   4.3943   4.3979
  4.4020   4.4024   4.4086   4.4133   4.4160   4.4240   4.4346   4.4426
  4.4534   4.4592   4.4654   4.4707   4.4897   4.5132   4.5410   4.5578
  4.5860   4.6013   4.6394   4.6740   4.7178   4.7369   4.7863   4.9063
 --------------------------------------------------------------

          Ground-State Mulliken Net Atomic Charges

     Atom                 Charge (a.u.)
  ----------------------------------------
      1 C                    -0.339620
      2 C                    -0.553744
      3 C                    -0.047059
      4 C                    -0.578654
      5 C                    -0.396678
      6 C                    -0.413596
      7 H                     0.239033
      8 H                     0.234333
      9 H                     0.187665
     10 H                     0.238333
     11 H                     0.234499
     12 H                     0.195974
     13 H                     0.182295
     14 H                     0.217122
     15 H                     0.190701
     16 H                     0.199052
     17 H                     0.188128
     18 N                    -0.319253
     19 H                     0.457423
     20 C                     0.276810
     21 H                     0.156990
     22 O                    -0.549751
     23 C                    -0.800663
     24 H                     0.253194
     25 H                     0.230083
     26 H                     0.299947
     27 S                     0.711769
     28 C                    -0.766919
     29 H                     0.272715
     30 H                     0.226928
     31 H                     0.251100
     32 O                    -0.674774
     33 C                    -0.915777
     34 H                     0.258878
     35 H                     0.229985
     36 H                     0.320540
     37 S                     0.840061
     38 C                    -0.839154
     39 H                     0.248746
     40 H                     0.257880
     41 H                     0.255076
     42 O                    -0.700840
     43 C                    -0.867002
     44 H                     0.249436
     45 H                     0.253465
     46 H                     0.236733
     47 S                     0.963602
     48 C                    -0.806181
     49 H                     0.272529
     50 H                     0.216470
     51 H                     0.263824
     52 O                    -0.724520
     53 C                    -0.908313
     54 H                     0.247803
     55 H                     0.291643
     56 H                     0.268152
     57 S                     1.018290
     58 C                    -0.877856
     59 H                     0.280709
     60 H                     0.238860
     61 H                     0.257135
     62 O                    -0.719082
     63 C                    -0.786954
     64 H                     0.248201
     65 H                     0.227664
     66 H                     0.260797
     67 S                     0.887938
     68 C                    -0.878913
     69 H                     0.238571
     70 H                     0.241024
     71 H                     0.283618
     72 O                    -0.651009
     73 C                    -0.874073
     74 H                     0.244361
     75 H                     0.295762
     76 H                     0.256628
     77 S                     1.053073
     78 C                    -0.991800
     79 H                     0.271714
     80 H                     0.275974
     81 H                     0.245822
     82 O                    -0.762392
     83 C                    -0.834888
     84 H                     0.267398
     85 H                     0.293115
     86 H                     0.277841
     87 S                     0.617484
     88 C                    -0.832482
     89 H                     0.226048
     90 H                     0.249107
     91 H                     0.268330
     92 O                    -0.608461
     93 C                    -0.797768
     94 H                     0.249369
     95 H                     0.272617
     96 H                     0.283982
     97 S                     0.848299
     98 C                    -0.852287
     99 H                     0.281397
    100 H                     0.236472
    101 H                     0.251725
    102 O                    -0.747684
    103 C                    -0.673714
    104 H                     0.243695
    105 H                     0.300447
    106 H                     0.246381
    107 S                     0.711389
    108 C                    -0.824319
    109 H                     0.228465
    110 H                     0.306028
    111 H                     0.230066
    112 O                    -0.721637
    113 C                    -0.892900
    114 H                     0.242031
    115 H                     0.286981
    116 H                     0.266088
    117 S                     0.749996
    118 C                    -0.761438
    119 H                     0.261517
    120 H                     0.245962
    121 H                     0.250499
    122 O                    -0.652922
    123 C                    -0.887131
    124 H                     0.276342
    125 H                     0.299062
    126 H                     0.250969
    127 S                     0.955129
    128 C                    -0.834140
    129 H                     0.231500
    130 H                     0.266492
    131 H                     0.253582
    132 O                    -0.753595
    133 C                    -0.939080
    134 H                     0.257901
    135 H                     0.265260
    136 H                     0.267715
    137 S                     1.276289
    138 C                    -1.166704
    139 H                     0.280267
    140 H                     0.243638
    141 H                     0.252942
    142 O                    -0.716858
    143 C                    -0.785131
    144 H                     0.255658
    145 H                     0.228337
    146 H                     0.250993
    147 S                     0.821852
    148 C                    -0.809872
    149 H                     0.226478
    150 H                     0.254447
    151 H                     0.261817
    152 O                    -0.713914
    153 C                    -0.804693
    154 H                     0.275472
    155 H                     0.251804
    156 H                     0.232286
    157 S                     0.801855
    158 C                    -0.792563
    159 H                     0.271663
    160 H                     0.264470
    161 H                     0.265995
    162 O                    -0.742945
    163 C                    -0.666381
    164 H                     0.238772
    165 H                     0.212015
    166 H                     0.305267
    167 S                     0.579447
    168 C                    -0.735139
    169 H                     0.274951
    170 H                     0.236280
    171 H                     0.263223
    172 O                    -0.683636
    173 C                    -0.872385
    174 H                     0.257335
    175 H                     0.265320
    176 H                     0.235030
    177 S                     1.041268
    178 C                    -0.863689
    179 H                     0.251057
    180 H                     0.235463
    181 H                     0.246923
    182 O                    -0.706876
    183 C                    -1.174314
    184 H                     0.325931
    185 H                     0.259209
    186 H                     0.222317
    187 S                     0.938453
    188 C                    -0.765973
    189 H                     0.233410
    190 H                     0.250901
    191 H                     0.300459
    192 O                    -0.667777
    193 C                    -0.873256
    194 H                     0.270928
    195 H                     0.253261
    196 H                     0.231236
    197 S                     1.048525
    198 C                    -0.916572
    199 H                     0.249690
    200 H                     0.251430
    201 H                     0.233974
    202 O                    -0.679919
    203 C                    -0.857160
    204 H                     0.227510
    205 H                     0.297336
    206 H                     0.243220
    207 S                     0.956305
    208 C                    -0.875568
    209 H                     0.263534
    210 H                     0.271118
    211 H                     0.232491
    212 O                    -0.722844
    213 C                    -1.039548
    214 H                     0.300567
    215 H                     0.212607
    216 H                     0.306865
    217 S                     1.034224
    218 C                    -0.944788
    219 H                     0.253756
    220 H                     0.229421
    221 H                     0.263232
    222 O                    -0.693936
    223 C                    -1.077047
    224 H                     0.301541
    225 H                     0.258380
    226 H                     0.314535
    227 S                     1.312848
    228 C                    -1.158674
    229 H                     0.248983
    230 H                     0.261441
    231 H                     0.241542
    232 O                    -0.670566
    233 C                    -0.882243
    234 H                     0.242160
    235 H                     0.255409
    236 H                     0.262039
    237 S                     0.956925
    238 C                    -0.796700
    239 H                     0.270287
    240 H                     0.234149
    241 H                     0.251879
    242 O                    -0.778324
    243 C                    -0.840400
    244 H                     0.276151
    245 H                     0.262033
    246 H                     0.298619
    247 S                     0.635842
    248 C                    -0.784438
    249 H                     0.249814
    250 H                     0.262194
    251 H                     0.268871
    252 O                    -0.660068
    253 C                    -0.756252
    254 H                     0.248208
    255 H                     0.244200
    256 H                     0.280753
    257 S                     0.634212
    258 C                    -0.859335
    259 H                     0.213703
    260 H                     0.258855
    261 H                     0.279627
    262 O                    -0.595416
    263 C                    -1.000701
    264 H                     0.278169
    265 H                     0.249894
    266 H                     0.313771
    267 S                     0.373935
    268 C                    -0.652967
    269 H                     0.244943
    270 H                     0.240121
    271 H                     0.253237
    272 O                    -0.616937
  ----------------------------------------
  Sum of atomic charges =     0.000000

 -----------------------------------------------------------------
                    Cartesian Multipole Moments
 -----------------------------------------------------------------
    Charge (ESU x 10^10)
                -0.0000
    Dipole Moment (Debye)
         X      12.5633      Y      -6.8375      Z       5.9837
       Tot      15.5046
    Quadrupole Moments (Debye-Ang)
        XX    -153.7586     XY      91.1748     YY   -1163.7034
        XZ     519.5256     YZ      24.2932     ZZ    -568.9119
    Octopole Moments (Debye-Ang^2)
       XXX  -41938.1512    XXY   -9345.3115    XYY  -26358.7338
       YYY  -72273.4858    XXZ    1867.2820    XYZ    8777.8217
       YYZ  -24658.8211    XZZ   -5610.3737    YZZ  -15360.6268
       ZZZ  -56577.2536
    Hexadecapole Moments (Debye-Ang^3)
      XXXX ************   XXXY ************   XXYY ************
      XYYY ************   YYYY ************   XXXZ -928804.8834
      XXYZ  -50820.1491   XYYZ -509430.9110   YYYZ ************
      XXZZ -493892.9628   XYZZ -187522.6520   YYZZ ************
      XZZZ ************   YZZZ ************   ZZZZ ************
 -----------------------------------------------------------------
 Total job time:  26659.77s(wall), 228463.95s(cpu) 
 Thu Jul 21 15:03:01 2022

        *************************************************************
        *                                                           *
        *  Thank you very much for using Q-Chem.  Have a nice day.  *
        *                                                           *
        *************************************************************


 
User input: 2 of 2 
 
                  Welcome to Q-Chem
     A Quantum Leap Into The Future Of Chemistry


 Q-Chem 6.0 (devel), Q-Chem, Inc., Pleasanton, CA (2022)

 E. Epifanovsky,  A. T. B. Gilbert,  Xintian Feng,  Joonho Lee,  Yuezhi Mao,  
 N. Mardirossian,  P. Pokhilko,  A. White,  M. Wormit,  M. P. Coons,  
 A. L. Dempwolff,  Zhengting Gan,  D. Hait,  P. R. Horn,  L. D. Jacobson,  
 I. Kaliman,  J. Kussmann,  A. W. Lange,  Ka Un Lao,  D. S. Levine,  Jie Liu,  
 S. C. McKenzie,  A. F. Morrison,  K. Nanda,  F. Plasser,  D. R. Rehn,  
 M. L. Vidal,  Zhi-Qiang You,  Ying Zhu,  B. Alam,  B. Albrecht,  
 A. Aldossary,  E. Alguire,  J. H. Andersen,  V. Athavale,  D. Barton,  
 K. Begam,  A. Behn,  N. Bellonzi,  Y. A. Bernard,  E. J. Berquist,  
 H. Burton,  A. Carreras,  K. Carter-Fenk,  Romit Chakraborty,  
 Chandrima Chakravarty,  Junhan Chen,  A. D. Chien,  K. D. Closser,  
 V. Cofer-Shabica,  L. Cunha,  S. Dasgupta,  Jia Deng,  M. de Wergifosse,  
 M. Diedenhofen,  Hainam Do,  S. Ehlert,  Po-Tung Fang,  S. Fatehi,  
 Qingguo Feng,  T. Friedhoff,  B. Ganoe,  J. Gayvert,  Qinghui Ge,  
 G. Gidofalvi,  M. Goldey,  J. Gomes,  C. Gonzalez-Espinoza,  S. Gulania,  
 A. Gunina,  J. A. Gyamfi,  M. W. D. Hanson-Heine,  P. H. P. Harbach,  
 A. W. Hauser,  M. F. Herbst,  M. Hernandez Vera,  M. Hodecker,  
 Z. C. Holden,  S. Houck,  Xunkun Huang,  Kerwin Hui,  B. C. Huynh,  
 K. Ikeda,  M. Ivanov,  Hyunjun Ji,  Zuxin Jin,  Hanjie Jiang,  B. Kaduk,  
 S. Kaehler,  R. Kang,  K. Khistyaev,  Jaehoon Kim,  Yongbin Kim,  
 P. Klunzinger,  Z. Koczor-Benda,  Joong Hoon Koh,  D. Kosenkov,  
 Saikiran Kotaru,  L. Koulias,  T. Kowalczyk,  C. M. Krauter,  K. Kue,  
 A. Kunitsa,  T. Kus,  A. Landau,  K. V. Lawler,  D. Lefrancois,  S. Lehtola,  
 Rain Li,  Shaozhi Li,  Yi-Pei Li,  Jiashu Liang,  M. Liebenthal,  
 Hung-Hsuan Lin,  You-Sheng Lin,  Fenglai Liu,  Kuan-Yu Liu,  
 M. Loipersberger,  A. Luenser,  C. Malbon,  A. Manjanath,  P. Manohar,  
 E. Mansoor,  S. F. Manzer,  Shan-Ping Mao,  A. V. Marenich,  T. Markovich,  
 S. Mason,  F. Matz,  S. A. Maurer,  P. F. McLaughlin,  M. F. S. J. Menger,  
 J.-M. Mewes,  S. A. Mewes,  P. Morgante,  Mohammad Mostafanejad,  
 J. W. Mullinax,  K. J. Oosterbaan,  G. Paran,  V. Parravicini,  
 Alexander C. Paul,  Suranjan K. Paul,  F. Pavosevic,  Zheng Pei,  S. Prager,  
 E. I. Proynov,  E. Ramos,  B. Rana,  A. E. Rask,  A. Rettig,  R. M. Richard,  
 F. Rob,  E. Rossomme,  T. Scheele,  M. Scheurer,  M. Schneider,  
 P. E. Schneider,  N. Sergueev,  S. M. Sharada,  Hengyuan Shen,  
 W. Skomorowski,  D. W. Small,  C. J. Stein,  Yingli Su,  Yu-Chuan Su,  
 E. J. Sundstrom,  Zhen Tao,  J. Thirman,  Hung-Yi Tsai,  T. Tsuchimochi,  
 N. M. Tubman,  C. Utku,  S. P. Veccham,  O. Vydrov,  J. Wenzel,  
 Jonathan Wong,  J. Witte,  A. Yamada,  Chou-Hsun Yang,  Kun Yao,  
 S. Yeganeh,  S. R. Yost,  A. Zech,  F. Zeller,  Igor Ying Zhang,  
 Xing Zhang,  Yu Zhang,  D. Zuev,  A. Aspuru-Guzik,  A. T. Bell,  
 N. A. Besley,  K. B. Bravaya,  B. R. Brooks,  D. Casanova,  Jeng-Da Chai,  
 Hsing-Ta Chen,  S. Coriani,  C. J. Cramer,  A. E. DePrince, III,  
 R. A. DiStasio Jr.,  A. Dreuw,  B. D. Dunietz,  T. R. Furlani,  
 W. A. Goddard III,  S. Grimme,  S. Hammes-Schiffer,  T. Head-Gordon,  
 W. J. Hehre,  Chao-Ping Hsu,  T.-C. Jagau,  Yousung Jung,  A. Klamt,  
 Jing Kong,  D. S. Lambrecht,  Xiangyuan Li,  WanZhen Liang,  N. J. Mayhall,  
 C. W. McCurdy,  J. B. Neaton,  T. Neudecker,  C. Ochsenfeld,  
 J. A. Parkhill,  R. Peverati,  V. A. Rassolov,  Haisheng Ren,  Yihan Shao,  
 L. V. Slipchenko,  R. P. Steele,  J. E. Subotnik,  A. J. W. Thom,  
 A. Tkatchenko,  D. G. Truhlar,  T. Van Voorhis,  Fan Wang,  
 T. A. Wesolowski,  K. B. Whaley,  H. L. Woodcock III,  P. M. Zimmerman,  
 S. Faraji,  P. M. W. Gill,  M. Head-Gordon,  J. M. Herbert,  A. I. Krylov

 Contributors to earlier versions of Q-Chem not listed above: 
 R. D. Adamson,  B. Austin,  R. Baer,  J. Baker,  G. J. O. Beran,  
 K. Brandhorst,  S. T. Brown,  E. F. C. Byrd,  Arup K. Chakraborty,  
 G. K. L. Chan,  Chun-Min Chang,  Yunqing Chen,  C.-L. Cheng,  
 Siu Hung Chien,  D. M. Chipman,  D. L. Crittenden,  H. Dachsel,  
 R. J. Doerksen,  A. D. Dutoi,  R. G. Edgar,  J. Fosso-Tande,  
 L. Fusti-Molnar,  D. Ghosh,  A. Ghysels,  A. Golubeva-Zadorozhnaya,  
 J. Gonthier,  M. S. Gordon,  S. R. Gwaltney,  G. Hawkins,  J. E. Herr,  
 A. Heyden,  S. Hirata,  E. G. Hohenstein,  G. Kedziora,  F. J. Keil,  
 C. Kelley,  Jihan Kim,  R. A. King,  R. Z. Khaliullin,  P. P. Korambath,  
 W. Kurlancheek,  A. Laurent,  A. M. Lee,  M. S. Lee,  S. V. Levchenko,  
 Ching Yeh Lin,  D. Liotard,  E. Livshits,  R. C. Lochan,  I. Lotan,  
 L. A. Martinez-Martinez,  P. E. Maslen,  N. Nair,  D. P. O'Neill,  
 D. Neuhauser,  E. Neuscamman,  C. M. Oana,  R. Olivares-Amaya,  R. Olson,  
 T. M. Perrine,  B. Peters,  P. A. Pieniazek,  A. Prociuk,  Y. M. Rhee,  
 J. Ritchie,  M. A. Rohrdanz,  E. Rosta,  N. J. Russ,  H. F. Schaefer III,  
 M. W. Schmidt,  N. E. Schultz,  S. Sharma,  N. Shenvi,  C. D. Sherrill,  
 A. C. Simmonett,  A. Sodt,  T. Stein,  D. Stuck,  K. S. Thanthiriwatte,  
 V. Vanovschi,  L. Vogt,  Tao Wang,  A. Warshel,  M. A. Watson,  
[...]
    2   1.6427986   2.8338717   2.4890711  -0.1524594   2.5431098   0.8604519
    3  -1.1424358  -2.4836869   0.3677316  -1.5608492  -1.3667269  -0.2033365
          169         170         171         172         173         174
    1  -2.3096250   0.0139767  -0.3074703  -0.0867553   2.5659034   0.7514030
    2   0.9528219  -0.9410517   2.4779331   0.5250257  -0.1666636   0.1618446
    3  -1.2756656  -0.3963057   0.6284130  -3.8513127  -2.8642715  -3.2436304
          175         176         177         178         179         180
    1   3.5707037   2.7996417   2.5244173   3.6502403   4.5690850   2.8231467
    2   1.3194818  -1.9957749   0.1817669  -1.5010354   0.1343460  -2.0453211
    3  -2.4016931  -2.9641962  -0.4986638  -0.2134180  -0.0118109   1.5665239
          181         182         183         184         185         186
    1   3.0175195   0.0539525  -2.3614153  -3.7842402  -2.1799261  -0.8472111
    2  -2.5425402  -2.0400835   0.7617406  -0.4595621   2.4503230   0.3480696
    3  -2.0133438  -1.1676177  -0.8434730  -0.1813217   0.1851664  -2.3285696
          187         188         189         190         191         192
    1  -1.2068883  -3.0116660  -1.6139838  -3.5025403  -3.6228621   0.3007107
    2  -0.4955272   0.4013224   0.8815717   2.0544432  -1.3440150   2.0324348
    3   0.0780239   2.2766940   3.4154111   1.4169287   2.1213027   0.6874300
          193         194         195         196         197         198
    1  -1.9782812  -3.4682047  -1.7480930  -0.7016766  -0.2583166  -0.3512430
    2  -2.6730636  -2.4833870  -1.1740053  -3.8956763  -2.1263100  -3.5736258
    3  -1.6759705  -0.1170729  -2.7621247  -2.0183337  -0.7942000   0.7977948
          199         200         201         202         203         204
    1   0.0787809  -2.4331501   0.8311332  -2.3094726   0.0209648  -0.4228936
    2  -2.6608492  -3.8007912  -4.0068097  -0.6991729  -2.7846341  -4.1853941
    3   2.2854072   0.5524862  -0.9161398   1.3332589  -2.1855851  -0.6399965
          205         206         207         208         209         210
    1  -0.9917678   1.5518400   1.6827761   0.0567019   1.2435632   0.7591058
    2  -1.4630795  -2.5298135  -2.8016753  -2.6273225  -3.9563687  -0.8049445
    3  -2.2431040  -3.2540589  -0.7925919   0.6631803   1.5543394   0.7551343
          211         212         213         214         215         216
    1  -1.3914448   1.9258473  -0.6588572   0.5057390  -0.5318813  -2.2249141
    2  -3.0854529   0.3389603  -0.9658486   0.0743784  -2.8236777  -0.1309528
    3  -0.1295499  -1.7888722  -2.9591423  -2.0260332  -3.0484994  -3.8083264
          217         218         219         220         221         222
    1  -1.1541277  -1.1705183  -2.6900142  -1.5987088   0.4558502  -4.1451213
    2  -0.3220163  -2.2398587  -2.0306442  -3.1646054  -1.1810960  -0.5703338
    3  -0.8424635  -0.7768234   0.5781373  -2.5541566  -0.3800404  -1.5330202
          223         224         225         226         227         228
    1   0.5928988   0.9359844  -0.0305158   0.8269560  -1.5384035  -0.9461891
    2  -0.2507513  -1.7585937  -0.4932748   1.4542290  -0.4405468  -0.1694372
    3   0.3507329   1.6957411  -1.4859303   1.2025389   1.2361293   3.0744198
          229         230         231         232         233         234
    1  -1.5373581  -2.3475830   0.8724822  -1.4877362  -1.2886355  -2.1012738
    2   1.3791880  -1.2372531  -1.0474108  -3.5450569   2.1920367   2.7851452
    3   2.6049374   3.9196069   2.6924322   2.2160533  -2.4150683  -0.8244096
          235         236         237         238         239         240
    1   0.8323265  -2.2600222  -2.1202926   0.0020044   0.8145484  -0.0908955
    2   1.7792084   1.4192228   0.7076476   0.4509205   0.0921184   2.0851302
    3  -2.5055101  -3.6964825  -0.8576345  -0.2060971  -1.9708931  -0.0714039
          241         242         243         244         245         246
    1  -0.7924983  -1.0786654   0.1014350  -1.6909103   1.1803896   0.5371906
    2  -0.6291769  -0.9115096  -1.1679704  -0.1502317  -2.2273124  -0.7587986
    3   1.0386022  -3.7514375  -0.9224148  -0.4533925  -2.2428786   0.7618002
          247         248         249         250         251         252
    1   1.8569684   0.5449077   0.9011511  -1.4342420   1.6608014  -0.2463183
    2   0.2867114   1.6205422   3.2160350   0.7715852   0.6218319   1.3070597
    3  -1.8473391  -0.3703524  -1.3511192   0.2729730   0.1390080  -3.3221065
          253         254         255         256         257         258
    1  -0.2936100   1.2178318  -0.4175100  -1.8391159   0.3975798  -1.4847555
    2  -1.5768494  -0.3432757  -3.5621552  -0.0977387  -2.4873221  -2.7468778
    3  -0.8859910  -1.2671062  -0.5982647  -0.5596386   0.8030047   1.6972475
          259         260         261         262         263         264
    1  -1.2263180  -0.7443377  -2.4816637  -0.1657288   1.7200547   0.5408127
    2  -4.1018466  -2.7656485  -1.0445494   0.6537204  -1.5460366  -1.5832469
    3   0.7359294   3.4063538   0.7777085   1.2823894   0.9707572  -0.6823308
          265         266         267         268         269         270
    1   3.8767810   0.5044090   2.0288939   2.0022458   0.4374278   4.2073571
    2  -1.6537742  -1.2336841   0.1565747   0.4744996  -0.4543522  -0.4450827
    3   1.3251371   1.9938763   0.2413689   1.8691203   2.1977397   1.6973209
          271         272
    1   1.7728692  -1.4777597
    2   2.0111026   0.8745536
    3   1.1281614  -0.2495867
 EField
            1           2           3           4           5           6
    1   0.0008973  -0.0000140  -0.0021303   0.0016937   0.0028078   0.0012564
    2   0.0009793   0.0011744   0.0041095   0.0033638   0.0006618   0.0020977
    3   0.0014598  -0.0025847  -0.0000285   0.0043091  -0.0012637  -0.0007435
            7           8           9          10          11          12
    1  -0.0025425  -0.0055646  -0.0001891   0.0004924   0.0025149   0.0047575
    2   0.0085816   0.0022520   0.0015207  -0.0037944   0.0084445   0.0021892
    3  -0.0073243  -0.0062067   0.0039699   0.0037983   0.0123456   0.0051319
           13          14          15          16          17          18
    1   0.0059845   0.0007485   0.0032967  -0.0016310  -0.0034828   0.0095253
    2  -0.0016438  -0.0017511   0.0023954   0.0038581   0.0043840   0.0003305
    3  -0.0012391  -0.0042372  -0.0034209  -0.0011066   0.0023399  -0.0071414
           19          20          21          22          23          24
    1   0.0269439   0.0073881   0.0064612   0.0050504   0.0102851   0.0049927
    2   0.0048450  -0.0005289  -0.0001596   0.0004587  -0.0004357   0.0305260
    3  -0.0033054  -0.0126237  -0.0168350  -0.0124025   0.0053876  -0.0137660
           25          26          27          28          29          30
    1  -0.0101850   0.0261845  -0.0488750   0.0002762   0.0311228  -0.0027382
    2   0.0002948  -0.0250481   0.0271471  -0.0081305  -0.0111550  -0.0091556
    3   0.0335407  -0.0010861   0.0072369   0.0003536  -0.0058531   0.0308423
           31          32          33          34          35          36
    1  -0.0255742   0.0425643  -0.0061884  -0.0324939   0.0026723   0.0032805
    2  -0.0158486  -0.0139348  -0.0044207   0.0002888   0.0285281  -0.0284928
    3  -0.0114513  -0.1015293  -0.0107712  -0.0121335  -0.0180750  -0.0205733
           37          38          39          40          41          42
    1   0.0578070  -0.0062988  -0.0285639   0.0103015  -0.0152681  -0.0814605
    2   0.0249843  -0.0045511  -0.0258441  -0.0217771   0.0145672   0.0475385
    3   0.0079200  -0.0002610  -0.0071874  -0.0148123   0.0298853   0.0609352
           43          44          45          46          47          48
    1   0.0088008   0.0138889   0.0039771   0.0219022  -0.0245125   0.0049272
    2   0.0007241  -0.0067259   0.0319257  -0.0107407   0.0095522  -0.0006257
    3  -0.0002762  -0.0263407  -0.0013219   0.0260414   0.0470447  -0.0028433
           49          50          51          52          53          54
    1   0.0291189   0.0229135  -0.0270357  -0.0335184  -0.0098418   0.0030831
    2   0.0052770  -0.0213723  -0.0028280   0.0472438  -0.0080935  -0.0019170
    3  -0.0283179   0.0175750   0.0086142  -0.0952187  -0.0009402  -0.0346843
           55          56          57          58          59          60
    1   0.0010693  -0.0244496   0.0476547  -0.0039014  -0.0045582   0.0242318
    2  -0.0318521   0.0057497  -0.0315179   0.0038377  -0.0293879   0.0143303
    3   0.0069481   0.0091138  -0.0067437   0.0099816   0.0084092   0.0210993
           61          62          63          64          65          66
    1  -0.0287797  -0.0228706   0.0013375  -0.0280534   0.0126225   0.0172254
    2   0.0106241   0.0922031  -0.0022941   0.0073337   0.0202096  -0.0279215
    3  -0.0013188  -0.0517238  -0.0061278  -0.0141370  -0.0125438  -0.0070326
           67          68          69          70          71          72
    1  -0.0283770   0.0072139   0.0197190   0.0132512   0.0247620  -0.0176604
    2   0.0451058   0.0013679   0.0319928  -0.0037917  -0.0195376  -0.1029646
    3   0.0211961  -0.0009553  -0.0085786   0.0254062  -0.0053366   0.0296835
           73          74          75          76          77          78
    1   0.0020779   0.0290422  -0.0038580   0.0057882  -0.0102853  -0.0045172
    2  -0.0061144   0.0066130  -0.0196957  -0.0195054   0.0374476  -0.0067625
    3   0.0037361   0.0191980   0.0359133  -0.0236508   0.0343245  -0.0033813
           79          80          81          82          83          84
    1   0.0085160  -0.0143601  -0.0301403   0.0395469  -0.0037958  -0.0118226
    2  -0.0196785  -0.0214827   0.0153764   0.0117034   0.0064424  -0.0119919
    3  -0.0224806   0.0206236  -0.0022582  -0.1014423  -0.0080654  -0.0296186
           85          86          87          88          89          90
    1  -0.0266262   0.0126375   0.0188786   0.0023731   0.0135236   0.0210323
    2   0.0087404   0.0306160   0.0371159  -0.0034676   0.0257961  -0.0235981
    3   0.0155283  -0.0134204   0.0499019  -0.0079205  -0.0076581   0.0075575
           91          92          93          94          95          96
    1  -0.0024404  -0.0461335   0.0004865  -0.0275108   0.0197633  -0.0067207
    2  -0.0172666  -0.0972898  -0.0019877  -0.0220842   0.0106894   0.0229160
    3  -0.0331091   0.0196743   0.0055472  -0.0034507   0.0266860   0.0029395
           97          98          99         100         101         102
    1  -0.0225670   0.0035133   0.0268957   0.0026452  -0.0228661   0.0920451
    2  -0.0046067  -0.0084562  -0.0073243   0.0016859  -0.0251173   0.0557383
    3  -0.0556434  -0.0003849  -0.0175214   0.0316985  -0.0027618   0.0220197
          103         104         105         106         107         108
    1  -0.0023418  -0.0303046   0.0200529   0.0217930   0.0497097  -0.0071386
    2   0.0137123   0.0017695   0.0159200   0.0163262  -0.0137544   0.0016477
    3   0.0010346   0.0066844   0.0194670  -0.0244344  -0.0078229  -0.0037692
          109         110         111         112         113         114
    1  -0.0080175  -0.0307586   0.0101988  -0.0629822  -0.0023018  -0.0308051
    2  -0.0311251   0.0100425  -0.0010538  -0.0232181  -0.0061832  -0.0070450
    3  -0.0087184   0.0104257  -0.0339705   0.0869448  -0.0036551   0.0073303
          115         116         117         118         119         120
    1   0.0014490   0.0064788  -0.0080929  -0.0006650  -0.0304040   0.0016359
    2   0.0104721  -0.0328558  -0.0177577   0.0079788  -0.0053643   0.0344346
    3  -0.0238719   0.0076152   0.0598856  -0.0020447   0.0156643   0.0130657
          121         122         123         124         125         126
    1   0.0088158   0.0969633   0.0098826   0.0060433   0.0240837   0.0075667
    2   0.0195585  -0.0117346  -0.0007324   0.0011262  -0.0257727   0.0265791
    3  -0.0232824  -0.0500213  -0.0047579   0.0258574  -0.0138586  -0.0174696
          127         128         129         130         131         132
    1  -0.0073793  -0.0015631   0.0115864  -0.0311456   0.0027432  -0.0371794
    2  -0.0554679   0.0007431  -0.0200112   0.0160404   0.0293950   0.0754081
    3   0.0105113  -0.0081948  -0.0297710   0.0125557  -0.0115848   0.0699613
          133         134         135         136         137         138
    1  -0.0080904   0.0053835  -0.0229003  -0.0051866   0.0008552   0.0019948
    2   0.0056244  -0.0074972  -0.0199237   0.0261009  -0.0092871   0.0097842
    3  -0.0024797  -0.0337162  -0.0002166   0.0247722   0.0488386  -0.0006622
          139         140         141         142         143         144
    1   0.0041937   0.0266546  -0.0071318   0.0128434  -0.0041523   0.0175327
    2   0.0369761  -0.0105074  -0.0017874  -0.0728543   0.0017058   0.0007794
    3   0.0159582   0.0101338  -0.0313596  -0.0807018   0.0044190   0.0245158
          145         146         147         148         149         150
    1  -0.0094407  -0.0269392   0.0432505  -0.0061199  -0.0169336   0.0055011
    2   0.0339144  -0.0108896   0.0227587  -0.0015052   0.0308176  -0.0206830
    3  -0.0033946   0.0144090  -0.0235242  -0.0045622  -0.0051040  -0.0261285
          151         152         153         154         155         156
    1  -0.0218082   0.0005098   0.0063494   0.0002708   0.0035886   0.0258840
    2  -0.0177567  -0.1027889  -0.0056683  -0.0270548   0.0234352  -0.0111308
    3   0.0134124   0.0425135  -0.0028484  -0.0190636  -0.0206472   0.0182151
          157         158         159         160         161         162
    1  -0.0124051   0.0022552   0.0191805  -0.0210994  -0.0000099  -0.0616950
    2   0.0585340  -0.0058736   0.0211225  -0.0035278  -0.0380606  -0.0640773
    3   0.0106064   0.0061547   0.0198225   0.0167470  -0.0058333  -0.0666850
          163         164         165         166         167         168
    1   0.0069666   0.0203141   0.0034349   0.0120685  -0.0124864  -0.0033264
    2  -0.0064271   0.0097731   0.0055404  -0.0319442   0.0575642  -0.0043310
    3   0.0025130  -0.0231255   0.0342695  -0.0054563   0.0024159   0.0050290
          169         170         171         172         173         174
    1  -0.0321197   0.0209207  -0.0031048  -0.0044041  -0.0015306  -0.0221376
    2   0.0164228  -0.0298861   0.0018761  -0.0542801   0.0054122   0.0091549
    3  -0.0060063   0.0174536   0.0416094  -0.0952849  -0.0100962  -0.0222336
          175         176         177         178         179         180
    1   0.0181378   0.0048564   0.0031918   0.0025886   0.0319361  -0.0013772
    2   0.0274273  -0.0283354   0.0478989  -0.0044163   0.0126188  -0.0170193
    3  -0.0078604  -0.0085614   0.0263695   0.0011285  -0.0003758   0.0272255
          181         182         183         184         185         186
    1   0.0051750  -0.0866215  -0.0067743  -0.0264624  -0.0049536   0.0060252
    2  -0.0210069  -0.0646230   0.0031342  -0.0166152   0.0274158   0.0036468
    3  -0.0191746  -0.0137282  -0.0070886   0.0016928   0.0031113  -0.0364951
          187         188         189         190         191         192
    1   0.0091257  -0.0064785   0.0131261  -0.0205350  -0.0250403   0.0626331
    2  -0.0506786  -0.0027239  -0.0035150   0.0200626  -0.0237050   0.0832182
    3  -0.0093786   0.0061250   0.0287859  -0.0128482   0.0110964   0.0237243
          193         194         195         196         197         198
    1  -0.0063122  -0.0260161  -0.0025284   0.0055078   0.0529268  -0.0029812
    2  -0.0007271  -0.0047581   0.0169836  -0.0279169   0.0230451  -0.0044709
    3  -0.0034024   0.0192700  -0.0245740  -0.0169734  -0.0296206   0.0003574
          199         200         201         202         203         204
    1   0.0064425  -0.0235624   0.0235954  -0.0599235  -0.0058613  -0.0157965
    2   0.0043854  -0.0247702  -0.0256830   0.0627425   0.0016240  -0.0312490
    3   0.0264469   0.0192857  -0.0098029   0.0668819  -0.0043356   0.0033617
          205         206         207         208         209         210
    1  -0.0259130   0.0102557   0.0443143  -0.0021563   0.0081304   0.0044665
    2   0.0193843  -0.0070740  -0.0379315   0.0029183  -0.0164523   0.0221486
    3  -0.0085823  -0.0295338   0.0104146   0.0090796   0.0301266   0.0164851
          211         212         213         214         215         216
    1  -0.0275270   0.0191782   0.0026133   0.0272825   0.0087534  -0.0157796
    2  -0.0035295   0.1057199   0.0040913   0.0175112  -0.0275374   0.0176646
    3  -0.0135133  -0.0236976  -0.0092445  -0.0026121  -0.0140712  -0.0205892
          217         218         219         220         221         222
    1   0.0273466  -0.0004559  -0.0136012  -0.0055416   0.0313089  -0.1090363
    2   0.0437986  -0.0037121  -0.0138869  -0.0228995  -0.0032844   0.0060262
    3   0.0355502   0.0027176   0.0245123  -0.0202164   0.0120708  -0.0156977
          223         224         225         226         227         228
    1   0.0079862   0.0163865   0.0076077   0.0064581  -0.0419689  -0.0018206
    2  -0.0052175  -0.0341537   0.0018006   0.0271741   0.0269086   0.0006520
    3  -0.0050093   0.0011968  -0.0378024  -0.0141704  -0.0293206   0.0078934
          229         230         231         232         233         234
    1  -0.0005445  -0.0189208   0.0228155  -0.0100855   0.0022648  -0.0037858
    2   0.0336730  -0.0298261  -0.0113852  -0.1068766   0.0063803   0.0332412
    3  -0.0074255   0.0168309   0.0122119   0.0273322  -0.0004973   0.0162519
          235         236         237         238         239         240
    1   0.0304896  -0.0069590  -0.0490977   0.0102370   0.0247629   0.0105803
    2   0.0249754  -0.0050342  -0.0036406   0.0001010  -0.0244740   0.0293885
    3  -0.0230683  -0.0283154   0.0318069  -0.0007399  -0.0064846   0.0141233
          241         242         243         244         245         246
    1   0.0043295   0.0182848  -0.0043561  -0.0371798  -0.0003265   0.0192002
    2  -0.0259331  -0.0633712  -0.0048356  -0.0006116  -0.0253562  -0.0049696
    3   0.0210822  -0.0876240   0.0100142  -0.0108248  -0.0168623   0.0323316
          247         248         249         250         251         252
    1   0.0536473  -0.0010591   0.0053526  -0.0310440   0.0157778  -0.0719812
    2  -0.0070727   0.0010933   0.0257069  -0.0080277  -0.0082395   0.0385557
    3  -0.0105442   0.0131829  -0.0163186   0.0146966   0.0279201  -0.0721914
          253         254         255         256         257         258
    1  -0.0050712   0.0194552  -0.0031346  -0.0276616   0.0500027  -0.0098688
    2   0.0050324   0.0103014  -0.0233528   0.0179295  -0.0407988  -0.0000165
    3  -0.0075040  -0.0192989  -0.0130308  -0.0128230   0.0122829   0.0009439
          259         260         261         262         263         264
    1  -0.0092658  -0.0009909  -0.0299456  -0.0015490  -0.0093376  -0.0170478
    2  -0.0284406   0.0037049   0.0182307   0.1021967  -0.0098319  -0.0148881
    3  -0.0137639   0.0298038   0.0029257   0.0371681   0.0011130  -0.0251267
          265         266         267         268         269         270
    1   0.0280843  -0.0196805   0.0474141  -0.0027227  -0.0194734   0.0290258
    2  -0.0086833  -0.0094657   0.0153003   0.0025899  -0.0068200  -0.0117077
    3   0.0095746   0.0259426  -0.0356137   0.0055344   0.0178821   0.0172889
          271         272
    1  -0.0083712  -0.1142659
    2   0.0223158   0.0246983
    3   0.0019457  -0.0254971
  --- DONE ESP SUMMARY ---
 Total job time:  27.64s(wall), 64.63s(cpu) 
 Thu Jul 21 15:03:29 2022

        *************************************************************
        *                                                           *
        *  Thank you very much for using Q-Chem.  Have a nice day.  *
        *                                                           *
        *************************************************************


