                  Welcome to Q-Chem
     A Quantum Leap Into The Future Of Chemistry


 Q-Chem 6.0 (devel), Q-Chem, Inc., Pleasanton, CA (2022)

 E. Epifanovsky,  A. T. B. Gilbert,  Xintian Feng,  Joonho Lee,  Yuezhi Mao,  
 N. Mardirossian,  P. Pokhilko,  A. White,  M. Wormit,  M. P. Coons,  
 A. L. Dempwolff,  Zhengting Gan,  D. Hait,  P. R. Horn,  L. D. Jacobson,  
 I. Kaliman,  J. Kussmann,  A. W. Lange,  Ka Un Lao,  D. S. Levine,  Jie Liu,  
 S. C. McKenzie,  A. F. Morrison,  K. Nanda,  F. Plasser,  D. R. Rehn,  
 M. L. Vidal,  Zhi-Qiang You,  Ying Zhu,  B. Alam,  B. Albrecht,  
 A. Aldossary,  E. Alguire,  J. H. Andersen,  V. Athavale,  D. Barton,  
 K. Begam,  A. Behn,  N. Bellonzi,  Y. A. Bernard,  E. J. Berquist,  
 H. Burton,  A. Carreras,  K. Carter-Fenk,  Romit Chakraborty,  
 Chandrima Chakravarty,  Junhan Chen,  A. D. Chien,  K. D. Closser,  
 V. Cofer-Shabica,  L. Cunha,  S. Dasgupta,  Jia Deng,  M. de Wergifosse,  
 M. Diedenhofen,  Hainam Do,  S. Ehlert,  Po-Tung Fang,  S. Fatehi,  
 Qingguo Feng,  T. Friedhoff,  B. Ganoe,  J. Gayvert,  Qinghui Ge,  
 G. Gidofalvi,  M. Goldey,  J. Gomes,  C. Gonzalez-Espinoza,  S. Gulania,  
 A. Gunina,  J. A. Gyamfi,  M. W. D. Hanson-Heine,  P. H. P. Harbach,  
 A. W. Hauser,  M. F. Herbst,  M. Hernandez Vera,  M. Hodecker,  
 Z. C. Holden,  S. Houck,  Xunkun Huang,  Kerwin Hui,  B. C. Huynh,  
 K. Ikeda,  M. Ivanov,  Hyunjun Ji,  Zuxin Jin,  Hanjie Jiang,  B. Kaduk,  
 S. Kaehler,  R. Kang,  K. Khistyaev,  Jaehoon Kim,  Yongbin Kim,  
 P. Klunzinger,  Z. Koczor-Benda,  Joong Hoon Koh,  D. Kosenkov,  
 Saikiran Kotaru,  L. Koulias,  T. Kowalczyk,  C. M. Krauter,  K. Kue,  
 A. Kunitsa,  T. Kus,  A. Landau,  K. V. Lawler,  D. Lefrancois,  S. Lehtola,  
 Rain Li,  Shaozhi Li,  Yi-Pei Li,  Jiashu Liang,  M. Liebenthal,  
 Hung-Hsuan Lin,  You-Sheng Lin,  Fenglai Liu,  Kuan-Yu Liu,  
 M. Loipersberger,  A. Luenser,  C. Malbon,  A. Manjanath,  P. Manohar,  
 E. Mansoor,  S. F. Manzer,  Shan-Ping Mao,  A. V. Marenich,  T. Markovich,  
 S. Mason,  F. Matz,  S. A. Maurer,  P. F. McLaughlin,  M. F. S. J. Menger,  
 J.-M. Mewes,  S. A. Mewes,  P. Morgante,  Mohammad Mostafanejad,  
 J. W. Mullinax,  K. J. Oosterbaan,  G. Paran,  V. Parravicini,  
 Alexander C. Paul,  Suranjan K. Paul,  F. Pavosevic,  Zheng Pei,  S. Prager,  
 E. I. Proynov,  E. Ramos,  B. Rana,  A. E. Rask,  A. Rettig,  R. M. Richard,  
 F. Rob,  E. Rossomme,  T. Scheele,  M. Scheurer,  M. Schneider,  
 P. E. Schneider,  N. Sergueev,  S. M. Sharada,  Hengyuan Shen,  
 W. Skomorowski,  D. W. Small,  C. J. Stein,  Yingli Su,  Yu-Chuan Su,  
 E. J. Sundstrom,  Zhen Tao,  J. Thirman,  Hung-Yi Tsai,  T. Tsuchimochi,  
 N. M. Tubman,  C. Utku,  S. P. Veccham,  O. Vydrov,  J. Wenzel,  
 Jonathan Wong,  J. Witte,  A. Yamada,  Chou-Hsun Yang,  Kun Yao,  
 S. Yeganeh,  S. R. Yost,  A. Zech,  F. Zeller,  Igor Ying Zhang,  
 Xing Zhang,  Yu Zhang,  D. Zuev,  A. Aspuru-Guzik,  A. T. Bell,  
 N. A. Besley,  K. B. Bravaya,  B. R. Brooks,  D. Casanova,  Jeng-Da Chai,  
 Hsing-Ta Chen,  S. Coriani,  C. J. Cramer,  A. E. DePrince, III,  
 R. A. DiStasio Jr.,  A. Dreuw,  B. D. Dunietz,  T. R. Furlani,  
 W. A. Goddard III,  S. Grimme,  S. Hammes-Schiffer,  T. Head-Gordon,  
 W. J. Hehre,  Chao-Ping Hsu,  T.-C. Jagau,  Yousung Jung,  A. Klamt,  
 Jing Kong,  D. S. Lambrecht,  Xiangyuan Li,  WanZhen Liang,  N. J. Mayhall,  
 C. W. McCurdy,  J. B. Neaton,  T. Neudecker,  C. Ochsenfeld,  
 J. A. Parkhill,  R. Peverati,  V. A. Rassolov,  Haisheng Ren,  Yihan Shao,  
 L. V. Slipchenko,  R. P. Steele,  J. E. Subotnik,  A. J. W. Thom,  
 A. Tkatchenko,  D. G. Truhlar,  T. Van Voorhis,  Fan Wang,  
 T. A. Wesolowski,  K. B. Whaley,  H. L. Woodcock III,  P. M. Zimmerman,  
 S. Faraji,  P. M. W. Gill,  M. Head-Gordon,  J. M. Herbert,  A. I. Krylov

 Contributors to earlier versions of Q-Chem not listed above: 
 R. D. Adamson,  B. Austin,  R. Baer,  J. Baker,  G. J. O. Beran,  
 K. Brandhorst,  S. T. Brown,  E. F. C. Byrd,  Arup K. Chakraborty,  
 G. K. L. Chan,  Chun-Min Chang,  Yunqing Chen,  C.-L. Cheng,  
 Siu Hung Chien,  D. M. Chipman,  D. L. Crittenden,  H. Dachsel,  
 R. J. Doerksen,  A. D. Dutoi,  R. G. Edgar,  J. Fosso-Tande,  
 L. Fusti-Molnar,  D. Ghosh,  A. Ghysels,  A. Golubeva-Zadorozhnaya,  
 J. Gonthier,  M. S. Gordon,  S. R. Gwaltney,  G. Hawkins,  J. E. Herr,  
 A. Heyden,  S. Hirata,  E. G. Hohenstein,  G. Kedziora,  F. J. Keil,  
 C. Kelley,  Jihan Kim,  R. A. King,  R. Z. Khaliullin,  P. P. Korambath,  
 W. Kurlancheek,  A. Laurent,  A. M. Lee,  M. S. Lee,  S. V. Levchenko,  
 Ching Yeh Lin,  D. Liotard,  E. Livshits,  R. C. Lochan,  I. Lotan,  
 L. A. Martinez-Martinez,  P. E. Maslen,  N. Nair,  D. P. O'Neill,  
 D. Neuhauser,  E. Neuscamman,  C. M. Oana,  R. Olivares-Amaya,  R. Olson,  
 T. M. Perrine,  B. Peters,  P. A. Pieniazek,  A. Prociuk,  Y. M. Rhee,  
 J. Ritchie,  M. A. Rohrdanz,  E. Rosta,  N. J. Russ,  H. F. Schaefer III,  
 M. W. Schmidt,  N. E. Schultz,  S. Sharma,  N. Shenvi,  C. D. Sherrill,  
 A. C. Simmonett,  A. Sodt,  T. Stein,  D. Stuck,  K. S. Thanthiriwatte,  
 V. Vanovschi,  L. Vogt,  Tao Wang,  A. Warshel,  M. A. Watson,  
 C. F. Williams,  Q. Wu,  X. Xu,  Jun Yang,  W. Zhang,  Yan Zhao

   Please cite Q-Chem as follows:
  "Software for the frontiers of quantum chemistry:
   An overview of developments in the Q-Chem 5 package"
   J. Chem. Phys. 155, 084801 (2021)
   https://doi.org/10.1063/5.0055522 (open access)

 Q-Chem 6.0.0 for Intel X86 EM64T Linux

 Parts of Q-Chem use Armadillo 9.900.5 (Nocturnal Misbehaviour).
 http://arma.sourceforge.net/

 Q-Chem begins on Thu Jul 21 06:05:01 2022  

 Host: nid00522
0

     Scratch files written to /global/cscratch1/sd/ymao90/r7.00_frame_0076_almo_B3LYP_dp20220721031451//
 Processing $rem in /global/homes/y/ymao90/my_qchem/qchem_embedding_5p4/config/preferences:
 Processing $rem in /global/homes/y/ymao90/.qchemrc:

 Checking the input file for inconsistencies... 	...done.

--------------------------------------------------------------
User input:
--------------------------------------------------------------
$molecule
0 1
--
0 1
C    29.96400   25.69900   26.21900  
C    29.28300   26.68300   27.18500  
C    28.09800   26.02400   27.91100  
C    28.56600   24.75800   28.64700  
C    29.25100   23.78500   27.67300  
C    30.45500   24.47200   27.00600  
H    27.65400   26.78700   28.56100  
H    29.95700   27.12000   27.93200  
H    29.30600   25.53000   25.35800  
H    30.87700   26.13800   25.80100  
H    29.19200   24.96600   29.52300  
H    27.66300   24.27300   29.03800  
H    29.43400   22.88000   28.26400  
H    28.51700   23.38500   26.96300  
H    31.18300   24.84800   27.73600  
H    30.94000   23.82500   26.26500  
H    27.42100   25.63500   27.14000  
N    28.70500   27.79300   26.43000  
H    28.39700   27.52500   25.50300  
C    28.21200   28.98500   26.91700  
H    27.94700   29.74700   26.16300  
O    28.28500   29.29600   28.09300  
--
0 1
C    25.31100   30.89500   25.48500  
H    24.80500   30.13200   24.88700  
H    26.29600   31.06300   25.04200  
H    25.37300   30.64900   26.54800  
S    24.39200   32.43400   25.25800  
C    22.74300   31.73000   25.48700  
H    22.74500   30.98400   24.68800  
H    22.76700   31.34500   26.50900  
H    22.08600   32.59100   25.33800  
O    24.42800   32.51800   23.76400  
C    34.25800   30.32300   29.13700  
H    33.86700   30.50100   28.13200  
H    35.20100   29.80700   28.94000  
H    33.57500   29.67900   29.69600  
S    34.39100   31.89700   30.01300  
C    34.59500   31.30400   31.70800  
H    35.54200   30.76500   31.63200  
H    34.68000   32.21500   32.30600  
H    33.74400   30.71300   32.05600  
O    32.95300   32.31300   30.05400  
C    27.32800   27.44500   32.30700  
H    27.33700   26.47400   32.80800  
H    28.27100   27.56600   31.76700  
H    27.09000   28.25400   33.00300  
S    25.92800   27.39800   31.16500  
C    25.83400   29.15500   30.75000  
H    24.83000   29.43400   30.42100  
H    26.14900   29.78600   31.58500  
H    26.61900   29.25500   29.99500  
O    24.72500   27.02500   31.97400  
C    35.75200   22.27000   32.57500  
H    35.56300   21.50400   31.81800  
H    36.37000   23.07600   32.17000  
H    36.17400   21.84700   33.49000  
S    34.08300   22.92100   32.81400  
C    33.88000   23.24500   31.04800  
H    32.98200   23.85900   30.95000  
H    34.72400   23.82300   30.66100  
H    33.74800   22.34900   30.43700  
O    34.21200   24.20100   33.58000  
C    22.43400   24.47400   32.64700  
H    23.36900   24.87600   32.24700  
H    21.75400   24.04200   31.90800  
H    21.84100   25.21400   33.19200  
S    22.91800   23.14300   33.76900  
C    24.23000   24.07200   34.59500  
H    23.72700   24.72800   35.31000  
H    24.86400   23.35300   35.12100  
H    24.85300   24.56300   33.84300  
O    23.79500   22.17500   33.03800  
C    30.74700   33.62800   22.82700  
H    29.68100   33.40300   22.74100  
H    31.29600   32.75300   23.18500  
H    30.91500   34.56200   23.36900  
S    31.18400   33.89300   21.09400  
C    29.80500   34.97500   20.65700  
H    30.16500   35.44200   19.73700  
H    28.91500   34.40500   20.37900  
H    29.60800   35.65200   21.49200  
O    30.87700   32.59900   20.40700  
C    26.14400   31.66000   20.98300  
H    25.45800   32.12600   21.69400  
H    27.03000   32.23100   20.69300  
H    25.57100   31.31200   20.12000  
S    26.81600   30.19500   21.79800  
C    27.98500   31.22800   22.71000  
H    28.79900   31.61100   22.08900  
H    27.46900   32.03800   23.23200  
H    28.35700   30.63000   23.54500  
O    27.64600   29.55200   20.73100  
C    31.08800   20.38600   29.43000  
H    30.71300   21.41100   29.36600  
H    30.62800   19.96500   30.32800  
H    32.16400   20.29300   29.59300  
S    30.70700   19.34200   28.00500  
C    28.93100   19.37700   28.34100  
H    28.77000   19.01400   29.35900  
H    28.51800   20.37700   28.18300  
H    28.51000   18.66500   27.62800  
O    31.09200   17.97300   28.47100  
C    26.95700   23.14500   32.19600  
H    26.86100   22.87900   33.25200  
H    27.47400   24.07700   31.95300  
H    25.93400   23.18300   31.81200  
S    27.57500   21.68300   31.33300  
C    26.36600   20.43300   31.82300  
H    25.82700   20.82400   32.69000  
H    25.58400   20.29500   31.07100  
H    26.81000   19.46100   32.05300  
O    28.73800   21.30400   32.19600  
C    22.48900   22.29400   27.71400  
H    21.62700   22.92400   27.94700  
H    22.48700   22.05800   26.64700  
H    22.29100   21.43100   28.35500  
S    24.03600   23.04900   28.26500  
C    23.58300   23.72800   29.87700  
H    22.59200   24.18600   29.84800  
H    23.71500   23.00200   30.68300  
H    24.35800   24.46500   30.09900  
O    24.09800   24.20000   27.31000  
C    36.56800   26.81200   26.85200  
H    37.35200   27.48200   27.21600  
H    36.44900   25.90600   27.45100  
H    36.61900   26.34900   25.86400  
S    34.93700   27.58500   26.94600  
C    34.09400   26.79400   25.55800  
H    33.88100   25.74900   25.79500  
H    33.12300   27.29300   25.62300  
H    34.60000   26.81200   24.58900  
O    34.97700   29.00300   26.46800  
C    30.27800   24.05600   22.13100  
H    30.30500   24.85700   22.87300  
H    30.49400   24.38800   21.11200  
H    29.28900   23.59300   22.07500  
S    31.34500   22.71800   22.71100  
C    32.91900   23.58100   22.50100  
H    32.87600   24.49400   23.09900  
H    33.76900   22.97700   22.82900  
H    33.10700   23.81000   21.44900  
O    31.37200   21.65900   21.65300  
C    34.24100   23.02400   26.76300  
H    35.19900   22.64700   27.12700  
H    34.22200   23.43300   25.74900  
H    33.85500   23.73500   27.49800  
S    33.23000   21.52600   26.76300  
C    34.52800   20.35200   26.31400  
H    34.86900   20.31000   25.27600  
H    35.46700   20.47400   26.86100  
H    34.01200   19.43300   26.60400  
O    32.47500   21.60700   25.47400  
C    28.75500   34.72800   25.35400  
H    29.10800   33.77900   24.94200  
H    28.63400   35.48700   24.57700  
H    29.48500   35.11800   26.06800  
S    27.28600   34.61500   26.40000  
C    27.40800   36.26300   27.13000  
H    27.13100   36.92000   26.30100  
H    26.64800   36.42700   27.89800  
H    28.36600   36.50400   27.59800  
O    27.81600   33.77500   27.52000  
C    30.67900   29.11000   22.68800  
H    29.99300   28.54400   23.32300  
H    31.14400   29.94700   23.21600  
H    30.12500   29.66700   21.92800  
S    32.11800   28.28100   21.97400  
C    31.90400   28.92900   20.30000  
H    32.44100   28.34000   19.55200  
H    30.82300   28.97400   20.14500  
H    32.38400   29.91100   20.28400  
O    31.69200   26.84900   21.88200  
C    26.25700   25.21600   24.31900  
H    27.28300   25.07500   24.66900  
H    25.51900   25.24000   25.12600  
H    25.93600   24.47600   23.58200  
S    26.19600   26.81900   23.48700  
C    27.53800   26.35700   22.36800  
H    28.48100   26.09700   22.85500  
H    27.18400   25.54100   21.73300  
H    27.77400   27.15600   21.66100  
O    27.03100   27.81300   24.23300  
C    24.56900   19.31900   24.48400  
H    24.89700   19.95100   25.31400  
H    23.57200   18.94900   24.73400  
H    25.44300   18.71400   24.22800  
S    24.44000   20.43400   23.06800  
C    23.76300   21.78500   24.06000  
H    23.60600   22.59600   23.34400  
H    22.88300   21.48400   24.63300  
H    24.46200   22.06700   24.85100  
O    23.18300   20.02100   22.36600  
C    37.70000   21.45300   24.67600  
H    37.51700   21.22200   25.72800  
H    37.76200   20.49200   24.15800  
H    38.59200   22.05700   24.49300  
S    36.29600   22.40200   24.04900  
C    37.16100   22.58600   22.47300  
H    36.70900   23.41500   21.92200  
H    38.23500   22.75500   22.58000  
H    37.03000   21.62300   21.97400  
O    36.39000   23.69300   24.80100  
C    24.61000   32.74800   30.35100  
H    25.36900   32.00700   30.61600  
H    24.29200   33.06100   31.34800  
H    23.87600   32.24900   29.71400  
S    25.29200   34.14900   29.43700  
C    26.29100   34.63200   30.86400  
H    26.83000   33.72500   31.15100  
H    27.08600   35.33500   30.60200  
H    25.61200   34.99800   31.63800  
O    24.20800   35.16500   29.25400  
C    22.26200   28.10200   30.01600  
H    21.77200   28.74000   30.75700  
H    21.56600   27.26000   30.06800  
H    23.27800   27.85300   30.33200  
S    22.32100   28.95200   28.42300  
C    23.55300   27.85700   27.68200  
H    23.79400   28.27300   26.70000  
H    24.53200   27.76300   28.15900  
H    23.12400   26.85200   27.69300  
O    22.99600   30.23500   28.79600  
C    31.49700   32.92600   26.75300  
H    32.44300   32.48900   26.42400  
H    31.21700   33.88300   26.30500  
H    31.32200   33.16600   27.80400  
S    30.22400   31.67200   26.48200  
C    31.20400   30.55900   27.51500  
H    31.78500   31.03600   28.30900  
H    30.49800   29.82500   27.91000  
H    31.88800   30.05900   26.82500  
O    30.47300   31.33300   25.04600  
C    23.11200   17.40500   29.42800  
H    23.66200   17.08000   30.31500  
H    22.04900   17.44200   29.67800  
H    23.30500   16.62700   28.68500  
S    23.69200   19.03700   28.91100  
C    25.42700   18.53500   28.91000  
H    25.54200   18.00600   29.86000  
H    25.60400   17.78700   28.13300  
H    25.99300   19.46800   28.84500  
O    23.44100   19.90900   30.10100  
C    21.68300   29.47800   21.70600  
H    21.62100   30.00000   20.74700  
H    21.15500   28.54500   21.49100  
H    21.16300   30.01800   22.50200  
S    23.40700   29.33400   22.22500  
C    23.83100   28.27700   20.82200  
H    24.92300   28.28800   20.77500  
H    23.40000   27.28200   20.96100  
H    23.53300   28.71700   19.86700  
O    23.29400   28.42900   23.41200  
C    27.72200   22.26800   24.25100  
H    28.49100   23.02700   24.08300  
H    26.96100   22.10000   23.48600  
H    27.19800   22.70500   25.10500  
S    28.56600   20.72700   24.67200  
C    28.47200   20.04900   22.99900  
H    28.65500   18.97200   22.97600  
H    27.57600   20.36600   22.45900  
H    29.24600   20.57000   22.43100  
O    27.57100   19.98300   25.50700  
C    28.99300   32.67100   30.01100  
H    28.65700   33.69400   30.19700  
H    29.82300   32.61700   29.30200  
H    28.23600   32.00400   29.59100  
S    29.40900   31.96600   31.62200  
C    30.22700   30.46200   31.04200  
H    29.76100   30.24100   30.07900  
H    31.27800   30.72100   30.89200  
H    30.08800   29.60700   31.70900  
O    28.05400   31.54100   32.09600  
C    27.40000   22.09300   19.47900  
H    28.12200   21.59400   20.13100  
H    27.27500   21.38400   18.65700  
H    27.69000   23.10700   19.19400  
S    25.81900   22.17900   20.35000  
C    24.74200   23.11200   19.23900  
H    24.64800   22.57400   18.29200  
H    23.85500   23.24600   19.86200  
H    25.17200   24.06900   18.93300  
O    26.04800   23.09000   21.51500  
C    33.37000   26.97200   31.84700  
H    33.70500   25.95400   32.06200  
H    33.79400   27.41600   30.94200  
H    33.61000   27.58100   32.72200  
S    31.58900   27.03000   31.54500  
C    31.16000   25.80300   32.80000  
H    31.68100   24.87200   32.56100  
H    31.46900   26.15900   33.78700  
H    30.07300   25.69400   32.82400  
O    31.44900   26.20200   30.30600  
$end

$rem
JOBTYPE  SP
METHOD  B3LYP
BASIS  6-31+G(D)
SYMMETRY  FALSE
SYM_IGNORE  TRUE
MEM_TOTAL  12000
MEM_STATIC  4000
BASIS_LIN_DEP_THRESH  6
THRESH  14
SCF_CONVERGENCE  8
FD_MAT_VEC_PROD  FALSE
XC_GRID  000075000302
NL_GRID  1
MAX_SCF_CYCLES  200
FRGM_METHOD  STOLL
SCFMI_MODE  1
ALMO_EFIELD  TRUE
$end

$rem_frgm
SCF_CONVERGENCE  4
$end


--------------------------------------------------------------
 ----------------------------------------------------------------
             Standard Nuclear Orientation (Angstroms)
    I     Atom           X                Y                Z
 ----------------------------------------------------------------
    1      C      29.9640000000    25.6990000000    26.2190000000
    2      C      29.2830000000    26.6830000000    27.1850000000
    3      C      28.0980000000    26.0240000000    27.9110000000
    4      C      28.5660000000    24.7580000000    28.6470000000
    5      C      29.2510000000    23.7850000000    27.6730000000
    6      C      30.4550000000    24.4720000000    27.0060000000
    7      H      27.6540000000    26.7870000000    28.5610000000
    8      H      29.9570000000    27.1200000000    27.9320000000
    9      H      29.3060000000    25.5300000000    25.3580000000
   10      H      30.8770000000    26.1380000000    25.8010000000
   11      H      29.1920000000    24.9660000000    29.5230000000
   12      H      27.6630000000    24.2730000000    29.0380000000
   13      H      29.4340000000    22.8800000000    28.2640000000
   14      H      28.5170000000    23.3850000000    26.9630000000
   15      H      31.1830000000    24.8480000000    27.7360000000
   16      H      30.9400000000    23.8250000000    26.2650000000
   17      H      27.4210000000    25.6350000000    27.1400000000
   18      N      28.7050000000    27.7930000000    26.4300000000
   19      H      28.3970000000    27.5250000000    25.5030000000
   20      C      28.2120000000    28.9850000000    26.9170000000
   21      H      27.9470000000    29.7470000000    26.1630000000
   22      O      28.2850000000    29.2960000000    28.0930000000
   23      C      25.3110000000    30.8950000000    25.4850000000
   24      H      24.8050000000    30.1320000000    24.8870000000
   25      H      26.2960000000    31.0630000000    25.0420000000
   26      H      25.3730000000    30.6490000000    26.5480000000
   27      S      24.3920000000    32.4340000000    25.2580000000
   28      C      22.7430000000    31.7300000000    25.4870000000
   29      H      22.7450000000    30.9840000000    24.6880000000
   30      H      22.7670000000    31.3450000000    26.5090000000
   31      H      22.0860000000    32.5910000000    25.3380000000
   32      O      24.4280000000    32.5180000000    23.7640000000
   33      C      34.2580000000    30.3230000000    29.1370000000
   34      H      33.8670000000    30.5010000000    28.1320000000
   35      H      35.2010000000    29.8070000000    28.9400000000
   36      H      33.5750000000    29.6790000000    29.6960000000
   37      S      34.3910000000    31.8970000000    30.0130000000
   38      C      34.5950000000    31.3040000000    31.7080000000
   39      H      35.5420000000    30.7650000000    31.6320000000
   40      H      34.6800000000    32.2150000000    32.3060000000
   41      H      33.7440000000    30.7130000000    32.0560000000
   42      O      32.9530000000    32.3130000000    30.0540000000
   43      C      27.3280000000    27.4450000000    32.3070000000
   44      H      27.3370000000    26.4740000000    32.8080000000
   45      H      28.2710000000    27.5660000000    31.7670000000
   46      H      27.0900000000    28.2540000000    33.0030000000
   47      S      25.9280000000    27.3980000000    31.1650000000
   48      C      25.8340000000    29.1550000000    30.7500000000
   49      H      24.8300000000    29.4340000000    30.4210000000
   50      H      26.1490000000    29.7860000000    31.5850000000
   51      H      26.6190000000    29.2550000000    29.9950000000
   52      O      24.7250000000    27.0250000000    31.9740000000
   53      C      35.7520000000    22.2700000000    32.5750000000
   54      H      35.5630000000    21.5040000000    31.8180000000
   55      H      36.3700000000    23.0760000000    32.1700000000
   56      H      36.1740000000    21.8470000000    33.4900000000
   57      S      34.0830000000    22.9210000000    32.8140000000
   58      C      33.8800000000    23.2450000000    31.0480000000
   59      H      32.9820000000    23.8590000000    30.9500000000
   60      H      34.7240000000    23.8230000000    30.6610000000
   61      H      33.7480000000    22.3490000000    30.4370000000
   62      O      34.2120000000    24.2010000000    33.5800000000
   63      C      22.4340000000    24.4740000000    32.6470000000
   64      H      23.3690000000    24.8760000000    32.2470000000
   65      H      21.7540000000    24.0420000000    31.9080000000
   66      H      21.8410000000    25.2140000000    33.1920000000
   67      S      22.9180000000    23.1430000000    33.7690000000
   68      C      24.2300000000    24.0720000000    34.5950000000
   69      H      23.7270000000    24.7280000000    35.3100000000
   70      H      24.8640000000    23.3530000000    35.1210000000
   71      H      24.8530000000    24.5630000000    33.8430000000
   72      O      23.7950000000    22.1750000000    33.0380000000
   73      C      30.7470000000    33.6280000000    22.8270000000
   74      H      29.6810000000    33.4030000000    22.7410000000
   75      H      31.2960000000    32.7530000000    23.1850000000
   76      H      30.9150000000    34.5620000000    23.3690000000
   77      S      31.1840000000    33.8930000000    21.0940000000
   78      C      29.8050000000    34.9750000000    20.6570000000
   79      H      30.1650000000    35.4420000000    19.7370000000
   80      H      28.9150000000    34.4050000000    20.3790000000
   81      H      29.6080000000    35.6520000000    21.4920000000
   82      O      30.8770000000    32.5990000000    20.4070000000
   83      C      26.1440000000    31.6600000000    20.9830000000
   84      H      25.4580000000    32.1260000000    21.6940000000
   85      H      27.0300000000    32.2310000000    20.6930000000
   86      H      25.5710000000    31.3120000000    20.1200000000
   87      S      26.8160000000    30.1950000000    21.7980000000
   88      C      27.9850000000    31.2280000000    22.7100000000
   89      H      28.7990000000    31.6110000000    22.0890000000
   90      H      27.4690000000    32.0380000000    23.2320000000
   91      H      28.3570000000    30.6300000000    23.5450000000
   92      O      27.6460000000    29.5520000000    20.7310000000
   93      C      31.0880000000    20.3860000000    29.4300000000
   94      H      30.7130000000    21.4110000000    29.3660000000
   95      H      30.6280000000    19.9650000000    30.3280000000
   96      H      32.1640000000    20.2930000000    29.5930000000
   97      S      30.7070000000    19.3420000000    28.0050000000
   98      C      28.9310000000    19.3770000000    28.3410000000
   99      H      28.7700000000    19.0140000000    29.3590000000
  100      H      28.5180000000    20.3770000000    28.1830000000
  101      H      28.5100000000    18.6650000000    27.6280000000
  102      O      31.0920000000    17.9730000000    28.4710000000
  103      C      26.9570000000    23.1450000000    32.1960000000
  104      H      26.8610000000    22.8790000000    33.2520000000
  105      H      27.4740000000    24.0770000000    31.9530000000
  106      H      25.9340000000    23.1830000000    31.8120000000
  107      S      27.5750000000    21.6830000000    31.3330000000
  108      C      26.3660000000    20.4330000000    31.8230000000
  109      H      25.8270000000    20.8240000000    32.6900000000
  110      H      25.5840000000    20.2950000000    31.0710000000
  111      H      26.8100000000    19.4610000000    32.0530000000
  112      O      28.7380000000    21.3040000000    32.1960000000
  113      C      22.4890000000    22.2940000000    27.7140000000
  114      H      21.6270000000    22.9240000000    27.9470000000
  115      H      22.4870000000    22.0580000000    26.6470000000
  116      H      22.2910000000    21.4310000000    28.3550000000
  117      S      24.0360000000    23.0490000000    28.2650000000
  118      C      23.5830000000    23.7280000000    29.8770000000
  119      H      22.5920000000    24.1860000000    29.8480000000
  120      H      23.7150000000    23.0020000000    30.6830000000
  121      H      24.3580000000    24.4650000000    30.0990000000
  122      O      24.0980000000    24.2000000000    27.3100000000
  123      C      36.5680000000    26.8120000000    26.8520000000
  124      H      37.3520000000    27.4820000000    27.2160000000
  125      H      36.4490000000    25.9060000000    27.4510000000
  126      H      36.6190000000    26.3490000000    25.8640000000
  127      S      34.9370000000    27.5850000000    26.9460000000
  128      C      34.0940000000    26.7940000000    25.5580000000
  129      H      33.8810000000    25.7490000000    25.7950000000
  130      H      33.1230000000    27.2930000000    25.6230000000
  131      H      34.6000000000    26.8120000000    24.5890000000
  132      O      34.9770000000    29.0030000000    26.4680000000
  133      C      30.2780000000    24.0560000000    22.1310000000
  134      H      30.3050000000    24.8570000000    22.8730000000
  135      H      30.4940000000    24.3880000000    21.1120000000
  136      H      29.2890000000    23.5930000000    22.0750000000
  137      S      31.3450000000    22.7180000000    22.7110000000
  138      C      32.9190000000    23.5810000000    22.5010000000
  139      H      32.8760000000    24.4940000000    23.0990000000
  140      H      33.7690000000    22.9770000000    22.8290000000
  141      H      33.1070000000    23.8100000000    21.4490000000
  142      O      31.3720000000    21.6590000000    21.6530000000
  143      C      34.2410000000    23.0240000000    26.7630000000
  144      H      35.1990000000    22.6470000000    27.1270000000
  145      H      34.2220000000    23.4330000000    25.7490000000
  146      H      33.8550000000    23.7350000000    27.4980000000
  147      S      33.2300000000    21.5260000000    26.7630000000
  148      C      34.5280000000    20.3520000000    26.3140000000
  149      H      34.8690000000    20.3100000000    25.2760000000
  150      H      35.4670000000    20.4740000000    26.8610000000
  151      H      34.0120000000    19.4330000000    26.6040000000
  152      O      32.4750000000    21.6070000000    25.4740000000
  153      C      28.7550000000    34.7280000000    25.3540000000
  154      H      29.1080000000    33.7790000000    24.9420000000
  155      H      28.6340000000    35.4870000000    24.5770000000
  156      H      29.4850000000    35.1180000000    26.0680000000
  157      S      27.2860000000    34.6150000000    26.4000000000
  158      C      27.4080000000    36.2630000000    27.1300000000
  159      H      27.1310000000    36.9200000000    26.3010000000
  160      H      26.6480000000    36.4270000000    27.8980000000
  161      H      28.3660000000    36.5040000000    27.5980000000
  162      O      27.8160000000    33.7750000000    27.5200000000
  163      C      30.6790000000    29.1100000000    22.6880000000
  164      H      29.9930000000    28.5440000000    23.3230000000
  165      H      31.1440000000    29.9470000000    23.2160000000
  166      H      30.1250000000    29.6670000000    21.9280000000
  167      S      32.1180000000    28.2810000000    21.9740000000
  168      C      31.9040000000    28.9290000000    20.3000000000
  169      H      32.4410000000    28.3400000000    19.5520000000
  170      H      30.8230000000    28.9740000000    20.1450000000
  171      H      32.3840000000    29.9110000000    20.2840000000
  172      O      31.6920000000    26.8490000000    21.8820000000
  173      C      26.2570000000    25.2160000000    24.3190000000
  174      H      27.2830000000    25.0750000000    24.6690000000
  175      H      25.5190000000    25.2400000000    25.1260000000
  176      H      25.9360000000    24.4760000000    23.5820000000
  177      S      26.1960000000    26.8190000000    23.4870000000
  178      C      27.5380000000    26.3570000000    22.3680000000
  179      H      28.4810000000    26.0970000000    22.8550000000
  180      H      27.1840000000    25.5410000000    21.7330000000
  181      H      27.7740000000    27.1560000000    21.6610000000
  182      O      27.0310000000    27.8130000000    24.2330000000
  183      C      24.5690000000    19.3190000000    24.4840000000
  184      H      24.8970000000    19.9510000000    25.3140000000
  185      H      23.5720000000    18.9490000000    24.7340000000
  186      H      25.4430000000    18.7140000000    24.2280000000
  187      S      24.4400000000    20.4340000000    23.0680000000
  188      C      23.7630000000    21.7850000000    24.0600000000
  189      H      23.6060000000    22.5960000000    23.3440000000
  190      H      22.8830000000    21.4840000000    24.6330000000
  191      H      24.4620000000    22.0670000000    24.8510000000
  192      O      23.1830000000    20.0210000000    22.3660000000
  193      C      37.7000000000    21.4530000000    24.6760000000
  194      H      37.5170000000    21.2220000000    25.7280000000
  195      H      37.7620000000    20.4920000000    24.1580000000
  196      H      38.5920000000    22.0570000000    24.4930000000
  197      S      36.2960000000    22.4020000000    24.0490000000
  198      C      37.1610000000    22.5860000000    22.4730000000
  199      H      36.7090000000    23.4150000000    21.9220000000
  200      H      38.2350000000    22.7550000000    22.5800000000
  201      H      37.0300000000    21.6230000000    21.9740000000
  202      O      36.3900000000    23.6930000000    24.8010000000
  203      C      24.6100000000    32.7480000000    30.3510000000
  204      H      25.3690000000    32.0070000000    30.6160000000
  205      H      24.2920000000    33.0610000000    31.3480000000
  206      H      23.8760000000    32.2490000000    29.7140000000
  207      S      25.2920000000    34.1490000000    29.4370000000
  208      C      26.2910000000    34.6320000000    30.8640000000
  209      H      26.8300000000    33.7250000000    31.1510000000
  210      H      27.0860000000    35.3350000000    30.6020000000
  211      H      25.6120000000    34.9980000000    31.6380000000
  212      O      24.2080000000    35.1650000000    29.2540000000
  213      C      22.2620000000    28.1020000000    30.0160000000
  214      H      21.7720000000    28.7400000000    30.7570000000
  215      H      21.5660000000    27.2600000000    30.0680000000
  216      H      23.2780000000    27.8530000000    30.3320000000
  217      S      22.3210000000    28.9520000000    28.4230000000
  218      C      23.5530000000    27.8570000000    27.6820000000
  219      H      23.7940000000    28.2730000000    26.7000000000
  220      H      24.5320000000    27.7630000000    28.1590000000
  221      H      23.1240000000    26.8520000000    27.6930000000
  222      O      22.9960000000    30.2350000000    28.7960000000
  223      C      31.4970000000    32.9260000000    26.7530000000
  224      H      32.4430000000    32.4890000000    26.4240000000
  225      H      31.2170000000    33.8830000000    26.3050000000
  226      H      31.3220000000    33.1660000000    27.8040000000
  227      S      30.2240000000    31.6720000000    26.4820000000
  228      C      31.2040000000    30.5590000000    27.5150000000
  229      H      31.7850000000    31.0360000000    28.3090000000
  230      H      30.4980000000    29.8250000000    27.9100000000
  231      H      31.8880000000    30.0590000000    26.8250000000
  232      O      30.4730000000    31.3330000000    25.0460000000
  233      C      23.1120000000    17.4050000000    29.4280000000
  234      H      23.6620000000    17.0800000000    30.3150000000
  235      H      22.0490000000    17.4420000000    29.6780000000
  236      H      23.3050000000    16.6270000000    28.6850000000
  237      S      23.6920000000    19.0370000000    28.9110000000
  238      C      25.4270000000    18.5350000000    28.9100000000
  239      H      25.5420000000    18.0060000000    29.8600000000
  240      H      25.6040000000    17.7870000000    28.1330000000
  241      H      25.9930000000    19.4680000000    28.8450000000
  242      O      23.4410000000    19.9090000000    30.1010000000
  243      C      21.6830000000    29.4780000000    21.7060000000
  244      H      21.6210000000    30.0000000000    20.7470000000
  245      H      21.1550000000    28.5450000000    21.4910000000
  246      H      21.1630000000    30.0180000000    22.5020000000
  247      S      23.4070000000    29.3340000000    22.2250000000
  248      C      23.8310000000    28.2770000000    20.8220000000
  249      H      24.9230000000    28.2880000000    20.7750000000
  250      H      23.4000000000    27.2820000000    20.9610000000
  251      H      23.5330000000    28.7170000000    19.8670000000
  252      O      23.2940000000    28.4290000000    23.4120000000
  253      C      27.7220000000    22.2680000000    24.2510000000
  254      H      28.4910000000    23.0270000000    24.0830000000
  255      H      26.9610000000    22.1000000000    23.4860000000
  256      H      27.1980000000    22.7050000000    25.1050000000
  257      S      28.5660000000    20.7270000000    24.6720000000
  258      C      28.4720000000    20.0490000000    22.9990000000
  259      H      28.6550000000    18.9720000000    22.9760000000
  260      H      27.5760000000    20.3660000000    22.4590000000
  261      H      29.2460000000    20.5700000000    22.4310000000
  262      O      27.5710000000    19.9830000000    25.5070000000
  263      C      28.9930000000    32.6710000000    30.0110000000
  264      H      28.6570000000    33.6940000000    30.1970000000
  265      H      29.8230000000    32.6170000000    29.3020000000
  266      H      28.2360000000    32.0040000000    29.5910000000
  267      S      29.4090000000    31.9660000000    31.6220000000
  268      C      30.2270000000    30.4620000000    31.0420000000
  269      H      29.7610000000    30.2410000000    30.0790000000
  270      H      31.2780000000    30.7210000000    30.8920000000
  271      H      30.0880000000    29.6070000000    31.7090000000
  272      O      28.0540000000    31.5410000000    32.0960000000
  273      C      27.4000000000    22.0930000000    19.4790000000
  274      H      28.1220000000    21.5940000000    20.1310000000
  275      H      27.2750000000    21.3840000000    18.6570000000
  276      H      27.6900000000    23.1070000000    19.1940000000
  277      S      25.8190000000    22.1790000000    20.3500000000
  278      C      24.7420000000    23.1120000000    19.2390000000
  279      H      24.6480000000    22.5740000000    18.2920000000
  280      H      23.8550000000    23.2460000000    19.8620000000
  281      H      25.1720000000    24.0690000000    18.9330000000
  282      O      26.0480000000    23.0900000000    21.5150000000
  283      C      33.3700000000    26.9720000000    31.8470000000
  284      H      33.7050000000    25.9540000000    32.0620000000
  285      H      33.7940000000    27.4160000000    30.9420000000
  286      H      33.6100000000    27.5810000000    32.7220000000
  287      S      31.5890000000    27.0300000000    31.5450000000
  288      C      31.1600000000    25.8030000000    32.8000000000
  289      H      31.6810000000    24.8720000000    32.5610000000
  290      H      31.4690000000    26.1590000000    33.7870000000
  291      H      30.0730000000    25.6940000000    32.8240000000
  292      O      31.4490000000    26.2020000000    30.3060000000
 ----------------------------------------------------------------
 Nuclear Repulsion Energy =       47902.87866450 hartrees
 There are      602 alpha and      602 beta electrons
 Requested basis set is 6-31+G(d)
 There are 962 shells and 2681 basis functions

 Total QAlloc Memory Limit  12000 MB
 Mega-Array Size      3911 MB
 MEM_STATIC part      4000 MB

 A cutoff of  1.0D-14 yielded 173729 shell pairs
 There are   1518107 function pairs
 Smallest overlap matrix eigenvalue = 5.45E-07
 Linear dependence detected in AO basis
 Tighter screening thresholds may be required for diffuse basis sets
 Use S2THRESH > 14 and THRESH = 14 in case of SCF convergence issues
 Number of orthogonalized atomic orbitals = 2679
 Maximum deviation from orthogonality = 7.621E-11

 Scale SEOQF with 1.000000e-03/1.000000e-03/1.000000e-03

 Standard Electronic Orientation quadrupole field applied
 Nucleus-field energy     =     0.0000000334 hartrees
 Attempting to make child job directory: /global/cscratch1/sd/ymao90/r7.00_frame_0076_almo_B3LYP_dp20220721031451//Frg1/
 Attempting to make child job directory: /global/cscratch1/sd/ymao90/r7.00_frame_0076_almo_B3LYP_dp20220721031451//Frg2/
 Creating input file /global/cscratch1/sd/ymao90/r7.00_frame_0076_almo_B3LYP_dp20220721031451/Frg1.input
 using default PutDataFrgm: nothing
 calling putenv with: QCSCRATCH=/global/cscratch1/sd/ymao90/r7.00_frame_0076_almo_B3LYP_dp20220721031451/ 
 Spawning Job For Fragment 0
 Done Job For Fragment 0
 calling putenv with: QCSCRATCH=/global/cscratch1/sd/ymao90 
 calling putenv with: QCTHREADS=16 
 Creating input file /global/cscratch1/sd/ymao90/r7.00_frame_0076_almo_B3LYP_dp20220721031451/Frg2.input
 using default PutDataFrgm: nothing
 calling putenv with: QCSCRATCH=/global/cscratch1/sd/ymao90/r7.00_frame_0076_almo_B3LYP_dp20220721031451/ 
 Spawning Job For Fragment 1
 Done Job For Fragment 1
 calling putenv with: QCSCRATCH=/global/cscratch1/sd/ymao90 
 calling putenv with: QCTHREADS=16 
 Time for running child jobs:  CPU 0.49 s  wall 11800.60 s

 -----------------------------------------------------------------------
  General SCF calculation program by
  Eric Jon Sundstrom, Paul Horn, Yuezhi Mao, Dmitri Zuev, Alec White,
  David Stuck, Shaama M.S., Shane Yost, Joonho Lee, David Small,
  Daniel Levine, Susi Lehtola, Hugh Burton, Evgeny Epifanovsky,
  Bang C. Huynh
 -----------------------------------------------------------------------
Performing Restricted Closed Shell SCFMI
Doing General SCFMI
 Exchange:     0.2000 Hartree-Fock + 0.0800 Slater + 0.7200 B88
 Correlation:  0.1900 VWN1RPA + 0.8100 LYP
 Using Euler-Maclaurin-Lebedev (75,302) quadrature formula
performing fock build before subrot guess so that all methods have access
 using 16 threads for integral computing
 -------------------------------------------------------
 OpenMP Integral computing Module                
 Release: version 1.0, May 2013, Q-Chem Inc. Pittsburgh 
 -------------------------------------------------------
Printing subrot_rss_gen Method Specification:
Occupied Subspace Method is 0
Virtual Subspace Method is 0
Energy prior to optimization (guess energy) = -15340.705125594563
Begin Timing: Total SCF Calculation
begin iterations for algorithm: DIIS         
the SCF tolerance is set to 1.00e-08
    1  -15340.7051255946      3.49e-05     00000 
    2  -15340.7127237037      2.63e-05     00000 
    3  -15340.7138003750      2.16e-05     00000 
    4  -15340.7149178133      6.29e-06     00000 
    5  -15340.7150294658      2.49e-06     00000 
    6  -15340.7150487103      1.44e-06     00000 
    7  -15340.7150539960      1.03e-06     00000 
    8  -15340.7150565512      5.32e-07     00000 
    9  -15340.7150572466      2.86e-07     00000 
   10  -15340.7150574139      1.84e-07     00000 
   11  -15340.7150574731      1.26e-07     00000 
   12  -15340.7150575106      5.98e-08     00000 
   13  -15340.7150575196      3.26e-08     00000 
   14  -15340.7150575223      1.95e-08     00000 
   15  -15340.7150575232      1.17e-08     00000 
   16  -15340.7150575236      6.95e-09     00000 Convergence criterion met
write pseudocanon occs and virts to disk
write pseudocanon orbital energies to disk
Timing for Total SCF: 16715.00s (wall), 228101.94s (cpu)
SCFMI Energy  -15340.7150575236
<S^2>            0.00000
 Total energy in the final basis set =   -15340.7150575236
    ==================================================
        The end of Object-Oriented SCFman: SCFMI      
    ==================================================

 --------------------------------------------------------------

                    Orbital Energies (a.u.)
 --------------------------------------------------------------

 Alpha MOs
 -- Occupied --
-89.0253 -89.0124 -89.0105 -89.0081 -89.0043 -89.0041 -89.0040 -89.0024
-89.0005 -88.9962 -88.9938 -88.9935 -88.9933 -88.9893 -88.9886 -88.9856
-88.9853 -88.9844 -88.9819 -88.9814 -88.9797 -88.9777 -88.9769 -88.9762
-88.9746 -88.9730 -88.9631 -19.1433 -19.1366 -19.1258 -19.1255 -19.1196
-19.1194 -19.1183 -19.1147 -19.1142 -19.1117 -19.1115 -19.1111 -19.1098
-19.1077 -19.1069 -19.1033 -19.1025 -19.1020 -19.0975 -19.0970 -19.0958
-19.0957 -19.0953 -19.0935 -19.0905 -19.0895 -19.0891 -19.0885 -14.3362
-10.2730 -10.2435 -10.2398 -10.2347 -10.2330 -10.2317 -10.2295 -10.2275
-10.2258 -10.2225 -10.2224 -10.2218 -10.2218 -10.2210 -10.2207 -10.2206
-10.2196 -10.2184 -10.2182 -10.2181 -10.2153 -10.2149 -10.2140 -10.2138
-10.2103 -10.2096 -10.2085 -10.2081 -10.2081 -10.2079 -10.2036 -10.1999
-10.1996 -10.1992 -10.1979 -10.1964 -10.1958 -10.1957 -10.1957 -10.1956
-10.1945 -10.1928 -10.1924 -10.1924 -10.1924 -10.1915 -10.1911 -10.1899
-10.1897 -10.1885 -10.1883 -10.1881 -10.1880 -10.1854 -10.1819 -10.1804
-10.1767 -10.1765 -10.1753 -10.1670 -10.1652  -8.0713  -8.0585  -8.0569
 -8.0545  -8.0508  -8.0503  -8.0502  -8.0486  -8.0458  -8.0429  -8.0405
 -8.0393  -8.0386  -8.0351  -8.0350  -8.0314  -8.0310  -8.0305  -8.0278
 -8.0273  -8.0255  -8.0240  -8.0224  -8.0219  -8.0207  -8.0198  -8.0091
 -6.0357  -6.0342  -6.0289  -6.0229  -6.0216  -6.0212  -6.0200  -6.0187
 -6.0175  -6.0157  -6.0153  -6.0145  -6.0144  -6.0143  -6.0140  -6.0136
 -6.0132  -6.0130  -6.0121  -6.0119  -6.0101  -6.0090  -6.0077  -6.0076
 -6.0076  -6.0071  -6.0059  -6.0058  -6.0047  -6.0036  -6.0035  -6.0032
 -6.0030  -6.0024  -6.0019  -6.0003  -5.9996  -5.9996  -5.9982  -5.9981
 -5.9977  -5.9968  -5.9959  -5.9959  -5.9956  -5.9949  -5.9946  -5.9941
 -5.9932  -5.9925  -5.9920  -5.9920  -5.9918  -5.9909  -5.9902  -5.9897
 -5.9888  -5.9885  -5.9884  -5.9882  -5.9879  -5.9870  -5.9868  -5.9864
 -5.9855  -5.9853  -5.9853  -5.9851  -5.9849  -5.9841  -5.9837  -5.9831
 -5.9827  -5.9813  -5.9801  -5.9791  -5.9780  -5.9773  -5.9735  -5.9721
 -5.9664  -1.0512  -1.0398  -1.0339  -1.0336  -1.0323  -1.0318  -1.0304
 -1.0271  -1.0249  -1.0227  -1.0203  -1.0198  -1.0189  -1.0177  -1.0173
 -1.0150  -1.0142  -1.0119  -1.0110  -1.0054  -1.0047  -1.0045  -1.0042
 -1.0039  -1.0036  -1.0030  -0.9991  -0.9915  -0.9071  -0.8342  -0.8245
 -0.8169  -0.8115  -0.8081  -0.8074  -0.8062  -0.8054  -0.8053  -0.8031
 -0.8001  -0.7984  -0.7955  -0.7953  -0.7951  -0.7896  -0.7881  -0.7860
 -0.7842  -0.7821  -0.7814  -0.7804  -0.7799  -0.7787  -0.7786  -0.7750
 -0.7749  -0.7743  -0.7472  -0.7437  -0.7410  -0.7404  -0.7395  -0.7371
 -0.7357  -0.7334  -0.7331  -0.7306  -0.7297  -0.7284  -0.7281  -0.7223
 -0.7193  -0.7192  -0.7140  -0.7135  -0.7111  -0.7092  -0.7078  -0.7068
 -0.7060  -0.7042  -0.7035  -0.6998  -0.6977  -0.6946  -0.6894  -0.6392
 -0.6274  -0.6244  -0.6225  -0.6190  -0.6181  -0.6179  -0.6173  -0.6165
 -0.6132  -0.6122  -0.6095  -0.6083  -0.6067  -0.6032  -0.6029  -0.6022
 -0.5988  -0.5975  -0.5956  -0.5948  -0.5943  -0.5921  -0.5902  -0.5900
 -0.5890  -0.5833  -0.5827  -0.5795  -0.5648  -0.5582  -0.5167  -0.5115
 -0.4948  -0.4947  -0.4940  -0.4929  -0.4919  -0.4909  -0.4878  -0.4868
 -0.4866  -0.4857  -0.4842  -0.4837  -0.4836  -0.4825  -0.4814  -0.4795
 -0.4794  -0.4789  -0.4783  -0.4775  -0.4771  -0.4759  -0.4750  -0.4746
 -0.4744  -0.4734  -0.4729  -0.4728  -0.4719  -0.4709  -0.4704  -0.4702
 -0.4700  -0.4694  -0.4685  -0.4676  -0.4671  -0.4655  -0.4642  -0.4637
 -0.4626  -0.4622  -0.4619  -0.4611  -0.4606  -0.4604  -0.4592  -0.4583
 -0.4578  -0.4575  -0.4570  -0.4556  -0.4555  -0.4549  -0.4540  -0.4523
 -0.4523  -0.4521  -0.4513  -0.4497  -0.4486  -0.4485  -0.4475  -0.4470
 -0.4463  -0.4459  -0.4455  -0.4448  -0.4445  -0.4441  -0.4434  -0.4431
 -0.4427  -0.4415  -0.4413  -0.4408  -0.4395  -0.4393  -0.4390  -0.4377
 -0.4375  -0.4367  -0.4355  -0.4349  -0.4340  -0.4338  -0.4331  -0.4325
 -0.4323  -0.4312  -0.4308  -0.4295  -0.4279  -0.4275  -0.4268  -0.4266
 -0.4264  -0.4226  -0.4223  -0.4207  -0.4196  -0.4193  -0.4177  -0.4165
 -0.4164  -0.4156  -0.4152  -0.4149  -0.4147  -0.4127  -0.4121  -0.4113
 -0.4108  -0.4107  -0.4101  -0.4099  -0.4090  -0.4080  -0.4072  -0.4064
 -0.4057  -0.4056  -0.4051  -0.4045  -0.4043  -0.4038  -0.4035  -0.4033
 -0.4030  -0.4019  -0.4014  -0.4009  -0.4006  -0.3997  -0.3992  -0.3990
 -0.3984  -0.3983  -0.3979  -0.3971  -0.3951  -0.3940  -0.3937  -0.3927
 -0.3926  -0.3919  -0.3912  -0.3904  -0.3890  -0.3884  -0.3865  -0.3843
 -0.3835  -0.3820  -0.3818  -0.3814  -0.3813  -0.3808  -0.3800  -0.3799
 -0.3781  -0.3740  -0.3739  -0.3734  -0.3726  -0.3715  -0.3700  -0.3695
 -0.3689  -0.3682  -0.3663  -0.3650  -0.3636  -0.3633  -0.3633  -0.3629
 -0.3618  -0.3614  -0.3600  -0.3588  -0.3582  -0.3576  -0.3546  -0.3523
 -0.3513  -0.3505  -0.3490  -0.3476  -0.3472  -0.3451  -0.3450  -0.3437
 -0.3424  -0.3407  -0.3398  -0.3393  -0.3382  -0.3342  -0.3306  -0.3167
 -0.3043  -0.3020  -0.2988  -0.2969  -0.2892  -0.2858  -0.2823  -0.2791
 -0.2789  -0.2772  -0.2728  -0.2727  -0.2719  -0.2706  -0.2689  -0.2678
 -0.2675  -0.2650  -0.2645  -0.2642  -0.2587  -0.2582  -0.2577  -0.2550
 -0.2544  -0.2532  -0.2531  -0.2505  -0.2502  -0.2495  -0.2491  -0.2485
 -0.2482  -0.2475  -0.2463  -0.2439  -0.2418  -0.2391  -0.2389  -0.2379
 -0.2369  -0.2349  -0.2339  -0.2316  -0.2309  -0.2299  -0.2298  -0.2282
 -0.2271  -0.2233  -0.2212  -0.2207  -0.2186  -0.2184  -0.2182  -0.2167
 -0.2150  -0.2045
 -- Virtual --
 -0.0314  -0.0252  -0.0201  -0.0182  -0.0164  -0.0154  -0.0144  -0.0120
 -0.0109  -0.0089  -0.0080  -0.0069  -0.0050  -0.0043  -0.0040  -0.0020
 -0.0011  -0.0003   0.0005   0.0014   0.0020   0.0023   0.0028   0.0033
  0.0039   0.0048   0.0057   0.0069   0.0081   0.0093   0.0098   0.0104
  0.0108   0.0114   0.0119   0.0129   0.0130   0.0138   0.0144   0.0147
  0.0160   0.0171   0.0173   0.0187   0.0197   0.0204   0.0208   0.0213
  0.0220   0.0221   0.0229   0.0234   0.0240   0.0252   0.0257   0.0258
  0.0267   0.0274   0.0286   0.0292   0.0295   0.0302   0.0304   0.0310
  0.0318   0.0328   0.0335   0.0339   0.0346   0.0353   0.0354   0.0355
  0.0364   0.0369   0.0375   0.0383   0.0388   0.0392   0.0408   0.0411
  0.0414   0.0423   0.0432   0.0438   0.0449   0.0452   0.0458   0.0464
  0.0466   0.0475   0.0477   0.0487   0.0494   0.0498   0.0506   0.0509
  0.0511   0.0516   0.0519   0.0527   0.0537   0.0541   0.0549   0.0551
  0.0557   0.0562   0.0570   0.0573   0.0576   0.0586   0.0594   0.0596
  0.0605   0.0606   0.0622   0.0630   0.0634   0.0637   0.0651   0.0652
  0.0657   0.0665   0.0672   0.0676   0.0683   0.0693   0.0702   0.0704
  0.0707   0.0714   0.0721   0.0725   0.0737   0.0742   0.0747   0.0750
  0.0758   0.0760   0.0775   0.0781   0.0786   0.0794   0.0800   0.0808
  0.0814   0.0819   0.0833   0.0841   0.0842   0.0845   0.0856   0.0859
  0.0864   0.0874   0.0879   0.0890   0.0893   0.0901   0.0907   0.0911
  0.0925   0.0930   0.0932   0.0938   0.0942   0.0945   0.0952   0.0964
  0.0966   0.0968   0.0977   0.0981   0.0988   0.0996   0.1002   0.1011
  0.1014   0.1024   0.1032   0.1035   0.1037   0.1049   0.1054   0.1055
  0.1061   0.1068   0.1074   0.1085   0.1091   0.1100   0.1107   0.1110
  0.1117   0.1125   0.1132   0.1136   0.1142   0.1149   0.1155   0.1162
  0.1163   0.1173   0.1174   0.1189   0.1190   0.1194   0.1209   0.1211
  0.1216   0.1225   0.1233   0.1242   0.1245   0.1252   0.1256   0.1261
  0.1267   0.1271   0.1282   0.1287   0.1293   0.1301   0.1309   0.1317
  0.1321   0.1329   0.1330   0.1333   0.1341   0.1352   0.1357   0.1363
  0.1369   0.1376   0.1379   0.1382   0.1391   0.1395   0.1402   0.1408
  0.1410   0.1418   0.1420   0.1428   0.1439   0.1443   0.1449   0.1452
  0.1459   0.1467   0.1475   0.1479   0.1490   0.1495   0.1497   0.1510
  0.1513   0.1515   0.1526   0.1533   0.1535   0.1540   0.1547   0.1548
  0.1558   0.1561   0.1566   0.1571   0.1576   0.1582   0.1590   0.1599
  0.1605   0.1610   0.1618   0.1621   0.1626   0.1628   0.1638   0.1644
  0.1653   0.1658   0.1668   0.1674   0.1675   0.1680   0.1683   0.1696
  0.1702   0.1707   0.1718   0.1724   0.1731   0.1738   0.1743   0.1746
  0.1749   0.1752   0.1774   0.1776   0.1779   0.1790   0.1799   0.1807
  0.1807   0.1813   0.1817   0.1826   0.1832   0.1839   0.1846   0.1853
  0.1854   0.1858   0.1867   0.1872   0.1873   0.1882   0.1889   0.1895
  0.1901   0.1906   0.1911   0.1915   0.1917   0.1932   0.1940   0.1950
  0.1959   0.1969   0.1972   0.1977   0.1985   0.1990   0.1998   0.1999
  0.2004   0.2010   0.2014   0.2018   0.2025   0.2029   0.2034   0.2041
  0.2048   0.2061   0.2068   0.2076   0.2079   0.2084   0.2089   0.2095
  0.2103   0.2109   0.2113   0.2120   0.2125   0.2135   0.2138   0.2141
  0.2143   0.2151   0.2163   0.2173   0.2175   0.2184   0.2188   0.2196
  0.2200   0.2205   0.2208   0.2212   0.2218   0.2223   0.2231   0.2239
  0.2240   0.2251   0.2257   0.2261   0.2271   0.2276   0.2280   0.2288
  0.2294   0.2302   0.2310   0.2313   0.2320   0.2325   0.2337   0.2342
  0.2349   0.2358   0.2366   0.2373   0.2380   0.2384   0.2395   0.2395
  0.2402   0.2409   0.2418   0.2422   0.2428   0.2433   0.2441   0.2445
  0.2453   0.2465   0.2474   0.2481   0.2486   0.2492   0.2498   0.2503
  0.2510   0.2511   0.2524   0.2530   0.2538   0.2544   0.2547   0.2549
  0.2556   0.2560   0.2566   0.2576   0.2579   0.2585   0.2596   0.2601
  0.2608   0.2614   0.2618   0.2631   0.2635   0.2646   0.2654   0.2660
  0.2665   0.2670   0.2676   0.2683   0.2696   0.2700   0.2706   0.2711
  0.2718   0.2725   0.2728   0.2733   0.2743   0.2752   0.2757   0.2772
  0.2774   0.2783   0.2787   0.2802   0.2808   0.2811   0.2816   0.2820
  0.2833   0.2847   0.2849   0.2855   0.2864   0.2867   0.2880   0.2887
  0.2889   0.2895   0.2901   0.2911   0.2923   0.2940   0.2943   0.2950
  0.2960   0.2961   0.2964   0.2974   0.2985   0.2991   0.2998   0.3011
  0.3018   0.3022   0.3028   0.3038   0.3053   0.3065   0.3072   0.3081
  0.3084   0.3089   0.3091   0.3102   0.3117   0.3125   0.3139   0.3151
  0.3157   0.3159   0.3164   0.3170   0.3171   0.3193   0.3199   0.3214
  0.3217   0.3228   0.3238   0.3244   0.3245   0.3254   0.3263   0.3269
  0.3274   0.3281   0.3291   0.3302   0.3306   0.3309   0.3321   0.3324
  0.3329   0.3336   0.3346   0.3359   0.3371   0.3378   0.3388   0.3395
  0.3404   0.3419   0.3423   0.3434   0.3443   0.3444   0.3452   0.3467
  0.3481   0.3485   0.3492   0.3498   0.3503   0.3506   0.3524   0.3532
  0.3544   0.3545   0.3554   0.3561   0.3580   0.3591   0.3602   0.3611
  0.3623   0.3625   0.3630   0.3639   0.3643   0.3661   0.3668   0.3681
  0.3686   0.3694   0.3709   0.3713   0.3719   0.3732   0.3737   0.3745
  0.3749   0.3759   0.3768   0.3783   0.3786   0.3792   0.3798   0.3809
  0.3813   0.3820   0.3831   0.3835   0.3847   0.3858   0.3867   0.3876
  0.3883   0.3899   0.3901   0.3906   0.3911   0.3918   0.3930   0.3941
  0.3949   0.3962   0.3979   0.3986   0.3993   0.3999   0.4009   0.4013
  0.4017   0.4045   0.4050   0.4062   0.4068   0.4081   0.4084   0.4097
  0.4102   0.4118   0.4127   0.4137   0.4147   0.4151   0.4156   0.4164
  0.4172   0.4181   0.4187   0.4200   0.4206   0.4215   0.4219   0.4227
  0.4239   0.4247   0.4260   0.4265   0.4273   0.4286   0.4294   0.4304
  0.4309   0.4327   0.4336   0.4346   0.4350   0.4366   0.4380   0.4388
  0.4394   0.4410   0.4418   0.4433   0.4436   0.4453   0.4462   0.4476
  0.4484   0.4500   0.4502   0.4533   0.4546   0.4559   0.4565   0.4577
  0.4587   0.4602   0.4603   0.4612   0.4627   0.4645   0.4649   0.4663
  0.4671   0.4681   0.4716   0.4725   0.4737   0.4763   0.4769   0.4773
  0.4781   0.4794   0.4809   0.4827   0.4834   0.4842   0.4858   0.4880
  0.4883   0.4892   0.4900   0.4920   0.4933   0.4951   0.4968   0.4968
  0.4987   0.4995   0.5016   0.5032   0.5041   0.5061   0.5085   0.5092
  0.5106   0.5115   0.5147   0.5163   0.5173   0.5178   0.5195   0.5214
  0.5228   0.5228   0.5249   0.5258   0.5287   0.5313   0.5339   0.5355
  0.5376   0.5391   0.5398   0.5423   0.5432   0.5439   0.5458   0.5475
  0.5495   0.5503   0.5514   0.5522   0.5531   0.5554   0.5571   0.5589
  0.5597   0.5623   0.5647   0.5661   0.5679   0.5694   0.5697   0.5707
  0.5727   0.5730   0.5750   0.5757   0.5769   0.5788   0.5805   0.5817
  0.5826   0.5839   0.5854   0.5874   0.5884   0.5904   0.5908   0.5913
  0.5929   0.5947   0.5956   0.5962   0.5983   0.5997   0.6016   0.6031
  0.6040   0.6062   0.6072   0.6093   0.6109   0.6122   0.6127   0.6132
  0.6147   0.6152   0.6167   0.6183   0.6198   0.6212   0.6226   0.6235
  0.6248   0.6250   0.6275   0.6284   0.6299   0.6306   0.6324   0.6337
  0.6344   0.6352   0.6359   0.6366   0.6379   0.6394   0.6405   0.6413
  0.6432   0.6441   0.6450   0.6458   0.6465   0.6478   0.6487   0.6504
  0.6514   0.6520   0.6528   0.6548   0.6557   0.6568   0.6582   0.6593
  0.6601   0.6608   0.6623   0.6623   0.6642   0.6652   0.6666   0.6686
  0.6689   0.6717   0.6720   0.6747   0.6753   0.6759   0.6774   0.6785
  0.6803   0.6807   0.6811   0.6813   0.6831   0.6848   0.6859   0.6876
  0.6884   0.6899   0.6915   0.6931   0.6942   0.6947   0.6956   0.6967
  0.6977   0.6987   0.7012   0.7023   0.7031   0.7041   0.7056   0.7061
  0.7078   0.7089   0.7108   0.7116   0.7124   0.7134   0.7149   0.7162
  0.7176   0.7187   0.7191   0.7209   0.7220   0.7234   0.7238   0.7257
  0.7270   0.7286   0.7302   0.7308   0.7312   0.7337   0.7343   0.7353
  0.7374   0.7386   0.7390   0.7410   0.7427   0.7434   0.7445   0.7465
  0.7471   0.7488   0.7496   0.7506   0.7528   0.7532   0.7555   0.7566
  0.7570   0.7603   0.7613   0.7621   0.7640   0.7651   0.7667   0.7685
  0.7699   0.7715   0.7728   0.7761   0.7773   0.7780   0.7798   0.7807
  0.7814   0.7823   0.7845   0.7852   0.7861   0.7877   0.7891   0.7907
  0.7916   0.7922   0.7925   0.7944   0.7962   0.7981   0.8000   0.8014
  0.8036   0.8048   0.8066   0.8079   0.8093   0.8108   0.8120   0.8133
  0.8149   0.8155   0.8159   0.8174   0.8189   0.8202   0.8219   0.8235
  0.8252   0.8264   0.8266   0.8277   0.8298   0.8302   0.8326   0.8337
  0.8341   0.8356   0.8362   0.8368   0.8383   0.8396   0.8419   0.8430
  0.8443   0.8452   0.8473   0.8484   0.8489   0.8513   0.8527   0.8535
  0.8552   0.8568   0.8578   0.8589   0.8598   0.8612   0.8628   0.8634
  0.8646   0.8663   0.8670   0.8684   0.8709   0.8733   0.8740   0.8744
  0.8752   0.8778   0.8779   0.8786   0.8812   0.8820   0.8827   0.8836
  0.8855   0.8859   0.8873   0.8880   0.8912   0.8925   0.8938   0.8947
  0.8956   0.8962   0.8976   0.8996   0.9000   0.9012   0.9024   0.9051
  0.9073   0.9074   0.9083   0.9100   0.9122   0.9130   0.9133   0.9150
  0.9163   0.9167   0.9192   0.9212   0.9221   0.9230   0.9253   0.9258
  0.9264   0.9269   0.9289   0.9304   0.9322   0.9327   0.9335   0.9344
  0.9353   0.9377   0.9389   0.9397   0.9403   0.9408   0.9427   0.9436
  0.9454   0.9461   0.9473   0.9491   0.9495   0.9507   0.9515   0.9528
  0.9537   0.9545   0.9556   0.9571   0.9581   0.9586   0.9596   0.9613
  0.9619   0.9630   0.9637   0.9643   0.9649   0.9662   0.9671   0.9686
  0.9700   0.9719   0.9730   0.9742   0.9754   0.9759   0.9768   0.9778
  0.9790   0.9797   0.9804   0.9822   0.9831   0.9835   0.9848   0.9863
  0.9863   0.9877   0.9888   0.9892   0.9910   0.9929   0.9938   0.9950
  0.9957   0.9974   0.9980   0.9987   0.9997   1.0010   1.0023   1.0025
  1.0036   1.0055   1.0067   1.0080   1.0090   1.0095   1.0105   1.0112
  1.0118   1.0143   1.0151   1.0164   1.0179   1.0192   1.0196   1.0207
  1.0214   1.0237   1.0240   1.0251   1.0260   1.0273   1.0284   1.0293
  1.0305   1.0316   1.0324   1.0332   1.0348   1.0356   1.0368   1.0374
  1.0398   1.0409   1.0413   1.0418   1.0453   1.0458   1.0476   1.0485
  1.0500   1.0514   1.0523   1.0534   1.0540   1.0559   1.0572   1.0588
  1.0596   1.0608   1.0614   1.0622   1.0656   1.0662   1.0673   1.0677
  1.0694   1.0711   1.0728   1.0753   1.0759   1.0783   1.0785   1.0801
  1.0807   1.0819   1.0832   1.0844   1.0872   1.0881   1.0890   1.0902
  1.0913   1.0932   1.0953   1.0964   1.0974   1.0976   1.0979   1.1002
  1.1014   1.1022   1.1039   1.1067   1.1077   1.1083   1.1093   1.1107
  1.1126   1.1130   1.1148   1.1154   1.1177   1.1189   1.1212   1.1228
  1.1242   1.1261   1.1269   1.1277   1.1284   1.1299   1.1304   1.1318
  1.1325   1.1353   1.1367   1.1376   1.1379   1.1393   1.1401   1.1413
  1.1427   1.1439   1.1458   1.1476   1.1486   1.1506   1.1515   1.1521
  1.1531   1.1536   1.1549   1.1575   1.1584   1.1597   1.1601   1.1606
  1.1629   1.1647   1.1653   1.1656   1.1668   1.1676   1.1694   1.1712
  1.1727   1.1732   1.1742   1.1760   1.1769   1.1784   1.1793   1.1812
  1.1819   1.1828   1.1832   1.1858   1.1867   1.1883   1.1901   1.1915
  1.1947   1.1952   1.1952   1.1984   1.2003   1.2018   1.2020   1.2034
  1.2049   1.2074   1.2076   1.2095   1.2116   1.2120   1.2154   1.2160
  1.2184   1.2217   1.2236   1.2258   1.2273   1.2285   1.2293   1.2324
  1.2327   1.2352   1.2377   1.2384   1.2410   1.2412   1.2454   1.2480
  1.2491   1.2502   1.2518   1.2532   1.2543   1.2583   1.2602   1.2607
  1.2622   1.2641   1.2658   1.2705   1.2731   1.2757   1.2760   1.2803
  1.2823   1.2839   1.2856   1.2874   1.2895   1.2904   1.2927   1.2940
  1.2950   1.2963   1.2986   1.3013   1.3029   1.3071   1.3076   1.3104
  1.3133   1.3144   1.3165   1.3215   1.3235   1.3259   1.3284   1.3306
  1.3333   1.3345   1.3364   1.3405   1.3410   1.3436   1.3453   1.3479
  1.3504   1.3538   1.3553   1.3579   1.3593   1.3610   1.3622   1.3639
  1.3654   1.3667   1.3677   1.3715   1.3732   1.3750   1.3764   1.3786
  1.3792   1.3820   1.3829   1.3860   1.3871   1.3884   1.3904   1.3916
  1.3942   1.3955   1.3972   1.3990   1.3994   1.4029   1.4042   1.4049
  1.4070   1.4090   1.4099   1.4103   1.4130   1.4137   1.4150   1.4162
  1.4172   1.4196   1.4214   1.4227   1.4231   1.4246   1.4261   1.4272
  1.4287   1.4296   1.4309   1.4312   1.4331   1.4340   1.4351   1.4375
  1.4382   1.4396   1.4409   1.4422   1.4442   1.4446   1.4456   1.4479
  1.4493   1.4527   1.4535   1.4544   1.4565   1.4581   1.4600   1.4607
  1.4626   1.4636   1.4656   1.4686   1.4702   1.4726   1.4747   1.4770
  1.4781   1.4800   1.4802   1.4832   1.4839   1.4850   1.4877   1.4893
  1.4902   1.4927   1.4947   1.4961   1.4971   1.4986   1.5015   1.5038
  1.5063   1.5077   1.5095   1.5108   1.5128   1.5135   1.5148   1.5184
  1.5198   1.5211   1.5246   1.5272   1.5293   1.5307   1.5318   1.5333
  1.5359   1.5365   1.5393   1.5421   1.5430   1.5448   1.5472   1.5502
  1.5522   1.5562   1.5583   1.5622   1.5648   1.5670   1.5719   1.5764
  1.5778   1.5782   1.5816   1.5869   1.5882   1.5967   1.6016   1.6082
  1.6087   1.6118   1.6129   1.6165   1.6220   1.6270   1.6282   1.6324
  1.6345   1.6458   1.6472   1.6485   1.6533   1.6538   1.6573   1.6575
  1.6594   1.6623   1.6652   1.6676   1.6699   1.6711   1.6745   1.6756
  1.6769   1.6774   1.6779   1.6801   1.6825   1.6847   1.6864   1.6869
  1.6895   1.6901   1.6909   1.6921   1.6937   1.6945   1.6964   1.6968
  1.6988   1.6991   1.6998   1.7011   1.7022   1.7028   1.7039   1.7046
  1.7065   1.7073   1.7082   1.7089   1.7122   1.7131   1.7142   1.7150
  1.7171   1.7181   1.7201   1.7215   1.7240   1.7262   1.7272   1.7282
  1.7287   1.7316   1.7327   1.7334   1.7357   1.7365   1.7382   1.7394
  1.7410   1.7414   1.7416   1.7428   1.7436   1.7480   1.7493   1.7503
  1.7519   1.7535   1.7551   1.7571   1.7584   1.7595   1.7621   1.7633
  1.7648   1.7665   1.7677   1.7687   1.7700   1.7717   1.7736   1.7754
  1.7765   1.7769   1.7788   1.7817   1.7830   1.7849   1.7889   1.7905
  1.7922   1.7927   1.7941   1.7946   1.7957   1.7975   1.7995   1.8011
  1.8027   1.8062   1.8065   1.8091   1.8094   1.8114   1.8128   1.8154
  1.8161   1.8169   1.8210   1.8234   1.8244   1.8256   1.8293   1.8340
  1.8364   1.8429   1.8430   1.8447   1.8503   1.8517   1.8571   1.8583
  1.8596   1.8622   1.8630   1.8640   1.8682   1.8706   1.8719   1.8748
  1.8761   1.8771   1.8780   1.8798   1.8823   1.8825   1.8849   1.8856
  1.8865   1.8872   1.8900   1.8927   1.8930   1.8942   1.8949   1.8966
  1.8984   1.8997   1.9010   1.9017   1.9035   1.9042   1.9044   1.9064
  1.9072   1.9090   1.9091   1.9092   1.9116   1.9131   1.9138   1.9153
  1.9165   1.9183   1.9209   1.9219   1.9229   1.9248   1.9260   1.9262
  1.9276   1.9290   1.9296   1.9313   1.9315   1.9331   1.9361   1.9370
  1.9397   1.9399   1.9423   1.9433   1.9445   1.9471   1.9477   1.9505
  1.9533   1.9544   1.9591   1.9615   1.9633   1.9688   1.9750   1.9784
  1.9820   1.9843   1.9885   1.9912   1.9940   1.9990   2.0036   2.0090
  2.0184   2.0210   2.0219   2.0275   2.0390   2.0467   2.0505   2.0530
  2.0563   2.0591   2.0607   2.0633   2.0659   2.0673   2.0693   2.0711
  2.0735   2.0766   2.0786   2.0797   2.0807   2.0831   2.0837   2.0845
  2.0853   2.0864   2.0869   2.0887   2.0895   2.0905   2.0911   2.0930
  2.0932   2.0956   2.0963   2.0973   2.0988   2.0999   2.1005   2.1038
  2.1051   2.1053   2.1064   2.1072   2.1079   2.1090   2.1106   2.1120
  2.1141   2.1142   2.1164   2.1166   2.1191   2.1217   2.1232   2.1247
  2.1319   2.1334   2.1359   2.1422   2.1444   2.1476   2.1554   2.1598
  2.1609   2.1632   2.1637   2.1677   2.1772   2.1811   2.1832   2.1847
  2.1876   2.1909   2.1923   2.1954   2.1989   2.2037   2.2041   2.2054
  2.2074   2.2083   2.2099   2.2106   2.2116   2.2135   2.2153   2.2172
  2.2181   2.2201   2.2204   2.2222   2.2229   2.2239   2.2251   2.2281
  2.2309   2.2330   2.2353   2.2361   2.2367   2.2371   2.2391   2.2415
  2.2422   2.2428   2.2437   2.2446   2.2453   2.2475   2.2481   2.2500
  2.2508   2.2520   2.2530   2.2552   2.2557   2.2571   2.2593   2.2599
  2.2609   2.2617   2.2628   2.2641   2.2644   2.2654   2.2660   2.2671
  2.2673   2.2689   2.2690   2.2695   2.2707   2.2718   2.2727   2.2743
  2.2758   2.2760   2.2767   2.2775   2.2783   2.2794   2.2804   2.2807
  2.2821   2.2830   2.2836   2.2843   2.2851   2.2856   2.2863   2.2867
  2.2886   2.2888   2.2903   2.2904   2.2917   2.2932   2.2941   2.2945
  2.2947   2.2961   2.2972   2.2979   2.2998   2.3004   2.3007   2.3027
  2.3040   2.3041   2.3052   2.3069   2.3073   2.3081   2.3093   2.3104
  2.3108   2.3133   2.3144   2.3168   2.3191   2.3201   2.3223   2.3236
  2.3244   2.3266   2.3272   2.3276   2.3299   2.3312   2.3320   2.3332
  2.3341   2.3346   2.3363   2.3383   2.3392   2.3401   2.3405   2.3438
  2.3445   2.3462   2.3469   2.3483   2.3503   2.3513   2.3530   2.3541
  2.3598   2.3624   2.3639   2.3673   2.3705   2.3724   2.3737   2.3745
  2.3752   2.3764   2.3771   2.3805   2.3834   2.3857   2.3881   2.3906
  2.3916   2.3935   2.3940   2.3975   2.4021   2.4072   2.4107   2.4172
  2.4191   2.4400   2.4408   2.4446   2.4937   2.4999   2.5156   2.5330
  2.5833   2.6018   2.6938   2.7217   2.7362   2.7685   2.8066   2.8160
  2.8285   2.8300   2.8329   2.8364   2.8402   2.8421   2.8449   2.8489
  2.8538   2.8588   2.8639   2.8642   2.8656   2.8664   2.8672   2.8687
  2.8700   2.8729   2.8757   2.8778   2.8788   2.8806   2.8853   2.8871
  2.8880   2.8928   2.8971   2.8998   2.9130   2.9684   3.1248   3.2635
  3.9495   3.9526   3.9666   3.9710   3.9727   3.9748   3.9827   3.9851
  3.9877   3.9908   3.9923   3.9937   3.9988   4.0005   4.0039   4.0052
  4.0096   4.0109   4.0135   4.0137   4.0189   4.0218   4.0243   4.0329
  4.0393   4.0451   4.0560   4.2006   4.2142   4.2229   4.2288   4.2379
  4.2394   4.2430   4.2448   4.2473   4.2528   4.2573   4.2581   4.2605
  4.2625   4.2632   4.2639   4.2670   4.2700   4.2720   4.2745   4.2775
  4.2823   4.2880   4.2909   4.2935   4.2955   4.2989   4.3014   4.3020
  4.3035   4.3053   4.3064   4.3128   4.3143   4.3172   4.3179   4.3209
  4.3260   4.3283   4.3317   4.3339   4.3349   4.3360   4.3388   4.3427
  4.3456   4.3482   4.3501   4.3513   4.3538   4.3611   4.3665   4.3684
  4.3697   4.3737   4.3817   4.3845   4.3875   4.3909   4.3963   4.4001
  4.4031   4.4047   4.4055   4.4131   4.4222   4.4300   4.4330   4.4357
  4.4388   4.4468   4.4497   4.4624   4.4748   4.4791   4.4905   4.4945
  4.5048   4.5143   4.5340   4.5402   4.5509   4.5652   4.6186   4.6393
  4.6949   4.7195   4.7614   4.7983   4.9463
 --------------------------------------------------------------

          Ground-State Mulliken Net Atomic Charges

     Atom                 Charge (a.u.)
  ----------------------------------------
      1 C                    -0.439993
      2 C                    -0.430636
      3 C                    -0.062222
      4 C                    -0.593481
      5 C                    -0.383611
      6 C                    -0.411971
      7 H                     0.213936
      8 H                     0.236495
      9 H                     0.180391
     10 H                     0.203736
     11 H                     0.234428
     12 H                     0.192749
     13 H                     0.173163
     14 H                     0.190627
     15 H                     0.226111
     16 H                     0.234633
     17 H                     0.212097
     18 N                    -0.312187
     19 H                     0.482655
     20 C                     0.254894
     21 H                     0.161837
     22 O                    -0.563651
     23 C                    -0.921363
     24 H                     0.290381
     25 H                     0.262208
     26 H                     0.266864
     27 S                     0.945396
     28 C                    -0.877200
     29 H                     0.242327
     30 H                     0.270410
     31 H                     0.245420
     32 O                    -0.765912
     33 C                    -0.873815
     34 H                     0.307938
     35 H                     0.245734
     36 H                     0.245999
     37 S                     0.926587
     38 C                    -0.817239
     39 H                     0.223883
     40 H                     0.257395
     41 H                     0.255096
     42 O                    -0.748414
     43 C                    -0.914207
     44 H                     0.237216
     45 H                     0.244491
     46 H                     0.265682
     47 S                     1.016245
     48 C                    -1.006422
     49 H                     0.285412
     50 H                     0.289844
     51 H                     0.307251
     52 O                    -0.676366
     53 C                    -0.818036
     54 H                     0.222692
     55 H                     0.249013
     56 H                     0.252900
     57 S                     0.960922
     58 C                    -0.940099
     59 H                     0.280964
     60 H                     0.246165
     61 H                     0.248777
     62 O                    -0.690895
     63 C                    -0.680684
     64 H                     0.286394
     65 H                     0.241697
     66 H                     0.244858
     67 S                     0.735825
     68 C                    -0.804170
     69 H                     0.227997
     70 H                     0.258161
     71 H                     0.265394
     72 O                    -0.723663
     73 C                    -0.760236
     74 H                     0.250458
     75 H                     0.307541
     76 H                     0.233962
     77 S                     0.729464
     78 C                    -0.804025
     79 H                     0.246530
     80 H                     0.269112
     81 H                     0.227014
     82 O                    -0.703183
     83 C                    -1.097169
     84 H                     0.322195
     85 H                     0.237417
     86 H                     0.233605
     87 S                     1.366255
     88 C                    -1.387332
     89 H                     0.283409
     90 H                     0.259941
     91 H                     0.326697
     92 O                    -0.678117
     93 C                    -0.974588
     94 H                     0.258813
     95 H                     0.293304
     96 H                     0.222106
     97 S                     1.263233
     98 C                    -1.075709
     99 H                     0.250669
    100 H                     0.270844
    101 H                     0.281056
    102 O                    -0.739721
    103 C                    -1.090043
    104 H                     0.272691
    105 H                     0.235571
    106 H                     0.255998
    107 S                     1.210563
    108 C                    -0.969007
    109 H                     0.290918
    110 H                     0.279564
    111 H                     0.261925
    112 O                    -0.762847
    113 C                    -0.786452
    114 H                     0.248588
    115 H                     0.242019
    116 H                     0.263314
    117 S                     0.523609
    118 C                    -0.789404
    119 H                     0.231912
    120 H                     0.323068
    121 H                     0.284396
    122 O                    -0.655983
    123 C                    -0.892317
    124 H                     0.250513
    125 H                     0.248273
    126 H                     0.287669
    127 S                     0.882971
    128 C                    -0.852294
    129 H                     0.241384
    130 H                     0.254286
    131 H                     0.275843
    132 O                    -0.712872
    133 C                    -0.975059
    134 H                     0.276834
    135 H                     0.279421
    136 H                     0.258714
    137 S                     1.114298
    138 C                    -1.061881
    139 H                     0.255333
    140 H                     0.232354
    141 H                     0.261109
    142 O                    -0.667315
    143 C                    -1.185444
    144 H                     0.219836
    145 H                     0.295888
    146 H                     0.251715
    147 S                     1.102533
    148 C                    -0.877604
    149 H                     0.262070
    150 H                     0.215026
    151 H                     0.266193
    152 O                    -0.644308
    153 C                    -0.715554
    154 H                     0.284923
    155 H                     0.235652
    156 H                     0.243193
    157 S                     0.708773
    158 C                    -0.751765
    159 H                     0.226542
    160 H                     0.294981
    161 H                     0.252126
    162 O                    -0.608699
    163 C                    -0.850263
    164 H                     0.279032
    165 H                     0.276558
    166 H                     0.280847
    167 S                     0.952110
    168 C                    -0.869106
    169 H                     0.239610
    170 H                     0.275424
    171 H                     0.255255
    172 O                    -0.740686
    173 C                    -1.364192
    174 H                     0.230739
    175 H                     0.302571
    176 H                     0.303094
    177 S                     1.629451
    178 C                    -1.047250
    179 H                     0.250604
    180 H                     0.264086
    181 H                     0.319208
    182 O                    -0.769393
    183 C                    -0.922246
    184 H                     0.267036
    185 H                     0.264018
    186 H                     0.259835
    187 S                     1.107426
    188 C                    -0.950221
    189 H                     0.253640
    190 H                     0.248351
    191 H                     0.249598
    192 O                    -0.742764
    193 C                    -0.850923
    194 H                     0.240412
    195 H                     0.250006
    196 H                     0.244666
    197 S                     0.908188
    198 C                    -0.907527
    199 H                     0.260405
    200 H                     0.238431
    201 H                     0.250595
    202 O                    -0.656013
    203 C                    -0.927179
    204 H                     0.257850
    205 H                     0.236431
    206 H                     0.296504
    207 S                     0.856608
    208 C                    -0.806983
    209 H                     0.266220
    210 H                     0.225115
    211 H                     0.249831
    212 O                    -0.665171
    213 C                    -0.799997
    214 H                     0.256245
    215 H                     0.225364
    216 H                     0.253730
    217 S                     0.782562
    218 C                    -0.804562
    219 H                     0.281105
    220 H                     0.274043
    221 H                     0.277242
    222 O                    -0.700413
    223 C                    -0.929916
    224 H                     0.260166
    225 H                     0.233357
    226 H                     0.255877
    227 S                     1.162764
    228 C                    -1.246380
    229 H                     0.286883
    230 H                     0.302844
    231 H                     0.282335
    232 O                    -0.649314
    233 C                    -0.929841
    234 H                     0.247775
    235 H                     0.255402
    236 H                     0.240535
    237 S                     0.926778
    238 C                    -0.806690
    239 H                     0.244395
    240 H                     0.261078
    241 H                     0.267102
    242 O                    -0.669691
    243 C                    -0.985893
    244 H                     0.233220
    245 H                     0.252179
    246 H                     0.245293
    247 S                     1.055548
    248 C                    -0.977651
    249 H                     0.271973
    250 H                     0.263952
    251 H                     0.242498
    252 O                    -0.615021
    253 C                    -0.990123
    254 H                     0.243870
    255 H                     0.287446
    256 H                     0.280546
    257 S                     1.025965
    258 C                    -0.988060
    259 H                     0.252588
    260 H                     0.244566
    261 H                     0.293477
    262 O                    -0.675056
    263 C                    -0.881395
    264 H                     0.242130
    265 H                     0.232328
    266 H                     0.331964
    267 S                     0.660916
    268 C                    -0.798423
    269 H                     0.296836
    270 H                     0.273259
    271 H                     0.237763
    272 O                    -0.717371
    273 C                    -0.759098
    274 H                     0.278402
    275 H                     0.243551
    276 H                     0.256012
    277 S                     0.651687
    278 C                    -0.705096
    279 H                     0.238976
    280 H                     0.259123
    281 H                     0.254344
    282 O                    -0.728318
    283 C                    -0.841733
    284 H                     0.284881
    285 H                     0.242607
    286 H                     0.240402
    287 S                     0.740804
    288 C                    -0.766750
    289 H                     0.246006
    290 H                     0.248706
    291 H                     0.240789
    292 O                    -0.637577
  ----------------------------------------
  Sum of atomic charges =     0.000000

 -----------------------------------------------------------------
                    Cartesian Multipole Moments
 -----------------------------------------------------------------
    Charge (ESU x 10^10)
                 0.0000
    Dipole Moment (Debye)
         X      12.6306      Y      -1.5945      Z      -1.8369
       Tot      12.8627
    Quadrupole Moments (Debye-Ang)
        XX     -94.3841     XY     309.7440     YY   -1067.4535
        XZ     304.6668     YZ    -107.3575     ZZ   -1030.7952
    Octopole Moments (Debye-Ang^2)
       XXX  -37794.9078    XXY   -3316.9790    XYY  -19959.1434
       YYY  -80835.4649    XXZ   -2905.6612    XYZ    7406.9931
       YYZ  -31156.7080    XZZ  -19510.7523    YZZ  -29261.3954
       ZZZ  -79310.2279
    Hexadecapole Moments (Debye-Ang^3)
      XXXX ************   XXXY ************   XXYY -916398.0994
      XYYY ************   YYYY ************   XXXZ ************
      XXYZ  -85217.5214   XYYZ -570695.5218   YYYZ ************
      XXZZ -884061.2681   XYZZ -533430.9739   YYZZ ************
      XZZZ ************   YZZZ ************   ZZZZ ************
 -----------------------------------------------------------------
 Total job time:  30436.20s(wall), 254697.69s(cpu) 
 Thu Jul 21 14:32:17 2022

        *************************************************************
        *                                                           *
        *  Thank you very much for using Q-Chem.  Have a nice day.  *
        *                                                           *
        *************************************************************


 
User input: 2 of 2 
 
                  Welcome to Q-Chem
     A Quantum Leap Into The Future Of Chemistry


 Q-Chem 6.0 (devel), Q-Chem, Inc., Pleasanton, CA (2022)

 E. Epifanovsky,  A. T. B. Gilbert,  Xintian Feng,  Joonho Lee,  Yuezhi Mao,  
 N. Mardirossian,  P. Pokhilko,  A. White,  M. Wormit,  M. P. Coons,  
 A. L. Dempwolff,  Zhengting Gan,  D. Hait,  P. R. Horn,  L. D. Jacobson,  
 I. Kaliman,  J. Kussmann,  A. W. Lange,  Ka Un Lao,  D. S. Levine,  Jie Liu,  
 S. C. McKenzie,  A. F. Morrison,  K. Nanda,  F. Plasser,  D. R. Rehn,  
 M. L. Vidal,  Zhi-Qiang You,  Ying Zhu,  B. Alam,  B. Albrecht,  
 A. Aldossary,  E. Alguire,  J. H. Andersen,  V. Athavale,  D. Barton,  
[...]
          205         206         207         208         209         210
    1  -2.3105874  -3.0450873  -0.7952328   0.0602099   0.4339913   1.2633352
    2   1.5103558   0.4944848   1.6623355   2.6137467   0.9354573   3.7765715
    3   3.6862388   0.5914826   0.7030285   2.6251506   2.7906646   1.5291018
          211         212         213         214         215         216
    1  -1.5251354  -3.0510018  -2.6315782  -3.2965681  -3.7782805  -0.9111729
    2   2.8324817   3.6120242  -0.1476559   1.4350277  -1.2666009  -0.1557161
    3   3.5037517   0.4821845   2.0642742   2.9892403   1.3422730   2.0074500
          217         218         219         220         221         222
    1  -3.1615986  -1.1145109  -1.1367300   0.5566584  -2.5132742  -1.3908310
    2   0.2538943  -0.5945781   0.3735738  -0.2666610  -1.7894522   2.6883729
    3   0.0588356  -0.4027019  -1.6223505   0.6977308  -0.2105837   1.2451084
          223         224         225         226         227         228
    1   2.4099066   3.8040043   1.5885408   1.4830774   0.2004067   1.4574335
    2   2.9313290   1.6631135   4.1400488   3.1082527   1.2172091  -0.1059079
    3   0.1060957  -0.8104753  -0.6588267   2.0028762   0.4353395   0.8279662
          229         230         231         232         233         234
    1   2.0055062  -0.3174501   2.4939625   1.3095590  -1.8132125  -0.3794163
    2   1.3196363  -1.2033350  -0.5470199   0.5836676  -3.2671947  -3.2926481
    3   1.5918920   1.1434879  -0.8781949  -2.2985519   0.7758469   2.4785956
          235         236         237         238         239         240
    1  -3.4857325  -1.0371344  -1.6061020   0.5395754   0.3659666   0.1812547
    2  -2.2854739  -3.9159210  -2.0384323  -2.6951173  -3.5369204  -3.8825029
    3   1.0409479  -0.8632804  -0.4183796   0.3417503   2.3588010  -1.0829420
          241         242         243         244         245         246
    1   0.7799254  -2.0852089  -3.5506161  -2.6861174  -3.7265241  -3.9043286
    2  -0.8443975  -0.6064753   0.7395504   1.6797154  -1.2539811   1.6530156
    3   0.2732179   2.4995820  -1.8080958  -3.3651912  -1.8572961  -0.0231260
          247         248         249         250         251         252
    1  -1.8488489  -1.4578810   0.2741181  -2.4701137  -1.9051798  -2.5116636
    2   1.2072815  -0.6096338  -0.3156529  -2.1391735   0.6891219  -1.1231398
    3  -1.8078317  -3.2736295  -3.1765394  -2.3267254  -4.3618828   0.7161351
          253         254         255         256         257         258
    1  -0.5077217   1.0557691  -1.4870075  -1.1480834   0.9604935   0.2972950
    2  -0.0009102   0.7912714  -0.9139692   0.2417514  -1.6095200  -2.8894561
    3  -0.6574012  -0.6785548  -1.8869445   1.2183685  -0.5026982  -2.4045422
          259         260         261         262         263         264
    1   0.6267313  -1.1521283   1.4991041  -1.3735463   0.2480944   0.1163376
    2  -4.4940459  -2.0773405  -1.7655367  -3.0975784   2.2267962   3.9114034
    3  -1.7889228  -2.8013600  -2.9377029   0.8717866   0.5228829   1.5157895
          265         266         267         268         269         270
    1   1.7681963  -1.2564400   1.0864135   1.1049311  -0.1373496   2.4611901
    2   2.0053585   0.2726856   1.8888938  -0.0961312  -0.2941286   0.9025094
    3   0.0036276   0.0926103   2.4176358   1.5077242  -0.3582402   1.5271714
          271         272         273         274         275         276
    1   0.4372489  -1.8630105   1.0198963   1.7174949   0.1989858   1.0353716
    2  -0.8032909   0.6843318  -1.1910531  -2.2243192  -2.4233678   0.9262774
    3   2.9502461   3.1343996  -3.1782861  -1.8015399  -4.0206735  -3.4461047
          277         278         279         280         281         282
    1  -1.0248504  -1.9852751  -1.5209615  -3.5027140  -0.6225097  -0.5869287
    2  -1.7250059   0.0007435  -1.3219394  -0.0050052   1.4981594   0.5226632
    3  -2.5509935  -3.1315071  -4.1397890  -1.5055330  -3.3102711  -0.4744473
          283         284         285         286         287         288
    1   2.7314016   2.6490358   3.0076137   2.3797456   0.5289186   0.0917408
    2   0.4328533  -1.0117123   0.9516334   1.4861171   0.9471791  -0.8351681
    3   1.8806409   1.9098475   0.0668788   3.5068592   1.9247627   3.0901547
          289         290         291         292
    1   0.9428732   0.8424563  -1.4717067   0.3904386
    2  -2.1130709   0.3695741  -0.6780168  -1.1695515
    3   2.0589636   4.4665632   2.6459888  -0.8766991
 EField
            1           2           3           4           5           6
    1  -0.0028234  -0.0018708   0.0000613   0.0031714   0.0003994  -0.0014607
    2   0.0023910  -0.0014414  -0.0006348   0.0021151   0.0032419   0.0015154
    3   0.0008293  -0.0029717  -0.0042750  -0.0021029  -0.0000729   0.0010301
            7           8           9          10          11          12
    1  -0.0002954   0.0032824  -0.0011247  -0.0056967   0.0122483   0.0014128
    2  -0.0060667  -0.0091121   0.0080789   0.0001150   0.0048983   0.0007997
    3  -0.0066901   0.0032100   0.0025067  -0.0004854  -0.0026216  -0.0056087
           13          14          15          16          17          18
    1  -0.0020905   0.0004048  -0.0044885  -0.0003787  -0.0031586  -0.0111787
    2   0.0055969   0.0024499   0.0060418  -0.0065352   0.0023963  -0.0029127
    3  -0.0018692   0.0018978   0.0073059  -0.0051432  -0.0034261  -0.0164732
           19          20          21          22          23          24
    1  -0.0304726  -0.0076126  -0.0064006  -0.0061474   0.0040499  -0.0077511
    2   0.0063818  -0.0086797  -0.0117928  -0.0061292  -0.0111869  -0.0292352
    3  -0.0276537  -0.0164776  -0.0134464  -0.0123791  -0.0025106  -0.0160551
           25          26          27          28          29          30
    1   0.0321283   0.0066441   0.0121733  -0.0029850  -0.0136181  -0.0165099
    2  -0.0039354  -0.0145213   0.0369791  -0.0047873  -0.0236887  -0.0164242
    3  -0.0089477   0.0255823   0.0358736   0.0008143  -0.0191317   0.0314503
           31          32          33          34          35          36
    1  -0.0284707   0.0017743   0.0000033  -0.0066516   0.0300485  -0.0207267
    2   0.0156029   0.0065283  -0.0094427   0.0031072  -0.0135272  -0.0199256
    3  -0.0039797  -0.1089483  -0.0083003  -0.0279716  -0.0054115   0.0116328
           37          38          39          40          41          42
    1   0.0417031   0.0014156   0.0304676   0.0051218  -0.0232192  -0.1028895
    2   0.0297089  -0.0015045  -0.0216646   0.0223096  -0.0171791   0.0338723
    3  -0.0153452   0.0047276   0.0183133   0.0226928   0.0062857   0.0042444
           43          44          45          46          47          48
    1   0.0030755  -0.0008645   0.0265756   0.0030840   0.0136829  -0.0037880
    2   0.0003246  -0.0269860   0.0063364   0.0206921  -0.0314634   0.0108809
    3   0.0083111   0.0200684  -0.0129081   0.0274421  -0.0519967   0.0027174
           49          50          51          52          53          54
    1  -0.0293055   0.0052062   0.0065304  -0.0900429   0.0060849   0.0105302
    2   0.0101011   0.0223588   0.0120377  -0.0287575  -0.0010627  -0.0298042
    3  -0.0152624   0.0288885  -0.0233379   0.0579061  -0.0009033  -0.0208241
           55          56          57          58          59          60
    1   0.0220632   0.0113629  -0.0371000  -0.0030482  -0.0273940   0.0230915
    2   0.0216043  -0.0111219  -0.0469772   0.0058992   0.0178214   0.0194397
    3  -0.0085068   0.0255741   0.0174506  -0.0087782  -0.0130222  -0.0124918
           61          62          63          64          65          66
    1  -0.0066873   0.0077755   0.0017254   0.0168567  -0.0148448  -0.0113365
    2  -0.0284936   0.0905811   0.0061656   0.0237586  -0.0113288   0.0271705
    3  -0.0140223   0.0611673  -0.0064102  -0.0181455  -0.0248264   0.0161299
           67          68          69          70          71          72
    1  -0.0401440   0.0049252  -0.0028527   0.0138716   0.0139045   0.0627582
    2  -0.0143059   0.0034885   0.0286714  -0.0224565   0.0206028  -0.0752930
    3   0.0359331   0.0028035   0.0229856   0.0164821  -0.0182089  -0.0502457
           73          74          75          76          77          78
    1  -0.0033540  -0.0292020   0.0104430   0.0072672   0.0500815  -0.0053472
    2  -0.0059536  -0.0122140  -0.0231754   0.0217675   0.0269109   0.0005164
    3   0.0044758   0.0121352   0.0185632   0.0226574  -0.0046996  -0.0036915
           79          80          81          82          83          84
    1   0.0025515  -0.0237852  -0.0095225  -0.0206118  -0.0042389  -0.0177514
    2   0.0249700  -0.0230279   0.0278061  -0.0957820   0.0048062   0.0223960
    3  -0.0244506  -0.0041933   0.0163508  -0.0531078  -0.0002729   0.0225399
           85          86          87          88          89          90
    1   0.0174398  -0.0126975  -0.0373343   0.0070586   0.0203528  -0.0194351
    2   0.0204445  -0.0059748  -0.0244182  -0.0001948   0.0002296   0.0251511
    3  -0.0146229  -0.0288736   0.0346645   0.0081549  -0.0230763   0.0084919
           91          92          93          94          95          96
    1   0.0222609   0.0602430  -0.0007575  -0.0061073  -0.0153558   0.0317618
    2  -0.0213108  -0.0481565   0.0007557   0.0333089  -0.0143882   0.0045643
    3   0.0218434  -0.0766152   0.0093594  -0.0054680   0.0257431   0.0043133
           97          98          99         100         101         102
    1   0.0117240  -0.0080911  -0.0024123  -0.0169859  -0.0201633   0.0284922
    2   0.0240927  -0.0017950  -0.0109846   0.0267841  -0.0131129  -0.1016322
    3  -0.0487446  -0.0007498   0.0289011  -0.0082675  -0.0227313   0.0320541
          103         104         105         106         107         108
    1  -0.0078305   0.0059892   0.0211940  -0.0369453   0.0058958  -0.0135730
    2   0.0002720  -0.0041923   0.0192803   0.0121196   0.0061823  -0.0051533
    3   0.0042144   0.0306467  -0.0066819  -0.0024696  -0.0549525   0.0036116
          109         110         111         112         113         114
    1  -0.0193652  -0.0272219   0.0232978   0.0856088  -0.0095394  -0.0211578
    2   0.0045454  -0.0018525  -0.0207152  -0.0283327  -0.0050322   0.0291358
    3   0.0274066  -0.0189779   0.0074362   0.0641504   0.0016151  -0.0009988
          115         116         117         118         119         120
    1   0.0058981  -0.0020119   0.0431181  -0.0012399  -0.0259093  -0.0067743
    2  -0.0041504  -0.0335527  -0.0394228   0.0003945   0.0151033  -0.0318815
    3  -0.0264988   0.0134248   0.0032343   0.0089471  -0.0008397   0.0204073
          121         122         123         124         125         126
    1   0.0176216   0.0062989   0.0041365   0.0239329   0.0057884   0.0210636
    2   0.0297921   0.0828685  -0.0061740   0.0161347  -0.0254431  -0.0035358
    3   0.0008401  -0.0730757  -0.0049452   0.0025813   0.0272161  -0.0349348
          127         128         129         130         131         132
    1  -0.0276874  -0.0064484  -0.0069723  -0.0296085   0.0124842   0.0010530
    2  -0.0159637  -0.0058437  -0.0337452   0.0146695   0.0116747   0.1037864
    3   0.0494825  -0.0060361   0.0054347  -0.0154344  -0.0273957  -0.0356952
          133         134         135         136         137         138
    1  -0.0042210   0.0011137   0.0146745  -0.0325980  -0.0124842   0.0060000
    2   0.0064088   0.0318497   0.0170758  -0.0051988  -0.0091986   0.0060491
    3  -0.0042257   0.0141721  -0.0236305   0.0011070   0.0598958  -0.0018480
          139         140         141         142         143         144
    1   0.0011922   0.0144222  -0.0038033   0.0036638   0.0023918   0.0370478
    2   0.0329863  -0.0235022   0.0103429  -0.0787885   0.0054385   0.0085108
    3   0.0113308   0.0152246  -0.0311022  -0.0750001  -0.0041305   0.0019396
          145         146         147         148         149         150
    1   0.0073929  -0.0147440  -0.0216173   0.0033282  -0.0124704   0.0228972
    2   0.0100696   0.0234708  -0.0096608  -0.0063715   0.0043772  -0.0020237
    3  -0.0256249   0.0182494   0.0467685  -0.0023890  -0.0357436   0.0282616
          151         152         153         154         155         156
    1  -0.0011880  -0.0585119   0.0074416   0.0012684  -0.0044461   0.0271333
    2  -0.0378501   0.0055922   0.0017663  -0.0285866   0.0201717   0.0076993
    3   0.0008950  -0.0952540  -0.0030001  -0.0103342  -0.0276949   0.0154837
          157         158         159         160         161         162
    1  -0.0490718  -0.0016033  -0.0034426  -0.0275082   0.0316997   0.0350018
    2  -0.0092149   0.0084559   0.0340444  -0.0028083   0.0022094  -0.0604108
    3  -0.0259982   0.0024500  -0.0195033   0.0191853   0.0073732   0.0808499
          163         164         165         166         167         168
    1  -0.0093501  -0.0158736   0.0004227  -0.0246845   0.0446569  -0.0050381
    2   0.0097726  -0.0245566   0.0209143   0.0022978   0.0163971   0.0041219
    3   0.0027293   0.0190114   0.0342539  -0.0243285   0.0247089  -0.0063394
          169         170         171         172         173         174
    1   0.0103367  -0.0283607   0.0020216  -0.0322191   0.0006629   0.0312861
    2  -0.0250773   0.0028163   0.0366340  -0.1049482  -0.0032800  -0.0015473
    3  -0.0180559  -0.0161120  -0.0047793  -0.0054845   0.0065418   0.0161401
          175         176         177         178         179         180
    1  -0.0134873  -0.0026055  -0.0427029   0.0067714   0.0207738  -0.0034709
    2  -0.0040288  -0.0250900   0.0069018  -0.0010090  -0.0026235  -0.0311213
    3   0.0303595  -0.0205694  -0.0256499  -0.0069887   0.0268562  -0.0160562
          181         182         183         184         185         186
    1   0.0046832   0.0734877   0.0035588   0.0180304  -0.0250929   0.0162091
    2   0.0319112   0.0729073  -0.0009142   0.0099044  -0.0230575  -0.0339021
    3  -0.0117060   0.0622285   0.0059003   0.0273312  -0.0028442   0.0065463
          187         188         189         190         191         192
    1   0.0459381   0.0005015  -0.0097998  -0.0334803   0.0265837  -0.0921786
    2   0.0113154   0.0064743   0.0278550  -0.0130372   0.0208224  -0.0299546
    3  -0.0192406   0.0035408  -0.0113683  -0.0012444   0.0172426  -0.0523584
          193         194         195         196         197         198
    1   0.0056873   0.0027186   0.0060655   0.0272904  -0.0465325   0.0032746
    2  -0.0028323  -0.0019594  -0.0290138   0.0147777  -0.0313136   0.0028754
    3   0.0032712   0.0319922  -0.0161702   0.0061167  -0.0068033  -0.0075630
          199         200         201         202         203         204
    1  -0.0126996   0.0296224  -0.0057149   0.0039370  -0.0069353   0.0257452
    2   0.0206942   0.0115303  -0.0242902   0.0937593  -0.0076020  -0.0196850
    3  -0.0206005   0.0039454  -0.0261226   0.0560545   0.0031842  -0.0010509
          205         206         207         208         209         210
    1  -0.0274278  -0.0297653   0.0356710   0.0025640   0.0079507   0.0148121
    2   0.0135634  -0.0154405  -0.0199496   0.0004241  -0.0242452   0.0303077
    3   0.0249610  -0.0101041  -0.0473153   0.0062703   0.0221609  -0.0075766
          211         212         213         214         215         216
    1  -0.0165162  -0.0798792   0.0021619  -0.0035268  -0.0124528   0.0187685
    2   0.0141938   0.0745702  -0.0041289   0.0304679  -0.0355691  -0.0133264
    3   0.0239970  -0.0170622   0.0099969   0.0196852  -0.0089923   0.0180772
          217         218         219         220         221         222
    1  -0.0487558   0.0073670   0.0010048   0.0242480  -0.0073140   0.0449620
    2  -0.0059844  -0.0068939  -0.0007767   0.0019445  -0.0347146   0.0946776
    3  -0.0305090  -0.0073652  -0.0372780   0.0211637  -0.0163011   0.0268575
          223         224         225         226         227         228
    1   0.0018977   0.0302006   0.0002248   0.0227488  -0.0502278   0.0098489
    2   0.0068861  -0.0040808   0.0222886   0.0092158   0.0163498  -0.0077518
    3   0.0017354  -0.0071102  -0.0271680   0.0364653   0.0204070   0.0002960
          229         230         231         232         233         234
    1   0.0132980  -0.0054934   0.0226661   0.0140727  -0.0025327   0.0120269
    2   0.0186551  -0.0266770  -0.0174009  -0.0253478  -0.0074635  -0.0042706
    3   0.0230915   0.0079154  -0.0251481  -0.1065547   0.0047626   0.0315883
          235         236         237         238         239         240
    1  -0.0302629   0.0008263  -0.0175101   0.0071050   0.0177770   0.0119034
    2   0.0022649  -0.0215144   0.0127193  -0.0014350  -0.0074381  -0.0130509
    3   0.0059708  -0.0272052  -0.0555464   0.0029807   0.0300248  -0.0297140
          241         242         243         244         245         246
    1   0.0266864  -0.0214226  -0.0072364  -0.0029950  -0.0074938  -0.0184739
    2   0.0179062   0.0649253   0.0007539   0.0264434  -0.0354322   0.0157642
    3  -0.0064799   0.0868627  -0.0015887  -0.0241464   0.0065155   0.0186114
          247         248         249         250         251         252
    1   0.0273487   0.0051293   0.0332355  -0.0079806  -0.0134258  -0.0068478
    2   0.0503009  -0.0057319  -0.0144273  -0.0285670   0.0118017  -0.0661867
    3  -0.0022433  -0.0041160  -0.0014506   0.0075111  -0.0278720   0.0876595
          253         254         255         256         257         258
    1  -0.0056495   0.0190614  -0.0153753  -0.0150628   0.0573348   0.0011497
    2   0.0083722   0.0236230   0.0084361   0.0018007   0.0109043   0.0005419
    3  -0.0026260  -0.0193353  -0.0295248   0.0338926   0.0165704  -0.0096215
          259         260         261         262         263         264
    1   0.0043051  -0.0347874   0.0365112  -0.0696442  -0.0021798  -0.0083322
    2  -0.0290194  -0.0018080   0.0065787  -0.0533161   0.0047464   0.0286424
    3   0.0010421  -0.0069187  -0.0182145   0.0628923  -0.0078669  -0.0076095
          265         266         267         268         269         270
    1   0.0270233  -0.0291241   0.0375959   0.0075013  -0.0031699   0.0356360
    2   0.0128870  -0.0015702   0.0363649  -0.0044275  -0.0126680   0.0073875
    3  -0.0162581  -0.0095046   0.0321557  -0.0016442  -0.0185287  -0.0047905
          271         272         273         274         275         276
    1  -0.0020865  -0.0986603   0.0072997   0.0243199  -0.0003880   0.0173624
    2  -0.0189150  -0.0275728   0.0009766  -0.0048573  -0.0145157   0.0265868
    3   0.0267038   0.0402819  -0.0028311   0.0220658  -0.0327314  -0.0099073
          277         278         279         280         281         282
    1  -0.0224442  -0.0021723  -0.0178640  -0.0326942   0.0135693   0.0168407
    2  -0.0578579   0.0062222  -0.0212210   0.0051452   0.0339309   0.0656297
    3   0.0067893  -0.0047165  -0.0244408   0.0066217   0.0022544   0.0867428
          283         284         285         286         287         288
    1   0.0089881   0.0126801   0.0207505   0.0129770  -0.0200666   0.0000049
    2  -0.0050692  -0.0280428   0.0056943   0.0178360   0.0451586  -0.0080604
    3   0.0019065   0.0048747  -0.0248529   0.0264328   0.0093431   0.0059703
          289         290         291         292
    1   0.0084773   0.0115366  -0.0292084  -0.0121163
    2  -0.0263552   0.0031793  -0.0117833  -0.0626783
    3  -0.0047231   0.0323363  -0.0019010  -0.0947101
  --- DONE ESP SUMMARY ---
 Total job time:  29.99s(wall), 80.16s(cpu) 
 Thu Jul 21 14:32:47 2022

        *************************************************************
        *                                                           *
        *  Thank you very much for using Q-Chem.  Have a nice day.  *
        *                                                           *
        *************************************************************


