                  Welcome to Q-Chem
     A Quantum Leap Into The Future Of Chemistry


 Q-Chem 6.0 (devel), Q-Chem, Inc., Pleasanton, CA (2022)

 E. Epifanovsky,  A. T. B. Gilbert,  Xintian Feng,  Joonho Lee,  Yuezhi Mao,  
 N. Mardirossian,  P. Pokhilko,  A. White,  M. Wormit,  M. P. Coons,  
 A. L. Dempwolff,  Zhengting Gan,  D. Hait,  P. R. Horn,  L. D. Jacobson,  
 I. Kaliman,  J. Kussmann,  A. W. Lange,  Ka Un Lao,  D. S. Levine,  Jie Liu,  
 S. C. McKenzie,  A. F. Morrison,  K. Nanda,  F. Plasser,  D. R. Rehn,  
 M. L. Vidal,  Zhi-Qiang You,  Ying Zhu,  B. Alam,  B. Albrecht,  
 A. Aldossary,  E. Alguire,  J. H. Andersen,  V. Athavale,  D. Barton,  
 K. Begam,  A. Behn,  N. Bellonzi,  Y. A. Bernard,  E. J. Berquist,  
 H. Burton,  A. Carreras,  K. Carter-Fenk,  Romit Chakraborty,  
 Chandrima Chakravarty,  Junhan Chen,  A. D. Chien,  K. D. Closser,  
 V. Cofer-Shabica,  L. Cunha,  S. Dasgupta,  Jia Deng,  M. de Wergifosse,  
 M. Diedenhofen,  Hainam Do,  S. Ehlert,  Po-Tung Fang,  S. Fatehi,  
 Qingguo Feng,  T. Friedhoff,  B. Ganoe,  J. Gayvert,  Qinghui Ge,  
 G. Gidofalvi,  M. Goldey,  J. Gomes,  C. Gonzalez-Espinoza,  S. Gulania,  
 A. Gunina,  J. A. Gyamfi,  M. W. D. Hanson-Heine,  P. H. P. Harbach,  
 A. W. Hauser,  M. F. Herbst,  M. Hernandez Vera,  M. Hodecker,  
 Z. C. Holden,  S. Houck,  Xunkun Huang,  Kerwin Hui,  B. C. Huynh,  
 K. Ikeda,  M. Ivanov,  Hyunjun Ji,  Zuxin Jin,  Hanjie Jiang,  B. Kaduk,  
 S. Kaehler,  R. Kang,  K. Khistyaev,  Jaehoon Kim,  Yongbin Kim,  
 P. Klunzinger,  Z. Koczor-Benda,  Joong Hoon Koh,  D. Kosenkov,  
 Saikiran Kotaru,  L. Koulias,  T. Kowalczyk,  C. M. Krauter,  K. Kue,  
 A. Kunitsa,  T. Kus,  A. Landau,  K. V. Lawler,  D. Lefrancois,  S. Lehtola,  
 Rain Li,  Shaozhi Li,  Yi-Pei Li,  Jiashu Liang,  M. Liebenthal,  
 Hung-Hsuan Lin,  You-Sheng Lin,  Fenglai Liu,  Kuan-Yu Liu,  
 M. Loipersberger,  A. Luenser,  C. Malbon,  A. Manjanath,  P. Manohar,  
 E. Mansoor,  S. F. Manzer,  Shan-Ping Mao,  A. V. Marenich,  T. Markovich,  
 S. Mason,  F. Matz,  S. A. Maurer,  P. F. McLaughlin,  M. F. S. J. Menger,  
 J.-M. Mewes,  S. A. Mewes,  P. Morgante,  Mohammad Mostafanejad,  
 J. W. Mullinax,  K. J. Oosterbaan,  G. Paran,  V. Parravicini,  
 Alexander C. Paul,  Suranjan K. Paul,  F. Pavosevic,  Zheng Pei,  S. Prager,  
 E. I. Proynov,  E. Ramos,  B. Rana,  A. E. Rask,  A. Rettig,  R. M. Richard,  
 F. Rob,  E. Rossomme,  T. Scheele,  M. Scheurer,  M. Schneider,  
 P. E. Schneider,  N. Sergueev,  S. M. Sharada,  Hengyuan Shen,  
 W. Skomorowski,  D. W. Small,  C. J. Stein,  Yingli Su,  Yu-Chuan Su,  
 E. J. Sundstrom,  Zhen Tao,  J. Thirman,  Hung-Yi Tsai,  T. Tsuchimochi,  
 N. M. Tubman,  C. Utku,  S. P. Veccham,  O. Vydrov,  J. Wenzel,  
 Jonathan Wong,  J. Witte,  A. Yamada,  Chou-Hsun Yang,  Kun Yao,  
 S. Yeganeh,  S. R. Yost,  A. Zech,  F. Zeller,  Igor Ying Zhang,  
 Xing Zhang,  Yu Zhang,  D. Zuev,  A. Aspuru-Guzik,  A. T. Bell,  
 N. A. Besley,  K. B. Bravaya,  B. R. Brooks,  D. Casanova,  Jeng-Da Chai,  
 Hsing-Ta Chen,  S. Coriani,  C. J. Cramer,  A. E. DePrince, III,  
 R. A. DiStasio Jr.,  A. Dreuw,  B. D. Dunietz,  T. R. Furlani,  
 W. A. Goddard III,  S. Grimme,  S. Hammes-Schiffer,  T. Head-Gordon,  
 W. J. Hehre,  Chao-Ping Hsu,  T.-C. Jagau,  Yousung Jung,  A. Klamt,  
 Jing Kong,  D. S. Lambrecht,  Xiangyuan Li,  WanZhen Liang,  N. J. Mayhall,  
 C. W. McCurdy,  J. B. Neaton,  T. Neudecker,  C. Ochsenfeld,  
 J. A. Parkhill,  R. Peverati,  V. A. Rassolov,  Haisheng Ren,  Yihan Shao,  
 L. V. Slipchenko,  R. P. Steele,  J. E. Subotnik,  A. J. W. Thom,  
 A. Tkatchenko,  D. G. Truhlar,  T. Van Voorhis,  Fan Wang,  
 T. A. Wesolowski,  K. B. Whaley,  H. L. Woodcock III,  P. M. Zimmerman,  
 S. Faraji,  P. M. W. Gill,  M. Head-Gordon,  J. M. Herbert,  A. I. Krylov

 Contributors to earlier versions of Q-Chem not listed above: 
 R. D. Adamson,  B. Austin,  R. Baer,  J. Baker,  G. J. O. Beran,  
 K. Brandhorst,  S. T. Brown,  E. F. C. Byrd,  Arup K. Chakraborty,  
 G. K. L. Chan,  Chun-Min Chang,  Yunqing Chen,  C.-L. Cheng,  
 Siu Hung Chien,  D. M. Chipman,  D. L. Crittenden,  H. Dachsel,  
 R. J. Doerksen,  A. D. Dutoi,  R. G. Edgar,  J. Fosso-Tande,  
 L. Fusti-Molnar,  D. Ghosh,  A. Ghysels,  A. Golubeva-Zadorozhnaya,  
 J. Gonthier,  M. S. Gordon,  S. R. Gwaltney,  G. Hawkins,  J. E. Herr,  
 A. Heyden,  S. Hirata,  E. G. Hohenstein,  G. Kedziora,  F. J. Keil,  
 C. Kelley,  Jihan Kim,  R. A. King,  R. Z. Khaliullin,  P. P. Korambath,  
 W. Kurlancheek,  A. Laurent,  A. M. Lee,  M. S. Lee,  S. V. Levchenko,  
 Ching Yeh Lin,  D. Liotard,  E. Livshits,  R. C. Lochan,  I. Lotan,  
 L. A. Martinez-Martinez,  P. E. Maslen,  N. Nair,  D. P. O'Neill,  
 D. Neuhauser,  E. Neuscamman,  C. M. Oana,  R. Olivares-Amaya,  R. Olson,  
 T. M. Perrine,  B. Peters,  P. A. Pieniazek,  A. Prociuk,  Y. M. Rhee,  
 J. Ritchie,  M. A. Rohrdanz,  E. Rosta,  N. J. Russ,  H. F. Schaefer III,  
 M. W. Schmidt,  N. E. Schultz,  S. Sharma,  N. Shenvi,  C. D. Sherrill,  
 A. C. Simmonett,  A. Sodt,  T. Stein,  D. Stuck,  K. S. Thanthiriwatte,  
 V. Vanovschi,  L. Vogt,  Tao Wang,  A. Warshel,  M. A. Watson,  
 C. F. Williams,  Q. Wu,  X. Xu,  Jun Yang,  W. Zhang,  Yan Zhao

   Please cite Q-Chem as follows:
  "Software for the frontiers of quantum chemistry:
   An overview of developments in the Q-Chem 5 package"
   J. Chem. Phys. 155, 084801 (2021)
   https://doi.org/10.1063/5.0055522 (open access)

 Q-Chem 6.0.0 for Intel X86 EM64T Linux

 Parts of Q-Chem use Armadillo 9.900.5 (Nocturnal Misbehaviour).
 http://arma.sourceforge.net/

 Q-Chem begins on Thu Jul 21 09:49:44 2022  

 Host: nid00529
0

     Scratch files written to /global/cscratch1/sd/ymao90/r7.00_frame_0005_almo_B3LYP_dp20220721031506//
 Processing $rem in /global/homes/y/ymao90/my_qchem/qchem_embedding_5p4/config/preferences:
 Processing $rem in /global/homes/y/ymao90/.qchemrc:

 Checking the input file for inconsistencies... 	...done.

--------------------------------------------------------------
User input:
--------------------------------------------------------------
$molecule
0 1
--
0 1
C    19.22700   21.57100   27.77300  
C    19.49100   20.21700   28.45300  
C    19.71900   19.00400   27.53700  
C    20.69600   19.37900   26.40900  
C    20.44600   20.74100   25.74300  
C    20.38200   21.85700   26.79900  
H    19.91800   18.03800   28.01600  
H    20.34200   20.33200   29.13700  
H    18.22400   21.72500   27.35700  
H    19.22100   22.28900   28.60200  
H    21.72000   19.36400   26.80300  
H    20.75000   18.56000   25.68100  
H    21.15100   21.06500   24.96800  
H    19.49600   20.71400   25.19500  
H    21.37300   21.94800   27.25900  
H    20.15300   22.78900   26.26800  
H    18.81200   18.76100   26.97000  
N    18.33900   19.98400   29.32100  
H    17.45500   20.35800   28.99800  
C    18.40300   19.52400   30.62000  
H    17.48600   19.59300   31.23300  
O    19.41500   18.98300   31.02900  
--
0 1
C    24.78400   25.70100   25.70600  
H    24.62300   26.12700   24.71200  
H    25.33500   26.48900   26.22600  
H    25.30700   24.75500   25.54400  
S    23.21500   25.33000   26.52300  
C    23.93300   24.40700   27.90000  
H    24.70500   23.72900   27.52500  
H    24.40500   25.11300   28.58900  
H    23.05800   24.05200   28.45000  
O    22.67700   24.28100   25.60100  
C    18.50000   26.32200   22.93500  
H    18.78800   27.03500   23.71100  
H    19.09400   26.35900   22.01900  
H    17.51400   26.69400   22.64300  
S    18.33500   24.58600   23.40900  
C    20.09200   24.20600   23.58600  
H    20.60600   24.61000   22.71000  
H    20.44500   24.63600   24.52700  
H    20.08000   23.11400   23.63800  
O    17.79500   23.87600   22.20700  
C    16.42800   20.89400   19.89200  
H    15.52600   21.20600   19.35800  
H    16.37300   20.78100   20.97800  
H    17.36900   21.40200   19.66900  
S    16.71400   19.17400   19.41700  
C    16.85700   19.30800   17.62100  
H    17.86100   19.55400   17.26500  
H    16.68900   18.30900   17.21200  
H    16.20800   20.14200   17.34200  
O    15.31900   18.64500   19.54100  
C    24.51200   16.06700   28.84200  
H    24.30500   15.40400   29.68500  
H    24.67200   15.47700   27.93600  
H    25.44100   16.59800   29.06800  
S    23.03500   17.08500   28.62200  
C    22.72400   17.77900   30.26100  
H    23.54200   18.38700   30.65500  
H    21.76300   18.28900   30.15500  
H    22.59700   16.97800   30.99300  
O    21.93000   16.07500   28.65300  
C    22.72100   14.20100   31.63300  
H    22.90700   15.27800   31.62800  
H    22.88700   13.78400   32.63000  
H    23.48800   13.72400   31.01800  
S    20.99800   13.85700   31.21100  
C    20.21200   15.20800   32.11800  
H    20.61700   16.08300   31.60300  
H    19.13400   15.06300   32.01600  
H    20.46600   15.15800   33.18000  
O    20.71700   12.64900   32.04900  
C    26.65800   19.27000   27.01100  
H    26.37200   18.55300   27.78500  
H    27.30200   20.06900   27.38900  
H    25.71800   19.66800   26.62000  
S    27.31000   18.21900   25.69400  
C    28.77600   17.79100   26.66000  
H    29.51700   17.28100   26.03900  
H    29.17800   18.77200   26.92500  
H    28.38000   17.21200   27.49800  
O    27.75400   19.27400   24.72900  
C    19.23500   20.32700   36.01800  
H    19.67100   21.05500   35.32800  
H    19.07000   20.70200   37.03100  
H    19.90600   19.47500   36.15000  
S    17.70000   19.72300   35.28100  
C    18.56900   18.56500   34.19900  
H    19.05900   19.17300   33.43400  
H    19.29300   18.01200   34.80200  
H    17.80800   17.91700   33.75900  
O    17.34200   20.78400   34.28700  
C    14.44300   19.04900   30.76300  
H    15.07400   19.76800   31.29100  
H    13.57300   18.75600   31.35700  
H    15.09400   18.17100   30.73400  
S    14.00800   19.78200   29.17000  
C    13.90100   18.21300   28.28000  
H    13.83000   18.60900   27.26400  
H    14.81400   17.61200   28.26900  
H    13.09900   17.62200   28.73000  
O    15.24600   20.50000   28.73300  
C    20.91200   14.75300   25.26500  
H    21.25800   14.03100   26.00900  
H    21.38700   15.71600   25.47000  
H    19.84500   14.96600   25.37000  
S    21.36100   14.16900   23.61400  
C    23.12000   14.01400   23.99700  
H    23.63300   13.69000   23.08800  
H    23.37600   15.05700   24.20300  
H    23.27600   13.32900   24.83400  
O    21.30500   15.37000   22.72300  
C    25.73500   22.32200   30.17500  
H    26.52000   22.59100   30.88700  
H    26.11400   22.47800   29.16100  
H    24.94300   23.06700   30.28500  
S    25.17600   20.61400   30.35800  
C    23.98200   20.84400   29.02200  
H    24.46100   21.19800   28.10600  
H    23.44100   19.91200   28.83900  
H    23.32000   21.68700   29.23700  
O    24.45900   20.58800   31.67200  
C    20.63300   21.85400   32.05600  
H    19.62000   21.80300   31.65000  
H    21.31900   21.15800   31.56700  
H    20.74200   21.69500   33.13200  
S    21.45000   23.37700   31.52600  
C    20.03200   24.36700   32.04700  
H    20.43600   25.36400   32.24100  
H    19.23000   24.37100   31.30400  
H    19.68200   24.03800   33.02800  
O    21.51000   23.34200   30.03000  
C    19.73800   25.32200   28.32200  
H    19.27200   24.48700   28.85200  
H    19.37000   25.17000   27.30400  
H    20.81200   25.15800   28.43900  
S    19.18200   26.90900   28.98500  
C    17.47700   26.51800   28.53200  
H    17.39600   26.13200   27.51300  
H    17.02100   25.68900   29.07900  
H    16.81300   27.37500   28.67100  
O    19.61000   27.99900   28.05200  
C    13.91700   13.55200   32.57000  
H    14.92700   13.35700   32.20100  
H    13.94500   13.55800   33.66200  
H    13.31000   12.72300   32.19700  
S    13.36600   15.15200   31.93800  
C    13.50300   14.73000   30.18600  
H    14.45200   14.25800   29.91900  
H    12.72500   13.99700   29.95500  
H    13.44700   15.62100   29.55600  
O    14.42400   16.18100   32.19300  
C    16.39700   13.86600   36.02900  
H    17.18200   13.21700   36.42600  
H    16.39100   14.70600   36.72900  
H    15.42500   13.37800   35.92500  
S    16.87400   14.67200   34.48400  
C    17.60700   13.18700   33.76000  
H    18.27900   12.64400   34.43000  
H    16.88900   12.44700   33.39700  
H    18.15800   13.58800   32.90500  
O    18.03700   15.54900   34.83000  
C    12.15600   21.84300   24.52800  
H    13.22700   21.68400   24.37500  
H    11.62900   21.84800   23.57100  
H    11.99900   22.80300   25.02600  
S    11.59600   20.62900   25.74400  
C    9.85400    21.04900   25.51400  
H    9.74100    22.13600   25.50700  
H    9.45400    20.51400   24.64900  
H    9.42100    20.51500   26.36400  
O    11.87800   21.27900   27.06300  
C    13.80800   21.35000   35.48800  
H    13.73400   22.43600   35.38300  
H    14.09700   20.96800   36.47100  
H    14.50800   21.01000   34.72100  
S    12.22800   20.88400   34.74600  
C    11.22100   21.79400   35.93900  
H    11.69900   21.79900   36.92200  
H    11.19100   22.83200   35.59800  
H    10.27100   21.26600   36.05200  
O    11.98600   19.43000   35.00700  
C    22.41600   18.73500   33.93300  
H    21.72700   18.61900   33.09200  
H    21.89600   19.22900   34.75700  
H    23.24600   19.38000   33.63300  
S    22.85900   17.07200   34.48500  
C    23.99200   17.54600   35.81000  
H    24.68600   18.22600   35.31000  
H    23.47200   18.07900   36.61000  
H    24.51400   16.69900   36.26200  
O    23.72000   16.51000   33.39700  
C    18.23200   15.80400   22.67400  
H    19.11300   15.95500   22.04400  
H    17.99200   16.66500   23.30400  
H    18.46200   14.93800   23.29900  
S    16.80200   15.27400   21.70500  
C    15.87200   14.90600   23.21100  
H    15.19000   14.07400   23.02100  
H    16.56500   14.62000   24.00600  
H    15.43500   15.86000   23.51800  
O    17.17400   13.95800   21.09800  
C    23.88500   28.16600   22.28900  
H    23.81700   28.51900   23.32100  
H    24.94400   27.90100   22.23500  
H    23.56900   28.92200   21.56600  
S    22.92000   26.64100   22.19600  
C    23.33300   26.23800   20.48400  
H    22.65300   25.42200   20.22600  
H    23.16000   27.12800   19.87200  
H    24.39000   25.96400   20.53800  
O    21.48600   27.06800   22.25100  
C    25.46300   17.78200   19.80600  
H    26.03700   16.86100   19.93200  
H    24.51200   17.72100   19.27000  
H    26.21900   18.51500   19.51300  
S    25.09100   18.29600   21.49700  
C    24.11700   16.85600   21.99200  
H    23.61900   17.18900   22.90600  
H    23.35900   16.81400   21.20600  
H    24.67200   15.91700   22.05700  
O    24.10200   19.40300   21.30300  
C    20.90000   18.75100   22.70600  
H    20.60300   17.93300   23.36700  
H    21.62500   18.43700   21.95200  
H    21.23700   19.60100   23.30600  
S    19.35400   19.21400   21.89200  
C    20.00100   20.79600   21.30600  
H    19.16000   21.43000   21.01300  
H    20.45900   21.27500   22.17500  
H    20.73300   20.71800   20.49800  
O    18.29800   19.44500   22.92800  
C    22.91700   22.83900   22.04900  
H    22.73500   23.38400   22.97900  
H    22.39300   23.32000   21.21900  
H    22.43500   21.85800   22.05900  
S    24.69700   22.64400   21.80700  
C    24.96600   22.00700   23.47700  
H    24.67100   22.72900   24.24300  
H    24.34800   21.11900   23.62900  
H    26.03500   21.85100   23.63900  
O    25.16700   24.06300   21.89400  
C    14.41700   23.29400   27.23100  
H    13.61500   23.25000   26.49000  
H    15.05700   22.41400   27.33700  
H    13.88400   23.49900   28.16300  
S    15.61600   24.56200   26.76400  
C    14.42300   25.90800   26.94000  
H    13.45900   25.59600   26.53000  
H    14.19600   26.19300   27.97100  
H    14.87700   26.72500   26.37500  
O    15.72000   24.40200   25.27900  
C    17.52600   13.55700   28.90800  
H    17.65500   12.56000   28.48000  
H    17.88600   13.62200   29.93800  
H    16.43800   13.64600   28.87400  
S    18.32600   14.74600   27.80600  
C    17.87800   16.26400   28.67700  
H    16.92400   16.14800   29.19700  
H    18.66800   16.36700   29.42500  
H    17.76700   17.11600   28.00100  
O    17.32000   14.74500   26.69800  
C    16.75600   22.47200   31.24900  
H    17.67500   22.66500   30.68900  
H    16.81100   21.64300   31.95900  
H    15.92100   22.44700   30.54500  
S    16.51400   24.06500   32.06600  
C    15.29400   23.29900   33.15700  
H    14.40700   22.83600   32.71900  
H    15.80400   22.69600   33.91300  
H    14.85600   24.10900   33.74700  
O    15.69700   24.93700   31.16500  
C    29.56800   23.63800   26.35700  
H    29.42500   24.63600   26.77800  
H    30.06500   23.02000   27.10900  
H    30.12000   23.75600   25.42100  
S    28.04400   22.81100   25.84800  
C    27.76600   24.07000   24.58200  
H    26.82900   23.77300   24.10400  
H    27.79400   25.04200   25.08000  
H    28.52600   24.00400   23.80000  
O    27.19700   22.94000   27.07600  
C    15.21700   19.71900   23.17200  
H    14.35000   20.22100   22.73400  
H    16.03100   20.44500   23.23800  
H    15.54900   18.80800   22.66700  
S    14.76700   19.23400   24.85300  
C    16.38800   18.61700   25.36100  
H    17.17300   19.37300   25.44600  
H    16.30600   18.00200   26.26100  
H    16.69500   18.05200   24.47700  
O    13.93400   18.00700   24.64800  
$end

$rem
JOBTYPE  SP
METHOD  B3LYP
BASIS  6-31+G(D)
SYMMETRY  FALSE
SYM_IGNORE  TRUE
MEM_TOTAL  12000
MEM_STATIC  4000
BASIS_LIN_DEP_THRESH  6
THRESH  14
SCF_CONVERGENCE  8
FD_MAT_VEC_PROD  FALSE
XC_GRID  000075000302
NL_GRID  1
MAX_SCF_CYCLES  200
FRGM_METHOD  STOLL
SCFMI_MODE  1
ALMO_EFIELD  TRUE
$end

$rem_frgm
SCF_CONVERGENCE  4
$end


--------------------------------------------------------------
 ----------------------------------------------------------------
             Standard Nuclear Orientation (Angstroms)
    I     Atom           X                Y                Z
 ----------------------------------------------------------------
    1      C      19.2270000000    21.5710000000    27.7730000000
    2      C      19.4910000000    20.2170000000    28.4530000000
    3      C      19.7190000000    19.0040000000    27.5370000000
    4      C      20.6960000000    19.3790000000    26.4090000000
    5      C      20.4460000000    20.7410000000    25.7430000000
    6      C      20.3820000000    21.8570000000    26.7990000000
    7      H      19.9180000000    18.0380000000    28.0160000000
    8      H      20.3420000000    20.3320000000    29.1370000000
    9      H      18.2240000000    21.7250000000    27.3570000000
   10      H      19.2210000000    22.2890000000    28.6020000000
   11      H      21.7200000000    19.3640000000    26.8030000000
   12      H      20.7500000000    18.5600000000    25.6810000000
   13      H      21.1510000000    21.0650000000    24.9680000000
   14      H      19.4960000000    20.7140000000    25.1950000000
   15      H      21.3730000000    21.9480000000    27.2590000000
   16      H      20.1530000000    22.7890000000    26.2680000000
   17      H      18.8120000000    18.7610000000    26.9700000000
   18      N      18.3390000000    19.9840000000    29.3210000000
   19      H      17.4550000000    20.3580000000    28.9980000000
   20      C      18.4030000000    19.5240000000    30.6200000000
   21      H      17.4860000000    19.5930000000    31.2330000000
   22      O      19.4150000000    18.9830000000    31.0290000000
   23      C      24.7840000000    25.7010000000    25.7060000000
   24      H      24.6230000000    26.1270000000    24.7120000000
   25      H      25.3350000000    26.4890000000    26.2260000000
   26      H      25.3070000000    24.7550000000    25.5440000000
   27      S      23.2150000000    25.3300000000    26.5230000000
   28      C      23.9330000000    24.4070000000    27.9000000000
   29      H      24.7050000000    23.7290000000    27.5250000000
   30      H      24.4050000000    25.1130000000    28.5890000000
   31      H      23.0580000000    24.0520000000    28.4500000000
   32      O      22.6770000000    24.2810000000    25.6010000000
   33      C      18.5000000000    26.3220000000    22.9350000000
   34      H      18.7880000000    27.0350000000    23.7110000000
   35      H      19.0940000000    26.3590000000    22.0190000000
   36      H      17.5140000000    26.6940000000    22.6430000000
   37      S      18.3350000000    24.5860000000    23.4090000000
   38      C      20.0920000000    24.2060000000    23.5860000000
   39      H      20.6060000000    24.6100000000    22.7100000000
   40      H      20.4450000000    24.6360000000    24.5270000000
   41      H      20.0800000000    23.1140000000    23.6380000000
   42      O      17.7950000000    23.8760000000    22.2070000000
   43      C      16.4280000000    20.8940000000    19.8920000000
   44      H      15.5260000000    21.2060000000    19.3580000000
   45      H      16.3730000000    20.7810000000    20.9780000000
   46      H      17.3690000000    21.4020000000    19.6690000000
   47      S      16.7140000000    19.1740000000    19.4170000000
   48      C      16.8570000000    19.3080000000    17.6210000000
   49      H      17.8610000000    19.5540000000    17.2650000000
   50      H      16.6890000000    18.3090000000    17.2120000000
   51      H      16.2080000000    20.1420000000    17.3420000000
   52      O      15.3190000000    18.6450000000    19.5410000000
   53      C      24.5120000000    16.0670000000    28.8420000000
   54      H      24.3050000000    15.4040000000    29.6850000000
   55      H      24.6720000000    15.4770000000    27.9360000000
   56      H      25.4410000000    16.5980000000    29.0680000000
   57      S      23.0350000000    17.0850000000    28.6220000000
   58      C      22.7240000000    17.7790000000    30.2610000000
   59      H      23.5420000000    18.3870000000    30.6550000000
   60      H      21.7630000000    18.2890000000    30.1550000000
   61      H      22.5970000000    16.9780000000    30.9930000000
   62      O      21.9300000000    16.0750000000    28.6530000000
   63      C      22.7210000000    14.2010000000    31.6330000000
   64      H      22.9070000000    15.2780000000    31.6280000000
   65      H      22.8870000000    13.7840000000    32.6300000000
   66      H      23.4880000000    13.7240000000    31.0180000000
   67      S      20.9980000000    13.8570000000    31.2110000000
   68      C      20.2120000000    15.2080000000    32.1180000000
   69      H      20.6170000000    16.0830000000    31.6030000000
   70      H      19.1340000000    15.0630000000    32.0160000000
   71      H      20.4660000000    15.1580000000    33.1800000000
   72      O      20.7170000000    12.6490000000    32.0490000000
   73      C      26.6580000000    19.2700000000    27.0110000000
   74      H      26.3720000000    18.5530000000    27.7850000000
   75      H      27.3020000000    20.0690000000    27.3890000000
   76      H      25.7180000000    19.6680000000    26.6200000000
   77      S      27.3100000000    18.2190000000    25.6940000000
   78      C      28.7760000000    17.7910000000    26.6600000000
   79      H      29.5170000000    17.2810000000    26.0390000000
   80      H      29.1780000000    18.7720000000    26.9250000000
   81      H      28.3800000000    17.2120000000    27.4980000000
   82      O      27.7540000000    19.2740000000    24.7290000000
   83      C      19.2350000000    20.3270000000    36.0180000000
   84      H      19.6710000000    21.0550000000    35.3280000000
   85      H      19.0700000000    20.7020000000    37.0310000000
   86      H      19.9060000000    19.4750000000    36.1500000000
   87      S      17.7000000000    19.7230000000    35.2810000000
   88      C      18.5690000000    18.5650000000    34.1990000000
   89      H      19.0590000000    19.1730000000    33.4340000000
   90      H      19.2930000000    18.0120000000    34.8020000000
   91      H      17.8080000000    17.9170000000    33.7590000000
   92      O      17.3420000000    20.7840000000    34.2870000000
   93      C      14.4430000000    19.0490000000    30.7630000000
   94      H      15.0740000000    19.7680000000    31.2910000000
   95      H      13.5730000000    18.7560000000    31.3570000000
   96      H      15.0940000000    18.1710000000    30.7340000000
   97      S      14.0080000000    19.7820000000    29.1700000000
   98      C      13.9010000000    18.2130000000    28.2800000000
   99      H      13.8300000000    18.6090000000    27.2640000000
  100      H      14.8140000000    17.6120000000    28.2690000000
  101      H      13.0990000000    17.6220000000    28.7300000000
  102      O      15.2460000000    20.5000000000    28.7330000000
  103      C      20.9120000000    14.7530000000    25.2650000000
  104      H      21.2580000000    14.0310000000    26.0090000000
  105      H      21.3870000000    15.7160000000    25.4700000000
  106      H      19.8450000000    14.9660000000    25.3700000000
  107      S      21.3610000000    14.1690000000    23.6140000000
  108      C      23.1200000000    14.0140000000    23.9970000000
  109      H      23.6330000000    13.6900000000    23.0880000000
  110      H      23.3760000000    15.0570000000    24.2030000000
  111      H      23.2760000000    13.3290000000    24.8340000000
  112      O      21.3050000000    15.3700000000    22.7230000000
  113      C      25.7350000000    22.3220000000    30.1750000000
  114      H      26.5200000000    22.5910000000    30.8870000000
  115      H      26.1140000000    22.4780000000    29.1610000000
  116      H      24.9430000000    23.0670000000    30.2850000000
  117      S      25.1760000000    20.6140000000    30.3580000000
  118      C      23.9820000000    20.8440000000    29.0220000000
  119      H      24.4610000000    21.1980000000    28.1060000000
  120      H      23.4410000000    19.9120000000    28.8390000000
  121      H      23.3200000000    21.6870000000    29.2370000000
  122      O      24.4590000000    20.5880000000    31.6720000000
  123      C      20.6330000000    21.8540000000    32.0560000000
  124      H      19.6200000000    21.8030000000    31.6500000000
  125      H      21.3190000000    21.1580000000    31.5670000000
  126      H      20.7420000000    21.6950000000    33.1320000000
  127      S      21.4500000000    23.3770000000    31.5260000000
  128      C      20.0320000000    24.3670000000    32.0470000000
  129      H      20.4360000000    25.3640000000    32.2410000000
  130      H      19.2300000000    24.3710000000    31.3040000000
  131      H      19.6820000000    24.0380000000    33.0280000000
  132      O      21.5100000000    23.3420000000    30.0300000000
  133      C      19.7380000000    25.3220000000    28.3220000000
  134      H      19.2720000000    24.4870000000    28.8520000000
  135      H      19.3700000000    25.1700000000    27.3040000000
  136      H      20.8120000000    25.1580000000    28.4390000000
  137      S      19.1820000000    26.9090000000    28.9850000000
  138      C      17.4770000000    26.5180000000    28.5320000000
  139      H      17.3960000000    26.1320000000    27.5130000000
  140      H      17.0210000000    25.6890000000    29.0790000000
  141      H      16.8130000000    27.3750000000    28.6710000000
  142      O      19.6100000000    27.9990000000    28.0520000000
  143      C      13.9170000000    13.5520000000    32.5700000000
  144      H      14.9270000000    13.3570000000    32.2010000000
  145      H      13.9450000000    13.5580000000    33.6620000000
  146      H      13.3100000000    12.7230000000    32.1970000000
  147      S      13.3660000000    15.1520000000    31.9380000000
  148      C      13.5030000000    14.7300000000    30.1860000000
  149      H      14.4520000000    14.2580000000    29.9190000000
  150      H      12.7250000000    13.9970000000    29.9550000000
  151      H      13.4470000000    15.6210000000    29.5560000000
  152      O      14.4240000000    16.1810000000    32.1930000000
  153      C      16.3970000000    13.8660000000    36.0290000000
  154      H      17.1820000000    13.2170000000    36.4260000000
  155      H      16.3910000000    14.7060000000    36.7290000000
  156      H      15.4250000000    13.3780000000    35.9250000000
  157      S      16.8740000000    14.6720000000    34.4840000000
  158      C      17.6070000000    13.1870000000    33.7600000000
  159      H      18.2790000000    12.6440000000    34.4300000000
  160      H      16.8890000000    12.4470000000    33.3970000000
  161      H      18.1580000000    13.5880000000    32.9050000000
  162      O      18.0370000000    15.5490000000    34.8300000000
  163      C      12.1560000000    21.8430000000    24.5280000000
  164      H      13.2270000000    21.6840000000    24.3750000000
  165      H      11.6290000000    21.8480000000    23.5710000000
  166      H      11.9990000000    22.8030000000    25.0260000000
  167      S      11.5960000000    20.6290000000    25.7440000000
  168      C       9.8540000000    21.0490000000    25.5140000000
  169      H       9.7410000000    22.1360000000    25.5070000000
  170      H       9.4540000000    20.5140000000    24.6490000000
  171      H       9.4210000000    20.5150000000    26.3640000000
  172      O      11.8780000000    21.2790000000    27.0630000000
  173      C      13.8080000000    21.3500000000    35.4880000000
  174      H      13.7340000000    22.4360000000    35.3830000000
  175      H      14.0970000000    20.9680000000    36.4710000000
  176      H      14.5080000000    21.0100000000    34.7210000000
  177      S      12.2280000000    20.8840000000    34.7460000000
  178      C      11.2210000000    21.7940000000    35.9390000000
  179      H      11.6990000000    21.7990000000    36.9220000000
  180      H      11.1910000000    22.8320000000    35.5980000000
  181      H      10.2710000000    21.2660000000    36.0520000000
  182      O      11.9860000000    19.4300000000    35.0070000000
  183      C      22.4160000000    18.7350000000    33.9330000000
  184      H      21.7270000000    18.6190000000    33.0920000000
  185      H      21.8960000000    19.2290000000    34.7570000000
  186      H      23.2460000000    19.3800000000    33.6330000000
  187      S      22.8590000000    17.0720000000    34.4850000000
  188      C      23.9920000000    17.5460000000    35.8100000000
  189      H      24.6860000000    18.2260000000    35.3100000000
  190      H      23.4720000000    18.0790000000    36.6100000000
  191      H      24.5140000000    16.6990000000    36.2620000000
  192      O      23.7200000000    16.5100000000    33.3970000000
  193      C      18.2320000000    15.8040000000    22.6740000000
  194      H      19.1130000000    15.9550000000    22.0440000000
  195      H      17.9920000000    16.6650000000    23.3040000000
  196      H      18.4620000000    14.9380000000    23.2990000000
  197      S      16.8020000000    15.2740000000    21.7050000000
  198      C      15.8720000000    14.9060000000    23.2110000000
  199      H      15.1900000000    14.0740000000    23.0210000000
  200      H      16.5650000000    14.6200000000    24.0060000000
  201      H      15.4350000000    15.8600000000    23.5180000000
  202      O      17.1740000000    13.9580000000    21.0980000000
  203      C      23.8850000000    28.1660000000    22.2890000000
  204      H      23.8170000000    28.5190000000    23.3210000000
  205      H      24.9440000000    27.9010000000    22.2350000000
  206      H      23.5690000000    28.9220000000    21.5660000000
  207      S      22.9200000000    26.6410000000    22.1960000000
  208      C      23.3330000000    26.2380000000    20.4840000000
  209      H      22.6530000000    25.4220000000    20.2260000000
  210      H      23.1600000000    27.1280000000    19.8720000000
  211      H      24.3900000000    25.9640000000    20.5380000000
  212      O      21.4860000000    27.0680000000    22.2510000000
  213      C      25.4630000000    17.7820000000    19.8060000000
  214      H      26.0370000000    16.8610000000    19.9320000000
  215      H      24.5120000000    17.7210000000    19.2700000000
  216      H      26.2190000000    18.5150000000    19.5130000000
  217      S      25.0910000000    18.2960000000    21.4970000000
  218      C      24.1170000000    16.8560000000    21.9920000000
  219      H      23.6190000000    17.1890000000    22.9060000000
  220      H      23.3590000000    16.8140000000    21.2060000000
  221      H      24.6720000000    15.9170000000    22.0570000000
  222      O      24.1020000000    19.4030000000    21.3030000000
  223      C      20.9000000000    18.7510000000    22.7060000000
  224      H      20.6030000000    17.9330000000    23.3670000000
  225      H      21.6250000000    18.4370000000    21.9520000000
  226      H      21.2370000000    19.6010000000    23.3060000000
  227      S      19.3540000000    19.2140000000    21.8920000000
  228      C      20.0010000000    20.7960000000    21.3060000000
  229      H      19.1600000000    21.4300000000    21.0130000000
  230      H      20.4590000000    21.2750000000    22.1750000000
  231      H      20.7330000000    20.7180000000    20.4980000000
  232      O      18.2980000000    19.4450000000    22.9280000000
  233      C      22.9170000000    22.8390000000    22.0490000000
  234      H      22.7350000000    23.3840000000    22.9790000000
  235      H      22.3930000000    23.3200000000    21.2190000000
  236      H      22.4350000000    21.8580000000    22.0590000000
  237      S      24.6970000000    22.6440000000    21.8070000000
  238      C      24.9660000000    22.0070000000    23.4770000000
  239      H      24.6710000000    22.7290000000    24.2430000000
  240      H      24.3480000000    21.1190000000    23.6290000000
  241      H      26.0350000000    21.8510000000    23.6390000000
  242      O      25.1670000000    24.0630000000    21.8940000000
  243      C      14.4170000000    23.2940000000    27.2310000000
  244      H      13.6150000000    23.2500000000    26.4900000000
  245      H      15.0570000000    22.4140000000    27.3370000000
  246      H      13.8840000000    23.4990000000    28.1630000000
  247      S      15.6160000000    24.5620000000    26.7640000000
  248      C      14.4230000000    25.9080000000    26.9400000000
  249      H      13.4590000000    25.5960000000    26.5300000000
  250      H      14.1960000000    26.1930000000    27.9710000000
  251      H      14.8770000000    26.7250000000    26.3750000000
  252      O      15.7200000000    24.4020000000    25.2790000000
  253      C      17.5260000000    13.5570000000    28.9080000000
  254      H      17.6550000000    12.5600000000    28.4800000000
  255      H      17.8860000000    13.6220000000    29.9380000000
  256      H      16.4380000000    13.6460000000    28.8740000000
  257      S      18.3260000000    14.7460000000    27.8060000000
  258      C      17.8780000000    16.2640000000    28.6770000000
  259      H      16.9240000000    16.1480000000    29.1970000000
  260      H      18.6680000000    16.3670000000    29.4250000000
  261      H      17.7670000000    17.1160000000    28.0010000000
  262      O      17.3200000000    14.7450000000    26.6980000000
  263      C      16.7560000000    22.4720000000    31.2490000000
  264      H      17.6750000000    22.6650000000    30.6890000000
  265      H      16.8110000000    21.6430000000    31.9590000000
  266      H      15.9210000000    22.4470000000    30.5450000000
  267      S      16.5140000000    24.0650000000    32.0660000000
  268      C      15.2940000000    23.2990000000    33.1570000000
  269      H      14.4070000000    22.8360000000    32.7190000000
  270      H      15.8040000000    22.6960000000    33.9130000000
  271      H      14.8560000000    24.1090000000    33.7470000000
  272      O      15.6970000000    24.9370000000    31.1650000000
  273      C      29.5680000000    23.6380000000    26.3570000000
  274      H      29.4250000000    24.6360000000    26.7780000000
  275      H      30.0650000000    23.0200000000    27.1090000000
  276      H      30.1200000000    23.7560000000    25.4210000000
  277      S      28.0440000000    22.8110000000    25.8480000000
  278      C      27.7660000000    24.0700000000    24.5820000000
  279      H      26.8290000000    23.7730000000    24.1040000000
  280      H      27.7940000000    25.0420000000    25.0800000000
  281      H      28.5260000000    24.0040000000    23.8000000000
  282      O      27.1970000000    22.9400000000    27.0760000000
  283      C      15.2170000000    19.7190000000    23.1720000000
  284      H      14.3500000000    20.2210000000    22.7340000000
  285      H      16.0310000000    20.4450000000    23.2380000000
  286      H      15.5490000000    18.8080000000    22.6670000000
  287      S      14.7670000000    19.2340000000    24.8530000000
  288      C      16.3880000000    18.6170000000    25.3610000000
  289      H      17.1730000000    19.3730000000    25.4460000000
  290      H      16.3060000000    18.0020000000    26.2610000000
  291      H      16.6950000000    18.0520000000    24.4770000000
  292      O      13.9340000000    18.0070000000    24.6480000000
 ----------------------------------------------------------------
 Nuclear Repulsion Energy =       47583.42453449 hartrees
 There are      602 alpha and      602 beta electrons
 Requested basis set is 6-31+G(d)
 There are 962 shells and 2681 basis functions

 Total QAlloc Memory Limit  12000 MB
 Mega-Array Size      3911 MB
 MEM_STATIC part      4000 MB

 A cutoff of  1.0D-14 yielded 173016 shell pairs
 There are   1504784 function pairs
 Smallest overlap matrix eigenvalue = 4.21E-07
 Linear dependence detected in AO basis
 Tighter screening thresholds may be required for diffuse basis sets
 Use S2THRESH > 14 and THRESH = 14 in case of SCF convergence issues
 Number of orthogonalized atomic orbitals = 2678
 Maximum deviation from orthogonality = 6.187E-11

 Scale SEOQF with 1.000000e-03/1.000000e-03/1.000000e-03

 Standard Electronic Orientation quadrupole field applied
 Nucleus-field energy     =    -0.0000004752 hartrees
 Attempting to make child job directory: /global/cscratch1/sd/ymao90/r7.00_frame_0005_almo_B3LYP_dp20220721031506//Frg1/
 Attempting to make child job directory: /global/cscratch1/sd/ymao90/r7.00_frame_0005_almo_B3LYP_dp20220721031506//Frg2/
 Creating input file /global/cscratch1/sd/ymao90/r7.00_frame_0005_almo_B3LYP_dp20220721031506/Frg1.input
 using default PutDataFrgm: nothing
 calling putenv with: QCSCRATCH=/global/cscratch1/sd/ymao90/r7.00_frame_0005_almo_B3LYP_dp20220721031506/ 
 Spawning Job For Fragment 0
 Done Job For Fragment 0
 calling putenv with: QCSCRATCH=/global/cscratch1/sd/ymao90 
 calling putenv with: QCTHREADS=16 
 Creating input file /global/cscratch1/sd/ymao90/r7.00_frame_0005_almo_B3LYP_dp20220721031506/Frg2.input
 using default PutDataFrgm: nothing
 calling putenv with: QCSCRATCH=/global/cscratch1/sd/ymao90/r7.00_frame_0005_almo_B3LYP_dp20220721031506/ 
 Spawning Job For Fragment 1
 Done Job For Fragment 1
 calling putenv with: QCSCRATCH=/global/cscratch1/sd/ymao90 
 calling putenv with: QCTHREADS=16 
 Time for running child jobs:  CPU 0.49 s  wall 12166.23 s

 -----------------------------------------------------------------------
  General SCF calculation program by
  Eric Jon Sundstrom, Paul Horn, Yuezhi Mao, Dmitri Zuev, Alec White,
  David Stuck, Shaama M.S., Shane Yost, Joonho Lee, David Small,
  Daniel Levine, Susi Lehtola, Hugh Burton, Evgeny Epifanovsky,
  Bang C. Huynh
 -----------------------------------------------------------------------
Performing Restricted Closed Shell SCFMI
Doing General SCFMI
 Exchange:     0.2000 Hartree-Fock + 0.0800 Slater + 0.7200 B88
 Correlation:  0.1900 VWN1RPA + 0.8100 LYP
 Using Euler-Maclaurin-Lebedev (75,302) quadrature formula
performing fock build before subrot guess so that all methods have access
 using 16 threads for integral computing
 -------------------------------------------------------
 OpenMP Integral computing Module                
 Release: version 1.0, May 2013, Q-Chem Inc. Pittsburgh 
 -------------------------------------------------------
Printing subrot_rss_gen Method Specification:
Occupied Subspace Method is 0
Virtual Subspace Method is 0
Energy prior to optimization (guess energy) = -15340.727528734475
Begin Timing: Total SCF Calculation
begin iterations for algorithm: DIIS         
the SCF tolerance is set to 1.00e-08
    1  -15340.7275287345      3.05e-05     00000 
    2  -15340.7338912331      2.21e-05     00000 
    3  -15340.7348497683      1.70e-05     00000 
    4  -15340.7355463692      6.07e-06     00000 
    5  -15340.7356393630      2.52e-06     00000 
    6  -15340.7356580501      1.23e-06     00000 
    7  -15340.7356622109      9.11e-07     00000 
    8  -15340.7356639529      5.86e-07     00000 
    9  -15340.7356646810      2.94e-07     00000 
   10  -15340.7356648613      1.69e-07     00000 
   11  -15340.7356649278      1.03e-07     00000 
   12  -15340.7356649508      7.12e-08     00000 
   13  -15340.7356649626      3.82e-08     00000 
   14  -15340.7356649663      1.99e-08     00000 
   15  -15340.7356649671      1.04e-08     00000 
   16  -15340.7356649674      7.08e-09     00000 Convergence criterion met
write pseudocanon occs and virts to disk
write pseudocanon orbital energies to disk
Timing for Total SCF: 16729.00s (wall), 228239.60s (cpu)
SCFMI Energy  -15340.7356649674
<S^2>            0.00000
 Total energy in the final basis set =   -15340.7356649674
    ==================================================
        The end of Object-Oriented SCFman: SCFMI      
    ==================================================

 --------------------------------------------------------------

                    Orbital Energies (a.u.)
 --------------------------------------------------------------

 Alpha MOs
 -- Occupied --
-89.0181 -89.0136 -89.0134 -89.0134 -89.0132 -89.0110 -89.0094 -89.0089
-89.0048 -88.9995 -88.9988 -88.9977 -88.9970 -88.9968 -88.9933 -88.9897
-88.9872 -88.9844 -88.9812 -88.9801 -88.9798 -88.9785 -88.9672 -88.9668
-88.9667 -88.9472 -88.9441 -19.1426 -19.1376 -19.1316 -19.1315 -19.1298
-19.1274 -19.1269 -19.1257 -19.1256 -19.1226 -19.1214 -19.1177 -19.1156
-19.1130 -19.1126 -19.1101 -19.1065 -19.1025 -19.1022 -19.0992 -19.0977
-19.0962 -19.0960 -19.0845 -19.0824 -19.0755 -19.0729 -19.0683 -14.3575
-10.2928 -10.2387 -10.2369 -10.2350 -10.2332 -10.2328 -10.2319 -10.2314
-10.2307 -10.2298 -10.2275 -10.2271 -10.2264 -10.2258 -10.2255 -10.2237
-10.2227 -10.2216 -10.2198 -10.2181 -10.2181 -10.2178 -10.2171 -10.2164
-10.2160 -10.2105 -10.2102 -10.2097 -10.2096 -10.2084 -10.2076 -10.2072
-10.2066 -10.2062 -10.2055 -10.2032 -10.2030 -10.2010 -10.2002 -10.1982
-10.1976 -10.1975 -10.1967 -10.1967 -10.1949 -10.1918 -10.1909 -10.1884
-10.1858 -10.1848 -10.1825 -10.1823 -10.1808 -10.1787 -10.1728 -10.1726
-10.1713 -10.1706 -10.1676 -10.1624 -10.1614  -8.0641  -8.0596  -8.0595
 -8.0590  -8.0585  -8.0567  -8.0560  -8.0550  -8.0509  -8.0463  -8.0447
 -8.0435  -8.0433  -8.0428  -8.0389  -8.0349  -8.0327  -8.0305  -8.0274
 -8.0256  -8.0251  -8.0245  -8.0134  -8.0132  -8.0131  -7.9933  -7.9899
 -6.0283  -6.0271  -6.0241  -6.0238  -6.0234  -6.0229  -6.0229  -6.0225
 -6.0223  -6.0218  -6.0215  -6.0212  -6.0204  -6.0200  -6.0194  -6.0187
 -6.0179  -6.0169  -6.0169  -6.0161  -6.0161  -6.0152  -6.0141  -6.0140
 -6.0135  -6.0124  -6.0106  -6.0094  -6.0090  -6.0082  -6.0078  -6.0078
 -6.0076  -6.0070  -6.0067  -6.0065  -6.0057  -6.0035  -6.0032  -6.0020
 -6.0020  -6.0009  -6.0006  -6.0005  -5.9993  -5.9979  -5.9972  -5.9963
 -5.9958  -5.9949  -5.9937  -5.9923  -5.9915  -5.9905  -5.9901  -5.9898
 -5.9894  -5.9889  -5.9887  -5.9882  -5.9878  -5.9877  -5.9849  -5.9827
 -5.9827  -5.9816  -5.9776  -5.9775  -5.9772  -5.9767  -5.9764  -5.9762
 -5.9709  -5.9708  -5.9707  -5.9577  -5.9563  -5.9543  -5.9532  -5.9507
 -5.9469  -1.0491  -1.0457  -1.0415  -1.0384  -1.0372  -1.0365  -1.0357
 -1.0346  -1.0346  -1.0322  -1.0304  -1.0249  -1.0233  -1.0190  -1.0182
 -1.0176  -1.0174  -1.0133  -1.0126  -1.0088  -1.0077  -1.0040  -0.9997
 -0.9931  -0.9918  -0.9896  -0.9750  -0.9736  -0.9229  -0.8259  -0.8228
 -0.8195  -0.8183  -0.8181  -0.8135  -0.8130  -0.8116  -0.8090  -0.8077
 -0.8071  -0.8044  -0.8040  -0.8015  -0.7930  -0.7918  -0.7914  -0.7903
 -0.7883  -0.7859  -0.7856  -0.7850  -0.7816  -0.7694  -0.7684  -0.7679
 -0.7570  -0.7522  -0.7450  -0.7446  -0.7445  -0.7436  -0.7396  -0.7383
 -0.7379  -0.7370  -0.7346  -0.7345  -0.7306  -0.7298  -0.7278  -0.7273
 -0.7264  -0.7226  -0.7196  -0.7171  -0.7163  -0.7147  -0.7128  -0.7120
 -0.7098  -0.7072  -0.6982  -0.6943  -0.6909  -0.6809  -0.6727  -0.6342
 -0.6304  -0.6288  -0.6280  -0.6276  -0.6252  -0.6235  -0.6212  -0.6205
 -0.6186  -0.6182  -0.6148  -0.6118  -0.6104  -0.6085  -0.6067  -0.6065
 -0.6035  -0.6020  -0.5979  -0.5975  -0.5949  -0.5947  -0.5913  -0.5853
 -0.5797  -0.5792  -0.5773  -0.5625  -0.5614  -0.5587  -0.5312  -0.5012
 -0.4978  -0.4974  -0.4961  -0.4951  -0.4924  -0.4919  -0.4916  -0.4903
 -0.4901  -0.4896  -0.4878  -0.4862  -0.4859  -0.4844  -0.4838  -0.4829
 -0.4822  -0.4816  -0.4808  -0.4801  -0.4798  -0.4791  -0.4783  -0.4780
 -0.4769  -0.4756  -0.4751  -0.4749  -0.4747  -0.4740  -0.4724  -0.4714
 -0.4708  -0.4704  -0.4697  -0.4689  -0.4685  -0.4684  -0.4680  -0.4673
 -0.4672  -0.4665  -0.4662  -0.4649  -0.4645  -0.4629  -0.4626  -0.4620
 -0.4616  -0.4607  -0.4605  -0.4593  -0.4579  -0.4572  -0.4561  -0.4556
 -0.4531  -0.4526  -0.4524  -0.4520  -0.4508  -0.4501  -0.4493  -0.4480
 -0.4476  -0.4468  -0.4457  -0.4449  -0.4448  -0.4445  -0.4433  -0.4432
 -0.4430  -0.4421  -0.4417  -0.4416  -0.4408  -0.4403  -0.4398  -0.4374
 -0.4369  -0.4367  -0.4360  -0.4346  -0.4338  -0.4318  -0.4314  -0.4313
 -0.4303  -0.4295  -0.4289  -0.4281  -0.4278  -0.4276  -0.4260  -0.4259
 -0.4249  -0.4238  -0.4234  -0.4228  -0.4226  -0.4222  -0.4218  -0.4216
 -0.4211  -0.4202  -0.4190  -0.4181  -0.4172  -0.4169  -0.4165  -0.4159
 -0.4155  -0.4152  -0.4136  -0.4129  -0.4125  -0.4123  -0.4118  -0.4113
 -0.4094  -0.4091  -0.4085  -0.4069  -0.4067  -0.4056  -0.4051  -0.4048
 -0.4024  -0.4008  -0.4004  -0.3995  -0.3988  -0.3983  -0.3977  -0.3970
 -0.3967  -0.3959  -0.3953  -0.3946  -0.3918  -0.3903  -0.3894  -0.3892
 -0.3882  -0.3877  -0.3865  -0.3857  -0.3850  -0.3845  -0.3842  -0.3835
 -0.3832  -0.3820  -0.3804  -0.3802  -0.3788  -0.3773  -0.3769  -0.3760
 -0.3745  -0.3741  -0.3737  -0.3734  -0.3729  -0.3713  -0.3701  -0.3695
 -0.3691  -0.3688  -0.3685  -0.3681  -0.3676  -0.3671  -0.3659  -0.3652
 -0.3644  -0.3637  -0.3616  -0.3602  -0.3599  -0.3566  -0.3560  -0.3528
 -0.3522  -0.3505  -0.3480  -0.3469  -0.3442  -0.3440  -0.3417  -0.3386
 -0.3379  -0.3367  -0.3308  -0.3299  -0.3273  -0.3143  -0.3134  -0.3103
 -0.3088  -0.3021  -0.2987  -0.2954  -0.2926  -0.2916  -0.2897  -0.2879
 -0.2859  -0.2844  -0.2837  -0.2828  -0.2770  -0.2762  -0.2735  -0.2716
 -0.2705  -0.2696  -0.2677  -0.2644  -0.2626  -0.2624  -0.2596  -0.2593
 -0.2590  -0.2584  -0.2573  -0.2563  -0.2548  -0.2545  -0.2524  -0.2519
 -0.2499  -0.2482  -0.2466  -0.2458  -0.2449  -0.2432  -0.2419  -0.2403
 -0.2374  -0.2367  -0.2363  -0.2350  -0.2338  -0.2336  -0.2298  -0.2270
 -0.2251  -0.2245  -0.2217  -0.2212  -0.2173  -0.2108  -0.2076  -0.2027
 -0.1904  -0.1828
 -- Virtual --
 -0.0335  -0.0273  -0.0233  -0.0223  -0.0214  -0.0192  -0.0171  -0.0153
 -0.0136  -0.0127  -0.0123  -0.0107  -0.0096  -0.0085  -0.0067  -0.0058
 -0.0049  -0.0030  -0.0023  -0.0013  -0.0007  -0.0001   0.0015   0.0020
  0.0037   0.0038   0.0047   0.0054   0.0062   0.0070   0.0080   0.0095
  0.0106   0.0108   0.0114   0.0130   0.0139   0.0150   0.0155   0.0159
  0.0168   0.0171   0.0174   0.0181   0.0189   0.0201   0.0206   0.0214
  0.0224   0.0233   0.0235   0.0244   0.0249   0.0253   0.0256   0.0268
  0.0272   0.0276   0.0285   0.0290   0.0292   0.0299   0.0307   0.0309
  0.0319   0.0322   0.0326   0.0332   0.0339   0.0343   0.0355   0.0355
  0.0361   0.0363   0.0367   0.0381   0.0387   0.0393   0.0400   0.0409
  0.0410   0.0413   0.0417   0.0427   0.0435   0.0446   0.0449   0.0452
  0.0456   0.0457   0.0469   0.0474   0.0481   0.0489   0.0495   0.0503
  0.0507   0.0512   0.0514   0.0526   0.0528   0.0534   0.0539   0.0543
  0.0553   0.0562   0.0566   0.0567   0.0578   0.0587   0.0593   0.0595
  0.0607   0.0608   0.0619   0.0619   0.0621   0.0632   0.0635   0.0640
  0.0651   0.0652   0.0663   0.0672   0.0679   0.0688   0.0693   0.0700
  0.0705   0.0710   0.0713   0.0720   0.0724   0.0726   0.0739   0.0742
  0.0747   0.0751   0.0763   0.0764   0.0772   0.0780   0.0787   0.0796
  0.0801   0.0807   0.0813   0.0819   0.0828   0.0842   0.0844   0.0849
  0.0855   0.0861   0.0873   0.0880   0.0883   0.0892   0.0898   0.0902
  0.0902   0.0909   0.0918   0.0920   0.0923   0.0930   0.0936   0.0945
  0.0947   0.0956   0.0958   0.0963   0.0969   0.0977   0.0982   0.0986
  0.0995   0.1003   0.1003   0.1006   0.1019   0.1022   0.1029   0.1039
  0.1046   0.1048   0.1053   0.1058   0.1067   0.1073   0.1078   0.1087
  0.1098   0.1104   0.1105   0.1113   0.1121   0.1127   0.1139   0.1144
  0.1156   0.1159   0.1165   0.1170   0.1181   0.1188   0.1193   0.1198
  0.1202   0.1208   0.1210   0.1215   0.1227   0.1235   0.1238   0.1245
  0.1251   0.1257   0.1266   0.1272   0.1281   0.1286   0.1289   0.1293
  0.1295   0.1300   0.1309   0.1324   0.1326   0.1331   0.1338   0.1349
  0.1350   0.1361   0.1364   0.1371   0.1378   0.1383   0.1391   0.1393
  0.1402   0.1405   0.1411   0.1414   0.1419   0.1428   0.1434   0.1446
  0.1451   0.1459   0.1460   0.1464   0.1475   0.1477   0.1484   0.1490
  0.1492   0.1497   0.1503   0.1512   0.1517   0.1520   0.1526   0.1530
  0.1535   0.1544   0.1547   0.1557   0.1563   0.1565   0.1573   0.1580
  0.1582   0.1586   0.1592   0.1600   0.1611   0.1618   0.1624   0.1630
  0.1635   0.1640   0.1650   0.1653   0.1664   0.1672   0.1678   0.1679
  0.1687   0.1692   0.1695   0.1704   0.1706   0.1713   0.1728   0.1729
  0.1741   0.1746   0.1747   0.1753   0.1770   0.1771   0.1774   0.1778
  0.1782   0.1788   0.1797   0.1803   0.1807   0.1818   0.1825   0.1830
  0.1836   0.1840   0.1842   0.1853   0.1858   0.1862   0.1870   0.1874
  0.1880   0.1889   0.1890   0.1895   0.1903   0.1905   0.1918   0.1923
  0.1927   0.1931   0.1936   0.1939   0.1949   0.1955   0.1957   0.1962
  0.1968   0.1975   0.1987   0.2000   0.2002   0.2010   0.2013   0.2016
  0.2020   0.2025   0.2041   0.2043   0.2050   0.2051   0.2059   0.2073
  0.2075   0.2083   0.2088   0.2090   0.2100   0.2106   0.2108   0.2117
  0.2122   0.2124   0.2134   0.2138   0.2146   0.2157   0.2163   0.2163
  0.2173   0.2176   0.2179   0.2187   0.2194   0.2200   0.2206   0.2215
  0.2227   0.2231   0.2241   0.2243   0.2252   0.2258   0.2264   0.2274
  0.2280   0.2285   0.2290   0.2293   0.2300   0.2307   0.2308   0.2318
  0.2325   0.2328   0.2330   0.2337   0.2352   0.2357   0.2370   0.2375
  0.2378   0.2383   0.2390   0.2395   0.2401   0.2409   0.2416   0.2425
  0.2429   0.2434   0.2440   0.2447   0.2455   0.2464   0.2470   0.2479
  0.2492   0.2497   0.2500   0.2510   0.2518   0.2521   0.2530   0.2538
  0.2541   0.2547   0.2552   0.2555   0.2565   0.2569   0.2571   0.2580
  0.2586   0.2592   0.2600   0.2606   0.2611   0.2627   0.2630   0.2642
  0.2648   0.2654   0.2661   0.2671   0.2676   0.2680   0.2684   0.2689
  0.2700   0.2714   0.2723   0.2734   0.2738   0.2744   0.2752   0.2759
  0.2764   0.2770   0.2773   0.2777   0.2785   0.2788   0.2802   0.2812
  0.2817   0.2823   0.2833   0.2837   0.2845   0.2859   0.2861   0.2865
  0.2875   0.2893   0.2900   0.2909   0.2913   0.2917   0.2921   0.2928
  0.2941   0.2944   0.2948   0.2958   0.2965   0.2971   0.2991   0.2994
  0.2999   0.3005   0.3011   0.3024   0.3029   0.3038   0.3047   0.3062
  0.3068   0.3071   0.3081   0.3086   0.3098   0.3104   0.3106   0.3113
  0.3117   0.3121   0.3126   0.3143   0.3147   0.3156   0.3167   0.3174
  0.3189   0.3192   0.3200   0.3210   0.3212   0.3222   0.3232   0.3244
  0.3248   0.3264   0.3271   0.3278   0.3281   0.3286   0.3297   0.3308
  0.3319   0.3327   0.3333   0.3345   0.3350   0.3356   0.3361   0.3367
  0.3390   0.3395   0.3396   0.3408   0.3414   0.3421   0.3433   0.3442
  0.3445   0.3456   0.3468   0.3473   0.3475   0.3488   0.3510   0.3515
  0.3517   0.3523   0.3539   0.3544   0.3552   0.3565   0.3567   0.3574
  0.3588   0.3601   0.3605   0.3617   0.3629   0.3637   0.3646   0.3652
  0.3657   0.3665   0.3671   0.3677   0.3696   0.3704   0.3713   0.3718
  0.3726   0.3732   0.3741   0.3757   0.3766   0.3772   0.3781   0.3789
  0.3796   0.3800   0.3813   0.3817   0.3820   0.3835   0.3846   0.3856
  0.3858   0.3861   0.3882   0.3886   0.3899   0.3903   0.3912   0.3914
  0.3920   0.3926   0.3938   0.3944   0.3951   0.3969   0.3977   0.3981
  0.3991   0.3999   0.4009   0.4025   0.4028   0.4047   0.4055   0.4063
  0.4067   0.4076   0.4084   0.4103   0.4110   0.4111   0.4115   0.4126
  0.4143   0.4146   0.4152   0.4162   0.4165   0.4181   0.4194   0.4196
  0.4210   0.4213   0.4223   0.4238   0.4248   0.4251   0.4260   0.4269
  0.4275   0.4295   0.4309   0.4320   0.4340   0.4343   0.4348   0.4350
  0.4360   0.4373   0.4392   0.4402   0.4405   0.4426   0.4433   0.4443
  0.4462   0.4467   0.4484   0.4486   0.4498   0.4524   0.4543   0.4552
  0.4554   0.4575   0.4581   0.4591   0.4602   0.4611   0.4639   0.4643
  0.4655   0.4658   0.4670   0.4673   0.4703   0.4714   0.4725   0.4744
  0.4747   0.4754   0.4766   0.4784   0.4805   0.4805   0.4825   0.4832
  0.4840   0.4873   0.4882   0.4892   0.4937   0.4944   0.4956   0.4961
  0.4982   0.4986   0.4995   0.5018   0.5036   0.5051   0.5056   0.5069
  0.5081   0.5095   0.5113   0.5124   0.5130   0.5141   0.5168   0.5185
  0.5200   0.5211   0.5228   0.5267   0.5274   0.5280   0.5298   0.5306
  0.5322   0.5348   0.5356   0.5363   0.5369   0.5392   0.5415   0.5425
  0.5440   0.5445   0.5450   0.5483   0.5501   0.5505   0.5518   0.5539
  0.5558   0.5576   0.5598   0.5626   0.5633   0.5648   0.5657   0.5664
  0.5671   0.5692   0.5712   0.5728   0.5739   0.5763   0.5783   0.5796
  0.5812   0.5815   0.5841   0.5850   0.5856   0.5870   0.5885   0.5905
  0.5907   0.5934   0.5952   0.5962   0.5976   0.5983   0.5997   0.6016
  0.6027   0.6030   0.6061   0.6074   0.6088   0.6107   0.6115   0.6124
  0.6134   0.6159   0.6161   0.6183   0.6199   0.6205   0.6220   0.6238
  0.6248   0.6269   0.6284   0.6302   0.6307   0.6315   0.6332   0.6350
  0.6356   0.6366   0.6383   0.6386   0.6397   0.6411   0.6430   0.6433
  0.6457   0.6489   0.6490   0.6494   0.6501   0.6509   0.6514   0.6531
  0.6534   0.6536   0.6547   0.6560   0.6576   0.6582   0.6585   0.6606
  0.6620   0.6625   0.6636   0.6641   0.6658   0.6671   0.6678   0.6680
  0.6689   0.6702   0.6711   0.6726   0.6728   0.6733   0.6753   0.6765
  0.6778   0.6784   0.6790   0.6794   0.6811   0.6822   0.6834   0.6845
  0.6856   0.6860   0.6871   0.6878   0.6884   0.6900   0.6918   0.6924
  0.6931   0.6942   0.6953   0.6960   0.6978   0.6981   0.7001   0.7006
  0.7011   0.7023   0.7044   0.7063   0.7075   0.7081   0.7091   0.7101
  0.7113   0.7128   0.7133   0.7135   0.7153   0.7177   0.7187   0.7194
  0.7206   0.7226   0.7232   0.7242   0.7254   0.7269   0.7278   0.7297
  0.7309   0.7324   0.7329   0.7345   0.7355   0.7371   0.7388   0.7399
  0.7411   0.7421   0.7442   0.7444   0.7468   0.7486   0.7494   0.7504
  0.7522   0.7541   0.7544   0.7557   0.7570   0.7587   0.7612   0.7627
  0.7635   0.7644   0.7657   0.7673   0.7690   0.7698   0.7715   0.7729
  0.7738   0.7759   0.7786   0.7805   0.7819   0.7842   0.7848   0.7855
  0.7865   0.7872   0.7900   0.7919   0.7940   0.7952   0.7970   0.7987
  0.7994   0.8009   0.8019   0.8045   0.8055   0.8072   0.8087   0.8102
  0.8118   0.8119   0.8143   0.8151   0.8163   0.8175   0.8204   0.8208
  0.8234   0.8243   0.8260   0.8276   0.8293   0.8310   0.8317   0.8338
  0.8344   0.8359   0.8365   0.8386   0.8396   0.8412   0.8423   0.8431
  0.8458   0.8462   0.8469   0.8476   0.8492   0.8524   0.8529   0.8541
  0.8544   0.8564   0.8578   0.8585   0.8600   0.8616   0.8619   0.8636
  0.8646   0.8664   0.8675   0.8676   0.8681   0.8698   0.8708   0.8716
  0.8728   0.8732   0.8745   0.8756   0.8764   0.8789   0.8791   0.8810
  0.8820   0.8823   0.8831   0.8859   0.8869   0.8874   0.8886   0.8900
  0.8908   0.8930   0.8955   0.8961   0.8977   0.8999   0.9000   0.9013
  0.9035   0.9048   0.9060   0.9064   0.9076   0.9088   0.9100   0.9105
  0.9131   0.9142   0.9159   0.9169   0.9170   0.9201   0.9227   0.9230
  0.9243   0.9249   0.9267   0.9271   0.9279   0.9304   0.9307   0.9313
  0.9337   0.9344   0.9344   0.9358   0.9380   0.9389   0.9397   0.9409
  0.9425   0.9436   0.9440   0.9453   0.9459   0.9466   0.9472   0.9485
  0.9503   0.9508   0.9516   0.9520   0.9528   0.9546   0.9555   0.9562
  0.9572   0.9588   0.9600   0.9609   0.9617   0.9625   0.9633   0.9652
  0.9670   0.9676   0.9686   0.9691   0.9710   0.9713   0.9715   0.9738
  0.9742   0.9752   0.9763   0.9779   0.9787   0.9797   0.9801   0.9806
  0.9819   0.9828   0.9848   0.9861   0.9867   0.9874   0.9892   0.9896
  0.9913   0.9926   0.9927   0.9936   0.9950   0.9965   0.9973   0.9979
  0.9990   0.9997   1.0005   1.0024   1.0035   1.0042   1.0055   1.0058
  1.0073   1.0088   1.0090   1.0095   1.0112   1.0124   1.0133   1.0143
  1.0147   1.0160   1.0167   1.0180   1.0185   1.0195   1.0213   1.0223
  1.0246   1.0262   1.0265   1.0276   1.0286   1.0294   1.0307   1.0316
  1.0320   1.0342   1.0349   1.0377   1.0381   1.0396   1.0397   1.0412
  1.0414   1.0427   1.0436   1.0459   1.0479   1.0488   1.0494   1.0511
  1.0520   1.0523   1.0540   1.0555   1.0569   1.0588   1.0607   1.0614
  1.0625   1.0647   1.0660   1.0680   1.0705   1.0709   1.0714   1.0726
  1.0746   1.0765   1.0773   1.0811   1.0819   1.0829   1.0837   1.0858
  1.0869   1.0886   1.0903   1.0913   1.0918   1.0932   1.0950   1.0963
  1.0982   1.0997   1.1006   1.1021   1.1033   1.1049   1.1057   1.1078
  1.1085   1.1095   1.1105   1.1117   1.1137   1.1152   1.1171   1.1185
  1.1202   1.1204   1.1224   1.1235   1.1256   1.1262   1.1273   1.1294
  1.1296   1.1311   1.1329   1.1345   1.1363   1.1370   1.1372   1.1392
  1.1412   1.1428   1.1444   1.1452   1.1467   1.1478   1.1484   1.1497
  1.1507   1.1513   1.1521   1.1554   1.1566   1.1571   1.1585   1.1601
  1.1619   1.1627   1.1633   1.1645   1.1655   1.1665   1.1679   1.1697
  1.1719   1.1730   1.1742   1.1755   1.1778   1.1794   1.1797   1.1809
  1.1832   1.1846   1.1857   1.1870   1.1880   1.1891   1.1915   1.1918
  1.1948   1.1955   1.1973   1.1987   1.2005   1.2013   1.2017   1.2046
  1.2070   1.2085   1.2103   1.2106   1.2113   1.2156   1.2171   1.2173
  1.2203   1.2221   1.2248   1.2256   1.2271   1.2290   1.2300   1.2321
  1.2332   1.2363   1.2379   1.2411   1.2441   1.2445   1.2482   1.2497
  1.2514   1.2533   1.2575   1.2577   1.2598   1.2606   1.2629   1.2638
  1.2671   1.2693   1.2716   1.2727   1.2748   1.2782   1.2815   1.2850
  1.2860   1.2875   1.2895   1.2912   1.2938   1.2984   1.2990   1.3021
  1.3044   1.3060   1.3067   1.3072   1.3120   1.3136   1.3150   1.3178
  1.3187   1.3214   1.3240   1.3282   1.3288   1.3321   1.3331   1.3345
  1.3359   1.3388   1.3408   1.3425   1.3444   1.3450   1.3479   1.3489
  1.3533   1.3549   1.3559   1.3569   1.3577   1.3596   1.3616   1.3640
  1.3657   1.3673   1.3679   1.3708   1.3716   1.3729   1.3732   1.3754
  1.3788   1.3796   1.3803   1.3821   1.3842   1.3856   1.3869   1.3874
  1.3893   1.3908   1.3927   1.3933   1.3947   1.3961   1.3965   1.3982
  1.3987   1.4013   1.4014   1.4037   1.4043   1.4052   1.4071   1.4093
  1.4102   1.4105   1.4130   1.4146   1.4148   1.4168   1.4176   1.4177
  1.4189   1.4197   1.4217   1.4234   1.4242   1.4254   1.4266   1.4291
  1.4307   1.4321   1.4330   1.4353   1.4368   1.4371   1.4395   1.4410
  1.4430   1.4448   1.4472   1.4474   1.4493   1.4504   1.4510   1.4534
  1.4555   1.4575   1.4583   1.4597   1.4600   1.4621   1.4644   1.4665
  1.4671   1.4671   1.4708   1.4713   1.4727   1.4743   1.4755   1.4791
  1.4808   1.4818   1.4843   1.4861   1.4878   1.4901   1.4926   1.4934
  1.4955   1.4980   1.5007   1.5023   1.5057   1.5063   1.5095   1.5099
  1.5124   1.5138   1.5173   1.5184   1.5196   1.5228   1.5247   1.5262
  1.5301   1.5325   1.5336   1.5397   1.5413   1.5443   1.5455   1.5512
  1.5542   1.5566   1.5585   1.5595   1.5610   1.5640   1.5708   1.5761
  1.5785   1.5805   1.5809   1.5866   1.5900   1.5908   1.5956   1.6037
  1.6057   1.6076   1.6097   1.6115   1.6157   1.6212   1.6251   1.6261
  1.6316   1.6362   1.6401   1.6463   1.6494   1.6501   1.6546   1.6561
  1.6564   1.6586   1.6613   1.6630   1.6634   1.6671   1.6679   1.6683
  1.6699   1.6725   1.6757   1.6769   1.6774   1.6786   1.6809   1.6835
  1.6841   1.6864   1.6866   1.6889   1.6909   1.6924   1.6955   1.6968
  1.6980   1.6986   1.6993   1.7003   1.7021   1.7024   1.7044   1.7052
  1.7059   1.7062   1.7077   1.7103   1.7112   1.7139   1.7147   1.7153
  1.7156   1.7178   1.7183   1.7191   1.7199   1.7214   1.7244   1.7251
  1.7267   1.7280   1.7295   1.7308   1.7332   1.7346   1.7361   1.7373
  1.7394   1.7404   1.7414   1.7427   1.7448   1.7460   1.7482   1.7497
  1.7501   1.7517   1.7530   1.7536   1.7559   1.7576   1.7585   1.7607
  1.7615   1.7636   1.7646   1.7657   1.7675   1.7696   1.7713   1.7726
  1.7736   1.7749   1.7767   1.7776   1.7796   1.7798   1.7804   1.7832
  1.7848   1.7855   1.7867   1.7881   1.7909   1.7945   1.7959   1.7980
  1.7993   1.8018   1.8021   1.8065   1.8072   1.8104   1.8112   1.8130
  1.8135   1.8152   1.8176   1.8188   1.8210   1.8226   1.8284   1.8312
  1.8318   1.8369   1.8384   1.8407   1.8438   1.8481   1.8503   1.8532
  1.8552   1.8598   1.8617   1.8627   1.8629   1.8662   1.8670   1.8682
  1.8687   1.8710   1.8741   1.8744   1.8763   1.8774   1.8785   1.8795
  1.8807   1.8811   1.8819   1.8830   1.8847   1.8852   1.8866   1.8877
  1.8892   1.8909   1.8916   1.8948   1.8972   1.8982   1.9001   1.9014
  1.9034   1.9045   1.9058   1.9079   1.9093   1.9099   1.9120   1.9131
  1.9141   1.9150   1.9157   1.9167   1.9190   1.9210   1.9222   1.9244
  1.9268   1.9280   1.9296   1.9299   1.9317   1.9330   1.9333   1.9346
  1.9358   1.9373   1.9388   1.9404   1.9444   1.9457   1.9488   1.9508
  1.9521   1.9552   1.9563   1.9606   1.9613   1.9623   1.9637   1.9650
  1.9746   1.9753   1.9787   1.9837   1.9911   1.9956   2.0004   2.0033
  2.0116   2.0255   2.0348   2.0381   2.0407   2.0473   2.0477   2.0495
  2.0507   2.0520   2.0547   2.0578   2.0600   2.0617   2.0637   2.0650
  2.0667   2.0672   2.0687   2.0738   2.0763   2.0775   2.0794   2.0804
  2.0810   2.0826   2.0845   2.0850   2.0862   2.0876   2.0889   2.0920
  2.0932   2.0943   2.0957   2.0976   2.0989   2.1015   2.1034   2.1039
  2.1062   2.1068   2.1076   2.1100   2.1126   2.1152   2.1167   2.1172
  2.1189   2.1208   2.1227   2.1244   2.1253   2.1273   2.1293   2.1308
  2.1333   2.1354   2.1399   2.1413   2.1461   2.1473   2.1494   2.1589
  2.1646   2.1662   2.1665   2.1671   2.1697   2.1702   2.1738   2.1804
  2.1822   2.1853   2.1896   2.1924   2.1933   2.1949   2.1968   2.1983
  2.2016   2.2026   2.2043   2.2050   2.2064   2.2078   2.2102   2.2145
  2.2161   2.2171   2.2190   2.2200   2.2207   2.2214   2.2239   2.2243
  2.2255   2.2272   2.2290   2.2309   2.2314   2.2327   2.2337   2.2343
  2.2352   2.2355   2.2366   2.2374   2.2387   2.2409   2.2416   2.2428
  2.2444   2.2456   2.2457   2.2497   2.2515   2.2528   2.2534   2.2538
  2.2561   2.2578   2.2581   2.2595   2.2603   2.2617   2.2625   2.2635
  2.2648   2.2658   2.2662   2.2676   2.2696   2.2702   2.2716   2.2726
  2.2733   2.2743   2.2757   2.2767   2.2771   2.2793   2.2798   2.2812
  2.2820   2.2832   2.2844   2.2847   2.2850   2.2856   2.2865   2.2872
  2.2890   2.2895   2.2915   2.2920   2.2939   2.2951   2.2952   2.2961
  2.2974   2.2990   2.2992   2.3005   2.3023   2.3025   2.3037   2.3040
  2.3060   2.3066   2.3075   2.3091   2.3101   2.3108   2.3124   2.3128
  2.3134   2.3159   2.3177   2.3183   2.3191   2.3212   2.3221   2.3231
  2.3246   2.3249   2.3268   2.3275   2.3295   2.3329   2.3332   2.3342
  2.3365   2.3378   2.3381   2.3385   2.3396   2.3402   2.3429   2.3451
  2.3459   2.3518   2.3523   2.3525   2.3540   2.3558   2.3578   2.3594
  2.3614   2.3618   2.3619   2.3668   2.3681   2.3722   2.3737   2.3764
  2.3783   2.3788   2.3825   2.3840   2.3865   2.3880   2.3884   2.3932
  2.3968   2.3986   2.4021   2.4025   2.4070   2.4091   2.4126   2.4158
  2.4181   2.4279   2.4411   2.4566   2.4838   2.5059   2.5133   2.5629
  2.5892   2.6635   2.7405   2.7518   2.7774   2.8094   2.8250   2.8294
  2.8308   2.8318   2.8338   2.8389   2.8411   2.8446   2.8471   2.8480
  2.8510   2.8516   2.8579   2.8592   2.8627   2.8643   2.8657   2.8688
  2.8690   2.8710   2.8736   2.8766   2.8777   2.8800   2.8842   2.8899
  2.8950   2.9006   2.9098   2.9177   2.9489   3.1025   3.2436   3.9459
  3.9541   3.9547   3.9598   3.9698   3.9733   3.9765   3.9774   3.9826
  3.9843   3.9888   3.9895   3.9926   3.9942   3.9967   3.9985   3.9996
  4.0057   4.0079   4.0089   4.0109   4.0134   4.0162   4.0275   4.0361
  4.0414   4.0440   4.1911   4.2134   4.2213   4.2273   4.2338   4.2347
  4.2415   4.2448   4.2489   4.2504   4.2522   4.2584   4.2600   4.2625
  4.2654   4.2712   4.2741   4.2746   4.2800   4.2821   4.2839   4.2869
  4.2888   4.2939   4.2955   4.2976   4.3009   4.3016   4.3026   4.3039
  4.3077   4.3097   4.3126   4.3151   4.3171   4.3198   4.3225   4.3235
  4.3259   4.3264   4.3291   4.3316   4.3354   4.3365   4.3406   4.3446
  4.3454   4.3485   4.3515   4.3535   4.3588   4.3617   4.3650   4.3677
  4.3706   4.3757   4.3764   4.3788   4.3834   4.3882   4.3896   4.3923
  4.3952   4.3975   4.4065   4.4105   4.4154   4.4184   4.4202   4.4271
  4.4397   4.4428   4.4494   4.4524   4.4597   4.4711   4.4869   4.5011
  4.5123   4.5346   4.5418   4.5481   4.5690   4.5888   4.5995   4.6273
  4.7098   4.7427   4.7729   4.8893
 --------------------------------------------------------------

          Ground-State Mulliken Net Atomic Charges

     Atom                 Charge (a.u.)
  ----------------------------------------
      1 C                    -0.341395
      2 C                    -0.350978
      3 C                    -0.254689
      4 C                    -0.518523
      5 C                    -0.439798
      6 C                    -0.462096
      7 H                     0.243857
      8 H                     0.227401
      9 H                     0.227519
     10 H                     0.206318
     11 H                     0.192128
     12 H                     0.190587
     13 H                     0.192891
     14 H                     0.247390
     15 H                     0.219272
     16 H                     0.212485
     17 H                     0.200570
     18 N                    -0.455675
     19 H                     0.476092
     20 C                     0.364042
     21 H                     0.162052
     22 O                    -0.539450
     23 C                    -0.864996
     24 H                     0.273604
     25 H                     0.225765
     26 H                     0.242451
     27 S                     0.682810
     28 C                    -0.695921
     29 H                     0.267569
     30 H                     0.240354
     31 H                     0.304034
     32 O                    -0.649536
     33 C                    -0.876208
     34 H                     0.251872
     35 H                     0.266886
     36 H                     0.244452
     37 S                     0.812299
     38 C                    -0.733942
     39 H                     0.241813
     40 H                     0.279355
     41 H                     0.228443
     42 O                    -0.700916
     43 C                    -0.847751
     44 H                     0.249777
     45 H                     0.284462
     46 H                     0.228569
     47 S                     1.063562
     48 C                    -0.963598
     49 H                     0.223669
     50 H                     0.260757
     51 H                     0.233756
     52 O                    -0.662149
     53 C                    -0.794672
     54 H                     0.262615
     55 H                     0.254041
     56 H                     0.225475
     57 S                     0.768252
     58 C                    -0.998110
     59 H                     0.250293
     60 H                     0.330035
     61 H                     0.251972
     62 O                    -0.641674
     63 C                    -1.085322
     64 H                     0.252410
     65 H                     0.279209
     66 H                     0.230827
     67 S                     1.217356
     68 C                    -1.016864
     69 H                     0.254668
     70 H                     0.229987
     71 H                     0.291784
     72 O                    -0.708247
     73 C                    -0.926907
     74 H                     0.209943
     75 H                     0.282557
     76 H                     0.261483
     77 S                     0.982447
     78 C                    -0.844454
     79 H                     0.252943
     80 H                     0.250679
     81 H                     0.220158
     82 O                    -0.710713
     83 C                    -0.901179
     84 H                     0.256776
     85 H                     0.240911
     86 H                     0.219586
     87 S                     1.096900
     88 C                    -0.921646
     89 H                     0.319573
     90 H                     0.237709
     91 H                     0.289244
     92 O                    -0.804255
     93 C                    -1.070676
     94 H                     0.245726
     95 H                     0.276630
     96 H                     0.285709
     97 S                     0.988978
     98 C                    -0.817064
     99 H                     0.269324
    100 H                     0.255409
    101 H                     0.221094
    102 O                    -0.675291
    103 C                    -0.791001
    104 H                     0.248500
    105 H                     0.269351
    106 H                     0.278857
    107 S                     0.802540
    108 C                    -0.787146
    109 H                     0.249279
    110 H                     0.243226
    111 H                     0.232842
    112 O                    -0.656100
    113 C                    -0.944271
    114 H                     0.243314
    115 H                     0.297466
    116 H                     0.274055
    117 S                     0.968058
    118 C                    -0.950911
    119 H                     0.275225
    120 H                     0.244414
    121 H                     0.327838
    122 O                    -0.669974
    123 C                    -0.706970
    124 H                     0.259683
    125 H                     0.267480
    126 H                     0.228484
    127 S                     0.901335
    128 C                    -0.922366
    129 H                     0.259486
    130 H                     0.245242
    131 H                     0.261831
    132 O                    -0.720498
    133 C                    -0.932220
    134 H                     0.243789
    135 H                     0.267937
    136 H                     0.255367
    137 S                     0.844861
    138 C                    -0.827112
    139 H                     0.242083
    140 H                     0.286457
    141 H                     0.244754
    142 O                    -0.661885
    143 C                    -0.802007
    144 H                     0.250618
    145 H                     0.247581
    146 H                     0.243940
    147 S                     0.828501
    148 C                    -0.807728
    149 H                     0.242953
    150 H                     0.242873
    151 H                     0.250544
    152 O                    -0.657467
    153 C                    -0.864284
    154 H                     0.246521
    155 H                     0.254647
    156 H                     0.227215
    157 S                     0.961168
    158 C                    -0.776105
    159 H                     0.263960
    160 H                     0.228527
    161 H                     0.234823
    162 O                    -0.758056
    163 C                    -0.851753
    164 H                     0.262514
    165 H                     0.244167
    166 H                     0.250966
    167 S                     1.065031
    168 C                    -0.866494
    169 H                     0.238961
    170 H                     0.238385
    171 H                     0.244451
    172 O                    -0.712351
    173 C                    -0.882375
    174 H                     0.223090
    175 H                     0.251945
    176 H                     0.275923
    177 S                     1.043911
    178 C                    -0.935805
    179 H                     0.247245
    180 H                     0.233181
    181 H                     0.260326
    182 O                    -0.711098
    183 C                    -0.939709
    184 H                     0.291958
    185 H                     0.223579
    186 H                     0.313717
    187 S                     0.947560
    188 C                    -0.905843
    189 H                     0.258955
    190 H                     0.229536
    191 H                     0.256492
    192 O                    -0.672766
    193 C                    -1.040604
    194 H                     0.288572
    195 H                     0.239887
    196 H                     0.230451
    197 S                     0.945461
    198 C                    -0.838765
    199 H                     0.242900
    200 H                     0.267067
    201 H                     0.273665
    202 O                    -0.709565
    203 C                    -0.863900
    204 H                     0.250990
    205 H                     0.240028
    206 H                     0.247223
    207 S                     0.785286
    208 C                    -0.786729
    209 H                     0.235651
    210 H                     0.234567
    211 H                     0.281309
    212 O                    -0.646694
    213 C                    -0.763808
    214 H                     0.227707
    215 H                     0.255200
    216 H                     0.253107
    217 S                     0.730196
    218 C                    -0.770296
    219 H                     0.267019
    220 H                     0.275806
    221 H                     0.228528
    222 O                    -0.724573
    223 C                    -0.837676
    224 H                     0.276017
    225 H                     0.270447
    226 H                     0.236189
    227 S                     0.531378
    228 C                    -0.635065
    229 H                     0.283951
    230 H                     0.225523
    231 H                     0.256870
    232 O                    -0.582317
    233 C                    -0.874019
    234 H                     0.315059
    235 H                     0.247412
    236 H                     0.245463
    237 S                     0.760754
    238 C                    -0.940032
    239 H                     0.288391
    240 H                     0.254375
    241 H                     0.250054
    242 O                    -0.669841
    243 C                    -0.851857
    244 H                     0.247916
    245 H                     0.277056
    246 H                     0.250673
    247 S                     0.921960
    248 C                    -0.891506
    249 H                     0.242706
    250 H                     0.254028
    251 H                     0.251451
    252 O                    -0.676379
    253 C                    -0.961465
    254 H                     0.260604
    255 H                     0.235023
    256 H                     0.252882
    257 S                     1.121184
    258 C                    -0.953925
    259 H                     0.247947
    260 H                     0.269815
    261 H                     0.270906
    262 O                    -0.719164
    263 C                    -0.898959
    264 H                     0.224179
    265 H                     0.285338
    266 H                     0.312079
    267 S                     0.793872
    268 C                    -0.892098
    269 H                     0.262258
    270 H                     0.290281
    271 H                     0.236413
    272 O                    -0.661036
    273 C                    -0.819879
    274 H                     0.256794
    275 H                     0.241425
    276 H                     0.227276
    277 S                     0.923005
    278 C                    -0.839627
    279 H                     0.284319
    280 H                     0.249297
    281 H                     0.255761
    282 O                    -0.699061
    283 C                    -1.163724
    284 H                     0.242203
    285 H                     0.292357
    286 H                     0.288832
    287 S                     1.002937
    288 C                    -0.982490
    289 H                     0.274378
    290 H                     0.240586
    291 H                     0.249359
    292 O                    -0.616643
  ----------------------------------------
  Sum of atomic charges =     0.000000

 -----------------------------------------------------------------
                    Cartesian Multipole Moments
 -----------------------------------------------------------------
    Charge (ESU x 10^10)
                 0.0000
    Dipole Moment (Debye)
         X      17.4987      Y      -2.2313      Z      18.4164
       Tot      25.5019
    Quadrupole Moments (Debye-Ang)
        XX    -122.1677     XY     312.6530     YY   -1098.1455
        XZ     747.0556     YZ     270.3134     ZZ     122.3754
    Octopole Moments (Debye-Ang^2)
       XXX  -26563.0716    XXY   -2884.4489    XYY  -14045.1458
       YYY  -63578.6070    XXZ      -9.9096    XYZ   13578.2959
       YYZ  -23861.5941    XZZ   10774.6410    YZZ    -848.9463
       ZZZ  -30684.9390
    Hexadecapole Moments (Debye-Ang^3)
      XXXX ************   XXXY -535559.0286   XXYY -472873.9403
      XYYY ************   YYYY ************   XXXZ -690687.2998
      XXYZ   -9328.9819   XYYZ -285924.0094   YYYZ ************
      XXZZ -273551.7581   XYZZ  173078.6666   YYZZ -857187.7517
      XZZZ -414816.4451   YZZZ -703173.9726   ZZZZ ************
 -----------------------------------------------------------------
 Total job time:  30870.01s(wall), 255007.45s(cpu) 
 Thu Jul 21 18:24:14 2022

        *************************************************************
        *                                                           *
        *  Thank you very much for using Q-Chem.  Have a nice day.  *
        *                                                           *
        *************************************************************


 
User input: 2 of 2 
 
                  Welcome to Q-Chem
     A Quantum Leap Into The Future Of Chemistry


 Q-Chem 6.0 (devel), Q-Chem, Inc., Pleasanton, CA (2022)

 E. Epifanovsky,  A. T. B. Gilbert,  Xintian Feng,  Joonho Lee,  Yuezhi Mao,  
 N. Mardirossian,  P. Pokhilko,  A. White,  M. Wormit,  M. P. Coons,  
 A. L. Dempwolff,  Zhengting Gan,  D. Hait,  P. R. Horn,  L. D. Jacobson,  
 I. Kaliman,  J. Kussmann,  A. W. Lange,  Ka Un Lao,  D. S. Levine,  Jie Liu,  
 S. C. McKenzie,  A. F. Morrison,  K. Nanda,  F. Plasser,  D. R. Rehn,  
 M. L. Vidal,  Zhi-Qiang You,  Ying Zhu,  B. Alam,  B. Albrecht,  
 A. Aldossary,  E. Alguire,  J. H. Andersen,  V. Athavale,  D. Barton,  
[...]
          205         206         207         208         209         210
    1   3.3084187   0.4617875   1.0338249   0.9289738  -0.6292092   0.3607929
    2   2.1507941   3.8866802   1.6153070   1.3008583  -0.0464764   2.9013911
    3  -1.0273283  -2.2087245  -1.0018695  -3.3240223  -3.4220778  -3.6028777
          211         212         213         214         215         216
    1   2.9185036  -1.8585514   1.7509802   2.6371383  -0.3278172   2.9892918
    2   1.1032686   2.8459236  -1.1673497  -2.7280965  -1.0759535   0.5282246
    3  -2.6370224  -1.2353491  -3.2772003  -2.1605297  -3.7987205  -3.0752330
          217         218         219         220         221         222
    1   2.2928251   0.8785932   0.3807573  -0.4649535   2.2974489  -0.0900800
    2  -0.9733349  -2.2660244  -0.9552300  -1.8741091  -3.3368269   1.0065007
    3  -1.2647687  -1.1098725   0.5569690  -3.1198091  -1.1964892  -2.1869551
          223         224         225         226         227         228
    1   1.4278223   0.4270712   1.7838076   1.4233958   0.2377730   0.5588063
    2  -0.7705967  -1.8695914  -1.2008869   0.9321893  -0.6443741   1.2784041
    3  -0.6765901   0.4402279  -2.6438519   0.4933866  -2.2896138  -2.5679089
          229         230         231         232         233         234
    1  -1.1000888   0.9796422   1.5191356  -1.5314232  -0.4896269  -0.2011226
    2   2.0061429   1.5015466   0.4434801   0.2336952   0.5550230   1.3597496
    3  -2.8657078  -0.4353103  -3.9609109   0.2554301  -1.7358371   0.1315184
          235         236         237         238         239         240
    1  -0.7715187  -0.5181049   1.5386438   1.5964876   0.8596759   0.2461084
    2   1.3137245  -1.0268008  -0.1751208  -0.3012470   1.1723758  -1.5551468
    3  -3.5806380  -1.6492398  -2.4414659  -0.0308502   0.8286177  -0.0662858
          241         242         243         244         245         246
    1   3.3899026   2.4827433  -2.2975266  -3.3321488  -0.4049506  -3.0376170
    2  -0.3162384   2.7698075   0.5716317   1.2042482  -0.5254596   1.5416703
    3  -0.6435225  -1.8071658   0.3405213  -1.2745201   0.1686922   1.9607497
          247         248         249         250         251         252
    1  -0.7966466  -2.5279978  -3.9061405  -2.4782748  -1.2200137  -1.1959310
    2   1.6385599   3.1097140   2.0003515   2.9660121   4.1429340   1.3302013
    3   0.3850089  -0.0157360  -0.9307375   1.8488437  -1.2563554  -2.7681509
          253         254         255         256         257         258
    1  -1.0901951  -0.5274098  -0.2725056  -2.9183305   0.4665401  -0.6411689
    2  -3.2350869  -4.6433139  -2.5725277  -2.5903346  -1.9820294   0.0492481
    3   0.7731257  -0.4726360   2.0051954   0.2249652   0.0005408   0.7638810
          259         260         261         262         263         264
    1  -2.2593806   0.7823326  -0.5164057  -2.1180338  -0.4243787   1.0517760
    2  -0.8428505  -0.1497048   1.0059602  -2.0353746  -0.2231231   0.5163385
    3   1.3439606   1.7323721  -0.6577924  -1.9271188   0.4575625  -0.3750947
          265         266         267         268         269         270
    1  -0.4177630  -2.1591684  -0.1765557  -1.9246324  -3.2390933  -0.3933813
    2  -1.0528171   0.3749817   1.7627120   1.0330533   0.4402821   0.4208657
    3   1.8208444  -0.4879807   1.9381104   2.3102808   0.7746083   3.2703029
          271         272         273         274         275         276
    1  -2.1828765  -2.3625603   3.5874696   2.5192422   3.7624783   3.9326024
    2   2.8694161   3.1976787   1.3539246   3.0712629  -0.1850225   1.1922931
    3   2.9414867   0.0268779   0.4923244   1.1712172   1.7273820  -1.5976458
          277         278         279         280         281         282
    1   2.5950074   2.1354482   0.9212170   2.1509344   3.4847506   1.0874660
    2   0.1254558   2.0043395   1.0584930   3.6018034   1.2329868   0.9761447
    3  -0.6191867  -1.5536986  -1.8318302  -0.0340619  -2.6001951   2.0618277
          283         284         285         286         287         288
    1  -1.4451349  -3.1639178  -0.1208871  -1.1721450  -1.4778526   0.2687025
    2   0.4918701   1.2237406   1.8639823  -1.6209297   0.3318119  -0.7931332
    3  -2.4144098  -2.7811561  -1.4559744  -2.6345055  -0.5183195   0.0791212
          289         290         291         292
    1   1.1521956  -0.4635613   0.1190023  -3.2472441
    2   0.9817063  -1.7537314  -1.8305349  -2.7576880
    3   0.1781954   1.1940665  -1.5858877  -1.2039711
 EField
            1           2           3           4           5           6
    1  -0.0022867  -0.0058196  -0.0033605  -0.0045224  -0.0047167  -0.0000180
    2   0.0025356   0.0057078   0.0035284   0.0032098   0.0044198   0.0058387
    3  -0.0028898  -0.0051371  -0.0044723  -0.0028318  -0.0004953  -0.0019206
            7           8           9          10          11          12
    1   0.0004138  -0.0047824  -0.0053278   0.0044272  -0.0041595  -0.0048383
    2  -0.0032191   0.0095878  -0.0007237  -0.0006533   0.0024888   0.0030715
    3  -0.0048600  -0.0074975  -0.0018321  -0.0049543  -0.0038882  -0.0009818
           13          14          15          16          17          18
    1  -0.0033968  -0.0081244  -0.0025146   0.0047604  -0.0010113  -0.0129491
    2   0.0071745   0.0001106   0.0091626   0.0031216   0.0064933   0.0052008
    3   0.0056242  -0.0051596  -0.0030620  -0.0021528  -0.0043832  -0.0069076
           19          20          21          22          23          24
    1  -0.0282998  -0.0101659  -0.0074584  -0.0097164   0.0056384  -0.0151546
    2   0.0035966   0.0037092   0.0029518   0.0030829   0.0002367   0.0050718
    3  -0.0069868  -0.0072464  -0.0058483  -0.0066053  -0.0058785  -0.0301128
           25          26          27          28          29          30
    1   0.0229834   0.0164306  -0.0284329   0.0002114   0.0155629   0.0172414
    2   0.0164956  -0.0224625   0.0456657  -0.0048366  -0.0262817   0.0223879
    3   0.0217171   0.0008618   0.0175879   0.0049228  -0.0082997   0.0198865
           31          32          33          34          35          36
    1  -0.0213328  -0.0432696   0.0016946   0.0233620   0.0266587  -0.0336700
    2  -0.0272013  -0.0756150   0.0079353   0.0136364   0.0083312   0.0015333
    3   0.0168154  -0.0682840  -0.0067531   0.0239909  -0.0197063  -0.0092996
           37          38          39          40          41          42
    1  -0.0271952   0.0052486   0.0196776   0.0198005   0.0090852  -0.0445822
    2  -0.0057554   0.0005780   0.0104086   0.0085567  -0.0320088  -0.0528435
    3   0.0626917   0.0011215  -0.0195870   0.0259973   0.0045298  -0.0835948
           43          44          45          46          47          48
    1   0.0001493  -0.0260714  -0.0113094   0.0191491   0.0434930   0.0008330
    2   0.0038613   0.0151187   0.0128270   0.0340773  -0.0212563   0.0016048
    3   0.0029785  -0.0063141   0.0310034  -0.0062439   0.0272393  -0.0055521
           49          50          51          52          53          54
    1   0.0342286  -0.0213145  -0.0278573  -0.1028170   0.0061300  -0.0043440
    2   0.0117381  -0.0249529   0.0125562  -0.0406623  -0.0078123  -0.0233069
    3  -0.0058774  -0.0120523  -0.0194854   0.0105391   0.0044941   0.0202996
           55          56          57          58          59          60
    1   0.0009654   0.0268140   0.0056527   0.0054503   0.0216519  -0.0157921
    2  -0.0190953   0.0197116   0.0401055   0.0010947   0.0242791   0.0179781
    3  -0.0264353   0.0079257  -0.0402582   0.0094539   0.0158558  -0.0049359
           61          62          63          64          65          66
    1   0.0031917  -0.0822877   0.0095585   0.0139742   0.0004551   0.0135801
    2  -0.0258316  -0.0750770   0.0033806   0.0225351  -0.0075107  -0.0202848
    3   0.0150564  -0.0009879   0.0081594   0.0126473   0.0320540  -0.0260649
           67          68          69          70          71          72
    1  -0.0122608   0.0007700  -0.0020150  -0.0302790   0.0064751  -0.0195463
    2   0.0004070  -0.0001389   0.0289455   0.0042591  -0.0035937  -0.0913800
    3  -0.0562696   0.0059647  -0.0067362  -0.0033466   0.0323132   0.0605211
           73          74          75          76          77          78
    1  -0.0041962  -0.0104966   0.0203004  -0.0240040  -0.0309608   0.0062399
    2   0.0037435  -0.0105878   0.0226125   0.0187017  -0.0377317   0.0021771
    3   0.0041737   0.0342549   0.0030930  -0.0106249  -0.0107167   0.0012085
           79          80          81          82          83          84
    1   0.0198743   0.0186650   0.0047723   0.0308913   0.0048694   0.0077127
    2  -0.0190195   0.0240413  -0.0197936   0.0780664   0.0033941   0.0252249
    3  -0.0152557   0.0137114   0.0303548  -0.0729463   0.0038428  -0.0147235
           85          86          87          88          89          90
    1  -0.0067225   0.0227173  -0.0341628  -0.0017044   0.0039110   0.0142316
    2   0.0215974  -0.0212811  -0.0262505  -0.0060370   0.0184252  -0.0318778
    3   0.0270299   0.0061197   0.0347281  -0.0016767  -0.0151140   0.0125587
           91          92          93          94          95          96
    1  -0.0192612  -0.0296167   0.0070580   0.0138873  -0.0223965   0.0152636
    2  -0.0268320   0.0778584  -0.0028978   0.0285858  -0.0044488  -0.0263614
    3  -0.0106795  -0.0734289   0.0065302   0.0161943   0.0196553  -0.0088988
           97          98          99         100         101         102
    1  -0.0552866   0.0046018  -0.0213256   0.0311476  -0.0309619   0.0973103
    2   0.0247121  -0.0011346  -0.0079869  -0.0101027  -0.0129772   0.0574273
    3   0.0042272  -0.0085371  -0.0348557   0.0060452  -0.0022478  -0.0319800
          103         104         105         106         107         108
    1  -0.0032891   0.0028575   0.0171006  -0.0331510  -0.0268347   0.0046541
    2   0.0056585  -0.0176197   0.0282612  -0.0026779  -0.0518193   0.0026624
    3   0.0080422   0.0275685   0.0050950  -0.0013346  -0.0119771   0.0003882
          109         110         111         112         113         114
    1   0.0156121   0.0174647   0.0102006  -0.0075032   0.0042520   0.0233393
    2  -0.0114926   0.0264406  -0.0187337   0.0859847   0.0125354   0.0033430
    3  -0.0242140   0.0094126   0.0237829  -0.0677230  -0.0047805   0.0209670
          115         116         117         118         119         120
    1   0.0198007  -0.0295430   0.0423659  -0.0100453   0.0182953  -0.0190987
    2   0.0055015   0.0148800  -0.0339944   0.0063863   0.0039969  -0.0171941
    3  -0.0299320   0.0089312  -0.0172031  -0.0080321  -0.0299687  -0.0108190
          121         122         123         124         125         126
    1  -0.0300172  -0.0473190  -0.0006982  -0.0326402   0.0101218  -0.0028153
    2   0.0195611  -0.0016314  -0.0022807  -0.0028203  -0.0295891   0.0017352
    3   0.0122543   0.0968192  -0.0039944  -0.0112911  -0.0138502   0.0321421
          127         128         129         130         131         132
    1   0.0443224  -0.0063115   0.0005958  -0.0198024  -0.0165541   0.0050725
    2   0.0129587   0.0080226   0.0365539   0.0036871  -0.0122019  -0.0010455
    3   0.0379832   0.0008024  -0.0035338  -0.0214264   0.0250579  -0.1107112
          133         134         135         136         137         138
    1   0.0030554  -0.0122491  -0.0006428   0.0271625   0.0059388  -0.0108534
    2  -0.0099957  -0.0271560   0.0014776  -0.0040639   0.0011296  -0.0054689
    3  -0.0065803   0.0198896  -0.0363178  -0.0006857   0.0561264  -0.0046605
          139         140         141         142         143         144
    1   0.0071612  -0.0103531  -0.0151230   0.0316365   0.0054048   0.0312728
    2   0.0020678  -0.0212750   0.0263837   0.0817890  -0.0067653  -0.0022750
    3  -0.0335590   0.0297968   0.0025302  -0.0665656   0.0011012  -0.0089710
          145         146         147         148         149         150
    1  -0.0037787  -0.0240279  -0.0594156   0.0019750   0.0303932  -0.0268091
    2   0.0018828  -0.0231050   0.0120098  -0.0022216  -0.0117642  -0.0161915
    3   0.0302900  -0.0076576   0.0134590  -0.0093937  -0.0031656  -0.0148617
          151         152         153         154         155         156
    1  -0.0086139   0.0733291   0.0008319   0.0217677  -0.0114289  -0.0289142
    2   0.0250151   0.0796295  -0.0005213  -0.0235285   0.0221128  -0.0150715
    3  -0.0156272   0.0201284   0.0079128   0.0071021   0.0252946   0.0042793
          157         158         159         160         161         162
    1  -0.0501222   0.0071465   0.0265454  -0.0245106   0.0223527   0.0822949
    2   0.0155123  -0.0068798  -0.0083712  -0.0203978  -0.0063621   0.0653343
    3  -0.0305159  -0.0041265   0.0175917  -0.0122830  -0.0217689   0.0250532
          163         164         165         166         167         168
    1   0.0058260   0.0309716  -0.0150365   0.0000953   0.0120895  -0.0044630
    2   0.0071012   0.0039001  -0.0042347   0.0295050  -0.0543112  -0.0012273
    3  -0.0023757  -0.0048868  -0.0282703   0.0125389  -0.0149316   0.0009860
          169         170         171         172         173         174
    1  -0.0094239  -0.0130143  -0.0224561   0.0219426   0.0067624   0.0141584
    2   0.0286965  -0.0079975  -0.0008652   0.0452183  -0.0001834   0.0356119
    3   0.0044719  -0.0318061   0.0296008   0.0977768  -0.0027027   0.0077971
          175         176         177         178         179         180
    1  -0.0007543   0.0319758  -0.0022322  -0.0033634   0.0131740  -0.0147939
    2  -0.0123242  -0.0087272   0.0224934   0.0012904  -0.0038160   0.0312933
    3   0.0283626  -0.0140042  -0.0511965   0.0058287   0.0297386  -0.0090931
          181         182         183         184         185         186
    1  -0.0307498  -0.0184012   0.0040974  -0.0125237  -0.0170495   0.0329079
    2  -0.0088648  -0.1080680   0.0101658  -0.0001394   0.0189612   0.0132212
    3  -0.0023252   0.0156384  -0.0012681  -0.0175321   0.0252893  -0.0136654
          187         188         189         190         191         192
    1  -0.0475333   0.0085041   0.0301782  -0.0149039   0.0155411   0.0643369
    2  -0.0286512   0.0041243   0.0174901   0.0173009  -0.0274069  -0.0446922
    3   0.0217033   0.0045274  -0.0073519   0.0254281   0.0067076  -0.0779809
          193         194         195         196         197         198
    1   0.0082512   0.0235403  -0.0036332   0.0079866  -0.0256243  -0.0014829
    2  -0.0004607   0.0066654   0.0273764  -0.0234544   0.0450726  -0.0006059
    3   0.0025357  -0.0170627   0.0163053   0.0181608  -0.0288920   0.0086282
          199         200         201         202         203         204
    1  -0.0251171   0.0155576  -0.0291057   0.0252604   0.0025444  -0.0135866
    2  -0.0175486  -0.0127582   0.0215987  -0.0954646   0.0049020   0.0177913
    3  -0.0060581   0.0261357   0.0138413  -0.0478867   0.0011179   0.0276967
          205         206         207         208         209         210
    1   0.0338854  -0.0106577   0.0224606   0.0029314  -0.0130621  -0.0077535
    2  -0.0053460   0.0218534  -0.0432060  -0.0004116  -0.0232532   0.0214864
    3  -0.0131258  -0.0191460   0.0371475  -0.0055118  -0.0159796  -0.0225951
          211         212         213         214         215         216
    1   0.0285079  -0.1063040   0.0015509   0.0118875  -0.0210313   0.0119345
    2  -0.0205085   0.0292042  -0.0004413  -0.0354206   0.0007888   0.0246138
    3  -0.0073312   0.0077489  -0.0032684  -0.0096449  -0.0238962  -0.0253683
          217         218         219         220         221         222
    1   0.0511263  -0.0092502  -0.0186344  -0.0314720   0.0150719  -0.0697892
    2   0.0042451  -0.0024484  -0.0025973  -0.0132880  -0.0258882   0.0834330
    3   0.0310701  -0.0010434   0.0264549  -0.0146348   0.0052571  -0.0147313
          223         224         225         226         227         228
    1   0.0041341   0.0009286   0.0237545   0.0145603  -0.0072989  -0.0007021
    2  -0.0027588  -0.0293158  -0.0075813   0.0225853  -0.0403817   0.0112285
    3   0.0058666   0.0180621  -0.0182347   0.0202328  -0.0507644   0.0020137
          229         230         231         232         233         234
    1  -0.0224312   0.0098248   0.0203355  -0.0800637  -0.0108979  -0.0057438
    2   0.0223568   0.0206748  -0.0071320   0.0149171   0.0000208   0.0167352
    3  -0.0054439   0.0229105  -0.0229939   0.0741775   0.0060969   0.0271865
          235         236         237         238         239         240
    1  -0.0064348  -0.0092393   0.0130591  -0.0017652  -0.0198131  -0.0102100
    2   0.0201764  -0.0306203  -0.0374072  -0.0009969   0.0266968  -0.0314045
    3  -0.0246473   0.0081268  -0.0409032   0.0095485   0.0153158   0.0027127
          241         242         243         244         245         246
    1   0.0283175   0.0338067  -0.0027489  -0.0117491   0.0014029  -0.0076188
    2  -0.0208846   0.1028531  -0.0103243  -0.0111361  -0.0414650   0.0014249
    3  -0.0004230   0.0044173   0.0016017  -0.0253924   0.0058282   0.0330771
          247         248         249         250         251         252
    1   0.0401267  -0.0038956  -0.0230366   0.0022161   0.0040790   0.0118856
    2  -0.0007162   0.0042762  -0.0077106   0.0089264   0.0279481  -0.0136056
    3   0.0362464  -0.0006569  -0.0223951   0.0329992  -0.0167480  -0.1083651
          253         254         255         256         257         258
    1  -0.0058780   0.0141843   0.0112092  -0.0318957   0.0523092  -0.0030086
    2  -0.0051975  -0.0303376  -0.0062678   0.0167050  -0.0056791   0.0055566
    3   0.0037480  -0.0102224   0.0294214  -0.0067425  -0.0089174   0.0032153
          259         260         261         262         263         264
    1  -0.0319428   0.0199864   0.0044356  -0.0750552  -0.0036322   0.0235030
    2  -0.0046423   0.0187061   0.0238945   0.0004709  -0.0080483  -0.0165034
    3   0.0127395   0.0180172  -0.0251786  -0.0830840  -0.0107325  -0.0292655
          265         266         267         268         269         270
    1   0.0033762  -0.0214490   0.0437785  -0.0044468  -0.0169871   0.0157972
    2  -0.0276072  -0.0170178   0.0127828  -0.0022969  -0.0189303  -0.0281159
    3   0.0166762  -0.0282816   0.0285179   0.0083043  -0.0275705   0.0135549
          271         272         273         274         275         276
    1  -0.0120852  -0.0593815   0.0059577  -0.0133991   0.0194812   0.0317810
    2   0.0295299   0.0660941   0.0029238   0.0277287  -0.0167090   0.0012018
    3   0.0149280  -0.0645231   0.0019920   0.0146060   0.0177394  -0.0193993
          277         278         279         280         281         282
    1   0.0160050  -0.0070339  -0.0290655  -0.0091997   0.0227752  -0.0590084
    2  -0.0531117   0.0057326   0.0128259   0.0327016  -0.0017335   0.0064672
    3  -0.0284002  -0.0061893  -0.0197113   0.0053854  -0.0230470   0.0903925
          283         284         285         286         287         288
    1   0.0061767  -0.0231129   0.0296403   0.0038694  -0.0169450   0.0103266
    2   0.0014263   0.0061383   0.0196193  -0.0204267   0.0476859  -0.0026967
    3  -0.0067648  -0.0198201  -0.0014980  -0.0223858   0.0309504  -0.0014922
          289         290         291         292
    1   0.0203235  -0.0031876   0.0160791  -0.0629330
    2   0.0307143  -0.0168753  -0.0237147  -0.0878065
    3   0.0064376   0.0211902  -0.0159348  -0.0145035
  --- DONE ESP SUMMARY ---
 Total job time:  82.54s(wall), 74.54s(cpu) 
 Thu Jul 21 18:25:37 2022

        *************************************************************
        *                                                           *
        *  Thank you very much for using Q-Chem.  Have a nice day.  *
        *                                                           *
        *************************************************************


