                  Welcome to Q-Chem
     A Quantum Leap Into The Future Of Chemistry


 Q-Chem 5.2 (devel), Q-Chem, Inc., Pleasanton, CA (2019)

 Yihan Shao,  Zhengting Gan,  E. Epifanovsky,  A. T. B. Gilbert,  M. Wormit,  
 J. Kussmann,  A. W. Lange,  A. Behn,  Jia Deng,  Xintian Feng,  D. Ghosh,  
 M. Goldey,  P. R. Horn,  L. D. Jacobson,  I. Kaliman,  T. Kus,  A. Landau,  
 Jie Liu,  E. I. Proynov,  R. M. Richard,  R. P. Steele,  E. J. Sundstrom,  
 H. L. Woodcock III,  P. M. Zimmerman,  D. Zuev,  B. Alam,  B. Albrecht,  
 E. Alguire,  S. A. Baeppler,  D. Barton,  Z. Benda,  Y. A. Bernard,  
 E. J. Berquist,  K. B. Bravaya,  H. Burton,  K. Carter-Fenk,  D. Casanova,  
 Chun-Min Chang,  Yunqing Chen,  A. Chien,  K. D. Closser,  M. P. Coons,  
 S. Coriani,  S. Dasgupta,  A. L. Dempwolff,  M. Diedenhofen,  Hainam Do,  
 R. G. Edgar,  Po-Tung Fang,  S. Faraji,  S. Fatehi,  Qingguo Feng,  
 J. Fosso-Tande,  J. Gayvert,  Qinghui Ge,  A. Ghysels,  G. Gidofalvi,  
 J. Gomes,  J. Gonthier,  A. Gunina,  D. Hait,  M. W. D. Hanson-Heine,  
 P. H. P. Harbach,  A. W. Hauser,  M. F. Herbst,  J. E. Herr,  
 E. G. Hohenstein,  Z. C. Holden,  Kerwin Hui,  B. C. Huynh,  T.-C. Jagau,  
 Hyunjun Ji,  B. Kaduk,  K. Khistyaev,  Jaehoon Kim,  P. Klunzinger,  K. Koh,  
 D. Kosenkov,  L. Koulias,  T. Kowalczyk,  C. M. Krauter,  A. Kunitsa,  
 Ka Un Lao,  A. Laurent,  K. V. Lawler,  Joonho Lee,  D. Lefrancois,  
 S. Lehtola,  D. S. Levine,  Yi-Pei Li,  You-Sheng Lin,  Fenglai Liu,  
 Kuan-Yu Liu,  E. Livshits,  M. Loipersberger,  A. Luenser,  P. Manohar,  
 E. Mansoor,  S. F. Manzer,  Shan-Ping Mao,  Yuezhi Mao,  N. Mardirossian,  
 A. V. Marenich,  T. Markovich,  L. A. Martinez-Martinez,  S. A. Maurer,  
 N. J. Mayhall,  S. C. McKenzie,  J.-M. Mewes,  P. Morgante,  A. F. Morrison,  
 J. W. Mullinax,  K. Nanda,  T. S. Nguyen-Beck,  R. Olivares-Amaya,  
 J. A. Parkhill,  S. K. Paul,  F. Pavosevic,  Zheng Pei,  T. M. Perrine,  
 F. Plasser,  P. Pokhilko,  S. Prager,  A. Prociuk,  E. Ramos,  B. Rana,  
 D. R. Rehn,  F. Rob,  M. Scheurer,  M. Schneider,  N. Sergueev,  
 S. M. Sharada,  S. Sharma,  D. W. Small,  T. Stauch,  C. J. Stein,  
 T. Stein,  Yu-Chuan Su,  S. P. Veccham,  Zhen Tao,  A. J. W. Thom,  
 A. Tkatchenko,  T. Tsuchimochi,  N. M. Tubman,  L. Vogt,  M. L. Vidal,  
 O. Vydrov,  M. A. Watson,  J. Wenzel,  M. de Wergifosse,  T. A. Wesolowski,  
 A. White,  J. Witte,  A. Yamada,  Jun Yang,  K. Yao,  S. Yeganeh,  
 S. R. Yost,  Zhi-Qiang You,  A. Zech,  Igor Ying Zhang,  Xing Zhang,  
 Yan Zhao,  Ying Zhu,  B. R. Brooks,  G. K. L. Chan,  C. J. Cramer,  
 M. S. Gordon,  W. J. Hehre,  A. Klamt,  M. W. Schmidt,  C. D. Sherrill,  
 D. G. Truhlar,  A. Aspuru-Guzik,  R. Baer,  A. T. Bell,  N. A. Besley,  
 Jeng-Da Chai,  A. E. DePrince, III,  R. A. DiStasio Jr.,  A. Dreuw,  
 B. D. Dunietz,  T. R. Furlani,  Chao-Ping Hsu,  Yousung Jung,  Jing Kong,  
 D. S. Lambrecht,  WanZhen Liang,  C. Ochsenfeld,  V. A. Rassolov,  
 L. V. Slipchenko,  J. E. Subotnik,  T. Van Voorhis,  J. M. Herbert,  
 A. I. Krylov,  P. M. W. Gill,  M. Head-Gordon

 Contributors to earlier versions of Q-Chem not listed above: 
 R. D. Adamson,  B. Austin,  J. Baker,  G. J. O. Beran,  K. Brandhorst,  
 S. T. Brown,  E. F. C. Byrd,  A. K. Chakraborty,  C.-L. Cheng,  
 Siu Hung Chien,  D. M. Chipman,  D. L. Crittenden,  H. Dachsel,  
 R. J. Doerksen,  A. D. Dutoi,  L. Fusti-Molnar,  W. A. Goddard III,  
 A. Golubeva-Zadorozhnaya,  S. R. Gwaltney,  G. Hawkins,  A. Heyden,  
 S. Hirata,  G. Kedziora,  F. J. Keil,  C. Kelley,  Jihan Kim,  R. A. King,  
 R. Z. Khaliullin,  P. P. Korambath,  W. Kurlancheek,  A. M. Lee,  M. S. Lee,  
 S. V. Levchenko,  Ching Yeh Lin,  D. Liotard,  R. C. Lochan,  I. Lotan,  
 P. E. Maslen,  N. Nair,  D. P. O'Neill,  D. Neuhauser,  E. Neuscamman,  
 C. M. Oana,  R. Olson,  B. Peters,  R. Peverati,  P. A. Pieniazek,  
 Y. M. Rhee,  J. Ritchie,  M. A. Rohrdanz,  E. Rosta,  N. J. Russ,  
 H. F. Schaefer III,  N. E. Schultz,  N. Shenvi,  A. C. Simmonett,  A. Sodt,  
 D. Stuck,  K. S. Thanthiriwatte,  V. Vanovschi,  Tao Wang,  A. Warshel,  
 C. F. Williams,  Q. Wu,  X. Xu,  W. Zhang

 Please cite Q-Chem as follows:
 Y. Shao et al., Mol. Phys. 113, 184-215 (2015)
 DOI: 10.1080/00268976.2014.952696

 Q-Chem 5.2.2 for Intel X86 EM64T Linux

 Parts of Q-Chem use Armadillo 9.800.1 (Horizon Scraper).
 http://arma.sourceforge.net/

 Q-Chem begins on Thu Mar 11 13:37:48 2021  

Host: n0099.mhg0
0

     Scratch files written to /local/scratch/users/ymao/r7.00_frame_0009_almo_B3LYP_dp.in20210311133744//

Checking the input file for inconsistencies... 	...done.

--------------------------------------------------------------
User input:
--------------------------------------------------------------
$molecule
0 1
--
0 1
C    20.32700   19.39300   27.73200  
C    21.55900   19.48800   28.64700  
C    22.85200   19.97500   27.97300  
C    22.53000   21.17400   27.06600  
C    21.44400   20.93400   26.00400  
C    20.14700   20.54900   26.73400  
H    23.55600   20.33100   28.73500  
H    21.24600   20.26300   29.35600  
H    20.28000   18.39700   27.27600  
H    19.41000   19.33300   28.33100  
H    22.18200   21.97300   27.73200  
H    23.44700   21.55800   26.60300  
H    21.19700   21.82800   25.41700  
H    21.80900   20.27900   25.20300  
H    19.96300   21.38100   27.42400  
H    19.32900   20.46800   26.00800  
H    23.40900   19.22100   27.40300  
N    21.81000   18.26100   29.40200  
H    21.31100   17.42100   29.13500  
C    22.19300   18.28800   30.72700  
H    21.89600   17.33900   31.20800  
O    22.82400   19.19400   31.24200  
--
0 1
C    25.84400   23.71900   27.51600  
H    26.19700   23.15200   28.38100  
H    24.91400   23.28300   27.14100  
H    26.67600   23.80900   26.81300  
S    25.59000   25.44300   27.99200  
C    24.63900   26.08600   26.59600  
H    23.57700   25.83000   26.61600  
H    24.70100   27.17700   26.62300  
H    25.15700   25.74300   25.69700  
O    26.93700   26.08600   27.87100  
C    16.83100   21.92000   24.63000  
H    17.03400   21.26900   23.77600  
H    17.26700   21.48600   25.53300  
H    15.77100   22.01300   24.87600  
S    17.53100   23.54300   24.25000  
C    17.43200   24.16000   25.94600  
H    18.14500   23.56000   26.51700  
H    17.89400   25.15000   25.91100  
H    16.42300   24.29100   26.34600  
O    16.47800   24.25600   23.46100  
C    18.36500   18.70300   23.23400  
H    18.95100   19.38200   23.85900  
H    18.98900   18.00800   22.66700  
H    17.73700   19.22900   22.51000  
S    17.11900   17.84500   24.22200  
C    18.21500   16.66900   25.04700  
H    18.87600   17.19500   25.74100  
H    17.58800   15.88800   25.48600  
H    18.75800   16.24700   24.19700  
O    16.37500   16.98400   23.25000  
C    25.67800   15.18000   30.55900  
H    25.70700   16.09800   31.15200  
H    24.64200   14.83300   30.54200  
H    26.28400   14.35800   30.94700  
S    26.12800   15.53900   28.84600  
C    24.91700   16.87200   28.69800  
H    25.08900   17.39200   27.75300  
H    23.86900   16.56100   28.72400  
H    25.07600   17.60600   29.49200  
O    25.62000   14.37400   28.05400  
C    22.48600   13.54200   32.55700  
H    21.48500   13.23500   32.87100  
H    22.78000   14.54000   32.89300  
H    22.51500   13.53100   31.46500  
S    23.43300   12.14500   33.20300  
C    25.06200   12.34300   32.44600  
H    25.45900   13.33100   32.69100  
H    25.76800   11.56600   32.74800  
H    24.99000   12.34600   31.35500  
O    22.88300   10.94200   32.50100  
C    30.23700   18.81100   30.00700  
H    31.15600   18.28300   30.27400  
H    30.05800   18.72400   28.93200  
H    30.31200   19.86500   30.28700  
S    28.88400   18.05900   30.93800  
C    29.02900   16.55200   29.95200  
H    28.74000   16.72300   28.91200  
H    29.95900   15.98300   30.03400  
H    28.32500   15.82700   30.37000  
O    27.60200   18.56500   30.35200  
C    25.09300   20.12000   37.13500  
H    25.88400   20.33000   37.86000  
H    24.23300   19.61900   37.58700  
H    25.43700   19.46000   36.33400  
S    24.47500   21.59200   36.29000  
C    24.10200   22.52600   37.79100  
H    23.38600   21.94300   38.37500  
H    24.99300   22.63900   38.41400  
H    23.81400   23.53500   37.48200  
O    23.18500   21.21000   35.63200  
C    20.34000   20.95700   33.11500  
H    21.18600   20.63400   32.50200  
H    20.36900   22.04800   33.18200  
H    20.34500   20.52500   34.11900  
S    18.79500   20.33600   32.41300  
C    17.95000   20.26000   34.00900  
H    18.62500   19.62100   34.58400  
H    17.97300   21.17900   34.59900  
H    16.89000   19.99200   34.01000  
O    18.91300   18.87700   32.09700  
C    15.77700   19.82100   29.31300  
H    15.48300   19.59000   28.28600  
H    16.42400   19.00200   29.63800  
H    14.85500   19.82900   29.89900  
S    16.75500   21.32900   29.49400  
C    15.57700   22.57900   28.93200  
H    14.65400   22.40500   29.49100  
H    15.98800   23.56300   29.16900  
H    15.51200   22.51700   27.84300  
O    17.79000   21.33200   28.41200  
C    21.15900   13.44000   26.42300  
H    21.70600   13.33400   27.36300  
H    20.53700   14.32900   26.55900  
H    20.55500   12.55300   26.21400  
S    22.14400   13.70700   24.93100  
C    22.79600   15.29200   25.50500  
H    23.31300   15.72600   24.64600  
H    21.97800   15.91900   25.87000  
H    23.48900   15.00400   26.29900  
O    21.10000   13.99500   23.89700  
C    25.40100   21.09900   31.29500  
H    24.59900   20.54200   30.80400  
H    25.70600   21.92000   30.64300  
H    26.19900   20.39400   31.54300  
S    24.75900   21.75400   32.85200  
C    23.48500   22.84100   32.17400  
H    23.09100   22.52900   31.20300  
H    22.70700   22.85000   32.94200  
H    23.90400   23.85000   32.15300  
O    25.85600   22.71500   33.18900  
C    14.91200   16.44600   26.23600  
H    14.92600   17.52900   26.38100  
H    15.71500   15.91800   26.75800  
H    14.96400   16.33700   25.15000  
S    13.33100   15.98500   26.97900  
C    13.74700   16.52000   28.65300  
H    13.12600   15.98600   29.37700  
H    14.81000   16.33000   28.82300  
H    13.47900   17.57800   28.71000  
O    13.36900   14.49300   27.10200  
C    14.07000   22.36200   21.22700  
H    13.57700   21.87600   20.38100  
H    13.65200   21.92700   22.13900  
H    13.90000   23.44100   21.24200  
S    15.84600   22.02800   21.23600  
C    16.19500   22.81900   19.65000  
H    17.22400   22.62600   19.33800  
H    15.53800   22.42800   18.86800  
H    16.07200   23.89800   19.77600  
O    15.82500   20.57400   20.88100  
C    20.21600   23.33900   30.34200  
H    20.23200   22.49200   29.65100  
H    20.78200   23.25200   31.27300  
H    19.17600   23.66200   30.44400  
S    21.09900   24.71700   29.57700  
C    20.38500   24.46800   27.93600  
H    20.81500   25.25000   27.30500  
H    20.75500   23.55900   27.45400  
H    19.30800   24.65500   27.94200  
O    22.48700   24.20600   29.34300  
C    17.17700   13.50000   34.51100  
H    16.43800   14.00900   33.88600  
H    17.69100   12.83300   33.81500  
H    16.75100   12.95700   35.35900  
S    18.23800   14.83200   35.11600  
C    18.35900   15.79200   33.58900  
H    18.40000   16.86300   33.80300  
H    19.31300   15.44200   33.18500  
H    17.52100   15.51600   32.94400  
O    19.56000   14.13500   35.19000  
C    22.95000   17.48200   34.39700  
H    22.74600   17.12200   33.38500  
H    22.32600   16.92400   35.10000  
H    22.86100   18.56800   34.47400  
S    24.65600   17.00000   34.74600  
C    25.31100   18.08500   33.45900  
H    24.85700   17.70400   32.54000  
H    24.94800   19.10800   33.59000  
H    26.39300   17.94300   33.40100  
O    24.66200   15.61400   34.18000  
C    22.85700   22.97200   23.59700  
H    22.95600   23.52600   24.53400  
H    23.14700   21.94000   23.81200  
H    23.49800   23.44200   22.84700  
S    21.15500   23.13800   23.01200  
C    21.18500   21.52500   22.19900  
H    20.13900   21.37700   21.91900  
H    21.85800   21.69300   21.35400  
H    21.50400   20.73200   22.88100  
O    21.33100   24.15600   21.92900  
C    21.34800   19.30700   37.52900  
H    21.57300   19.53500   36.48400  
H    20.28100   19.47000   37.70300  
H    21.94900   19.90700   38.21700  
S    21.72100   17.56800   37.84700  
C    20.24300   16.81800   37.12600  
H    19.31000   17.06800   37.63700  
H    20.04900   17.22000   36.12800  
H    20.28800   15.72600   37.13000  
O    21.73200   17.49600   39.34200  
C    28.27000   25.53600   24.31400  
H    27.50200   26.26100   24.03200  
H    28.22300   25.39700   25.39700  
H    29.26300   25.92500   24.07400  
S    27.70200   23.99900   23.55300  
C    27.79300   24.63500   21.86400  
H    26.86000   25.12700   21.58000  
H    28.62300   25.33900   21.76200  
H    27.97100   23.86300   21.11100  
O    26.25300   23.95200   23.92400  
C    24.75200   19.64200   21.88000  
H    23.86700   20.17700   21.52600  
H    25.36300   20.26800   22.53600  
H    25.40100   19.28400   21.07600  
S    24.15200   18.15400   22.71100  
C    22.88100   17.78000   21.48300  
H    23.39600   17.65400   20.52700  
H    22.23300   16.91900   21.67000  
H    22.18400   18.62000   21.54200  
O    23.42400   18.74600   23.87700  
C    19.87600   27.51800   23.38500  
H    19.82300   26.43300   23.26300  
H    19.35200   27.96300   22.53600  
H    20.95600   27.53400   23.21900  
S    19.20400   28.05000   24.97600  
C    19.35500   29.84100   24.79000  
H    19.97900   30.26800   25.58000  
H    19.78500   30.02300   23.80200  
H    18.37700   30.32700   24.75800  
O    20.26900   27.65500   25.95100  
C    25.97800   20.65300   25.06800  
H    26.75300   20.98300   24.37200  
H    24.96300   20.41300   24.73900  
H    26.06300   21.37100   25.88700  
S    26.46300   19.10600   25.86600  
C    27.41700   19.79800   27.23500  
H    28.35300   20.16600   26.80700  
H    26.80600   20.46100   27.85300  
H    27.69100   19.02600   27.96000  
O    27.55700   18.56900   24.99600  
C    25.62300   13.08200   24.85300  
H    24.89100   13.58900   25.48700  
H    25.04300   12.30600   24.34700  
H    26.44300   12.67200   25.44600  
S    26.10200   14.20600   23.52100  
C    26.58400   15.56500   24.60900  
H    26.08200   15.40600   25.56700  
H    27.65500   15.73500   24.74600  
H    26.25400   16.47300   24.09800  
O    24.79500   14.59000   22.89900  
C    17.83700   11.59600   25.78600  
H    17.46100   10.93300   25.00200  
H    18.66500   12.18600   25.38500  
H    18.07600   11.07700   26.71800  
S    16.55200   12.77300   26.26100  
C    16.53100   13.32100   24.53900  
H    17.51600   13.67800   24.22800  
H    16.30300   12.49900   23.85500  
H    15.83500   14.16100   24.47300  
O    17.27600   13.89900   26.93200  
C    18.89400   16.40300   30.41900  
H    19.56300   16.22000   31.26300  
H    18.94600   17.43800   30.07100  
H    17.88000   16.06800   30.65400  
S    19.47400   15.43800   29.00600  
C    19.38200   13.75400   29.65500  
H    20.13800   13.20500   29.08700  
H    19.68300   13.81300   30.70500  
H    18.34300   13.42600   29.57000  
O    20.95700   15.61800   29.10500  
C    11.89800   19.53400   25.98800  
H    10.87400   19.52300   26.37000  
H    11.85900   19.71900   24.91100  
H    12.44300   18.59000   26.06800  
S    13.00500   20.67500   26.84600  
C    12.35100   22.17600   26.08200  
H    13.11700   22.95400   26.03300  
H    12.00500   21.96600   25.06600  
H    11.50000   22.51600   26.67800  
O    14.29500   20.68500   26.08700  
$end

$rem
JOBTYPE  SP
METHOD  B3LYP
BASIS  6-31+G(D)
SYMMETRY  FALSE
SYM_IGNORE  TRUE
MEM_TOTAL  16000
MEM_STATIC  8000
MAX_SUB_FILE_NUM  16000
BASIS_LIN_DEP_THRESH  6
THRESH  14
SCF_CONVERGENCE  8
GEN_SCFMAN  TRUE
SCF_GUESS  FRAGMO
FD_MAT_VEC_PROD  FALSE
XC_GRID  000075000302
NL_GRID  1
MAX_SCF_CYCLES  200
FRGM_METHOD  STOLL
SCFMI_MODE  1
$end

$development
almo_efield  1
$end

$rem_frgm
SCF_CONVERGENCE  4
$end

--------------------------------------------------------------
 ----------------------------------------------------------------
             Standard Nuclear Orientation (Angstroms)
    I     Atom           X                Y                Z
 ----------------------------------------------------------------
    1      C      20.3270000000    19.3930000000    27.7320000000
    2      C      21.5590000000    19.4880000000    28.6470000000
    3      C      22.8520000000    19.9750000000    27.9730000000
    4      C      22.5300000000    21.1740000000    27.0660000000
    5      C      21.4440000000    20.9340000000    26.0040000000
    6      C      20.1470000000    20.5490000000    26.7340000000
    7      H      23.5560000000    20.3310000000    28.7350000000
    8      H      21.2460000000    20.2630000000    29.3560000000
    9      H      20.2800000000    18.3970000000    27.2760000000
   10      H      19.4100000000    19.3330000000    28.3310000000
   11      H      22.1820000000    21.9730000000    27.7320000000
   12      H      23.4470000000    21.5580000000    26.6030000000
   13      H      21.1970000000    21.8280000000    25.4170000000
   14      H      21.8090000000    20.2790000000    25.2030000000
   15      H      19.9630000000    21.3810000000    27.4240000000
   16      H      19.3290000000    20.4680000000    26.0080000000
   17      H      23.4090000000    19.2210000000    27.4030000000
   18      N      21.8100000000    18.2610000000    29.4020000000
   19      H      21.3110000000    17.4210000000    29.1350000000
   20      C      22.1930000000    18.2880000000    30.7270000000
   21      H      21.8960000000    17.3390000000    31.2080000000
   22      O      22.8240000000    19.1940000000    31.2420000000
   23      C      25.8440000000    23.7190000000    27.5160000000
   24      H      26.1970000000    23.1520000000    28.3810000000
   25      H      24.9140000000    23.2830000000    27.1410000000
   26      H      26.6760000000    23.8090000000    26.8130000000
   27      S      25.5900000000    25.4430000000    27.9920000000
   28      C      24.6390000000    26.0860000000    26.5960000000
   29      H      23.5770000000    25.8300000000    26.6160000000
   30      H      24.7010000000    27.1770000000    26.6230000000
   31      H      25.1570000000    25.7430000000    25.6970000000
   32      O      26.9370000000    26.0860000000    27.8710000000
   33      C      16.8310000000    21.9200000000    24.6300000000
   34      H      17.0340000000    21.2690000000    23.7760000000
   35      H      17.2670000000    21.4860000000    25.5330000000
   36      H      15.7710000000    22.0130000000    24.8760000000
   37      S      17.5310000000    23.5430000000    24.2500000000
   38      C      17.4320000000    24.1600000000    25.9460000000
   39      H      18.1450000000    23.5600000000    26.5170000000
   40      H      17.8940000000    25.1500000000    25.9110000000
   41      H      16.4230000000    24.2910000000    26.3460000000
   42      O      16.4780000000    24.2560000000    23.4610000000
   43      C      18.3650000000    18.7030000000    23.2340000000
   44      H      18.9510000000    19.3820000000    23.8590000000
   45      H      18.9890000000    18.0080000000    22.6670000000
   46      H      17.7370000000    19.2290000000    22.5100000000
   47      S      17.1190000000    17.8450000000    24.2220000000
   48      C      18.2150000000    16.6690000000    25.0470000000
   49      H      18.8760000000    17.1950000000    25.7410000000
   50      H      17.5880000000    15.8880000000    25.4860000000
   51      H      18.7580000000    16.2470000000    24.1970000000
   52      O      16.3750000000    16.9840000000    23.2500000000
   53      C      25.6780000000    15.1800000000    30.5590000000
   54      H      25.7070000000    16.0980000000    31.1520000000
   55      H      24.6420000000    14.8330000000    30.5420000000
   56      H      26.2840000000    14.3580000000    30.9470000000
   57      S      26.1280000000    15.5390000000    28.8460000000
   58      C      24.9170000000    16.8720000000    28.6980000000
   59      H      25.0890000000    17.3920000000    27.7530000000
   60      H      23.8690000000    16.5610000000    28.7240000000
   61      H      25.0760000000    17.6060000000    29.4920000000
   62      O      25.6200000000    14.3740000000    28.0540000000
   63      C      22.4860000000    13.5420000000    32.5570000000
   64      H      21.4850000000    13.2350000000    32.8710000000
   65      H      22.7800000000    14.5400000000    32.8930000000
   66      H      22.5150000000    13.5310000000    31.4650000000
   67      S      23.4330000000    12.1450000000    33.2030000000
   68      C      25.0620000000    12.3430000000    32.4460000000
   69      H      25.4590000000    13.3310000000    32.6910000000
   70      H      25.7680000000    11.5660000000    32.7480000000
   71      H      24.9900000000    12.3460000000    31.3550000000
   72      O      22.8830000000    10.9420000000    32.5010000000
   73      C      30.2370000000    18.8110000000    30.0070000000
   74      H      31.1560000000    18.2830000000    30.2740000000
   75      H      30.0580000000    18.7240000000    28.9320000000
   76      H      30.3120000000    19.8650000000    30.2870000000
   77      S      28.8840000000    18.0590000000    30.9380000000
   78      C      29.0290000000    16.5520000000    29.9520000000
   79      H      28.7400000000    16.7230000000    28.9120000000
   80      H      29.9590000000    15.9830000000    30.0340000000
   81      H      28.3250000000    15.8270000000    30.3700000000
   82      O      27.6020000000    18.5650000000    30.3520000000
   83      C      25.0930000000    20.1200000000    37.1350000000
   84      H      25.8840000000    20.3300000000    37.8600000000
   85      H      24.2330000000    19.6190000000    37.5870000000
   86      H      25.4370000000    19.4600000000    36.3340000000
   87      S      24.4750000000    21.5920000000    36.2900000000
   88      C      24.1020000000    22.5260000000    37.7910000000
   89      H      23.3860000000    21.9430000000    38.3750000000
   90      H      24.9930000000    22.6390000000    38.4140000000
   91      H      23.8140000000    23.5350000000    37.4820000000
   92      O      23.1850000000    21.2100000000    35.6320000000
   93      C      20.3400000000    20.9570000000    33.1150000000
   94      H      21.1860000000    20.6340000000    32.5020000000
   95      H      20.3690000000    22.0480000000    33.1820000000
   96      H      20.3450000000    20.5250000000    34.1190000000
   97      S      18.7950000000    20.3360000000    32.4130000000
   98      C      17.9500000000    20.2600000000    34.0090000000
   99      H      18.6250000000    19.6210000000    34.5840000000
  100      H      17.9730000000    21.1790000000    34.5990000000
  101      H      16.8900000000    19.9920000000    34.0100000000
  102      O      18.9130000000    18.8770000000    32.0970000000
  103      C      15.7770000000    19.8210000000    29.3130000000
  104      H      15.4830000000    19.5900000000    28.2860000000
  105      H      16.4240000000    19.0020000000    29.6380000000
  106      H      14.8550000000    19.8290000000    29.8990000000
  107      S      16.7550000000    21.3290000000    29.4940000000
  108      C      15.5770000000    22.5790000000    28.9320000000
  109      H      14.6540000000    22.4050000000    29.4910000000
  110      H      15.9880000000    23.5630000000    29.1690000000
  111      H      15.5120000000    22.5170000000    27.8430000000
  112      O      17.7900000000    21.3320000000    28.4120000000
  113      C      21.1590000000    13.4400000000    26.4230000000
  114      H      21.7060000000    13.3340000000    27.3630000000
  115      H      20.5370000000    14.3290000000    26.5590000000
  116      H      20.5550000000    12.5530000000    26.2140000000
  117      S      22.1440000000    13.7070000000    24.9310000000
  118      C      22.7960000000    15.2920000000    25.5050000000
  119      H      23.3130000000    15.7260000000    24.6460000000
  120      H      21.9780000000    15.9190000000    25.8700000000
  121      H      23.4890000000    15.0040000000    26.2990000000
  122      O      21.1000000000    13.9950000000    23.8970000000
  123      C      25.4010000000    21.0990000000    31.2950000000
  124      H      24.5990000000    20.5420000000    30.8040000000
  125      H      25.7060000000    21.9200000000    30.6430000000
  126      H      26.1990000000    20.3940000000    31.5430000000
  127      S      24.7590000000    21.7540000000    32.8520000000
  128      C      23.4850000000    22.8410000000    32.1740000000
  129      H      23.0910000000    22.5290000000    31.2030000000
  130      H      22.7070000000    22.8500000000    32.9420000000
  131      H      23.9040000000    23.8500000000    32.1530000000
  132      O      25.8560000000    22.7150000000    33.1890000000
  133      C      14.9120000000    16.4460000000    26.2360000000
  134      H      14.9260000000    17.5290000000    26.3810000000
  135      H      15.7150000000    15.9180000000    26.7580000000
  136      H      14.9640000000    16.3370000000    25.1500000000
  137      S      13.3310000000    15.9850000000    26.9790000000
  138      C      13.7470000000    16.5200000000    28.6530000000
  139      H      13.1260000000    15.9860000000    29.3770000000
  140      H      14.8100000000    16.3300000000    28.8230000000
  141      H      13.4790000000    17.5780000000    28.7100000000
  142      O      13.3690000000    14.4930000000    27.1020000000
  143      C      14.0700000000    22.3620000000    21.2270000000
  144      H      13.5770000000    21.8760000000    20.3810000000
  145      H      13.6520000000    21.9270000000    22.1390000000
  146      H      13.9000000000    23.4410000000    21.2420000000
  147      S      15.8460000000    22.0280000000    21.2360000000
  148      C      16.1950000000    22.8190000000    19.6500000000
  149      H      17.2240000000    22.6260000000    19.3380000000
  150      H      15.5380000000    22.4280000000    18.8680000000
  151      H      16.0720000000    23.8980000000    19.7760000000
  152      O      15.8250000000    20.5740000000    20.8810000000
  153      C      20.2160000000    23.3390000000    30.3420000000
  154      H      20.2320000000    22.4920000000    29.6510000000
  155      H      20.7820000000    23.2520000000    31.2730000000
  156      H      19.1760000000    23.6620000000    30.4440000000
  157      S      21.0990000000    24.7170000000    29.5770000000
  158      C      20.3850000000    24.4680000000    27.9360000000
  159      H      20.8150000000    25.2500000000    27.3050000000
  160      H      20.7550000000    23.5590000000    27.4540000000
  161      H      19.3080000000    24.6550000000    27.9420000000
  162      O      22.4870000000    24.2060000000    29.3430000000
  163      C      17.1770000000    13.5000000000    34.5110000000
  164      H      16.4380000000    14.0090000000    33.8860000000
  165      H      17.6910000000    12.8330000000    33.8150000000
  166      H      16.7510000000    12.9570000000    35.3590000000
  167      S      18.2380000000    14.8320000000    35.1160000000
  168      C      18.3590000000    15.7920000000    33.5890000000
  169      H      18.4000000000    16.8630000000    33.8030000000
  170      H      19.3130000000    15.4420000000    33.1850000000
  171      H      17.5210000000    15.5160000000    32.9440000000
  172      O      19.5600000000    14.1350000000    35.1900000000
  173      C      22.9500000000    17.4820000000    34.3970000000
  174      H      22.7460000000    17.1220000000    33.3850000000
  175      H      22.3260000000    16.9240000000    35.1000000000
  176      H      22.8610000000    18.5680000000    34.4740000000
  177      S      24.6560000000    17.0000000000    34.7460000000
  178      C      25.3110000000    18.0850000000    33.4590000000
  179      H      24.8570000000    17.7040000000    32.5400000000
  180      H      24.9480000000    19.1080000000    33.5900000000
  181      H      26.3930000000    17.9430000000    33.4010000000
  182      O      24.6620000000    15.6140000000    34.1800000000
  183      C      22.8570000000    22.9720000000    23.5970000000
  184      H      22.9560000000    23.5260000000    24.5340000000
  185      H      23.1470000000    21.9400000000    23.8120000000
  186      H      23.4980000000    23.4420000000    22.8470000000
  187      S      21.1550000000    23.1380000000    23.0120000000
  188      C      21.1850000000    21.5250000000    22.1990000000
  189      H      20.1390000000    21.3770000000    21.9190000000
  190      H      21.8580000000    21.6930000000    21.3540000000
  191      H      21.5040000000    20.7320000000    22.8810000000
  192      O      21.3310000000    24.1560000000    21.9290000000
  193      C      21.3480000000    19.3070000000    37.5290000000
  194      H      21.5730000000    19.5350000000    36.4840000000
  195      H      20.2810000000    19.4700000000    37.7030000000
  196      H      21.9490000000    19.9070000000    38.2170000000
  197      S      21.7210000000    17.5680000000    37.8470000000
  198      C      20.2430000000    16.8180000000    37.1260000000
  199      H      19.3100000000    17.0680000000    37.6370000000
  200      H      20.0490000000    17.2200000000    36.1280000000
  201      H      20.2880000000    15.7260000000    37.1300000000
  202      O      21.7320000000    17.4960000000    39.3420000000
  203      C      28.2700000000    25.5360000000    24.3140000000
  204      H      27.5020000000    26.2610000000    24.0320000000
  205      H      28.2230000000    25.3970000000    25.3970000000
  206      H      29.2630000000    25.9250000000    24.0740000000
  207      S      27.7020000000    23.9990000000    23.5530000000
  208      C      27.7930000000    24.6350000000    21.8640000000
  209      H      26.8600000000    25.1270000000    21.5800000000
  210      H      28.6230000000    25.3390000000    21.7620000000
  211      H      27.9710000000    23.8630000000    21.1110000000
  212      O      26.2530000000    23.9520000000    23.9240000000
  213      C      24.7520000000    19.6420000000    21.8800000000
  214      H      23.8670000000    20.1770000000    21.5260000000
  215      H      25.3630000000    20.2680000000    22.5360000000
  216      H      25.4010000000    19.2840000000    21.0760000000
  217      S      24.1520000000    18.1540000000    22.7110000000
  218      C      22.8810000000    17.7800000000    21.4830000000
  219      H      23.3960000000    17.6540000000    20.5270000000
  220      H      22.2330000000    16.9190000000    21.6700000000
  221      H      22.1840000000    18.6200000000    21.5420000000
  222      O      23.4240000000    18.7460000000    23.8770000000
  223      C      19.8760000000    27.5180000000    23.3850000000
  224      H      19.8230000000    26.4330000000    23.2630000000
  225      H      19.3520000000    27.9630000000    22.5360000000
  226      H      20.9560000000    27.5340000000    23.2190000000
  227      S      19.2040000000    28.0500000000    24.9760000000
  228      C      19.3550000000    29.8410000000    24.7900000000
  229      H      19.9790000000    30.2680000000    25.5800000000
  230      H      19.7850000000    30.0230000000    23.8020000000
  231      H      18.3770000000    30.3270000000    24.7580000000
  232      O      20.2690000000    27.6550000000    25.9510000000
  233      C      25.9780000000    20.6530000000    25.0680000000
  234      H      26.7530000000    20.9830000000    24.3720000000
  235      H      24.9630000000    20.4130000000    24.7390000000
  236      H      26.0630000000    21.3710000000    25.8870000000
  237      S      26.4630000000    19.1060000000    25.8660000000
  238      C      27.4170000000    19.7980000000    27.2350000000
  239      H      28.3530000000    20.1660000000    26.8070000000
  240      H      26.8060000000    20.4610000000    27.8530000000
  241      H      27.6910000000    19.0260000000    27.9600000000
  242      O      27.5570000000    18.5690000000    24.9960000000
  243      C      25.6230000000    13.0820000000    24.8530000000
  244      H      24.8910000000    13.5890000000    25.4870000000
  245      H      25.0430000000    12.3060000000    24.3470000000
  246      H      26.4430000000    12.6720000000    25.4460000000
  247      S      26.1020000000    14.2060000000    23.5210000000
  248      C      26.5840000000    15.5650000000    24.6090000000
  249      H      26.0820000000    15.4060000000    25.5670000000
  250      H      27.6550000000    15.7350000000    24.7460000000
  251      H      26.2540000000    16.4730000000    24.0980000000
  252      O      24.7950000000    14.5900000000    22.8990000000
  253      C      17.8370000000    11.5960000000    25.7860000000
  254      H      17.4610000000    10.9330000000    25.0020000000
  255      H      18.6650000000    12.1860000000    25.3850000000
  256      H      18.0760000000    11.0770000000    26.7180000000
  257      S      16.5520000000    12.7730000000    26.2610000000
  258      C      16.5310000000    13.3210000000    24.5390000000
  259      H      17.5160000000    13.6780000000    24.2280000000
  260      H      16.3030000000    12.4990000000    23.8550000000
  261      H      15.8350000000    14.1610000000    24.4730000000
  262      O      17.2760000000    13.8990000000    26.9320000000
  263      C      18.8940000000    16.4030000000    30.4190000000
  264      H      19.5630000000    16.2200000000    31.2630000000
  265      H      18.9460000000    17.4380000000    30.0710000000
  266      H      17.8800000000    16.0680000000    30.6540000000
  267      S      19.4740000000    15.4380000000    29.0060000000
  268      C      19.3820000000    13.7540000000    29.6550000000
  269      H      20.1380000000    13.2050000000    29.0870000000
  270      H      19.6830000000    13.8130000000    30.7050000000
  271      H      18.3430000000    13.4260000000    29.5700000000
  272      O      20.9570000000    15.6180000000    29.1050000000
  273      C      11.8980000000    19.5340000000    25.9880000000
  274      H      10.8740000000    19.5230000000    26.3700000000
  275      H      11.8590000000    19.7190000000    24.9110000000
  276      H      12.4430000000    18.5900000000    26.0680000000
  277      S      13.0050000000    20.6750000000    26.8460000000
  278      C      12.3510000000    22.1760000000    26.0820000000
  279      H      13.1170000000    22.9540000000    26.0330000000
  280      H      12.0050000000    21.9660000000    25.0660000000
  281      H      11.5000000000    22.5160000000    26.6780000000
  282      O      14.2950000000    20.6850000000    26.0870000000
 ----------------------------------------------------------------
 Nuclear Repulsion Energy =       44579.02070159 hartrees
 There are      581 alpha and      581 beta electrons
 Requested basis set is 6-31+G(d)
 There are 929 shells and 2589 basis functions

 Total QAlloc Memory Limit  16000 MB
 Mega-Array Size      7821 MB
 MEM_STATIC part      8000 MB
 A cutoff of  1.0D-14 yielded 163714 shell pairs
 There are   1413672 function pairs
 Smallest overlap matrix eigenvalue = 6.79E-07
 Linear dependence detected in AO basis
 Tighter screening thresholds may be required for diffuse basis sets
 Use S2THRESH > 14 and THRESH = 14 in case of SCF convergence issues
 Number of orthogonalized atomic orbitals = 2587
 Maximum deviation from orthogonality = 1.079E-10

 Scale SEOQF with 1.000000e-03/1.000000e-03/1.000000e-03

 Standard Electronic Orientation quadrupole field applied
 Nucleus-field energy     =    -0.0000004991 hartrees
Attempting to make child job directory: /local/scratch/users/ymao/r7.00_frame_0009_almo_B3LYP_dp.in20210311133744//Frg1/
Attempting to make child job directory: /local/scratch/users/ymao/r7.00_frame_0009_almo_B3LYP_dp.in20210311133744//Frg2/
Creating input file /local/scratch/users/ymao/r7.00_frame_0009_almo_B3LYP_dp.in20210311133744/Frg1.input
using default PutDataFrgm: nothing
calling putenv with: QCSCRATCH=/local/scratch/users/ymao/r7.00_frame_0009_almo_B3LYP_dp.in20210311133744/ 
Spawning Job For Fragment 0
Done Job For Fragment 0
calling putenv with: QCSCRATCH=/local/scratch/users/ymao 
calling putenv with: QCTHREADS=8 
Creating input file /local/scratch/users/ymao/r7.00_frame_0009_almo_B3LYP_dp.in20210311133744/Frg2.input
using default PutDataFrgm: nothing
calling putenv with: QCSCRATCH=/local/scratch/users/ymao/r7.00_frame_0009_almo_B3LYP_dp.in20210311133744/ 
Spawning Job For Fragment 1
Done Job For Fragment 1
calling putenv with: QCSCRATCH=/local/scratch/users/ymao 
calling putenv with: QCTHREADS=8 
 Time for running child jobs:  CPU 0.81 s  wall 18187.05 s

 -----------------------------------------------------------------------
  General SCF calculation program by
  Eric Jon Sundstrom, Paul Horn, Yuezhi Mao, Dmitri Zuev, Alec White,
  David Stuck, Shaama M.S., Shane Yost, Joonho Lee, David Small,
  Daniel Levine, Susi Lehtola, Hugh Burton, Evgeny Epifanovsky,
  Bang C. Huynh
 -----------------------------------------------------------------------
Performing Restricted Closed Shell SCFMI
Doing General SCFMI
 Exchange:     0.2000 Hartree-Fock + 0.0800 Slater + 0.7200 B88
 Correlation:  0.1900 VWN1RPA + 0.8100 LYP
 Using Euler-Maclaurin-Lebedev (75,302) quadrature formula
performing fock build before subrot guess so that all methods have access
Printing subrot_rss_gen Method Specification:
Occupied Subspace Method is 0
Virtual Subspace Method is 0
Energy prior to optimization (guess energy) = -14787.527432418974
Begin Timing: Total SCF Calculation
begin iterations for algorithm: DIIS         
the SCF tolerance is set to 1.00e-08
    1  -14787.5274324190      5.49e-05     00000 
    2  -14787.5230298040      8.88e-05     00000 
    3  -14787.5413014847      1.91e-05     00000 
    4  -14787.5421257843      7.39e-06     00000 
    5  -14787.5422803519      3.30e-06     00000 
    6  -14787.5423083866      2.09e-06     00000 
    7  -14787.5423189958      1.27e-06     00000 
    8  -14787.5423233479      5.99e-07     00000 
    9  -14787.5423241473      3.66e-07     00000 
   10  -14787.5423243847      2.29e-07     00000 
   11  -14787.5423244728      1.50e-07     00000 
   12  -14787.5423245199      7.97e-08     00000 
   13  -14787.5423245364      3.82e-08     00000 
   14  -14787.5423245403      2.66e-08     00000 
   15  -14787.5423245416      1.71e-08     00000 
   16  -14787.5423245424      7.15e-09     00000 Convergence criterion met
write pseudocanon occs and virts to disk
write pseudocanon orbital energies to disk
Timing for Total SCF: 44222.00s (wall), 350300.56s (cpu)
SCFMI Energy  -14787.5423245424
<S^2>            0.00000
 Total energy in the final basis set =   -14787.5423245424
    ==================================================
        The end of Object-Oriented SCFman: SCFMI      
    ==================================================
 
 --------------------------------------------------------------
 
                    Orbital Energies (a.u.)
 --------------------------------------------------------------
 
 Alpha MOs
 -- Occupied --
-89.0337 -89.0241 -89.0240 -89.0190 -89.0090 -89.0084 -89.0054 -89.0035
-89.0035 -89.0032 -89.0002 -88.9967 -88.9960 -88.9959 -88.9955 -88.9929
-88.9911 -88.9901 -88.9878 -88.9868 -88.9802 -88.9728 -88.9711 -88.9704
-88.9692 -88.9687 -19.1452 -19.1432 -19.1401 -19.1400 -19.1326 -19.1315
-19.1272 -19.1180 -19.1171 -19.1162 -19.1162 -19.1158 -19.1138 -19.1129
-19.1129 -19.1123 -19.1110 -19.1105 -19.1098 -19.1015 -19.0983 -19.0962
-19.0926 -19.0918 -19.0882 -19.0836 -19.0830 -14.3545 -10.2949 -10.2459
-10.2448 -10.2446 -10.2437 -10.2412 -10.2345 -10.2308 -10.2304 -10.2303
-10.2295 -10.2291 -10.2286 -10.2269 -10.2261 -10.2241 -10.2239 -10.2233
-10.2227 -10.2181 -10.2173 -10.2166 -10.2164 -10.2164 -10.2154 -10.2133
-10.2129 -10.2122 -10.2114 -10.2108 -10.2102 -10.2101 -10.2101 -10.2082
-10.2080 -10.2063 -10.2034 -10.2031 -10.2021 -10.2011 -10.2007 -10.1996
-10.1993 -10.1976 -10.1948 -10.1933 -10.1918 -10.1902 -10.1900 -10.1896
-10.1885 -10.1863 -10.1859 -10.1826 -10.1818 -10.1813 -10.1801 -10.1793
-10.1788  -8.0800  -8.0700  -8.0698  -8.0649  -8.0559  -8.0545  -8.0514
 -8.0498  -8.0495  -8.0491  -8.0471  -8.0425  -8.0418  -8.0418  -8.0409
 -8.0393  -8.0375  -8.0359  -8.0340  -8.0333  -8.0263  -8.0190  -8.0175
 -8.0168  -8.0153  -8.0145  -6.0442  -6.0431  -6.0376  -6.0343  -6.0342
 -6.0333  -6.0329  -6.0291  -6.0278  -6.0271  -6.0271  -6.0226  -6.0201
 -6.0191  -6.0188  -6.0176  -6.0158  -6.0147  -6.0142  -6.0137  -6.0134
 -6.0133  -6.0130  -6.0126  -6.0122  -6.0119  -6.0115  -6.0101  -6.0086
 -6.0070  -6.0068  -6.0067  -6.0066  -6.0063  -6.0062  -6.0055  -6.0053
 -6.0052  -6.0048  -6.0042  -6.0041  -6.0036  -6.0020  -6.0017  -6.0006
 -6.0003  -6.0001  -5.9990  -5.9990  -5.9989  -5.9983  -5.9982  -5.9976
 -5.9971  -5.9969  -5.9964  -5.9951  -5.9933  -5.9914  -5.9906  -5.9906
 -5.9895  -5.9837  -5.9832  -5.9822  -5.9817  -5.9812  -5.9805  -5.9801
 -5.9795  -5.9788  -5.9787  -5.9776  -5.9765  -5.9749  -5.9737  -5.9723
 -5.9719  -1.0569  -1.0524  -1.0518  -1.0483  -1.0429  -1.0355  -1.0347
 -1.0341  -1.0317  -1.0272  -1.0256  -1.0240  -1.0235  -1.0229  -1.0210
 -1.0194  -1.0189  -1.0172  -1.0156  -1.0126  -1.0093  -1.0071  -0.9991
 -0.9983  -0.9959  -0.9940  -0.9913  -0.9255  -0.8301  -0.8277  -0.8263
 -0.8241  -0.8162  -0.8135  -0.8126  -0.8074  -0.8073  -0.8061  -0.8018
 -0.8016  -0.8005  -0.8000  -0.7995  -0.7992  -0.7981  -0.7963  -0.7941
 -0.7904  -0.7858  -0.7835  -0.7758  -0.7751  -0.7716  -0.7695  -0.7670
 -0.7585  -0.7559  -0.7492  -0.7461  -0.7451  -0.7434  -0.7384  -0.7363
 -0.7351  -0.7334  -0.7334  -0.7313  -0.7308  -0.7299  -0.7250  -0.7223
 -0.7213  -0.7187  -0.7185  -0.7175  -0.7145  -0.7128  -0.7122  -0.7092
 -0.7065  -0.7033  -0.6984  -0.6961  -0.6456  -0.6410  -0.6396  -0.6371
 -0.6315  -0.6252  -0.6219  -0.6202  -0.6200  -0.6196  -0.6155  -0.6151
 -0.6128  -0.6119  -0.6110  -0.6090  -0.6072  -0.6070  -0.6043  -0.6030
 -0.6022  -0.5991  -0.5905  -0.5867  -0.5859  -0.5848  -0.5842  -0.5839
 -0.5814  -0.5631  -0.5320  -0.5189  -0.5064  -0.5038  -0.4977  -0.4963
 -0.4957  -0.4956  -0.4948  -0.4922  -0.4918  -0.4913  -0.4894  -0.4886
 -0.4884  -0.4865  -0.4857  -0.4849  -0.4823  -0.4814  -0.4812  -0.4810
 -0.4807  -0.4789  -0.4782  -0.4776  -0.4771  -0.4768  -0.4759  -0.4755
 -0.4750  -0.4739  -0.4730  -0.4720  -0.4717  -0.4708  -0.4707  -0.4705
 -0.4694  -0.4686  -0.4683  -0.4682  -0.4678  -0.4665  -0.4662  -0.4653
 -0.4641  -0.4632  -0.4628  -0.4620  -0.4619  -0.4612  -0.4603  -0.4597
 -0.4589  -0.4588  -0.4584  -0.4582  -0.4575  -0.4570  -0.4562  -0.4557
 -0.4553  -0.4548  -0.4537  -0.4530  -0.4519  -0.4519  -0.4516  -0.4502
 -0.4494  -0.4490  -0.4478  -0.4455  -0.4451  -0.4448  -0.4444  -0.4436
 -0.4428  -0.4423  -0.4421  -0.4413  -0.4406  -0.4400  -0.4393  -0.4391
 -0.4389  -0.4381  -0.4377  -0.4364  -0.4354  -0.4343  -0.4338  -0.4335
 -0.4328  -0.4312  -0.4312  -0.4307  -0.4293  -0.4284  -0.4281  -0.4278
 -0.4254  -0.4238  -0.4232  -0.4226  -0.4223  -0.4209  -0.4207  -0.4201
 -0.4194  -0.4180  -0.4170  -0.4162  -0.4160  -0.4154  -0.4143  -0.4130
 -0.4123  -0.4111  -0.4105  -0.4103  -0.4094  -0.4090  -0.4089  -0.4083
 -0.4073  -0.4056  -0.4056  -0.4046  -0.4041  -0.4028  -0.4008  -0.4002
 -0.3997  -0.3980  -0.3977  -0.3967  -0.3962  -0.3957  -0.3955  -0.3955
 -0.3938  -0.3931  -0.3929  -0.3909  -0.3899  -0.3897  -0.3892  -0.3888
 -0.3884  -0.3876  -0.3868  -0.3862  -0.3852  -0.3846  -0.3833  -0.3818
 -0.3803  -0.3789  -0.3782  -0.3778  -0.3775  -0.3772  -0.3761  -0.3755
 -0.3748  -0.3711  -0.3704  -0.3694  -0.3681  -0.3675  -0.3667  -0.3664
 -0.3659  -0.3644  -0.3634  -0.3598  -0.3589  -0.3586  -0.3579  -0.3569
 -0.3539  -0.3531  -0.3521  -0.3501  -0.3492  -0.3454  -0.3378  -0.3352
 -0.3341  -0.3341  -0.3320  -0.3295  -0.3182  -0.3142  -0.3076  -0.3063
 -0.3021  -0.3015  -0.2946  -0.2914  -0.2889  -0.2841  -0.2796  -0.2792
 -0.2770  -0.2748  -0.2746  -0.2743  -0.2733  -0.2733  -0.2729  -0.2710
 -0.2707  -0.2700  -0.2691  -0.2682  -0.2650  -0.2603  -0.2589  -0.2586
 -0.2579  -0.2568  -0.2560  -0.2557  -0.2503  -0.2490  -0.2488  -0.2483
 -0.2468  -0.2452  -0.2445  -0.2435  -0.2430  -0.2424  -0.2412  -0.2401
 -0.2386  -0.2365  -0.2321  -0.2313  -0.2302  -0.2272  -0.2251  -0.2220
 -0.2160  -0.2107  -0.2096  -0.2072  -0.2043
 -- Virtual --
 -0.0433  -0.0411  -0.0317  -0.0277  -0.0246  -0.0203  -0.0193  -0.0176
 -0.0168  -0.0140  -0.0129  -0.0109  -0.0106  -0.0097  -0.0089  -0.0067
 -0.0065  -0.0063  -0.0042  -0.0033  -0.0021  -0.0016  -0.0007  -0.0002
 -0.0001   0.0011   0.0023   0.0027   0.0030   0.0036   0.0040   0.0045
  0.0055   0.0069   0.0082   0.0086   0.0092   0.0105   0.0108   0.0114
  0.0117   0.0120   0.0133   0.0134   0.0136   0.0140   0.0158   0.0167
  0.0177   0.0185   0.0197   0.0208   0.0220   0.0223   0.0228   0.0234
  0.0243   0.0253   0.0257   0.0265   0.0274   0.0278   0.0284   0.0286
  0.0297   0.0303   0.0307   0.0318   0.0321   0.0327   0.0333   0.0340
  0.0341   0.0349   0.0355   0.0358   0.0363   0.0368   0.0374   0.0380
  0.0394   0.0397   0.0398   0.0411   0.0415   0.0417   0.0428   0.0431
  0.0434   0.0451   0.0456   0.0459   0.0468   0.0471   0.0476   0.0480
  0.0492   0.0500   0.0501   0.0507   0.0509   0.0516   0.0524   0.0528
  0.0538   0.0547   0.0551   0.0556   0.0560   0.0569   0.0578   0.0584
  0.0600   0.0601   0.0606   0.0613   0.0616   0.0618   0.0627   0.0642
  0.0643   0.0645   0.0653   0.0666   0.0672   0.0680   0.0688   0.0690
  0.0698   0.0705   0.0712   0.0722   0.0725   0.0732   0.0737   0.0741
  0.0743   0.0747   0.0749   0.0762   0.0770   0.0772   0.0786   0.0793
  0.0800   0.0813   0.0820   0.0826   0.0831   0.0837   0.0845   0.0846
  0.0854   0.0856   0.0869   0.0874   0.0880   0.0881   0.0884   0.0893
  0.0898   0.0904   0.0913   0.0919   0.0925   0.0933   0.0942   0.0946
  0.0953   0.0960   0.0964   0.0967   0.0971   0.0973   0.0988   0.0991
  0.0996   0.1007   0.1010   0.1013   0.1019   0.1028   0.1032   0.1041
  0.1043   0.1052   0.1064   0.1075   0.1077   0.1081   0.1089   0.1095
  0.1099   0.1107   0.1109   0.1118   0.1126   0.1132   0.1133   0.1141
  0.1156   0.1161   0.1167   0.1172   0.1178   0.1181   0.1194   0.1197
  0.1205   0.1214   0.1220   0.1223   0.1225   0.1228   0.1235   0.1239
  0.1253   0.1261   0.1267   0.1270   0.1273   0.1283   0.1294   0.1301
  0.1306   0.1313   0.1320   0.1330   0.1337   0.1340   0.1348   0.1353
  0.1359   0.1363   0.1365   0.1367   0.1373   0.1382   0.1389   0.1391
  0.1396   0.1403   0.1410   0.1416   0.1418   0.1424   0.1430   0.1440
  0.1446   0.1448   0.1455   0.1461   0.1466   0.1476   0.1481   0.1489
  0.1499   0.1502   0.1511   0.1513   0.1520   0.1529   0.1533   0.1539
  0.1546   0.1553   0.1561   0.1570   0.1574   0.1575   0.1593   0.1601
  0.1601   0.1604   0.1610   0.1616   0.1623   0.1633   0.1635   0.1641
  0.1647   0.1658   0.1661   0.1664   0.1673   0.1676   0.1683   0.1687
  0.1692   0.1703   0.1713   0.1716   0.1724   0.1731   0.1738   0.1741
  0.1752   0.1755   0.1772   0.1776   0.1780   0.1786   0.1789   0.1796
  0.1799   0.1801   0.1804   0.1813   0.1820   0.1822   0.1827   0.1834
  0.1838   0.1851   0.1858   0.1863   0.1869   0.1876   0.1880   0.1886
  0.1892   0.1893   0.1905   0.1912   0.1916   0.1924   0.1925   0.1933
  0.1937   0.1953   0.1959   0.1962   0.1970   0.1972   0.1981   0.1985
  0.1988   0.1996   0.2008   0.2019   0.2020   0.2022   0.2036   0.2043
  0.2045   0.2059   0.2063   0.2069   0.2070   0.2078   0.2090   0.2092
  0.2099   0.2105   0.2105   0.2119   0.2121   0.2130   0.2137   0.2142
  0.2143   0.2153   0.2155   0.2165   0.2173   0.2178   0.2184   0.2186
  0.2197   0.2201   0.2203   0.2209   0.2218   0.2220   0.2223   0.2233
  0.2244   0.2250   0.2252   0.2255   0.2263   0.2271   0.2279   0.2288
  0.2297   0.2300   0.2303   0.2310   0.2330   0.2332   0.2344   0.2347
  0.2354   0.2362   0.2369   0.2375   0.2382   0.2392   0.2395   0.2400
  0.2403   0.2419   0.2425   0.2429   0.2440   0.2442   0.2450   0.2453
  0.2469   0.2476   0.2479   0.2489   0.2498   0.2507   0.2511   0.2515
  0.2520   0.2528   0.2533   0.2537   0.2550   0.2557   0.2561   0.2568
  0.2569   0.2574   0.2584   0.2590   0.2598   0.2615   0.2615   0.2621
  0.2632   0.2644   0.2657   0.2659   0.2663   0.2675   0.2688   0.2691
  0.2696   0.2703   0.2706   0.2713   0.2719   0.2726   0.2738   0.2745
  0.2751   0.2757   0.2770   0.2778   0.2780   0.2791   0.2797   0.2805
  0.2814   0.2817   0.2832   0.2836   0.2846   0.2857   0.2873   0.2876
  0.2884   0.2887   0.2896   0.2903   0.2908   0.2915   0.2918   0.2929
  0.2949   0.2960   0.2963   0.2974   0.2978   0.2987   0.2992   0.3001
  0.3011   0.3022   0.3032   0.3039   0.3050   0.3051   0.3067   0.3070
  0.3089   0.3091   0.3099   0.3100   0.3111   0.3123   0.3134   0.3139
  0.3143   0.3145   0.3156   0.3161   0.3166   0.3181   0.3197   0.3201
  0.3228   0.3235   0.3242   0.3252   0.3269   0.3273   0.3278   0.3285
  0.3305   0.3307   0.3311   0.3317   0.3324   0.3328   0.3344   0.3358
  0.3363   0.3371   0.3380   0.3393   0.3395   0.3402   0.3418   0.3429
  0.3432   0.3437   0.3446   0.3459   0.3464   0.3469   0.3479   0.3487
  0.3494   0.3509   0.3514   0.3536   0.3544   0.3545   0.3553   0.3561
  0.3569   0.3581   0.3583   0.3596   0.3603   0.3614   0.3631   0.3632
  0.3644   0.3654   0.3660   0.3667   0.3673   0.3685   0.3695   0.3699
  0.3711   0.3716   0.3733   0.3745   0.3754   0.3766   0.3777   0.3786
  0.3791   0.3792   0.3796   0.3815   0.3823   0.3838   0.3847   0.3848
  0.3864   0.3865   0.3877   0.3883   0.3891   0.3894   0.3909   0.3922
  0.3927   0.3932   0.3945   0.3952   0.3956   0.3971   0.3984   0.3989
  0.3995   0.4010   0.4018   0.4023   0.4031   0.4047   0.4054   0.4056
  0.4076   0.4085   0.4096   0.4099   0.4116   0.4128   0.4133   0.4151
  0.4155   0.4170   0.4178   0.4185   0.4199   0.4200   0.4208   0.4213
  0.4223   0.4227   0.4231   0.4252   0.4262   0.4269   0.4288   0.4294
  0.4300   0.4301   0.4318   0.4327   0.4337   0.4343   0.4353   0.4376
  0.4383   0.4392   0.4395   0.4403   0.4413   0.4442   0.4458   0.4475
  0.4483   0.4493   0.4501   0.4511   0.4512   0.4531   0.4546   0.4564
  0.4579   0.4592   0.4600   0.4603   0.4633   0.4642   0.4660   0.4672
  0.4687   0.4694   0.4694   0.4705   0.4718   0.4727   0.4743   0.4761
  0.4772   0.4787   0.4794   0.4808   0.4820   0.4838   0.4848   0.4862
  0.4876   0.4894   0.4896   0.4914   0.4927   0.4949   0.4964   0.4973
  0.4998   0.5007   0.5011   0.5028   0.5030   0.5072   0.5081   0.5091
  0.5106   0.5116   0.5122   0.5139   0.5163   0.5184   0.5199   0.5212
  0.5229   0.5266   0.5272   0.5288   0.5311   0.5318   0.5334   0.5363
  0.5381   0.5403   0.5406   0.5426   0.5451   0.5465   0.5475   0.5483
  0.5500   0.5506   0.5524   0.5534   0.5553   0.5570   0.5581   0.5596
  0.5612   0.5621   0.5628   0.5660   0.5673   0.5686   0.5700   0.5704
  0.5738   0.5756   0.5765   0.5782   0.5794   0.5819   0.5845   0.5847
  0.5859   0.5872   0.5900   0.5907   0.5917   0.5929   0.5949   0.5959
  0.5975   0.5985   0.6002   0.6008   0.6019   0.6037   0.6055   0.6063
  0.6090   0.6093   0.6109   0.6119   0.6122   0.6138   0.6156   0.6169
  0.6181   0.6201   0.6211   0.6219   0.6231   0.6243   0.6253   0.6267
  0.6273   0.6286   0.6301   0.6311   0.6319   0.6324   0.6336   0.6343
  0.6348   0.6370   0.6377   0.6383   0.6395   0.6419   0.6428   0.6445
  0.6448   0.6468   0.6476   0.6491   0.6495   0.6507   0.6513   0.6527
  0.6541   0.6544   0.6551   0.6563   0.6587   0.6591   0.6607   0.6617
  0.6624   0.6631   0.6650   0.6672   0.6677   0.6681   0.6694   0.6707
  0.6712   0.6724   0.6732   0.6748   0.6751   0.6775   0.6785   0.6788
  0.6806   0.6812   0.6814   0.6834   0.6847   0.6869   0.6877   0.6885
  0.6900   0.6908   0.6923   0.6927   0.6941   0.6954   0.6969   0.6973
  0.6991   0.6996   0.7006   0.7011   0.7020   0.7040   0.7052   0.7065
  0.7076   0.7095   0.7099   0.7117   0.7127   0.7147   0.7162   0.7165
  0.7183   0.7194   0.7202   0.7218   0.7228   0.7233   0.7248   0.7267
  0.7282   0.7299   0.7308   0.7318   0.7331   0.7349   0.7360   0.7379
  0.7389   0.7413   0.7414   0.7420   0.7443   0.7449   0.7482   0.7484
  0.7508   0.7515   0.7531   0.7539   0.7578   0.7585   0.7601   0.7629
  0.7638   0.7644   0.7663   0.7684   0.7703   0.7731   0.7743   0.7745
  0.7777   0.7787   0.7810   0.7826   0.7839   0.7855   0.7872   0.7877
  0.7888   0.7910   0.7918   0.7924   0.7938   0.7946   0.7966   0.7983
  0.8007   0.8037   0.8051   0.8054   0.8065   0.8085   0.8100   0.8118
  0.8140   0.8152   0.8169   0.8179   0.8199   0.8202   0.8219   0.8237
  0.8253   0.8276   0.8282   0.8314   0.8319   0.8328   0.8340   0.8354
  0.8363   0.8367   0.8388   0.8394   0.8421   0.8427   0.8459   0.8465
  0.8483   0.8486   0.8498   0.8518   0.8522   0.8543   0.8549   0.8569
  0.8575   0.8594   0.8602   0.8612   0.8623   0.8626   0.8637   0.8641
  0.8652   0.8670   0.8678   0.8690   0.8706   0.8722   0.8730   0.8752
  0.8759   0.8773   0.8787   0.8795   0.8819   0.8825   0.8842   0.8858
  0.8879   0.8887   0.8890   0.8913   0.8927   0.8932   0.8950   0.8964
  0.8965   0.8994   0.9005   0.9016   0.9020   0.9039   0.9068   0.9076
  0.9096   0.9106   0.9115   0.9127   0.9148   0.9158   0.9174   0.9182
  0.9197   0.9201   0.9213   0.9232   0.9238   0.9262   0.9268   0.9280
  0.9285   0.9299   0.9327   0.9333   0.9345   0.9354   0.9361   0.9369
  0.9396   0.9408   0.9421   0.9429   0.9441   0.9449   0.9465   0.9486
  0.9495   0.9502   0.9510   0.9521   0.9532   0.9540   0.9556   0.9568
  0.9577   0.9587   0.9594   0.9607   0.9620   0.9630   0.9640   0.9647
  0.9663   0.9677   0.9682   0.9691   0.9709   0.9717   0.9722   0.9733
  0.9757   0.9762   0.9777   0.9779   0.9789   0.9800   0.9808   0.9815
  0.9823   0.9829   0.9855   0.9863   0.9867   0.9874   0.9886   0.9898
  0.9904   0.9906   0.9925   0.9929   0.9946   0.9952   0.9960   0.9976
  0.9981   0.9990   1.0005   1.0007   1.0031   1.0044   1.0048   1.0053
  1.0068   1.0080   1.0088   1.0095   1.0105   1.0112   1.0121   1.0129
  1.0146   1.0153   1.0171   1.0178   1.0202   1.0206   1.0230   1.0235
  1.0253   1.0255   1.0272   1.0277   1.0286   1.0309   1.0314   1.0339
  1.0347   1.0357   1.0379   1.0383   1.0399   1.0428   1.0437   1.0440
  1.0459   1.0468   1.0481   1.0507   1.0515   1.0519   1.0524   1.0537
  1.0554   1.0575   1.0591   1.0610   1.0620   1.0652   1.0657   1.0677
  1.0690   1.0701   1.0706   1.0735   1.0744   1.0759   1.0779   1.0792
  1.0795   1.0829   1.0833   1.0860   1.0875   1.0889   1.0896   1.0901
  1.0921   1.0934   1.0958   1.0976   1.0999   1.1010   1.1025   1.1051
  1.1057   1.1079   1.1093   1.1113   1.1117   1.1144   1.1162   1.1176
  1.1188   1.1189   1.1207   1.1221   1.1238   1.1247   1.1253   1.1274
  1.1284   1.1307   1.1318   1.1327   1.1339   1.1347   1.1353   1.1391
  1.1411   1.1414   1.1425   1.1442   1.1455   1.1464   1.1483   1.1491
  1.1500   1.1504   1.1512   1.1520   1.1530   1.1561   1.1565   1.1580
  1.1593   1.1610   1.1614   1.1622   1.1642   1.1653   1.1668   1.1678
  1.1691   1.1695   1.1706   1.1723   1.1734   1.1763   1.1770   1.1782
  1.1789   1.1813   1.1827   1.1848   1.1860   1.1864   1.1872   1.1892
  1.1901   1.1915   1.1937   1.1950   1.1977   1.1997   1.2000   1.2030
  1.2047   1.2053   1.2065   1.2080   1.2093   1.2123   1.2140   1.2179
  1.2201   1.2206   1.2226   1.2252   1.2271   1.2302   1.2309   1.2328
  1.2342   1.2361   1.2377   1.2383   1.2411   1.2441   1.2462   1.2481
  1.2494   1.2500   1.2526   1.2531   1.2569   1.2604   1.2625   1.2636
  1.2666   1.2702   1.2722   1.2734   1.2742   1.2759   1.2799   1.2824
  1.2842   1.2859   1.2886   1.2912   1.2943   1.2944   1.2974   1.3000
  1.3012   1.3044   1.3055   1.3092   1.3131   1.3137   1.3159   1.3180
  1.3211   1.3228   1.3260   1.3286   1.3314   1.3339   1.3342   1.3372
  1.3391   1.3405   1.3418   1.3439   1.3470   1.3481   1.3502   1.3520
  1.3540   1.3569   1.3575   1.3598   1.3612   1.3641   1.3655   1.3661
  1.3694   1.3709   1.3712   1.3723   1.3744   1.3751   1.3767   1.3774
  1.3796   1.3814   1.3844   1.3854   1.3871   1.3886   1.3896   1.3906
  1.3914   1.3936   1.3948   1.3985   1.3991   1.4017   1.4025   1.4042
  1.4047   1.4061   1.4088   1.4101   1.4107   1.4114   1.4148   1.4149
  1.4159   1.4169   1.4184   1.4194   1.4232   1.4246   1.4256   1.4272
  1.4304   1.4311   1.4312   1.4334   1.4350   1.4366   1.4372   1.4381
  1.4400   1.4419   1.4423   1.4444   1.4454   1.4470   1.4477   1.4493
  1.4509   1.4558   1.4563   1.4571   1.4586   1.4615   1.4629   1.4642
  1.4650   1.4672   1.4673   1.4693   1.4720   1.4723   1.4746   1.4751
  1.4766   1.4785   1.4810   1.4830   1.4857   1.4863   1.4873   1.4885
  1.4916   1.4949   1.4956   1.4974   1.5003   1.5011   1.5036   1.5047
  1.5067   1.5083   1.5107   1.5131   1.5181   1.5216   1.5238   1.5262
  1.5266   1.5327   1.5341   1.5358   1.5371   1.5388   1.5429   1.5466
  1.5500   1.5511   1.5562   1.5588   1.5602   1.5649   1.5666   1.5716
  1.5751   1.5797   1.5809   1.5825   1.5852   1.5885   1.5961   1.5981
  1.5999   1.6038   1.6086   1.6127   1.6181   1.6195   1.6256   1.6345
  1.6368   1.6433   1.6448   1.6499   1.6544   1.6554   1.6573   1.6605
  1.6625   1.6631   1.6633   1.6649   1.6664   1.6676   1.6703   1.6730
  1.6737   1.6756   1.6767   1.6786   1.6791   1.6796   1.6821   1.6828
  1.6841   1.6852   1.6873   1.6874   1.6886   1.6891   1.6906   1.6916
  1.6922   1.6940   1.6960   1.6964   1.6984   1.7002   1.7021   1.7037
  1.7038   1.7059   1.7065   1.7082   1.7097   1.7115   1.7121   1.7138
  1.7154   1.7168   1.7180   1.7195   1.7199   1.7211   1.7218   1.7232
  1.7254   1.7267   1.7274   1.7295   1.7310   1.7324   1.7330   1.7341
  1.7345   1.7359   1.7376   1.7388   1.7405   1.7417   1.7431   1.7442
  1.7463   1.7472   1.7489   1.7497   1.7511   1.7519   1.7536   1.7545
  1.7568   1.7584   1.7598   1.7637   1.7659   1.7666   1.7696   1.7697
  1.7708   1.7718   1.7739   1.7754   1.7777   1.7778   1.7803   1.7821
  1.7851   1.7868   1.7877   1.7906   1.7910   1.7932   1.7951   1.7968
  1.7985   1.8013   1.8025   1.8042   1.8054   1.8077   1.8100   1.8165
  1.8173   1.8216   1.8253   1.8273   1.8299   1.8311   1.8372   1.8406
  1.8435   1.8456   1.8485   1.8496   1.8541   1.8573   1.8592   1.8626
  1.8631   1.8645   1.8670   1.8703   1.8719   1.8729   1.8755   1.8777
  1.8797   1.8811   1.8819   1.8833   1.8837   1.8846   1.8856   1.8887
  1.8896   1.8905   1.8912   1.8930   1.8939   1.8953   1.8957   1.8972
  1.8990   1.8994   1.9007   1.9012   1.9024   1.9028   1.9053   1.9058
  1.9093   1.9101   1.9108   1.9125   1.9130   1.9159   1.9169   1.9177
  1.9190   1.9194   1.9209   1.9234   1.9242   1.9256   1.9274   1.9291
  1.9307   1.9326   1.9337   1.9353   1.9360   1.9378   1.9407   1.9430
  1.9451   1.9470   1.9507   1.9518   1.9530   1.9566   1.9609   1.9630
  1.9683   1.9742   1.9785   1.9827   1.9830   1.9863   1.9977   2.0008
  2.0149   2.0180   2.0342   2.0358   2.0368   2.0427   2.0438   2.0449
  2.0467   2.0512   2.0541   2.0548   2.0577   2.0587   2.0613   2.0639
  2.0653   2.0662   2.0677   2.0688   2.0699   2.0714   2.0754   2.0759
  2.0765   2.0784   2.0793   2.0805   2.0807   2.0814   2.0835   2.0871
  2.0891   2.0924   2.0937   2.0952   2.0963   2.0970   2.0981   2.1003
  2.1020   2.1039   2.1051   2.1069   2.1084   2.1096   2.1123   2.1130
  2.1143   2.1156   2.1192   2.1213   2.1250   2.1262   2.1280   2.1295
  2.1304   2.1394   2.1411   2.1434   2.1458   2.1494   2.1501   2.1517
  2.1556   2.1580   2.1701   2.1712   2.1756   2.1824   2.1854   2.1928
  2.1939   2.1969   2.1975   2.2012   2.2035   2.2046   2.2051   2.2063
  2.2081   2.2108   2.2124   2.2154   2.2172   2.2183   2.2207   2.2251
  2.2274   2.2282   2.2285   2.2314   2.2315   2.2324   2.2345   2.2350
  2.2362   2.2368   2.2382   2.2391   2.2407   2.2416   2.2431   2.2451
  2.2458   2.2471   2.2476   2.2480   2.2484   2.2498   2.2506   2.2509
  2.2522   2.2535   2.2546   2.2551   2.2563   2.2573   2.2577   2.2593
  2.2601   2.2603   2.2612   2.2615   2.2625   2.2651   2.2663   2.2670
  2.2681   2.2687   2.2697   2.2711   2.2733   2.2756   2.2762   2.2766
  2.2781   2.2789   2.2802   2.2804   2.2820   2.2825   2.2837   2.2846
  2.2855   2.2860   2.2863   2.2876   2.2879   2.2897   2.2902   2.2915
  2.2924   2.2942   2.2949   2.2957   2.2962   2.2981   2.2987   2.3002
  2.3016   2.3030   2.3041   2.3044   2.3056   2.3063   2.3070   2.3094
  2.3095   2.3117   2.3119   2.3149   2.3157   2.3172   2.3182   2.3189
  2.3196   2.3213   2.3216   2.3218   2.3227   2.3239   2.3254   2.3260
  2.3264   2.3278   2.3288   2.3326   2.3347   2.3369   2.3396   2.3402
  2.3408   2.3427   2.3443   2.3451   2.3494   2.3497   2.3503   2.3530
  2.3537   2.3544   2.3576   2.3590   2.3595   2.3597   2.3614   2.3625
  2.3650   2.3661   2.3696   2.3758   2.3772   2.3788   2.3791   2.3819
  2.3856   2.3873   2.3903   2.3935   2.3983   2.4084   2.4100   2.4138
  2.4296   2.4569   2.4618   2.4704   2.4951   2.5185   2.5671   2.5918
  2.6432   2.7302   2.7611   2.7821   2.8035   2.8195   2.8258   2.8319
  2.8329   2.8345   2.8359   2.8384   2.8450   2.8457   2.8505   2.8511
  2.8527   2.8549   2.8560   2.8582   2.8603   2.8605   2.8620   2.8656
  2.8670   2.8689   2.8717   2.8741   2.8775   2.8817   2.8853   2.8892
  2.8914   2.9106   2.9676   3.0878   3.2420   3.9504   3.9518   3.9576
  3.9621   3.9636   3.9674   3.9694   3.9768   3.9822   3.9833   3.9875
  3.9902   3.9921   3.9936   3.9949   3.9965   4.0034   4.0058   4.0064
  4.0102   4.0111   4.0137   4.0175   4.0199   4.0238   4.0292   4.2032
  4.2164   4.2227   4.2250   4.2268   4.2339   4.2346   4.2357   4.2391
  4.2422   4.2487   4.2521   4.2538   4.2549   4.2591   4.2609   4.2652
  4.2684   4.2733   4.2751   4.2775   4.2798   4.2825   4.2847   4.2863
  4.2911   4.2925   4.2941   4.2968   4.2983   4.3024   4.3027   4.3047
  4.3069   4.3099   4.3116   4.3126   4.3157   4.3188   4.3197   4.3231
  4.3234   4.3279   4.3308   4.3328   4.3346   4.3379   4.3424   4.3458
  4.3473   4.3506   4.3515   4.3526   4.3561   4.3593   4.3656   4.3668
  4.3694   4.3784   4.3792   4.3885   4.3935   4.3956   4.3973   4.3998
  4.4046   4.4103   4.4146   4.4213   4.4312   4.4379   4.4478   4.4556
  4.4568   4.4802   4.5008   4.5172   4.5396   4.5500   4.5708   4.5883
  4.6185   4.6299   4.7124   4.7317   4.7878   4.9213
 --------------------------------------------------------------
 
          Ground-State Mulliken Net Atomic Charges

     Atom                 Charge (a.u.)
  ----------------------------------------
      1 C                    -0.402501
      2 C                    -0.128257
      3 C                    -0.149134
      4 C                    -0.611129
      5 C                    -0.351197
      6 C                    -0.545445
      7 H                     0.215453
      8 H                     0.201710
      9 H                     0.196593
     10 H                     0.234120
     11 H                     0.222192
     12 H                     0.177443
     13 H                     0.169448
     14 H                     0.243437
     15 H                     0.221392
     16 H                     0.177716
     17 H                     0.220245
     18 N                    -0.532704
     19 H                     0.505631
     20 C                     0.337950
     21 H                     0.149794
     22 O                    -0.552756
     23 C                    -0.694844
     24 H                     0.246693
     25 H                     0.247707
     26 H                     0.247301
     27 S                     0.655958
     28 C                    -0.794321
     29 H                     0.244893
     30 H                     0.255984
     31 H                     0.270791
     32 O                    -0.718198
     33 C                    -1.050027
     34 H                     0.250037
     35 H                     0.281357
     36 H                     0.303464
     37 S                     1.040462
     38 C                    -0.915895
     39 H                     0.261505
     40 H                     0.264463
     41 H                     0.236066
     42 O                    -0.648628
     43 C                    -1.185041
     44 H                     0.238619
     45 H                     0.258516
     46 H                     0.304656
     47 S                     1.121764
     48 C                    -0.691715
     49 H                     0.227271
     50 H                     0.285593
     51 H                     0.276727
     52 O                    -0.696431
     53 C                    -0.993783
     54 H                     0.256596
     55 H                     0.275237
     56 H                     0.245316
     57 S                     0.902634
     58 C                    -0.952075
     59 H                     0.261567
     60 H                     0.305187
     61 H                     0.274645
     62 O                    -0.643336
     63 C                    -0.774109
     64 H                     0.254907
     65 H                     0.267229
     66 H                     0.253745
     67 S                     0.845885
     68 C                    -0.829682
     69 H                     0.258024
     70 H                     0.243276
     71 H                     0.256958
     72 O                    -0.709948
     73 C                    -0.847462
     74 H                     0.239664
     75 H                     0.258238
     76 H                     0.258015
     77 S                     0.968380
     78 C                    -0.843021
     79 H                     0.278466
     80 H                     0.232703
     81 H                     0.248966
     82 O                    -0.725644
     83 C                    -0.746193
     84 H                     0.241016
     85 H                     0.260171
     86 H                     0.254953
     87 S                     0.807501
     88 C                    -0.813037
     89 H                     0.238970
     90 H                     0.245620
     91 H                     0.250850
     92 O                    -0.677854
     93 C                    -0.779898
     94 H                     0.335295
     95 H                     0.245177
     96 H                     0.225881
     97 S                     0.629166
     98 C                    -0.732868
     99 H                     0.241456
    100 H                     0.254757
    101 H                     0.248690
    102 O                    -0.568988
    103 C                    -0.860158
    104 H                     0.295779
    105 H                     0.268914
    106 H                     0.242512
    107 S                     0.703720
    108 C                    -0.903041
    109 H                     0.225850
    110 H                     0.255951
    111 H                     0.294720
    112 O                    -0.599862
    113 C                    -0.809312
    114 H                     0.257254
    115 H                     0.260796
    116 H                     0.221529
    117 S                     0.780034
    118 C                    -0.896955
    119 H                     0.298449
    120 H                     0.243263
    121 H                     0.254232
    122 O                    -0.668234
    123 C                    -1.024970
    124 H                     0.281556
    125 H                     0.245902
    126 H                     0.272493
    127 S                     1.164578
    128 C                    -1.039101
    129 H                     0.274912
    130 H                     0.224557
    131 H                     0.296695
    132 O                    -0.737066
    133 C                    -1.122645
    134 H                     0.242653
    135 H                     0.292984
    136 H                     0.306322
    137 S                     0.834302
    138 C                    -0.780498
    139 H                     0.260516
    140 H                     0.249505
    141 H                     0.214081
    142 O                    -0.701890
    143 C                    -0.840783
    144 H                     0.254997
    145 H                     0.241700
    146 H                     0.235000
    147 S                     0.965148
    148 C                    -0.851434
    149 H                     0.251010
    150 H                     0.244966
    151 H                     0.236035
    152 O                    -0.726715
    153 C                    -0.835055
    154 H                     0.286119
    155 H                     0.225412
    156 H                     0.236644
    157 S                     0.930119
    158 C                    -0.937180
    159 H                     0.304075
    160 H                     0.276477
    161 H                     0.213186
    162 O                    -0.717690
    163 C                    -0.938573
    164 H                     0.212602
    165 H                     0.278038
    166 H                     0.255064
    167 S                     1.028608
    168 C                    -0.806554
    169 H                     0.273191
    170 H                     0.276472
    171 H                     0.218170
    172 O                    -0.743062
    173 C                    -0.702153
    174 H                     0.254596
    175 H                     0.251412
    176 H                     0.261718
    177 S                     0.549780
    178 C                    -0.740938
    179 H                     0.263728
    180 H                     0.248243
    181 H                     0.249330
    182 O                    -0.716927
    183 C                    -1.089208
    184 H                     0.253294
    185 H                     0.244884
    186 H                     0.294913
    187 S                     1.125979
    188 C                    -0.925471
    189 H                     0.243435
    190 H                     0.257520
    191 H                     0.273440
    192 O                    -0.729273
    193 C                    -0.877279
    194 H                     0.278873
    195 H                     0.238823
    196 H                     0.243503
    197 S                     0.884245
    198 C                    -0.920739
    199 H                     0.259606
    200 H                     0.226519
    201 H                     0.305489
    202 O                    -0.692284
    203 C                    -0.861698
    204 H                     0.256315
    205 H                     0.290101
    206 H                     0.235823
    207 S                     1.001377
    208 C                    -0.911901
    209 H                     0.275907
    210 H                     0.236852
    211 H                     0.246512
    212 O                    -0.725534
    213 C                    -0.687207
    214 H                     0.240875
    215 H                     0.269176
    216 H                     0.243268
    217 S                     0.734362
    218 C                    -0.831923
    219 H                     0.237472
    220 H                     0.296429
    221 H                     0.238992
    222 O                    -0.662454
    223 C                    -0.931980
    224 H                     0.289918
    225 H                     0.228975
    226 H                     0.280024
    227 S                     1.114085
    228 C                    -1.002635
    229 H                     0.275694
    230 H                     0.250055
    231 H                     0.240606
    232 O                    -0.756086
    233 C                    -0.962098
    234 H                     0.276134
    235 H                     0.281606
    236 H                     0.244371
    237 S                     1.103112
    238 C                    -0.946966
    239 H                     0.256372
    240 H                     0.239478
    241 H                     0.282824
    242 O                    -0.749792
    243 C                    -0.831715
    244 H                     0.265455
    245 H                     0.253316
    246 H                     0.246321
    247 S                     0.680385
    248 C                    -0.697401
    249 H                     0.253758
    250 H                     0.262091
    251 H                     0.279306
    252 O                    -0.742455
    253 C                    -0.791466
    254 H                     0.235111
    255 H                     0.266509
    256 H                     0.234412
    257 S                     1.006905
    258 C                    -0.889543
    259 H                     0.287887
    260 H                     0.230933
    261 H                     0.272475
    262 O                    -0.761496
    263 C                    -0.956149
    264 H                     0.269179
    265 H                     0.288300
    266 H                     0.223937
    267 S                     0.844509
    268 C                    -0.729725
    269 H                     0.266352
    270 H                     0.241335
    271 H                     0.257946
    272 O                    -0.780399
    273 C                    -0.797749
    274 H                     0.247897
    275 H                     0.266584
    276 H                     0.258768
    277 S                     0.858042
    278 C                    -0.831713
    279 H                     0.266566
    280 H                     0.250441
    281 H                     0.233514
    282 O                    -0.708206
  ----------------------------------------
  Sum of atomic charges =     0.000000

 -----------------------------------------------------------------
                    Cartesian Multipole Moments
 -----------------------------------------------------------------
    Charge (ESU x 10^10)
                 0.0000
    Dipole Moment (Debye)
         X     -10.8935      Y      16.4424      Z       1.7780
       Tot      19.8036
    Quadrupole Moments (Debye-Ang)
        XX   -1216.4113     XY      76.7877     YY    -366.5083
        XZ    -342.6404     YZ     490.5992     ZZ    -883.6376
    Octopole Moments (Debye-Ang^2)
       XXX  -63125.3084    XXY  -18370.7987    XYY  -14837.2447
       YYY  -38477.3144    XXZ  -36456.0359    XYZ    1269.3928
       YYZ  -10657.8616    XZZ  -31497.2275    YZZ   -3211.3597
       ZZZ  -79880.6587
    Hexadecapole Moments (Debye-Ang^3)
      XXXX ************   XXXY ************   XXYY -765484.4486
      XYYY ************   YYYY ************   XXXZ ************
      XXYZ -565800.8393   XYYZ -459054.5697   YYYZ ************
      XXZZ ************   XYZZ -364796.2678   YYZZ -665970.0993
      XZZZ ************   YZZZ ************   ZZZZ ************
 -----------------------------------------------------------------
Archival summary:
[...]
    2   0.0226387  -0.0214859  -0.0364399   0.0082948   0.0152478   0.0224896
    3   0.0001705   0.0005447  -0.0042250   0.0007440  -0.0200461   0.0120450
          121         122         123         124         125         126
    1   0.0215578  -0.0739386   0.0082594  -0.0120256   0.0185351   0.0342590
    2   0.0054120   0.0195483   0.0004647  -0.0139429   0.0297877  -0.0160605
    3   0.0293787  -0.0778133  -0.0081547  -0.0233293  -0.0149711  -0.0025914
          127         128         129         130         131         132
    1  -0.0145536  -0.0029199  -0.0084234  -0.0268414   0.0185295   0.0826212
    2  -0.0349514   0.0128139   0.0035699   0.0063611   0.0287400   0.0728588
    3   0.0338976  -0.0034013  -0.0319313   0.0224507  -0.0074054   0.0258716
          133         134         135         136         137         138
    1   0.0099261   0.0183786   0.0255336  -0.0025082  -0.0400798   0.0025968
    2   0.0016072   0.0363901  -0.0170262  -0.0107197   0.0261186   0.0005053
    3  -0.0037146   0.0028051   0.0126020  -0.0327261  -0.0223547   0.0049188
          139         140         141         142         143         144
    1  -0.0159315   0.0297947  -0.0008229   0.0012929  -0.0070169  -0.0072866
    2  -0.0211205  -0.0059872   0.0340401  -0.1103258   0.0013525  -0.0162516
    3   0.0161423   0.0091460   0.0089283   0.0085152  -0.0003917  -0.0266384
          145         146         147         148         149         150
    1  -0.0102245  -0.0096587   0.0281695   0.0004944   0.0307521  -0.0202501
    2  -0.0128303   0.0328443   0.0203215   0.0029811  -0.0076943  -0.0137231
    3   0.0264843   0.0012198   0.0433749  -0.0068749  -0.0054317  -0.0200292
          151         152         153         154         155         156
    1  -0.0025069  -0.0019806  -0.0028895   0.0022333   0.0039540  -0.0324743
    2   0.0340668  -0.1082626  -0.0047688  -0.0328812  -0.0155177   0.0031617
    3  -0.0012538  -0.0252976  -0.0025879  -0.0174893   0.0271137   0.0113959
          157         158         159         160         161         162
    1  -0.0152972  -0.0015688   0.0075387   0.0048254  -0.0319870   0.1022683
    2   0.0464104   0.0019036   0.0298623  -0.0376631  -0.0021465  -0.0340373
    3   0.0192289  -0.0094052  -0.0193842  -0.0041648  -0.0038029  -0.0181151
          163         164         165         166         167         168
    1  -0.0033750  -0.0369763   0.0267807  -0.0134696  -0.0220144   0.0045944
    2  -0.0052294   0.0040607  -0.0206965  -0.0170264   0.0259915   0.0024920
    3  -0.0050896  -0.0125183  -0.0121198   0.0198692   0.0405144  -0.0072880
          169         170         171         172         173         174
    1   0.0015583   0.0264629  -0.0191130   0.0971325  -0.0084224  -0.0117485
    2   0.0307190  -0.0077577   0.0013118  -0.0528525  -0.0030863  -0.0153809
    3  -0.0047592  -0.0142929  -0.0260220   0.0059265   0.0004958  -0.0305799
          175         176         177         178         179         180
    1  -0.0207892  -0.0129770   0.0158097   0.0039692  -0.0052885   0.0024899
    2  -0.0164199   0.0289729   0.0131935  -0.0006294  -0.0142080   0.0298916
    3   0.0184498   0.0074861   0.0523079  -0.0048977  -0.0281439   0.0086988
          181         182         183         184         185         186
    1   0.0340564   0.0000890   0.0090053   0.0087337   0.0105492   0.0186748
    2   0.0022057  -0.1049864   0.0001537   0.0185102  -0.0311119   0.0128393
    3  -0.0020982  -0.0374291   0.0018198   0.0252616   0.0048782  -0.0209567
          187         188         189         190         191         192
    1  -0.0357771  -0.0009612  -0.0262612   0.0144130   0.0112120   0.0124549
    2   0.0003135  -0.0050347  -0.0146294  -0.0019572  -0.0261967   0.0760965
    3   0.0436422  -0.0025976  -0.0196846  -0.0290428   0.0195455  -0.0784930
          193         194         195         196         197         198
    1  -0.0027942   0.0122990  -0.0306555   0.0130956   0.0501295  -0.0102751
    2   0.0066266   0.0170345   0.0093403   0.0153352  -0.0167791  -0.0069243
    3  -0.0028110  -0.0252361   0.0122504   0.0193344  -0.0312103  -0.0001589
          199         200         201         202         203         204
    1  -0.0241444   0.0027461   0.0084311   0.0044171  -0.0009128  -0.0213114
    2   0.0084337   0.0042850  -0.0322652  -0.0065105   0.0093806   0.0262193
    3   0.0290370  -0.0348242  -0.0074601   0.1111963   0.0076350  -0.0019435
          205         206         207         208         209         210
    1  -0.0041772   0.0302859   0.0378866  -0.0015170  -0.0301129   0.0225870
    2   0.0027250   0.0066914  -0.0444992   0.0040375   0.0152506   0.0231050
    3   0.0336791  -0.0112550   0.0087443  -0.0092923  -0.0015006  -0.0033601
          211         212         213         214         215         216
    1   0.0031892  -0.1061746   0.0014983  -0.0194720   0.0124809   0.0178394
    2  -0.0282602  -0.0060578   0.0055309   0.0203887   0.0133631  -0.0019451
    3  -0.0179379   0.0278053  -0.0034151  -0.0126602   0.0203617  -0.0301778
          217         218         219         220         221         222
    1   0.0423135  -0.0091308   0.0058369  -0.0056287  -0.0193920  -0.0537619
    2  -0.0428035  -0.0010782  -0.0032269  -0.0333939   0.0276904   0.0405294
    3   0.0053683  -0.0038853  -0.0330346   0.0142233  -0.0067531   0.0887108
          223         224         225         226         227         228
    1   0.0051147  -0.0197761  -0.0156408   0.0365827  -0.0550347   0.0026934
    2  -0.0055413  -0.0352156   0.0114626   0.0231276  -0.0187626   0.0087869
    3  -0.0106211  -0.0005768  -0.0272521   0.0069661   0.0059705  -0.0020436
          229         230         231         232         233         234
    1   0.0187776   0.0204172  -0.0308434   0.0780897  -0.0029058   0.0171838
    2   0.0061708   0.0113704   0.0131750  -0.0293565   0.0055168   0.0010084
    3   0.0229613  -0.0248222   0.0055831   0.0725808  -0.0012642  -0.0278410
          235         236         237         238         239         240
    1  -0.0314583  -0.0144083  -0.0458567   0.0047712   0.0242816  -0.0108015
    2   0.0067376   0.0318279  -0.0281002  -0.0001359   0.0187643   0.0280601
    3  -0.0163689   0.0146809   0.0158752   0.0054739  -0.0135915   0.0149716
          241         242         243         244         245         246
    1   0.0041037   0.0794731  -0.0073401  -0.0126234  -0.0140612   0.0232568
    2  -0.0266261  -0.0399284  -0.0040473   0.0124969  -0.0277866  -0.0102527
    3   0.0175170  -0.0646477   0.0065605   0.0229244  -0.0115573   0.0189200
          247         248         249         250         251         252
    1   0.0466169  -0.0009488  -0.0124166   0.0316001  -0.0120961  -0.0944967
    2  -0.0209561   0.0101448   0.0034035  -0.0000522   0.0276231   0.0259531
    3  -0.0289075   0.0053038   0.0285905   0.0036792  -0.0084680  -0.0494188
          253         254         255         256         257         258
    1   0.0073601  -0.0072844   0.0265154   0.0181139  -0.0470947   0.0004748
    2  -0.0015347  -0.0252389   0.0141934  -0.0224951  -0.0257176   0.0071016
    3  -0.0005210  -0.0179339  -0.0072090   0.0198191   0.0129837  -0.0088826
          259         260         261         262         263         264
    1   0.0298203  -0.0171037  -0.0206160   0.0522253   0.0068908   0.0256175
    2   0.0151901  -0.0185281   0.0206639   0.0827796   0.0051086   0.0037960
    3  -0.0025084  -0.0220317  -0.0124782   0.0495965   0.0018468   0.0155701
          265         266         267         268         269         270
    1   0.0043993  -0.0296591  -0.0290017   0.0000208   0.0147192   0.0137402
    2   0.0320892   0.0006301   0.0141080  -0.0046245  -0.0187835  -0.0023141
    3   0.0012712   0.0087031  -0.0462544   0.0032249  -0.0145967   0.0278652
          271         272         273         274         275         276
    1  -0.0258768   0.1114150  -0.0019308  -0.0281570   0.0032900   0.0015649
    2  -0.0199214   0.0305067  -0.0076205  -0.0066633   0.0092298  -0.0364549
    3  -0.0092584   0.0068459  -0.0078359   0.0158050  -0.0315252   0.0021173
          277         278         279         280         281         282
    1  -0.0047968  -0.0040529   0.0243757  -0.0054311  -0.0275936   0.0961827
    2   0.0001572   0.0076323   0.0176394  -0.0058999   0.0186217   0.0024125
    3   0.0506781  -0.0037884   0.0010572  -0.0290589   0.0139993  -0.0555516
  --- DONE ESP SUMMARY ---
Archival summary:
1\1\n0099.mhg0\SP\ProcedureUnspecified\6-31+G*\262652h22\ymao\FriMar1208:45:172021FriMar1208:45:172021\0\\#,ProcedureUnspecified,6-31+G*,\\0,1\S\O,1,1.49716\C,1,1.80671,2,101.657\H,3,1.09242,1,108.552,2,-40.8955,0\H,3,1.09318,1,103.973,2,78.5488,0\H,3,1.09346,1,107.586,2,-160.516,0\C,1,1.80708,2,97.9738,3,-103.629,0\H,7,1.09285,1,107.467,2,-175.175,0\H,7,1.09342,1,104.249,2,-49.428,0\H,7,1.09388,1,106.288,2,66.3433,0\Gh,2,1.83767,1,108.05,3,-54.7382,0\Gh,11,1.01286,2,155.909,1,146.139,0\Gh,12,1.37951,11,113.967,2,-40.7768,0\Gh,13,1.10461,12,109.073,11,2.30989,0\Gh,13,1.21829,12,124.359,11,178.544,0\Gh,12,1.46238,11,118.372,2,165.629,0\Gh,16,1.09603,12,107.959,11,124.139,0\Gh,16,1.5373,12,110.352,11,-118.707,0\Gh,18,1.09681,16,109.76,12,-69.1468,0\Gh,18,1.09712,16,115.918,12,49.5091,0\Gh,18,1.53751,16,109.24,12,173.914,0\Gh,21,1.09668,18,110.303,16,178.021,0\Gh,21,1.09684,18,106.041,16,64.3095,0\Gh,16,1.53755,12,113.137,11,12.613,0\Gh,24,1.09643,16,109.753,12,-38.9659,0\Gh,24,1.09695,16,110.38,12,68.125,0\Gh,24,1.53777,16,115.694,12,-169.794,0\Gh,27,1.09644,24,100.466,16,-65.6272,0\Gh,27,1.0967,24,117.478,16,174.746,0\Gh,27,1.53731,24,113.433,16,45.3238,0\Gh,30,1.0972,27,118.543,24,75.3434,0\Gh,30,1.09764,27,105.549,24,-173.985,0\H,4,2.08851,3,134.435,1,-119.802,0\C,33,1.09354,4,108.977,3,-38.2735,0\H,34,1.09291,33,111.719,4,57.068,0\H,34,1.09294,33,110.686,4,-69.8878,0\S,34,1.80775,33,101.566,4,172.251,0\O,37,1.49632,34,103.297,33,6.28789,0\C,37,1.8072,34,98.5067,33,-97.2897,0\H,39,1.09247,37,112.771,34,70.6158,0\H,39,1.09336,37,109.581,34,-163.928,0\H,39,1.09354,37,104.183,34,-41.2441,0\H,23,2.15151,21,131.987,18,-147.898,0\C,43,1.09339,23,141.29,21,-170.629,0\H,44,1.09297,43,101.957,23,107.052,0\H,44,1.09313,43,118.558,23,-137.632,0\S,44,1.80684,43,112.409,23,-5.66351,0\O,47,1.49747,44,100.214,43,36.2385,0\C,47,1.8066,44,94.9521,43,-70.0029,0\H,49,1.09302,47,99.6887,44,165.961,0\H,49,1.09323,47,108.431,44,42.0051,0\H,49,1.09377,47,106.199,44,-73.3309,0\H,46,2.14061,44,116.367,43,-18.2935,0\C,53,1.09289,46,114.924,44,-132.283,0\H,54,1.09305,53,103.782,46,28.772,0\H,54,1.09327,53,118.472,46,-89.6882,0\S,54,1.80746,53,105.492,46,138.74,0\O,57,1.49656,54,107.069,53,174.949,0\C,57,1.80791,54,95.0495,53,67.097,0\H,59,1.09214,57,110.285,54,69.7036,0\H,59,1.09264,57,112.073,54,-45.1432,0\H,59,1.09285,57,107.373,54,-165.523,0\H,15,2.27147,13,139.867,12,-43.1606,0\C,63,1.09295,15,142.113,13,-150.81,0\H,64,1.09187,63,108.658,15,-154.966,0\H,64,1.09331,63,107.991,15,80.1598,0\S,64,1.80705,63,108.126,15,-35.66,0\O,67,1.49683,64,99.5743,63,-167.347,0\C,67,1.80675,64,98.3522,63,-63.157,0\H,69,1.09274,67,107,64,-98.4747,0\H,69,1.09325,67,104.072,64,149.368,0\H,69,1.09335,67,114.563,64,27.1107,0\H,50,2.29444,49,131.09,47,169.267,0\C,73,1.09344,50,118.514,49,63.0396,0\H,74,1.09301,73,109.752,50,168.193,0\H,74,1.09353,73,107.972,50,44.3247,0\S,74,1.80706,73,112.915,50,-77.523,0\O,77,1.49748,74,110.452,73,168.912,0\C,77,1.80749,74,94.0789,73,-88.288,0\H,79,1.09233,77,115.576,74,52.5049,0\H,79,1.09296,77,101.56,74,-56.0513,0\H,79,1.09335,77,117.668,74,174.782,0\O,60,2.32566,59,133.208,57,-157.241,0\S,83,1.49676,60,144.573,59,158.192,0\C,84,1.80651,83,106.948,60,118.516,0\H,85,1.09296,84,101.841,83,61.502,0\H,85,1.09299,84,114.486,83,-172.942,0\H,85,1.09347,84,112.507,83,-48.8563,0\C,84,1.80677,83,95.2782,60,20.7396,0\H,89,1.0929,84,110.895,83,-44.4255,0\H,89,1.09317,84,108.037,83,-165.543,0\H,89,1.09365,84,110.354,83,75.7922,0\H,22,2.32748,21,133.547,18,-95.9569,0\C,93,1.09344,22,155.627,21,105.206,0\H,94,1.09285,93,109.834,22,-37.7264,0\H,94,1.09295,93,117.368,22,85.8424,0\S,94,1.80645,93,110.568,22,-158.544,0\O,97,1.4975,94,105.19,93,-154.643,0\C,97,1.80739,94,102.121,93,-45.2601,0\H,99,1.0926,97,114.453,94,79.0514,0\H,99,1.09278,97,105.922,94,-47.0524,0\H,99,1.09309,97,107.828,94,-162.316,0\H,9,2.33398,7,145.131,1,-3.74399,0\C,103,1.09272,9,107.727,7,-68.7061,0\H,104,1.09328,103,111.242,9,-64.293,0\H,104,1.09348,103,104.87,9,56.5679,0\S,104,1.80764,103,116.845,9,174.836,0\O,107,1.49734,104,102.618,103,-172.421,0\C,107,1.80743,104,93.6678,103,-63.4788,0\H,109,1.09249,107,105.627,104,-170.651,0\H,109,1.09253,107,103.206,104,71.5323,0\H,109,1.09338,107,109.817,104,-48.6558,0\H,105,2.09619,104,135.706,103,142.334,0\C,113,1.09292,105,129.234,104,-128.088,0\H,114,1.09321,113,113.795,105,-4.70515,0\H,114,1.09344,113,108.952,105,-132.439,0\S,114,1.80615,113,106.481,105,109.173,0\O,117,1.49743,114,105.3,113,-42.4306,0\C,117,1.80722,114,87.4369,113,59.1098,0\H,119,1.09287,117,107.338,114,-176.116,0\H,119,1.09288,117,111.084,114,-58.4947,0\H,119,1.0934,117,111.749,114,58.1604,0\H,111,2.15109,109,108.209,107,54.8059,0\C,123,1.09308,111,163.846,109,48.6431,0\H,124,1.09186,123,111.228,111,135.095,0\H,124,1.09298,123,104.032,111,-103.505,0\S,124,1.8075,123,108.449,111,6.68962,0\O,127,1.49753,124,103.548,123,-54.4165,0\C,127,1.80636,124,95.4338,123,54.4106,0\H,129,1.09292,127,105.24,124,-141.942,0\H,129,1.09303,127,116.998,124,104.429,0\H,129,1.09318,127,107.21,124,-21.3027,0\H,14,2.34711,13,112.702,12,172.048,0\C,133,1.09333,14,153.594,13,47.7851,0\H,134,1.09236,133,112.173,14,-16.9,0\H,134,1.09314,133,108.704,14,110.822,0\S,134,1.80681,133,105.493,14,-135.658,0\O,137,1.49713,134,100.237,133,-42.2921,0\C,137,1.80627,134,92.5517,133,65.0588,0\H,139,1.09282,137,108.59,134,-176.462,0\H,139,1.09337,137,110.871,134,53.4579,0\H,139,1.09354,137,103.825,134,-60.8835,0\H,142,2.28654,139,126.907,137,-90.1417,0\C,143,1.09326,142,155.392,139,129.866,0\H,144,1.09246,143,115.116,142,-110.688,0\H,144,1.0927,143,107.472,142,8.40544,0\S,144,1.80714,143,109.922,142,123.952,0\O,147,1.49752,144,105.207,143,-161.377,0\C,147,1.80702,144,93.285,143,-52.0868,0\H,149,1.09225,147,108.453,144,171.157,0\H,149,1.09292,147,109.781,144,55.0333,0\H,149,1.09348,147,115.502,144,-67.6697,0\H,145,2.18561,144,115.314,143,75.1536,0\C,153,1.0926,145,112.528,144,106.373,0\H,154,1.09241,153,110.265,145,101.865,0\H,154,1.09338,153,104.193,145,-14.5986,0\S,154,1.80718,153,109.431,145,-133.401,0\O,157,1.4975,154,102.869,153,165.709,0\C,157,1.80713,154,103.764,153,56.3444,0\H,159,1.09244,157,109.611,154,55.2587,0\H,159,1.09309,157,99.2118,154,168.194,0\H,159,1.09331,157,117.057,154,-68.1517,0\H,31,2.38535,30,123.693,27,100.792,0\C,163,1.0935,31,141.457,30,11.2079,0\H,164,1.0929,163,109.925,31,-97.8006,0\H,164,1.09324,163,114.452,31,131.944,0\S,164,1.80655,163,111.818,31,15.6242,0\O,167,1.49673,164,106.242,163,154.768,0\C,167,1.80737,164,92.7523,163,52.7689,0\H,169,1.09283,167,106.901,164,93.0858,0\H,169,1.09302,167,108.434,164,-150.123,0\H,169,1.09332,167,113.586,164,-31.8106,0\O,28,2.38757,27,113.427,24,-73.9359,0\S,173,1.49732,28,158.154,27,125.9,0\C,174,1.80646,173,107.668,28,-121.775,0\H,175,1.09249,174,113.393,173,-166.53,0\H,175,1.09294,174,114.596,173,-44.402,0\H,175,1.09316,174,105.974,173,72.4448,0\C,174,1.80722,173,102.971,28,131.87,0\H,179,1.0924,174,108.079,173,-79.1264,0\H,179,1.0927,174,108.026,173,36.133,0\H,179,1.09302,174,106.337,173,162.219,0\H,25,2.40255,24,138.18,16,-179.224,0\C,183,1.09327,25,178.386,24,-16.9944,0\H,184,1.09336,183,112.267,25,142.898,0\H,184,1.09353,183,115.814,25,-91.3965,0\S,184,1.80688,183,110.087,25,30.7528,0\O,187,1.49654,184,102.924,183,175.751,0\C,187,1.80688,184,98.073,183,68.1206,0\H,189,1.09265,187,112.057,184,51.1039,0\H,189,1.09319,187,110.608,184,-75.5427,0\H,189,1.09327,187,101.213,184,164.668,0\H,186,2.26429,184,133.658,183,75.4643,0\C,193,1.09365,186,110.22,184,58.5689,0\H,194,1.09269,193,113.034,186,31.7613,0\H,194,1.09275,193,113.937,186,-85.7771,0\S,194,1.80669,193,108.847,186,161.034,0\O,197,1.49754,194,105.414,193,-46.7871,0\C,197,1.80598,194,95.9716,193,57.7593,0\H,199,1.0929,197,106.179,194,87.6019,0\H,199,1.09315,197,108.461,194,-34.7021,0\H,199,1.09315,197,109.776,194,-156.6,0\H,136,2.51578,134,136.003,133,-91.5155,0\C,203,1.09327,136,99.738,134,-143.706,0\H,204,1.09275,203,101.025,136,172.188,0\H,204,1.09293,203,112.212,136,-76.2246,0\S,204,1.80744,203,110.896,136,50.2622,0\O,207,1.49677,204,112.612,203,156.961,0\C,207,1.80676,204,99.2279,203,48.7166,0\H,209,1.09295,207,107.702,204,159.332,0\H,209,1.09299,207,109.06,204,-78.9469,0\H,209,1.09331,207,108.479,204,39.3878,0\H,210,2.38673,209,107.087,207,66.9464,0\C,213,1.09312,210,143.777,209,109.323,0\H,214,1.09335,213,112.521,210,109.825,0\H,214,1.09341,213,105.89,210,-127.553,0\S,214,1.8063,213,107.323,210,-15.9285,0\O,217,1.49766,214,107,213,-39.9415,0\C,217,1.80679,214,95.9272,213,71.5977,0\H,219,1.09252,217,107.669,214,-58.7224,0\H,219,1.09306,217,111.018,214,57.541,0\H,219,1.09385,217,107.248,214,173.242,0\H,166,2.52268,164,110.194,163,-2.50391,0\C,223,1.09305,166,163.948,164,-52.2574,0\H,224,1.0934,223,111.501,166,-35.1475,0\H,224,1.09352,223,113.744,166,-156.608,0\S,224,1.80685,223,106.449,166,87.7694,0\O,227,1.49666,224,101.191,223,-65.5052,0\C,227,1.80646,224,95.2497,223,41.5807,0\H,229,1.09311,227,104.646,224,-64.1939,0\H,229,1.09318,227,106.671,224,59.0944,0\H,229,1.09371,227,117.621,224,-177.209,0\H,225,2.24371,224,121.766,223,86.3075,0\C,233,1.09365,225,98.2849,224,152.888,0\H,234,1.09248,233,116.229,225,142.157,0\H,234,1.09268,233,122.203,225,14.9132,0\S,234,1.807,233,101.191,225,-108.154,0\O,237,1.49737,234,104.273,233,113.345,0\C,237,1.80642,234,98.5382,233,-142.863,0\H,239,1.09303,237,106.527,234,-73.2293,0\H,239,1.09308,237,111.446,234,59.0115,0\H,239,1.09393,237,111.358,234,171.139,0\O,242,2.43764,239,140.774,237,-128.896,0\S,243,1.49765,242,114.62,239,-132.642,0\C,244,1.80634,243,107.389,242,31.9236,0\H,245,1.09299,244,107.624,243,-167.53,0\H,245,1.09313,244,108.71,243,73.1053,0\H,245,1.09327,244,110.55,243,-47.5675,0\C,244,1.80673,243,97.8729,242,-60.9136,0\H,249,1.09287,244,111.568,243,40.3625,0\H,249,1.09334,244,117.479,243,171.923,0\H,249,1.0936,244,107.02,243,-76.7185,0\H,96,2.63059,94,147.524,93,110.689,0\C,253,1.09289,96,129.455,94,-110.399,0\H,254,1.09315,253,107.571,96,-156.562,0\H,254,1.09315,253,108.046,96,84.4667,0\S,254,1.80669,253,107.198,96,-26.5857,0\O,257,1.49648,254,103.103,253,67.3477,0\C,257,1.80707,254,94.4992,253,175.924,0\H,259,1.09234,257,111.009,254,-87.9519,0\H,259,1.09301,257,113.799,254,152.38,0\H,259,1.09312,257,110.617,254,33.8493,0\O,45,2.81344,44,144.4,43,134.017,0\S,263,1.49696,45,132.616,44,-51.6796,0\C,264,1.80695,263,105.613,45,170.183,0\H,265,1.09257,264,111.661,263,-138.846,0\H,265,1.09278,264,106.919,263,107.335,0\H,265,1.09353,264,111.122,263,-14.3279,0\C,264,1.80718,263,103.367,45,-85.4621,0\H,269,1.09243,264,112.701,263,-164.695,0\H,269,1.0928,264,119.796,263,-32.1037,0\H,269,1.09312,264,111.865,263,74.5314,0\O,192,2.84928,189,172.391,187,23.9313,0\S,273,1.49686,192,108.272,189,86.109,0\C,274,1.80634,273,102.7,192,123.413,0\H,275,1.09244,274,110.817,273,-70.5084,0\H,275,1.09327,274,108.014,273,171.064,0\H,275,1.09364,274,110.805,273,48.5738,0\C,274,1.80716,273,99.4717,192,-138.176,0\H,279,1.09241,274,109.598,273,-166.975,0\H,279,1.09314,274,111.402,273,-42.0641,0\H,279,1.09348,274,107.337,273,75.0422,0\\\@

 Total job time:  62.22s(wall), 219.49s(cpu) 
 Fri Mar 12 08:45:17 2021

        *************************************************************
        *                                                           *
        *  Thank you very much for using Q-Chem.  Have a nice day.  *
        *                                                           *
        *************************************************************


