                  Welcome to Q-Chem
     A Quantum Leap Into The Future Of Chemistry


 Q-Chem 5.2 (devel), Q-Chem, Inc., Pleasanton, CA (2019)

 Yihan Shao,  Zhengting Gan,  E. Epifanovsky,  A. T. B. Gilbert,  M. Wormit,  
 J. Kussmann,  A. W. Lange,  A. Behn,  Jia Deng,  Xintian Feng,  D. Ghosh,  
 M. Goldey,  P. R. Horn,  L. D. Jacobson,  I. Kaliman,  T. Kus,  A. Landau,  
 Jie Liu,  E. I. Proynov,  R. M. Richard,  R. P. Steele,  E. J. Sundstrom,  
 H. L. Woodcock III,  P. M. Zimmerman,  D. Zuev,  B. Alam,  B. Albrecht,  
 E. Alguire,  S. A. Baeppler,  D. Barton,  Z. Benda,  Y. A. Bernard,  
 E. J. Berquist,  K. B. Bravaya,  H. Burton,  K. Carter-Fenk,  D. Casanova,  
 Chun-Min Chang,  Yunqing Chen,  A. Chien,  K. D. Closser,  M. P. Coons,  
 S. Coriani,  S. Dasgupta,  A. L. Dempwolff,  M. Diedenhofen,  Hainam Do,  
 R. G. Edgar,  Po-Tung Fang,  S. Faraji,  S. Fatehi,  Qingguo Feng,  
 J. Fosso-Tande,  J. Gayvert,  Qinghui Ge,  A. Ghysels,  G. Gidofalvi,  
 J. Gomes,  J. Gonthier,  A. Gunina,  D. Hait,  M. W. D. Hanson-Heine,  
 P. H. P. Harbach,  A. W. Hauser,  M. F. Herbst,  J. E. Herr,  
 E. G. Hohenstein,  Z. C. Holden,  Kerwin Hui,  B. C. Huynh,  T.-C. Jagau,  
 Hyunjun Ji,  B. Kaduk,  K. Khistyaev,  Jaehoon Kim,  P. Klunzinger,  K. Koh,  
 D. Kosenkov,  L. Koulias,  T. Kowalczyk,  C. M. Krauter,  A. Kunitsa,  
 Ka Un Lao,  A. Laurent,  K. V. Lawler,  Joonho Lee,  D. Lefrancois,  
 S. Lehtola,  D. S. Levine,  Yi-Pei Li,  You-Sheng Lin,  Fenglai Liu,  
 Kuan-Yu Liu,  E. Livshits,  M. Loipersberger,  A. Luenser,  P. Manohar,  
 E. Mansoor,  S. F. Manzer,  Shan-Ping Mao,  Yuezhi Mao,  N. Mardirossian,  
 A. V. Marenich,  T. Markovich,  L. A. Martinez-Martinez,  S. A. Maurer,  
 N. J. Mayhall,  S. C. McKenzie,  J.-M. Mewes,  P. Morgante,  A. F. Morrison,  
 J. W. Mullinax,  K. Nanda,  T. S. Nguyen-Beck,  R. Olivares-Amaya,  
 J. A. Parkhill,  S. K. Paul,  F. Pavosevic,  Zheng Pei,  T. M. Perrine,  
 F. Plasser,  P. Pokhilko,  S. Prager,  A. Prociuk,  E. Ramos,  B. Rana,  
 D. R. Rehn,  F. Rob,  M. Scheurer,  M. Schneider,  N. Sergueev,  
 S. M. Sharada,  S. Sharma,  D. W. Small,  T. Stauch,  C. J. Stein,  
 T. Stein,  Yu-Chuan Su,  S. P. Veccham,  Zhen Tao,  A. J. W. Thom,  
 A. Tkatchenko,  T. Tsuchimochi,  N. M. Tubman,  L. Vogt,  M. L. Vidal,  
 O. Vydrov,  M. A. Watson,  J. Wenzel,  M. de Wergifosse,  T. A. Wesolowski,  
 A. White,  J. Witte,  A. Yamada,  Jun Yang,  K. Yao,  S. Yeganeh,  
 S. R. Yost,  Zhi-Qiang You,  A. Zech,  Igor Ying Zhang,  Xing Zhang,  
 Yan Zhao,  Ying Zhu,  B. R. Brooks,  G. K. L. Chan,  C. J. Cramer,  
 M. S. Gordon,  W. J. Hehre,  A. Klamt,  M. W. Schmidt,  C. D. Sherrill,  
 D. G. Truhlar,  A. Aspuru-Guzik,  R. Baer,  A. T. Bell,  N. A. Besley,  
 Jeng-Da Chai,  A. E. DePrince, III,  R. A. DiStasio Jr.,  A. Dreuw,  
 B. D. Dunietz,  T. R. Furlani,  Chao-Ping Hsu,  Yousung Jung,  Jing Kong,  
 D. S. Lambrecht,  WanZhen Liang,  C. Ochsenfeld,  V. A. Rassolov,  
 L. V. Slipchenko,  J. E. Subotnik,  T. Van Voorhis,  J. M. Herbert,  
 A. I. Krylov,  P. M. W. Gill,  M. Head-Gordon

 Contributors to earlier versions of Q-Chem not listed above: 
 R. D. Adamson,  B. Austin,  J. Baker,  G. J. O. Beran,  K. Brandhorst,  
 S. T. Brown,  E. F. C. Byrd,  A. K. Chakraborty,  C.-L. Cheng,  
 Siu Hung Chien,  D. M. Chipman,  D. L. Crittenden,  H. Dachsel,  
 R. J. Doerksen,  A. D. Dutoi,  L. Fusti-Molnar,  W. A. Goddard III,  
 A. Golubeva-Zadorozhnaya,  S. R. Gwaltney,  G. Hawkins,  A. Heyden,  
 S. Hirata,  G. Kedziora,  F. J. Keil,  C. Kelley,  Jihan Kim,  R. A. King,  
 R. Z. Khaliullin,  P. P. Korambath,  W. Kurlancheek,  A. M. Lee,  M. S. Lee,  
 S. V. Levchenko,  Ching Yeh Lin,  D. Liotard,  R. C. Lochan,  I. Lotan,  
 P. E. Maslen,  N. Nair,  D. P. O'Neill,  D. Neuhauser,  E. Neuscamman,  
 C. M. Oana,  R. Olson,  B. Peters,  R. Peverati,  P. A. Pieniazek,  
 Y. M. Rhee,  J. Ritchie,  M. A. Rohrdanz,  E. Rosta,  N. J. Russ,  
 H. F. Schaefer III,  N. E. Schultz,  N. Shenvi,  A. C. Simmonett,  A. Sodt,  
 D. Stuck,  K. S. Thanthiriwatte,  V. Vanovschi,  Tao Wang,  A. Warshel,  
 C. F. Williams,  Q. Wu,  X. Xu,  W. Zhang

 Please cite Q-Chem as follows:
 Y. Shao et al., Mol. Phys. 113, 184-215 (2015)
 DOI: 10.1080/00268976.2014.952696

 Q-Chem 5.2.2 for Intel X86 EM64T Linux

 Parts of Q-Chem use Armadillo 9.800.1 (Horizon Scraper).
 http://arma.sourceforge.net/

 Q-Chem begins on Thu Mar 11 13:37:48 2021  

Host: n0099.mhg0
0

     Scratch files written to /local/scratch/users/ymao/r7.00_frame_0033_almo_B3LYP_dp.in20210311133744//

Checking the input file for inconsistencies... 	...done.

--------------------------------------------------------------
User input:
--------------------------------------------------------------
$molecule
0 1
--
0 1
C    21.95500   15.40300   29.13700  
C    22.53000   14.45300   28.07300  
C    23.35500   15.06000   26.92700  
C    24.38100   16.05600   27.49200  
C    23.74600   17.07800   28.45000  
C    22.95000   16.47200   29.61700  
H    23.77600   14.25600   26.31100  
H    23.24000   13.80800   28.60500  
H    21.06900   15.99000   28.86500  
H    21.63500   14.87100   30.04100  
H    25.08800   15.47500   28.09700  
H    25.00100   16.50500   26.70800  
H    24.54800   17.67800   28.89700  
H    23.19100   17.74000   27.77400  
H    23.70700   16.00300   30.25700  
H    22.41500   17.19900   30.24000  
H    22.65200   15.64700   26.32300  
N    21.50900   13.49600   27.65000  
H    21.07000   13.57700   26.74100  
C    21.15900   12.36000   28.34900  
H    20.72000   11.52800   27.76800  
O    21.21000   12.37000   29.56600  
--
0 1
C    23.18300   20.46600   23.07600  
H    22.50700   20.49800   22.21800  
H    23.79300   21.37300   23.10200  
H    23.74500   19.52800   23.08000  
S    22.02600   20.44000   24.46400  
C    21.44400   22.14500   24.32800  
H    21.98600   22.72700   23.57800  
H    20.36100   22.13800   24.18000  
H    21.63300   22.55800   25.32200  
O    22.99200   20.41600   25.60700  
C    20.53900   22.49500   28.45200  
H    20.91600   22.34500   27.43700  
H    19.59200   22.00700   28.69700  
H    20.41300   23.57900   28.50400  
S    21.81500   22.05400   29.65400  
C    22.08100   20.37800   29.03400  
H    21.06900   19.96900   29.09600  
H    22.43400   20.21900   28.01200  
H    22.72600   19.80600   29.70600  
O    21.20700   21.80100   30.99800  
C    25.77900   22.05500   31.53000  
H    26.30600   22.19600   30.58300  
H    25.61600   21.00400   31.78100  
H    24.79100   22.50500   31.40400  
S    26.52400   22.85300   32.97000  
C    28.04100   21.87200   33.02400  
H    27.94900   20.78700   32.92700  
H    28.59600   22.16500   32.13000  
H    28.49600   22.16000   33.97600  
O    25.68500   22.41600   34.13000  
C    30.04800   12.79500   25.44900  
H    29.09300   13.32100   25.52700  
H    30.37200   12.85800   24.40700  
H    29.89400   11.75300   25.74200  
S    31.32700   13.60600   26.43400  
C    32.57800   12.30300   26.42000  
H    32.04200   11.37300   26.62700  
H    32.97300   12.39100   25.40400  
H    33.25200   12.56000   27.24100  
O    30.63700   13.59900   27.76300  
C    23.97300   21.01900   36.51000  
H    24.71800   21.78800   36.29200  
H    23.54000   21.27400   37.48100  
H    24.36000   19.99800   36.54300  
S    22.56000   21.05900   35.38400  
C    21.71700   22.39600   36.25900  
H    21.40400   21.99800   37.22800  
H    22.36900   23.26800   36.17200  
H    20.83400   22.64500   35.66500  
O    21.65900   19.97900   35.89700  
C    15.89500   14.09000   24.94200  
H    16.79700   13.59600   25.31300  
H    16.03300   15.12100   24.60900  
H    15.11300   14.05400   25.70500  
S    15.20900   13.31300   23.46200  
C    15.15300   11.78500   24.42600  
H    16.12300   11.57400   24.88400  
H    14.38200   11.86600   25.19600  
H    14.82200   10.99800   23.74400  
O    16.36800   13.14000   22.53200  
C    20.17100   17.20000   26.31500  
H    20.51300   16.28500   25.82500  
H    20.97000   17.93800   26.42600  
H    19.73000   17.00200   27.29500  
S    18.96000   17.93300   25.19200  
C    18.78200   19.45200   26.15500  
H    18.32400   19.14200   27.09700  
H    19.78400   19.85700   26.31600  
H    18.15900   20.09400   25.52700  
O    17.73200   17.12800   25.48100  
C    23.35000   9.67400    29.06600  
H    22.32800   9.69000    29.45400  
H    24.04800   9.74200    29.90500  
H    23.68900   10.50100   28.43600  
S    23.84600   8.11700    28.29600  
C    22.51700   8.03600    27.07500  
H    22.52100   7.20100    26.37000  
H    21.67400   7.95800    27.76700  
H    22.56300   9.00500    26.57100  
O    23.56900   7.11100    29.36900  
C    28.04000   18.48500   30.88000  
H    28.95000   18.52600   31.48400  
H    27.82900   19.53100   30.64200  
H    27.33100   17.94200   31.51000  
S    28.49600   17.56800   29.39100  
C    29.98000   18.52400   29.00900  
H    30.33300   18.43600   27.97800  
H    29.80700   19.59700   29.12900  
H    30.75700   18.23800   29.72300  
O    27.47800   18.19200   28.48800  
C    16.39200   13.50300   30.18900  
H    17.09500   14.19100   30.66500  
H    15.60700   14.09300   29.71000  
H    15.95300   12.76400   30.86400  
S    17.31200   12.56700   28.94700  
C    17.78000   14.10000   28.11200  
H    16.87000   14.49300   27.65000  
H    18.21500   14.73600   28.88800  
H    18.44100   13.90000   27.26500  
O    16.22000   12.06700   28.05300  
C    18.02300   6.20900    26.63000  
H    18.13800   7.27500    26.41600  
H    17.49000   5.80500    25.76500  
H    17.49800   6.13000    27.58600  
S    19.59600   5.36800    26.91500  
C    20.30500   5.76600    25.30100  
H    20.41500   6.84000    25.13200  
H    21.26400   5.24900    25.21700  
H    19.62500   5.39200    24.53100  
O    19.35200   3.89400    27.02100  
C    23.85400   12.97300   31.59900  
H    24.85100   13.37200   31.80200  
H    23.83400   12.37600   30.68400  
H    23.06500   13.71800   31.46300  
S    23.39300   12.06400   33.09200  
C    21.99000   11.18300   32.37200  
H    22.28500   10.38900   31.68100  
H    21.42800   10.63800   33.13400  
H    21.32300   11.94100   31.95200  
O    22.67100   13.09900   33.89700  
C    29.00300   12.84700   32.40900  
H    28.81700   13.29900   33.38700  
H    28.10300   12.61500   31.83500  
H    29.57700   11.92900   32.55800  
S    30.09300   13.87600   31.39900  
C    31.64300   13.29800   32.12600  
H    31.76900   12.27200   31.76900  
H    32.41700   14.05800   31.99300  
H    31.34200   13.34600   33.17600  
O    29.91300   15.26600   31.92500  
C    22.94100   18.09300   33.35100  
H    21.91600   18.39500   33.58200  
H    23.66600   18.52800   34.04400  
H    23.11400   18.34500   32.30200  
S    22.97900   16.30100   33.57300  
C    21.91200   16.26200   35.03100  
H    20.86800   16.46300   34.77900  
H    21.83700   15.25700   35.45600  
H    22.33900   16.96700   35.74800  
O    24.40300   16.09000   33.98300  
C    17.24900   13.94100   34.53200  
H    16.80500   14.66200   33.84000  
H    16.63300   13.04200   34.62000  
H    17.44300   14.27200   35.55500  
S    18.86600   13.47400   33.87500  
C    19.28600   15.13900   33.31100  
H    18.64600   15.31000   32.44100  
H    19.14000   15.76700   34.19300  
H    20.32800   15.05400   32.99200  
O    18.59500   12.80200   32.56500  
C    29.08500   17.08900   25.78500  
H    29.13500   17.24300   26.86500  
H    28.04400   16.89900   25.51300  
H    29.79900   16.32700   25.45900  
S    29.66900   18.61100   25.00600  
C    28.44100   19.71200   25.74400  
H    27.42600   19.37800   25.51500  
H    28.66600   19.80300   26.81000  
H    28.63400   20.70100   25.32000  
O    29.30300   18.56500   23.55500  
C    27.65700   16.08000   22.36700  
H    27.05400   16.73600   21.73300  
H    28.02700   16.70600   23.18300  
H    28.52800   15.65400   21.86200  
S    26.71500   14.88400   23.34000  
C    25.36500   16.05200   23.61900  
H    24.59500   15.45600   24.11500  
H    25.74500   16.90400   24.18800  
H    24.97600   16.32800   22.63500  
O    27.37800   14.66200   24.66300  
C    18.89300   10.49800   25.46700  
H    18.00900   11.13500   25.38000  
H    18.88900   10.06200   26.46900  
H    19.74000   11.16400   25.28300  
S    18.72500   9.29000    24.13400  
C    18.13600   10.41500   22.84900  
H    19.05300   10.72300   22.34000  
H    17.59800   9.72200    22.19800  
H    17.60000   11.27200   23.26600  
O    17.43500   8.64300    24.53200  
C    19.19500   9.74300    30.92500  
H    19.25300   9.52200    31.99400  
H    20.12700   10.28900   30.75500  
H    18.39800   10.47500   30.77100  
S    18.91500   8.24000    29.96300  
C    20.23600   7.26100    30.71100  
H    21.06500   7.94700    30.90200  
H    19.99100   6.74500    31.64300  
H    20.41300   6.61900    29.84400  
O    19.39300   8.70200    28.62100  
C    23.00000   8.29100    23.20100  
H    23.00000   8.22300    22.11000  
H    23.97300   8.05300    23.64000  
H    22.21900   7.75400    23.74400  
S    22.63900   10.00600   23.63700  
C    23.54300   10.84200   22.31500  
H    22.90600   10.79000   21.42800  
H    23.65500   11.89500   22.58500  
H    24.49800   10.31100   22.30900  
O    23.50200   10.38500   24.80000  
C    14.27300   9.88000    28.98900  
H    14.69200   10.74800   29.50500  
H    13.55900   10.07700   28.18500  
H    13.61400   9.38000    29.70300  
S    15.46200   8.57800    28.59300  
C    15.88900   9.32900    27.00500  
H    15.16500   10.13000   26.83600  
H    16.91000   9.69700    27.13100  
H    15.84100   8.62700    26.16900  
O    14.60100   7.41800    28.20200  
C    15.18400   17.05100   31.31500  
H    14.33900   16.67800   30.73000  
H    15.88700   16.21500   31.34300  
H    14.82300   17.34000   32.30600  
S    15.92100   18.46500   30.46500  
C    16.19600   17.49200   28.96700  
H    17.17800   17.03100   29.10500  
H    15.36000   16.82900   28.73400  
H    16.20100   18.22300   28.15400  
O    17.34700   18.61600   30.89400  
C    22.98500   15.75800   20.24800  
H    22.90100   16.82500   20.02700  
H    22.28900   15.15600   19.65800  
H    22.82000   15.60000   21.31700  
S    24.66800   15.16300   19.96400  
C    24.67300   15.32700   18.16400  
H    24.69300   16.37600   17.85700  
H    25.52100   14.71200   17.85300  
H    23.77100   14.82800   17.80100  
O    24.67800   13.70000   20.28200  
C    24.60300   23.16500   26.15600  
H    24.77100   22.55500   25.26500  
H    23.64900   22.84700   26.58300  
H    24.63500   24.23500   25.93300  
S    25.94600   22.72000   27.28000  
C    25.31800   21.16200   27.94700  
H    24.30800   21.30600   28.34000  
H    25.31100   20.38600   27.17600  
H    26.00600   20.83600   28.73000  
O    25.66300   23.72000   28.35800  
C    26.75700   12.81800   27.36100  
H    27.82900   12.70400   27.54100  
H    26.33400   11.93200   26.88200  
H    26.47300   13.69700   26.77700  
S    25.89100   12.96900   28.94000  
C    26.89500   14.28700   29.66000  
H    26.47300   14.33100   30.66800  
H    27.94700   13.99200   29.70300  
H    26.77100   15.17400   29.03300  
O    26.18600   11.77200   29.79000  
C    28.64200   8.75200    26.01100  
H    28.40600   8.58800    27.06500  
H    28.53300   7.86700    25.37900  
H    29.69800   8.98100    25.84900  
S    27.62100   10.06200   25.29800  
C    26.33200   8.82400    25.03400  
H    26.66400   8.01100    24.38300  
H    26.04800   8.51000    26.04200  
H    25.51500   9.35100    24.53600  
O    28.19300   10.35700   23.94600  
C    21.72900   14.31300   23.61300  
H    22.45900   13.87400   24.29900  
H    22.10900   14.13700   22.60400  
H    21.58200   15.39300   23.69900  
S    20.10000   13.57500   23.86800  
C    19.11300   14.97000   23.28100  
H    19.01200   14.85400   22.19900  
H    18.18100   14.80200   23.82700  
H    19.52500   15.93400   23.58800  
O    19.91100   13.60500   25.35300  
$end

$rem
JOBTYPE  SP
METHOD  B3LYP
BASIS  6-31+G(D)
SYMMETRY  FALSE
SYM_IGNORE  TRUE
MEM_TOTAL  16000
MEM_STATIC  8000
MAX_SUB_FILE_NUM  16000
BASIS_LIN_DEP_THRESH  6
THRESH  14
SCF_CONVERGENCE  8
GEN_SCFMAN  TRUE
SCF_GUESS  FRAGMO
FD_MAT_VEC_PROD  FALSE
XC_GRID  000075000302
NL_GRID  1
MAX_SCF_CYCLES  200
FRGM_METHOD  STOLL
SCFMI_MODE  1
$end

$development
almo_efield  1
$end

$rem_frgm
SCF_CONVERGENCE  4
$end

--------------------------------------------------------------
 ----------------------------------------------------------------
             Standard Nuclear Orientation (Angstroms)
    I     Atom           X                Y                Z
 ----------------------------------------------------------------
    1      C      21.9550000000    15.4030000000    29.1370000000
    2      C      22.5300000000    14.4530000000    28.0730000000
    3      C      23.3550000000    15.0600000000    26.9270000000
    4      C      24.3810000000    16.0560000000    27.4920000000
    5      C      23.7460000000    17.0780000000    28.4500000000
    6      C      22.9500000000    16.4720000000    29.6170000000
    7      H      23.7760000000    14.2560000000    26.3110000000
    8      H      23.2400000000    13.8080000000    28.6050000000
    9      H      21.0690000000    15.9900000000    28.8650000000
   10      H      21.6350000000    14.8710000000    30.0410000000
   11      H      25.0880000000    15.4750000000    28.0970000000
   12      H      25.0010000000    16.5050000000    26.7080000000
   13      H      24.5480000000    17.6780000000    28.8970000000
   14      H      23.1910000000    17.7400000000    27.7740000000
   15      H      23.7070000000    16.0030000000    30.2570000000
   16      H      22.4150000000    17.1990000000    30.2400000000
   17      H      22.6520000000    15.6470000000    26.3230000000
   18      N      21.5090000000    13.4960000000    27.6500000000
   19      H      21.0700000000    13.5770000000    26.7410000000
   20      C      21.1590000000    12.3600000000    28.3490000000
   21      H      20.7200000000    11.5280000000    27.7680000000
   22      O      21.2100000000    12.3700000000    29.5660000000
   23      C      23.1830000000    20.4660000000    23.0760000000
   24      H      22.5070000000    20.4980000000    22.2180000000
   25      H      23.7930000000    21.3730000000    23.1020000000
   26      H      23.7450000000    19.5280000000    23.0800000000
   27      S      22.0260000000    20.4400000000    24.4640000000
   28      C      21.4440000000    22.1450000000    24.3280000000
   29      H      21.9860000000    22.7270000000    23.5780000000
   30      H      20.3610000000    22.1380000000    24.1800000000
   31      H      21.6330000000    22.5580000000    25.3220000000
   32      O      22.9920000000    20.4160000000    25.6070000000
   33      C      20.5390000000    22.4950000000    28.4520000000
   34      H      20.9160000000    22.3450000000    27.4370000000
   35      H      19.5920000000    22.0070000000    28.6970000000
   36      H      20.4130000000    23.5790000000    28.5040000000
   37      S      21.8150000000    22.0540000000    29.6540000000
   38      C      22.0810000000    20.3780000000    29.0340000000
   39      H      21.0690000000    19.9690000000    29.0960000000
   40      H      22.4340000000    20.2190000000    28.0120000000
   41      H      22.7260000000    19.8060000000    29.7060000000
   42      O      21.2070000000    21.8010000000    30.9980000000
   43      C      25.7790000000    22.0550000000    31.5300000000
   44      H      26.3060000000    22.1960000000    30.5830000000
   45      H      25.6160000000    21.0040000000    31.7810000000
   46      H      24.7910000000    22.5050000000    31.4040000000
   47      S      26.5240000000    22.8530000000    32.9700000000
   48      C      28.0410000000    21.8720000000    33.0240000000
   49      H      27.9490000000    20.7870000000    32.9270000000
   50      H      28.5960000000    22.1650000000    32.1300000000
   51      H      28.4960000000    22.1600000000    33.9760000000
   52      O      25.6850000000    22.4160000000    34.1300000000
   53      C      30.0480000000    12.7950000000    25.4490000000
   54      H      29.0930000000    13.3210000000    25.5270000000
   55      H      30.3720000000    12.8580000000    24.4070000000
   56      H      29.8940000000    11.7530000000    25.7420000000
   57      S      31.3270000000    13.6060000000    26.4340000000
   58      C      32.5780000000    12.3030000000    26.4200000000
   59      H      32.0420000000    11.3730000000    26.6270000000
   60      H      32.9730000000    12.3910000000    25.4040000000
   61      H      33.2520000000    12.5600000000    27.2410000000
   62      O      30.6370000000    13.5990000000    27.7630000000
   63      C      23.9730000000    21.0190000000    36.5100000000
   64      H      24.7180000000    21.7880000000    36.2920000000
   65      H      23.5400000000    21.2740000000    37.4810000000
   66      H      24.3600000000    19.9980000000    36.5430000000
   67      S      22.5600000000    21.0590000000    35.3840000000
   68      C      21.7170000000    22.3960000000    36.2590000000
   69      H      21.4040000000    21.9980000000    37.2280000000
   70      H      22.3690000000    23.2680000000    36.1720000000
   71      H      20.8340000000    22.6450000000    35.6650000000
   72      O      21.6590000000    19.9790000000    35.8970000000
   73      C      15.8950000000    14.0900000000    24.9420000000
   74      H      16.7970000000    13.5960000000    25.3130000000
   75      H      16.0330000000    15.1210000000    24.6090000000
   76      H      15.1130000000    14.0540000000    25.7050000000
   77      S      15.2090000000    13.3130000000    23.4620000000
   78      C      15.1530000000    11.7850000000    24.4260000000
   79      H      16.1230000000    11.5740000000    24.8840000000
   80      H      14.3820000000    11.8660000000    25.1960000000
   81      H      14.8220000000    10.9980000000    23.7440000000
   82      O      16.3680000000    13.1400000000    22.5320000000
   83      C      20.1710000000    17.2000000000    26.3150000000
   84      H      20.5130000000    16.2850000000    25.8250000000
   85      H      20.9700000000    17.9380000000    26.4260000000
   86      H      19.7300000000    17.0020000000    27.2950000000
   87      S      18.9600000000    17.9330000000    25.1920000000
   88      C      18.7820000000    19.4520000000    26.1550000000
   89      H      18.3240000000    19.1420000000    27.0970000000
   90      H      19.7840000000    19.8570000000    26.3160000000
   91      H      18.1590000000    20.0940000000    25.5270000000
   92      O      17.7320000000    17.1280000000    25.4810000000
   93      C      23.3500000000     9.6740000000    29.0660000000
   94      H      22.3280000000     9.6900000000    29.4540000000
   95      H      24.0480000000     9.7420000000    29.9050000000
   96      H      23.6890000000    10.5010000000    28.4360000000
   97      S      23.8460000000     8.1170000000    28.2960000000
   98      C      22.5170000000     8.0360000000    27.0750000000
   99      H      22.5210000000     7.2010000000    26.3700000000
  100      H      21.6740000000     7.9580000000    27.7670000000
  101      H      22.5630000000     9.0050000000    26.5710000000
  102      O      23.5690000000     7.1110000000    29.3690000000
  103      C      28.0400000000    18.4850000000    30.8800000000
  104      H      28.9500000000    18.5260000000    31.4840000000
  105      H      27.8290000000    19.5310000000    30.6420000000
  106      H      27.3310000000    17.9420000000    31.5100000000
  107      S      28.4960000000    17.5680000000    29.3910000000
  108      C      29.9800000000    18.5240000000    29.0090000000
  109      H      30.3330000000    18.4360000000    27.9780000000
  110      H      29.8070000000    19.5970000000    29.1290000000
  111      H      30.7570000000    18.2380000000    29.7230000000
  112      O      27.4780000000    18.1920000000    28.4880000000
  113      C      16.3920000000    13.5030000000    30.1890000000
  114      H      17.0950000000    14.1910000000    30.6650000000
  115      H      15.6070000000    14.0930000000    29.7100000000
  116      H      15.9530000000    12.7640000000    30.8640000000
  117      S      17.3120000000    12.5670000000    28.9470000000
  118      C      17.7800000000    14.1000000000    28.1120000000
  119      H      16.8700000000    14.4930000000    27.6500000000
  120      H      18.2150000000    14.7360000000    28.8880000000
  121      H      18.4410000000    13.9000000000    27.2650000000
  122      O      16.2200000000    12.0670000000    28.0530000000
  123      C      18.0230000000     6.2090000000    26.6300000000
  124      H      18.1380000000     7.2750000000    26.4160000000
  125      H      17.4900000000     5.8050000000    25.7650000000
  126      H      17.4980000000     6.1300000000    27.5860000000
  127      S      19.5960000000     5.3680000000    26.9150000000
  128      C      20.3050000000     5.7660000000    25.3010000000
  129      H      20.4150000000     6.8400000000    25.1320000000
  130      H      21.2640000000     5.2490000000    25.2170000000
  131      H      19.6250000000     5.3920000000    24.5310000000
  132      O      19.3520000000     3.8940000000    27.0210000000
  133      C      23.8540000000    12.9730000000    31.5990000000
  134      H      24.8510000000    13.3720000000    31.8020000000
  135      H      23.8340000000    12.3760000000    30.6840000000
  136      H      23.0650000000    13.7180000000    31.4630000000
  137      S      23.3930000000    12.0640000000    33.0920000000
  138      C      21.9900000000    11.1830000000    32.3720000000
  139      H      22.2850000000    10.3890000000    31.6810000000
  140      H      21.4280000000    10.6380000000    33.1340000000
  141      H      21.3230000000    11.9410000000    31.9520000000
  142      O      22.6710000000    13.0990000000    33.8970000000
  143      C      29.0030000000    12.8470000000    32.4090000000
  144      H      28.8170000000    13.2990000000    33.3870000000
  145      H      28.1030000000    12.6150000000    31.8350000000
  146      H      29.5770000000    11.9290000000    32.5580000000
  147      S      30.0930000000    13.8760000000    31.3990000000
  148      C      31.6430000000    13.2980000000    32.1260000000
  149      H      31.7690000000    12.2720000000    31.7690000000
  150      H      32.4170000000    14.0580000000    31.9930000000
  151      H      31.3420000000    13.3460000000    33.1760000000
  152      O      29.9130000000    15.2660000000    31.9250000000
  153      C      22.9410000000    18.0930000000    33.3510000000
  154      H      21.9160000000    18.3950000000    33.5820000000
  155      H      23.6660000000    18.5280000000    34.0440000000
  156      H      23.1140000000    18.3450000000    32.3020000000
  157      S      22.9790000000    16.3010000000    33.5730000000
  158      C      21.9120000000    16.2620000000    35.0310000000
  159      H      20.8680000000    16.4630000000    34.7790000000
  160      H      21.8370000000    15.2570000000    35.4560000000
  161      H      22.3390000000    16.9670000000    35.7480000000
  162      O      24.4030000000    16.0900000000    33.9830000000
  163      C      17.2490000000    13.9410000000    34.5320000000
  164      H      16.8050000000    14.6620000000    33.8400000000
  165      H      16.6330000000    13.0420000000    34.6200000000
  166      H      17.4430000000    14.2720000000    35.5550000000
  167      S      18.8660000000    13.4740000000    33.8750000000
  168      C      19.2860000000    15.1390000000    33.3110000000
  169      H      18.6460000000    15.3100000000    32.4410000000
  170      H      19.1400000000    15.7670000000    34.1930000000
  171      H      20.3280000000    15.0540000000    32.9920000000
  172      O      18.5950000000    12.8020000000    32.5650000000
  173      C      29.0850000000    17.0890000000    25.7850000000
  174      H      29.1350000000    17.2430000000    26.8650000000
  175      H      28.0440000000    16.8990000000    25.5130000000
  176      H      29.7990000000    16.3270000000    25.4590000000
  177      S      29.6690000000    18.6110000000    25.0060000000
  178      C      28.4410000000    19.7120000000    25.7440000000
  179      H      27.4260000000    19.3780000000    25.5150000000
  180      H      28.6660000000    19.8030000000    26.8100000000
  181      H      28.6340000000    20.7010000000    25.3200000000
  182      O      29.3030000000    18.5650000000    23.5550000000
  183      C      27.6570000000    16.0800000000    22.3670000000
  184      H      27.0540000000    16.7360000000    21.7330000000
  185      H      28.0270000000    16.7060000000    23.1830000000
  186      H      28.5280000000    15.6540000000    21.8620000000
  187      S      26.7150000000    14.8840000000    23.3400000000
  188      C      25.3650000000    16.0520000000    23.6190000000
  189      H      24.5950000000    15.4560000000    24.1150000000
  190      H      25.7450000000    16.9040000000    24.1880000000
  191      H      24.9760000000    16.3280000000    22.6350000000
  192      O      27.3780000000    14.6620000000    24.6630000000
  193      C      18.8930000000    10.4980000000    25.4670000000
  194      H      18.0090000000    11.1350000000    25.3800000000
  195      H      18.8890000000    10.0620000000    26.4690000000
  196      H      19.7400000000    11.1640000000    25.2830000000
  197      S      18.7250000000     9.2900000000    24.1340000000
  198      C      18.1360000000    10.4150000000    22.8490000000
  199      H      19.0530000000    10.7230000000    22.3400000000
  200      H      17.5980000000     9.7220000000    22.1980000000
  201      H      17.6000000000    11.2720000000    23.2660000000
  202      O      17.4350000000     8.6430000000    24.5320000000
  203      C      19.1950000000     9.7430000000    30.9250000000
  204      H      19.2530000000     9.5220000000    31.9940000000
  205      H      20.1270000000    10.2890000000    30.7550000000
  206      H      18.3980000000    10.4750000000    30.7710000000
  207      S      18.9150000000     8.2400000000    29.9630000000
  208      C      20.2360000000     7.2610000000    30.7110000000
  209      H      21.0650000000     7.9470000000    30.9020000000
  210      H      19.9910000000     6.7450000000    31.6430000000
  211      H      20.4130000000     6.6190000000    29.8440000000
  212      O      19.3930000000     8.7020000000    28.6210000000
  213      C      23.0000000000     8.2910000000    23.2010000000
  214      H      23.0000000000     8.2230000000    22.1100000000
  215      H      23.9730000000     8.0530000000    23.6400000000
  216      H      22.2190000000     7.7540000000    23.7440000000
  217      S      22.6390000000    10.0060000000    23.6370000000
  218      C      23.5430000000    10.8420000000    22.3150000000
  219      H      22.9060000000    10.7900000000    21.4280000000
  220      H      23.6550000000    11.8950000000    22.5850000000
  221      H      24.4980000000    10.3110000000    22.3090000000
  222      O      23.5020000000    10.3850000000    24.8000000000
  223      C      14.2730000000     9.8800000000    28.9890000000
  224      H      14.6920000000    10.7480000000    29.5050000000
  225      H      13.5590000000    10.0770000000    28.1850000000
  226      H      13.6140000000     9.3800000000    29.7030000000
  227      S      15.4620000000     8.5780000000    28.5930000000
  228      C      15.8890000000     9.3290000000    27.0050000000
  229      H      15.1650000000    10.1300000000    26.8360000000
  230      H      16.9100000000     9.6970000000    27.1310000000
  231      H      15.8410000000     8.6270000000    26.1690000000
  232      O      14.6010000000     7.4180000000    28.2020000000
  233      C      15.1840000000    17.0510000000    31.3150000000
  234      H      14.3390000000    16.6780000000    30.7300000000
  235      H      15.8870000000    16.2150000000    31.3430000000
  236      H      14.8230000000    17.3400000000    32.3060000000
  237      S      15.9210000000    18.4650000000    30.4650000000
  238      C      16.1960000000    17.4920000000    28.9670000000
  239      H      17.1780000000    17.0310000000    29.1050000000
  240      H      15.3600000000    16.8290000000    28.7340000000
  241      H      16.2010000000    18.2230000000    28.1540000000
  242      O      17.3470000000    18.6160000000    30.8940000000
  243      C      22.9850000000    15.7580000000    20.2480000000
  244      H      22.9010000000    16.8250000000    20.0270000000
  245      H      22.2890000000    15.1560000000    19.6580000000
  246      H      22.8200000000    15.6000000000    21.3170000000
  247      S      24.6680000000    15.1630000000    19.9640000000
  248      C      24.6730000000    15.3270000000    18.1640000000
  249      H      24.6930000000    16.3760000000    17.8570000000
  250      H      25.5210000000    14.7120000000    17.8530000000
  251      H      23.7710000000    14.8280000000    17.8010000000
  252      O      24.6780000000    13.7000000000    20.2820000000
  253      C      24.6030000000    23.1650000000    26.1560000000
  254      H      24.7710000000    22.5550000000    25.2650000000
  255      H      23.6490000000    22.8470000000    26.5830000000
  256      H      24.6350000000    24.2350000000    25.9330000000
  257      S      25.9460000000    22.7200000000    27.2800000000
  258      C      25.3180000000    21.1620000000    27.9470000000
  259      H      24.3080000000    21.3060000000    28.3400000000
  260      H      25.3110000000    20.3860000000    27.1760000000
  261      H      26.0060000000    20.8360000000    28.7300000000
  262      O      25.6630000000    23.7200000000    28.3580000000
  263      C      26.7570000000    12.8180000000    27.3610000000
  264      H      27.8290000000    12.7040000000    27.5410000000
  265      H      26.3340000000    11.9320000000    26.8820000000
  266      H      26.4730000000    13.6970000000    26.7770000000
  267      S      25.8910000000    12.9690000000    28.9400000000
  268      C      26.8950000000    14.2870000000    29.6600000000
  269      H      26.4730000000    14.3310000000    30.6680000000
  270      H      27.9470000000    13.9920000000    29.7030000000
  271      H      26.7710000000    15.1740000000    29.0330000000
  272      O      26.1860000000    11.7720000000    29.7900000000
  273      C      28.6420000000     8.7520000000    26.0110000000
  274      H      28.4060000000     8.5880000000    27.0650000000
  275      H      28.5330000000     7.8670000000    25.3790000000
  276      H      29.6980000000     8.9810000000    25.8490000000
  277      S      27.6210000000    10.0620000000    25.2980000000
  278      C      26.3320000000     8.8240000000    25.0340000000
  279      H      26.6640000000     8.0110000000    24.3830000000
  280      H      26.0480000000     8.5100000000    26.0420000000
  281      H      25.5150000000     9.3510000000    24.5360000000
  282      O      28.1930000000    10.3570000000    23.9460000000
  283      C      21.7290000000    14.3130000000    23.6130000000
  284      H      22.4590000000    13.8740000000    24.2990000000
  285      H      22.1090000000    14.1370000000    22.6040000000
  286      H      21.5820000000    15.3930000000    23.6990000000
  287      S      20.1000000000    13.5750000000    23.8680000000
  288      C      19.1130000000    14.9700000000    23.2810000000
  289      H      19.0120000000    14.8540000000    22.1990000000
  290      H      18.1810000000    14.8020000000    23.8270000000
  291      H      19.5250000000    15.9340000000    23.5880000000
  292      O      19.9110000000    13.6050000000    25.3530000000
 ----------------------------------------------------------------
 Nuclear Repulsion Energy =       47435.76305287 hartrees
 There are      602 alpha and      602 beta electrons
 Requested basis set is 6-31+G(d)
 There are 962 shells and 2681 basis functions

 Total QAlloc Memory Limit  16000 MB
 Mega-Array Size      7821 MB
 MEM_STATIC part      8000 MB
 A cutoff of  1.0D-14 yielded 172707 shell pairs
 There are   1498059 function pairs
 Smallest overlap matrix eigenvalue = 6.37E-07
 Linear dependence detected in AO basis
 Tighter screening thresholds may be required for diffuse basis sets
 Use S2THRESH > 14 and THRESH = 14 in case of SCF convergence issues
 Number of orthogonalized atomic orbitals = 2679
 Maximum deviation from orthogonality = 1.478E-10

 Scale SEOQF with 1.000000e-03/1.000000e-03/1.000000e-03

 Standard Electronic Orientation quadrupole field applied
 Nucleus-field energy     =    -0.0000005944 hartrees
Attempting to make child job directory: /local/scratch/users/ymao/r7.00_frame_0033_almo_B3LYP_dp.in20210311133744//Frg1/
Attempting to make child job directory: /local/scratch/users/ymao/r7.00_frame_0033_almo_B3LYP_dp.in20210311133744//Frg2/
Creating input file /local/scratch/users/ymao/r7.00_frame_0033_almo_B3LYP_dp.in20210311133744/Frg1.input
using default PutDataFrgm: nothing
calling putenv with: QCSCRATCH=/local/scratch/users/ymao/r7.00_frame_0033_almo_B3LYP_dp.in20210311133744/ 
Spawning Job For Fragment 0
Done Job For Fragment 0
calling putenv with: QCSCRATCH=/local/scratch/users/ymao 
calling putenv with: QCTHREADS=8 
Creating input file /local/scratch/users/ymao/r7.00_frame_0033_almo_B3LYP_dp.in20210311133744/Frg2.input
using default PutDataFrgm: nothing
calling putenv with: QCSCRATCH=/local/scratch/users/ymao/r7.00_frame_0033_almo_B3LYP_dp.in20210311133744/ 
Spawning Job For Fragment 1
Done Job For Fragment 1
calling putenv with: QCSCRATCH=/local/scratch/users/ymao 
calling putenv with: QCTHREADS=8 
 Time for running child jobs:  CPU 0.83 s  wall 25354.47 s

 -----------------------------------------------------------------------
  General SCF calculation program by
  Eric Jon Sundstrom, Paul Horn, Yuezhi Mao, Dmitri Zuev, Alec White,
  David Stuck, Shaama M.S., Shane Yost, Joonho Lee, David Small,
  Daniel Levine, Susi Lehtola, Hugh Burton, Evgeny Epifanovsky,
  Bang C. Huynh
 -----------------------------------------------------------------------
Performing Restricted Closed Shell SCFMI
Doing General SCFMI
 Exchange:     0.2000 Hartree-Fock + 0.0800 Slater + 0.7200 B88
 Correlation:  0.1900 VWN1RPA + 0.8100 LYP
 Using Euler-Maclaurin-Lebedev (75,302) quadrature formula
performing fock build before subrot guess so that all methods have access
Printing subrot_rss_gen Method Specification:
Occupied Subspace Method is 0
Virtual Subspace Method is 0
Energy prior to optimization (guess energy) = -15340.680920050312
Begin Timing: Total SCF Calculation
begin iterations for algorithm: DIIS         
the SCF tolerance is set to 1.00e-08
    1  -15340.6809200503      3.95e-05     00000 
    2  -15340.6851942335      4.24e-05     00000 
    3  -15340.6899432026      1.93e-05     00000 
    4  -15340.6907406743      8.58e-06     00000 
    5  -15340.6909487086      2.64e-06     00000 
    6  -15340.6909692027      1.86e-06     00000 
    7  -15340.6909788644      1.26e-06     00000 
    8  -15340.6909832695      7.32e-07     00000 
    9  -15340.6909848498      4.05e-07     00000 
   10  -15340.6909853121      2.75e-07     00000 
   11  -15340.6909854711      2.02e-07     00000 
   12  -15340.6909855636      1.20e-07     00000 
   13  -15340.6909855952      7.02e-08     00000 
   14  -15340.6909856084      3.67e-08     00000 
   15  -15340.6909856119      2.65e-08     00000 
   16  -15340.6909856137      1.48e-08     00000 
   17  -15340.6909856146      7.04e-09     00000 Convergence criterion met
write pseudocanon occs and virts to disk
write pseudocanon orbital energies to disk
Timing for Total SCF: 50339.00s (wall), 397024.09s (cpu)
SCFMI Energy  -15340.6909856146
<S^2>            0.00000
 Total energy in the final basis set =   -15340.6909856146
    ==================================================
        The end of Object-Oriented SCFman: SCFMI      
    ==================================================
 
 --------------------------------------------------------------
 
                    Orbital Energies (a.u.)
 --------------------------------------------------------------
 
 Alpha MOs
 -- Occupied --
-89.0542 -89.0368 -89.0358 -89.0306 -89.0141 -89.0115 -89.0107 -89.0094
-89.0077 -89.0053 -89.0039 -89.0003 -88.9980 -88.9958 -88.9956 -88.9956
-88.9936 -88.9907 -88.9829 -88.9819 -88.9782 -88.9736 -88.9692 -88.9689
-88.9637 -88.9631 -88.9604 -19.1647 -19.1571 -19.1533 -19.1443 -19.1359
-19.1311 -19.1261 -19.1260 -19.1217 -19.1215 -19.1208 -19.1151 -19.1148
-19.1140 -19.1131 -19.1109 -19.1087 -19.1068 -19.1044 -19.1035 -19.0997
-19.0986 -19.0885 -19.0878 -19.0818 -19.0795 -19.0794 -19.0748 -14.3444
-10.2822 -10.2726 -10.2718 -10.2650 -10.2577 -10.2567 -10.2544 -10.2433
-10.2430 -10.2424 -10.2392 -10.2347 -10.2332 -10.2314 -10.2301 -10.2295
-10.2282 -10.2278 -10.2274 -10.2204 -10.2201 -10.2196 -10.2193 -10.2183
-10.2180 -10.2171 -10.2165 -10.2153 -10.2137 -10.2130 -10.2127 -10.2118
-10.2111 -10.2108 -10.2105 -10.2087 -10.2065 -10.2047 -10.2040 -10.2038
-10.2031 -10.2020 -10.1986 -10.1967 -10.1944 -10.1925 -10.1916 -10.1900
-10.1896 -10.1874 -10.1849 -10.1838 -10.1835 -10.1817 -10.1812 -10.1808
-10.1798 -10.1797 -10.1793 -10.1710 -10.1613  -8.1006  -8.0831  -8.0816
 -8.0770  -8.0608  -8.0581  -8.0562  -8.0550  -8.0539  -8.0508  -8.0505
 -8.0465  -8.0438  -8.0422  -8.0419  -8.0415  -8.0396  -8.0371  -8.0296
 -8.0286  -8.0240  -8.0191  -8.0159  -8.0147  -8.0093  -8.0089  -8.0064
 -6.0649  -6.0637  -6.0580  -6.0473  -6.0464  -6.0462  -6.0447  -6.0412
 -6.0404  -6.0401  -6.0389  -6.0346  -6.0252  -6.0239  -6.0222  -6.0211
 -6.0206  -6.0195  -6.0193  -6.0181  -6.0181  -6.0181  -6.0171  -6.0157
 -6.0150  -6.0148  -6.0141  -6.0136  -6.0131  -6.0122  -6.0113  -6.0109
 -6.0096  -6.0083  -6.0082  -6.0081  -6.0067  -6.0065  -6.0062  -6.0059
 -6.0052  -6.0051  -6.0044  -6.0039  -6.0038  -6.0027  -6.0014  -6.0014
 -6.0001  -5.9996  -5.9992  -5.9991  -5.9973  -5.9944  -5.9941  -5.9930
 -5.9927  -5.9917  -5.9884  -5.9871  -5.9867  -5.9858  -5.9835  -5.9823
 -5.9813  -5.9800  -5.9789  -5.9788  -5.9778  -5.9766  -5.9737  -5.9734
 -5.9732  -5.9726  -5.9722  -5.9721  -5.9706  -5.9694  -5.9665  -5.9663
 -5.9640  -1.0780  -1.0665  -1.0613  -1.0547  -1.0433  -1.0407  -1.0377
 -1.0351  -1.0339  -1.0329  -1.0278  -1.0273  -1.0265  -1.0247  -1.0205
 -1.0194  -1.0188  -1.0174  -1.0156  -1.0113  -1.0111  -1.0077  -0.9961
 -0.9947  -0.9928  -0.9883  -0.9861  -0.9836  -0.9141  -0.8561  -0.8447
 -0.8393  -0.8367  -0.8300  -0.8235  -0.8214  -0.8166  -0.8116  -0.8116
 -0.8058  -0.8043  -0.8041  -0.8033  -0.8021  -0.8013  -0.8000  -0.7981
 -0.7964  -0.7912  -0.7901  -0.7853  -0.7776  -0.7767  -0.7734  -0.7717
 -0.7691  -0.7668  -0.7641  -0.7638  -0.7601  -0.7591  -0.7570  -0.7496
 -0.7437  -0.7414  -0.7401  -0.7390  -0.7368  -0.7360  -0.7294  -0.7266
 -0.7264  -0.7259  -0.7224  -0.7214  -0.7190  -0.7190  -0.7169  -0.7155
 -0.7048  -0.7016  -0.6985  -0.6946  -0.6942  -0.6925  -0.6838  -0.6658
 -0.6516  -0.6488  -0.6415  -0.6381  -0.6275  -0.6264  -0.6259  -0.6248
 -0.6241  -0.6213  -0.6194  -0.6186  -0.6111  -0.6105  -0.6085  -0.6083
 -0.6053  -0.6033  -0.6031  -0.5964  -0.5927  -0.5917  -0.5833  -0.5828
 -0.5825  -0.5797  -0.5781  -0.5759  -0.5729  -0.5664  -0.5374  -0.5313
 -0.5257  -0.5233  -0.5219  -0.5160  -0.5138  -0.5121  -0.5109  -0.5063
 -0.5049  -0.5033  -0.5019  -0.4991  -0.4962  -0.4949  -0.4938  -0.4924
 -0.4918  -0.4906  -0.4893  -0.4887  -0.4860  -0.4852  -0.4849  -0.4842
 -0.4821  -0.4818  -0.4800  -0.4799  -0.4796  -0.4786  -0.4782  -0.4776
 -0.4771  -0.4767  -0.4765  -0.4756  -0.4752  -0.4751  -0.4745  -0.4739
 -0.4727  -0.4718  -0.4707  -0.4704  -0.4701  -0.4700  -0.4694  -0.4674
 -0.4662  -0.4656  -0.4651  -0.4643  -0.4635  -0.4627  -0.4621  -0.4618
 -0.4613  -0.4611  -0.4604  -0.4603  -0.4594  -0.4587  -0.4580  -0.4574
 -0.4559  -0.4554  -0.4546  -0.4539  -0.4532  -0.4524  -0.4517  -0.4510
 -0.4505  -0.4499  -0.4488  -0.4477  -0.4472  -0.4464  -0.4450  -0.4446
 -0.4442  -0.4437  -0.4434  -0.4409  -0.4403  -0.4398  -0.4390  -0.4378
 -0.4363  -0.4355  -0.4351  -0.4345  -0.4340  -0.4323  -0.4321  -0.4318
 -0.4313  -0.4302  -0.4299  -0.4293  -0.4284  -0.4280  -0.4271  -0.4269
 -0.4264  -0.4261  -0.4258  -0.4251  -0.4242  -0.4238  -0.4228  -0.4204
 -0.4198  -0.4187  -0.4185  -0.4184  -0.4178  -0.4166  -0.4159  -0.4155
 -0.4149  -0.4143  -0.4135  -0.4132  -0.4117  -0.4113  -0.4109  -0.4103
 -0.4092  -0.4082  -0.4071  -0.4064  -0.4061  -0.4049  -0.4031  -0.4028
 -0.4022  -0.4017  -0.4015  -0.4007  -0.3999  -0.3989  -0.3971  -0.3969
 -0.3959  -0.3948  -0.3945  -0.3933  -0.3925  -0.3920  -0.3915  -0.3905
 -0.3900  -0.3890  -0.3884  -0.3874  -0.3865  -0.3843  -0.3829  -0.3819
 -0.3792  -0.3781  -0.3772  -0.3764  -0.3762  -0.3752  -0.3745  -0.3739
 -0.3735  -0.3719  -0.3712  -0.3695  -0.3688  -0.3685  -0.3678  -0.3661
 -0.3656  -0.3649  -0.3641  -0.3625  -0.3606  -0.3603  -0.3595  -0.3583
 -0.3563  -0.3547  -0.3537  -0.3534  -0.3491  -0.3480  -0.3433  -0.3415
 -0.3361  -0.3350  -0.3347  -0.3308  -0.3294  -0.3278  -0.3264  -0.3262
 -0.3252  -0.3213  -0.3185  -0.3138  -0.3131  -0.3023  -0.2987  -0.2945
 -0.2915  -0.2847  -0.2829  -0.2816  -0.2811  -0.2799  -0.2770  -0.2767
 -0.2757  -0.2729  -0.2728  -0.2722  -0.2708  -0.2679  -0.2665  -0.2664
 -0.2631  -0.2611  -0.2597  -0.2568  -0.2555  -0.2550  -0.2549  -0.2546
 -0.2496  -0.2484  -0.2483  -0.2453  -0.2443  -0.2439  -0.2434  -0.2410
 -0.2397  -0.2396  -0.2388  -0.2376  -0.2363  -0.2347  -0.2338  -0.2325
 -0.2290  -0.2259  -0.2243  -0.2220  -0.2118  -0.2109  -0.2095  -0.2022
 -0.2016  -0.2006
 -- Virtual --
 -0.0654  -0.0529  -0.0488  -0.0351  -0.0345  -0.0313  -0.0280  -0.0265
 -0.0248  -0.0207  -0.0198  -0.0190  -0.0181  -0.0172  -0.0165  -0.0149
 -0.0141  -0.0125  -0.0108  -0.0099  -0.0087  -0.0081  -0.0063  -0.0056
 -0.0043  -0.0038  -0.0033  -0.0011  -0.0006   0.0006   0.0016   0.0017
  0.0023   0.0030   0.0046   0.0047   0.0057   0.0060   0.0065   0.0076
  0.0080   0.0084   0.0099   0.0106   0.0110   0.0128   0.0136   0.0142
  0.0146   0.0152   0.0158   0.0164   0.0168   0.0177   0.0182   0.0189
  0.0197   0.0200   0.0209   0.0216   0.0221   0.0223   0.0231   0.0243
  0.0245   0.0251   0.0258   0.0269   0.0276   0.0283   0.0290   0.0307
  0.0310   0.0320   0.0325   0.0331   0.0341   0.0343   0.0347   0.0348
  0.0351   0.0358   0.0369   0.0376   0.0377   0.0386   0.0394   0.0398
  0.0407   0.0409   0.0420   0.0428   0.0431   0.0443   0.0445   0.0453
  0.0456   0.0460   0.0464   0.0471   0.0475   0.0492   0.0494   0.0498
  0.0503   0.0509   0.0517   0.0526   0.0528   0.0533   0.0540   0.0549
  0.0550   0.0557   0.0568   0.0578   0.0579   0.0588   0.0593   0.0596
  0.0601   0.0607   0.0612   0.0618   0.0623   0.0631   0.0635   0.0644
  0.0650   0.0655   0.0661   0.0669   0.0679   0.0680   0.0681   0.0689
  0.0696   0.0701   0.0703   0.0712   0.0717   0.0723   0.0729   0.0732
  0.0740   0.0744   0.0754   0.0758   0.0762   0.0773   0.0780   0.0786
  0.0790   0.0792   0.0797   0.0802   0.0807   0.0812   0.0828   0.0832
  0.0842   0.0844   0.0852   0.0859   0.0865   0.0873   0.0878   0.0880
  0.0888   0.0891   0.0899   0.0906   0.0912   0.0921   0.0924   0.0925
  0.0937   0.0939   0.0949   0.0955   0.0961   0.0967   0.0975   0.0980
  0.0985   0.1005   0.1008   0.1014   0.1018   0.1025   0.1034   0.1036
  0.1038   0.1052   0.1057   0.1058   0.1071   0.1082   0.1087   0.1097
  0.1101   0.1105   0.1114   0.1123   0.1129   0.1131   0.1136   0.1146
  0.1152   0.1153   0.1157   0.1166   0.1172   0.1176   0.1179   0.1194
  0.1195   0.1206   0.1214   0.1225   0.1229   0.1234   0.1236   0.1245
  0.1251   0.1256   0.1265   0.1268   0.1272   0.1277   0.1284   0.1289
  0.1298   0.1304   0.1310   0.1312   0.1317   0.1331   0.1338   0.1344
  0.1347   0.1350   0.1357   0.1363   0.1364   0.1372   0.1379   0.1380
  0.1390   0.1393   0.1401   0.1408   0.1415   0.1419   0.1427   0.1428
  0.1437   0.1444   0.1451   0.1457   0.1471   0.1479   0.1481   0.1491
  0.1495   0.1503   0.1507   0.1509   0.1511   0.1523   0.1526   0.1542
  0.1549   0.1551   0.1562   0.1569   0.1569   0.1577   0.1589   0.1592
  0.1599   0.1606   0.1612   0.1613   0.1619   0.1619   0.1627   0.1629
  0.1634   0.1635   0.1645   0.1650   0.1658   0.1668   0.1675   0.1680
  0.1688   0.1694   0.1702   0.1708   0.1713   0.1715   0.1722   0.1730
  0.1743   0.1748   0.1752   0.1753   0.1763   0.1771   0.1773   0.1775
  0.1781   0.1792   0.1793   0.1801   0.1802   0.1812   0.1817   0.1825
  0.1829   0.1832   0.1836   0.1840   0.1844   0.1857   0.1862   0.1868
  0.1873   0.1877   0.1884   0.1894   0.1900   0.1905   0.1908   0.1915
  0.1918   0.1922   0.1926   0.1932   0.1933   0.1946   0.1953   0.1962
  0.1967   0.1967   0.1979   0.1984   0.1989   0.1991   0.2006   0.2007
  0.2014   0.2018   0.2022   0.2025   0.2030   0.2040   0.2046   0.2054
  0.2058   0.2062   0.2068   0.2071   0.2079   0.2086   0.2091   0.2097
  0.2101   0.2114   0.2117   0.2125   0.2135   0.2141   0.2149   0.2154
  0.2158   0.2163   0.2169   0.2172   0.2183   0.2192   0.2198   0.2200
  0.2204   0.2208   0.2216   0.2228   0.2230   0.2236   0.2240   0.2246
  0.2248   0.2267   0.2268   0.2271   0.2278   0.2287   0.2294   0.2298
  0.2310   0.2315   0.2321   0.2324   0.2334   0.2337   0.2343   0.2347
  0.2359   0.2365   0.2370   0.2375   0.2376   0.2385   0.2390   0.2400
  0.2407   0.2415   0.2416   0.2421   0.2427   0.2433   0.2447   0.2451
  0.2456   0.2463   0.2469   0.2474   0.2488   0.2492   0.2498   0.2499
  0.2511   0.2518   0.2526   0.2530   0.2536   0.2544   0.2552   0.2553
  0.2564   0.2575   0.2579   0.2581   0.2595   0.2605   0.2610   0.2626
  0.2626   0.2631   0.2640   0.2655   0.2657   0.2663   0.2667   0.2676
  0.2686   0.2688   0.2697   0.2706   0.2708   0.2714   0.2723   0.2725
  0.2741   0.2747   0.2761   0.2769   0.2775   0.2779   0.2785   0.2792
  0.2802   0.2805   0.2821   0.2826   0.2830   0.2842   0.2851   0.2852
  0.2858   0.2877   0.2883   0.2888   0.2894   0.2896   0.2913   0.2916
  0.2919   0.2929   0.2935   0.2943   0.2952   0.2961   0.2966   0.2976
  0.2985   0.2989   0.2992   0.3012   0.3020   0.3022   0.3032   0.3041
  0.3049   0.3062   0.3078   0.3083   0.3092   0.3102   0.3108   0.3112
  0.3120   0.3126   0.3138   0.3141   0.3157   0.3163   0.3169   0.3187
  0.3193   0.3200   0.3203   0.3209   0.3222   0.3235   0.3240   0.3244
  0.3255   0.3260   0.3270   0.3271   0.3285   0.3294   0.3299   0.3300
  0.3316   0.3320   0.3322   0.3343   0.3351   0.3359   0.3362   0.3380
  0.3387   0.3391   0.3396   0.3410   0.3415   0.3419   0.3435   0.3453
  0.3455   0.3462   0.3472   0.3487   0.3494   0.3511   0.3517   0.3521
  0.3530   0.3537   0.3550   0.3563   0.3565   0.3579   0.3590   0.3604
  0.3612   0.3619   0.3623   0.3627   0.3638   0.3655   0.3656   0.3670
  0.3672   0.3685   0.3691   0.3704   0.3710   0.3717   0.3721   0.3728
  0.3741   0.3754   0.3760   0.3763   0.3771   0.3780   0.3788   0.3795
  0.3807   0.3815   0.3821   0.3836   0.3848   0.3855   0.3876   0.3880
  0.3888   0.3898   0.3901   0.3907   0.3917   0.3936   0.3942   0.3951
  0.3951   0.3955   0.3963   0.3974   0.3988   0.3998   0.4007   0.4014
  0.4031   0.4039   0.4046   0.4053   0.4061   0.4071   0.4078   0.4090
  0.4096   0.4105   0.4113   0.4113   0.4128   0.4138   0.4144   0.4156
  0.4168   0.4172   0.4177   0.4188   0.4198   0.4211   0.4220   0.4229
  0.4237   0.4243   0.4255   0.4262   0.4270   0.4273   0.4305   0.4305
  0.4316   0.4325   0.4326   0.4337   0.4340   0.4355   0.4365   0.4376
  0.4392   0.4401   0.4406   0.4409   0.4426   0.4444   0.4468   0.4474
  0.4481   0.4494   0.4516   0.4524   0.4535   0.4544   0.4548   0.4550
  0.4560   0.4577   0.4596   0.4601   0.4609   0.4625   0.4637   0.4662
  0.4665   0.4687   0.4691   0.4699   0.4718   0.4728   0.4736   0.4747
  0.4749   0.4779   0.4786   0.4804   0.4816   0.4841   0.4842   0.4865
  0.4883   0.4896   0.4901   0.4917   0.4926   0.4934   0.4947   0.4957
  0.4979   0.5005   0.5014   0.5022   0.5027   0.5056   0.5068   0.5082
  0.5097   0.5114   0.5133   0.5142   0.5176   0.5181   0.5199   0.5210
  0.5225   0.5254   0.5268   0.5278   0.5302   0.5316   0.5328   0.5347
  0.5360   0.5371   0.5392   0.5408   0.5422   0.5427   0.5437   0.5451
  0.5477   0.5486   0.5509   0.5524   0.5536   0.5552   0.5553   0.5582
  0.5605   0.5607   0.5624   0.5643   0.5648   0.5655   0.5658   0.5687
  0.5708   0.5722   0.5739   0.5749   0.5771   0.5784   0.5803   0.5822
  0.5825   0.5828   0.5850   0.5869   0.5880   0.5903   0.5910   0.5927
  0.5941   0.5962   0.5975   0.5985   0.6010   0.6024   0.6031   0.6042
  0.6050   0.6065   0.6077   0.6085   0.6101   0.6112   0.6125   0.6134
  0.6142   0.6152   0.6166   0.6184   0.6202   0.6205   0.6214   0.6224
  0.6245   0.6254   0.6267   0.6270   0.6291   0.6300   0.6312   0.6322
  0.6330   0.6343   0.6360   0.6376   0.6384   0.6388   0.6403   0.6404
  0.6413   0.6439   0.6445   0.6460   0.6465   0.6470   0.6483   0.6498
  0.6517   0.6518   0.6525   0.6543   0.6566   0.6576   0.6583   0.6592
  0.6604   0.6610   0.6621   0.6638   0.6645   0.6654   0.6662   0.6679
  0.6684   0.6699   0.6712   0.6719   0.6726   0.6744   0.6748   0.6767
  0.6773   0.6778   0.6782   0.6810   0.6823   0.6834   0.6838   0.6842
  0.6866   0.6868   0.6894   0.6897   0.6903   0.6923   0.6928   0.6940
  0.6953   0.6961   0.6971   0.6986   0.6998   0.7008   0.7009   0.7042
  0.7048   0.7053   0.7070   0.7082   0.7090   0.7105   0.7120   0.7133
  0.7148   0.7157   0.7177   0.7190   0.7196   0.7203   0.7220   0.7237
  0.7240   0.7249   0.7269   0.7286   0.7295   0.7319   0.7328   0.7340
  0.7354   0.7366   0.7375   0.7380   0.7400   0.7409   0.7419   0.7432
  0.7443   0.7461   0.7480   0.7487   0.7495   0.7514   0.7526   0.7549
  0.7560   0.7564   0.7579   0.7603   0.7624   0.7631   0.7639   0.7650
  0.7666   0.7672   0.7683   0.7705   0.7711   0.7722   0.7748   0.7773
  0.7788   0.7803   0.7807   0.7824   0.7834   0.7855   0.7869   0.7878
  0.7882   0.7901   0.7910   0.7927   0.7968   0.7976   0.7987   0.7989
  0.8009   0.8016   0.8030   0.8054   0.8061   0.8072   0.8080   0.8094
  0.8127   0.8136   0.8151   0.8159   0.8183   0.8200   0.8204   0.8214
  0.8231   0.8233   0.8251   0.8262   0.8286   0.8292   0.8312   0.8313
  0.8336   0.8353   0.8358   0.8369   0.8385   0.8395   0.8402   0.8424
  0.8427   0.8438   0.8467   0.8487   0.8494   0.8520   0.8531   0.8539
  0.8558   0.8567   0.8570   0.8582   0.8589   0.8607   0.8607   0.8637
  0.8650   0.8665   0.8673   0.8685   0.8715   0.8719   0.8728   0.8743
  0.8748   0.8772   0.8790   0.8805   0.8812   0.8820   0.8827   0.8845
  0.8861   0.8873   0.8880   0.8893   0.8909   0.8921   0.8936   0.8943
  0.8953   0.8972   0.8978   0.8991   0.9003   0.9011   0.9024   0.9042
  0.9050   0.9058   0.9070   0.9094   0.9113   0.9122   0.9126   0.9137
  0.9149   0.9155   0.9171   0.9184   0.9199   0.9220   0.9226   0.9227
  0.9231   0.9253   0.9259   0.9267   0.9286   0.9301   0.9304   0.9320
  0.9329   0.9338   0.9347   0.9362   0.9377   0.9404   0.9420   0.9433
  0.9438   0.9451   0.9457   0.9478   0.9481   0.9501   0.9510   0.9517
  0.9521   0.9534   0.9545   0.9558   0.9579   0.9587   0.9594   0.9608
  0.9617   0.9628   0.9634   0.9641   0.9653   0.9664   0.9667   0.9683
  0.9702   0.9706   0.9714   0.9722   0.9729   0.9752   0.9754   0.9767
  0.9774   0.9785   0.9801   0.9807   0.9811   0.9833   0.9840   0.9847
  0.9854   0.9887   0.9905   0.9920   0.9922   0.9927   0.9941   0.9952
  0.9962   0.9982   0.9984   0.9993   1.0003   1.0011   1.0025   1.0039
  1.0054   1.0055   1.0063   1.0076   1.0089   1.0109   1.0111   1.0120
  1.0131   1.0138   1.0153   1.0159   1.0187   1.0195   1.0200   1.0211
  1.0225   1.0236   1.0240   1.0254   1.0271   1.0281   1.0287   1.0296
  1.0311   1.0320   1.0347   1.0350   1.0357   1.0370   1.0381   1.0386
  1.0393   1.0403   1.0420   1.0430   1.0461   1.0472   1.0488   1.0493
  1.0505   1.0520   1.0526   1.0537   1.0557   1.0568   1.0578   1.0595
  1.0608   1.0612   1.0629   1.0633   1.0644   1.0658   1.0679   1.0686
  1.0699   1.0712   1.0721   1.0744   1.0753   1.0779   1.0789   1.0794
  1.0810   1.0818   1.0831   1.0843   1.0862   1.0875   1.0878   1.0894
  1.0911   1.0920   1.0940   1.0953   1.0970   1.0972   1.0985   1.0995
  1.1007   1.1020   1.1032   1.1045   1.1063   1.1084   1.1099   1.1107
  1.1120   1.1132   1.1155   1.1171   1.1182   1.1196   1.1200   1.1214
  1.1232   1.1239   1.1256   1.1273   1.1277   1.1284   1.1297   1.1314
  1.1324   1.1338   1.1342   1.1360   1.1376   1.1387   1.1407   1.1421
  1.1433   1.1454   1.1460   1.1478   1.1485   1.1509   1.1524   1.1537
  1.1540   1.1556   1.1566   1.1576   1.1587   1.1609   1.1619   1.1635
  1.1647   1.1669   1.1682   1.1691   1.1705   1.1713   1.1736   1.1744
  1.1765   1.1786   1.1810   1.1816   1.1839   1.1854   1.1863   1.1866
  1.1892   1.1903   1.1924   1.1933   1.1952   1.1963   1.1991   1.2008
  1.2016   1.2029   1.2036   1.2052   1.2071   1.2081   1.2104   1.2132
  1.2144   1.2168   1.2173   1.2188   1.2216   1.2226   1.2240   1.2249
  1.2259   1.2288   1.2300   1.2323   1.2342   1.2349   1.2388   1.2418
  1.2437   1.2446   1.2454   1.2460   1.2486   1.2506   1.2538   1.2554
  1.2570   1.2579   1.2607   1.2624   1.2643   1.2657   1.2694   1.2718
  1.2725   1.2757   1.2760   1.2777   1.2800   1.2845   1.2851   1.2863
  1.2899   1.2905   1.2937   1.2951   1.2989   1.3000   1.3023   1.3057
  1.3059   1.3078   1.3125   1.3151   1.3163   1.3174   1.3186   1.3204
  1.3214   1.3240   1.3261   1.3286   1.3294   1.3307   1.3313   1.3359
  1.3373   1.3388   1.3391   1.3418   1.3449   1.3464   1.3490   1.3499
  1.3516   1.3529   1.3547   1.3559   1.3572   1.3585   1.3603   1.3611
  1.3630   1.3649   1.3658   1.3675   1.3689   1.3725   1.3735   1.3743
  1.3772   1.3791   1.3801   1.3822   1.3839   1.3847   1.3852   1.3873
  1.3886   1.3899   1.3921   1.3936   1.3951   1.3961   1.3974   1.3996
  1.4002   1.4012   1.4018   1.4035   1.4059   1.4068   1.4087   1.4104
  1.4133   1.4147   1.4172   1.4185   1.4198   1.4208   1.4223   1.4235
  1.4244   1.4256   1.4271   1.4278   1.4284   1.4311   1.4338   1.4364
  1.4364   1.4367   1.4388   1.4409   1.4415   1.4438   1.4462   1.4469
  1.4484   1.4487   1.4515   1.4531   1.4539   1.4555   1.4562   1.4579
  1.4632   1.4655   1.4668   1.4676   1.4693   1.4706   1.4725   1.4751
  1.4759   1.4765   1.4786   1.4830   1.4834   1.4839   1.4859   1.4897
  1.4920   1.4937   1.4947   1.4973   1.4977   1.4992   1.5037   1.5048
  1.5073   1.5092   1.5117   1.5137   1.5173   1.5183   1.5194   1.5238
  1.5262   1.5278   1.5303   1.5328   1.5357   1.5384   1.5396   1.5411
  1.5419   1.5470   1.5480   1.5512   1.5540   1.5585   1.5598   1.5630
  1.5681   1.5693   1.5731   1.5739   1.5769   1.5808   1.5854   1.5880
  1.5950   1.5998   1.6022   1.6060   1.6089   1.6138   1.6163   1.6182
  1.6215   1.6250   1.6264   1.6331   1.6358   1.6395   1.6429   1.6475
  1.6507   1.6515   1.6533   1.6559   1.6591   1.6611   1.6629   1.6649
  1.6661   1.6677   1.6687   1.6706   1.6728   1.6741   1.6751   1.6764
  1.6783   1.6788   1.6813   1.6825   1.6839   1.6853   1.6858   1.6867
  1.6880   1.6889   1.6893   1.6915   1.6938   1.6942   1.6944   1.6969
  1.6985   1.6989   1.7012   1.7018   1.7031   1.7048   1.7055   1.7070
  1.7086   1.7099   1.7106   1.7128   1.7153   1.7162   1.7175   1.7194
  1.7212   1.7220   1.7228   1.7237   1.7254   1.7264   1.7275   1.7300
  1.7304   1.7321   1.7350   1.7364   1.7381   1.7394   1.7400   1.7407
  1.7427   1.7436   1.7440   1.7456   1.7467   1.7472   1.7486   1.7518
  1.7536   1.7542   1.7576   1.7580   1.7585   1.7598   1.7603   1.7618
  1.7638   1.7653   1.7662   1.7682   1.7692   1.7699   1.7722   1.7730
  1.7749   1.7762   1.7767   1.7805   1.7828   1.7855   1.7859   1.7877
  1.7896   1.7914   1.7940   1.7984   1.7999   1.8028   1.8036   1.8053
  1.8077   1.8101   1.8123   1.8137   1.8147   1.8177   1.8182   1.8221
  1.8257   1.8260   1.8283   1.8347   1.8380   1.8387   1.8412   1.8432
  1.8466   1.8478   1.8506   1.8524   1.8533   1.8544   1.8558   1.8574
  1.8588   1.8610   1.8624   1.8633   1.8647   1.8670   1.8676   1.8687
  1.8723   1.8731   1.8763   1.8802   1.8822   1.8842   1.8867   1.8886
  1.8905   1.8910   1.8926   1.8935   1.8945   1.8947   1.8978   1.8989
  1.9001   1.9021   1.9034   1.9038   1.9043   1.9052   1.9062   1.9064
  1.9074   1.9086   1.9111   1.9133   1.9153   1.9162   1.9195   1.9203
  1.9211   1.9224   1.9238   1.9261   1.9270   1.9282   1.9324   1.9334
  1.9350   1.9353   1.9392   1.9413   1.9429   1.9450   1.9462   1.9493
  1.9510   1.9536   1.9552   1.9605   1.9611   1.9648   1.9680   1.9711
  1.9765   1.9799   1.9819   1.9852   1.9879   1.9944   2.0005   2.0028
  2.0059   2.0123   2.0230   2.0262   2.0284   2.0323   2.0372   2.0397
  2.0450   2.0479   2.0489   2.0556   2.0565   2.0587   2.0595   2.0599
  2.0605   2.0627   2.0664   2.0674   2.0702   2.0744   2.0769   2.0771
  2.0784   2.0796   2.0800   2.0840   2.0844   2.0851   2.0866   2.0871
  2.0891   2.0907   2.0944   2.0952   2.0957   2.0966   2.0991   2.1006
  2.1012   2.1030   2.1040   2.1054   2.1060   2.1068   2.1077   2.1093
  2.1102   2.1127   2.1134   2.1165   2.1196   2.1239   2.1269   2.1286
  2.1328   2.1353   2.1362   2.1376   2.1406   2.1425   2.1448   2.1501
  2.1571   2.1593   2.1721   2.1747   2.1767   2.1769   2.1786   2.1798
  2.1821   2.1826   2.1838   2.1844   2.1891   2.1917   2.1921   2.1942
  2.1963   2.1980   2.1991   2.1995   2.2050   2.2081   2.2090   2.2128
  2.2135   2.2144   2.2153   2.2163   2.2170   2.2178   2.2191   2.2205
  2.2233   2.2240   2.2267   2.2277   2.2287   2.2303   2.2310   2.2320
  2.2340   2.2346   2.2353   2.2359   2.2371   2.2375   2.2396   2.2411
  2.2418   2.2428   2.2435   2.2435   2.2455   2.2458   2.2472   2.2487
  2.2492   2.2510   2.2514   2.2515   2.2531   2.2534   2.2561   2.2568
  2.2579   2.2587   2.2590   2.2604   2.2614   2.2623   2.2634   2.2641
  2.2657   2.2665   2.2670   2.2681   2.2694   2.2701   2.2711   2.2721
  2.2743   2.2750   2.2760   2.2763   2.2776   2.2792   2.2795   2.2813
  2.2819   2.2835   2.2836   2.2854   2.2860   2.2864   2.2878   2.2895
  2.2917   2.2929   2.2935   2.2944   2.2964   2.2974   2.2975   2.2994
  2.3005   2.3029   2.3036   2.3055   2.3063   2.3067   2.3092   2.3100
  2.3112   2.3131   2.3137   2.3160   2.3172   2.3206   2.3207   2.3230
  2.3235   2.3243   2.3246   2.3250   2.3263   2.3273   2.3277   2.3301
  2.3305   2.3314   2.3319   2.3335   2.3342   2.3357   2.3390   2.3406
  2.3422   2.3434   2.3440   2.3447   2.3468   2.3490   2.3499   2.3520
  2.3537   2.3553   2.3556   2.3563   2.3625   2.3629   2.3638   2.3650
  2.3660   2.3672   2.3713   2.3752   2.3781   2.3783   2.3809   2.3830
  2.3854   2.3878   2.3939   2.3949   2.3980   2.4029   2.4051   2.4101
  2.4119   2.4260   2.4307   2.4342   2.4532   2.4789   2.4929   2.5126
  2.5602   2.6039   2.6221   2.7539   2.7773   2.7862   2.8001   2.8037
  2.8144   2.8245   2.8303   2.8327   2.8331   2.8340   2.8370   2.8404
  2.8424   2.8438   2.8449   2.8492   2.8524   2.8555   2.8593   2.8637
  2.8644   2.8686   2.8698   2.8708   2.8757   2.8764   2.8787   2.8816
  2.8830   2.8943   2.8967   2.9027   2.9032   2.9548   3.1159   3.2140
  3.9250   3.9312   3.9479   3.9560   3.9608   3.9637   3.9699   3.9723
  3.9743   3.9758   3.9775   3.9790   3.9849   3.9862   3.9884   3.9901
  3.9907   3.9938   4.0039   4.0065   4.0086   4.0104   4.0176   4.0224
  4.0279   4.0330   4.0428   4.2012   4.2044   4.2169   4.2200   4.2249
  4.2300   4.2363   4.2390   4.2391   4.2408   4.2430   4.2445   4.2488
  4.2522   4.2544   4.2575   4.2623   4.2644   4.2666   4.2691   4.2716
  4.2745   4.2787   4.2796   4.2811   4.2823   4.2866   4.2877   4.2934
  4.2947   4.3004   4.3007   4.3037   4.3047   4.3070   4.3082   4.3114
  4.3157   4.3179   4.3202   4.3238   4.3266   4.3289   4.3310   4.3338
  4.3354   4.3383   4.3395   4.3414   4.3447   4.3454   4.3468   4.3479
  4.3518   4.3537   4.3562   4.3610   4.3638   4.3657   4.3698   4.3730
  4.3778   4.3847   4.3928   4.3985   4.4035   4.4080   4.4124   4.4222
  4.4352   4.4395   4.4433   4.4493   4.4606   4.4652   4.4778   4.4852
  4.4973   4.5146   4.5277   4.5481   4.5598   4.5753   4.5987   4.6114
  4.6710   4.6941   4.7296   4.7810   4.9241
 --------------------------------------------------------------
 
          Ground-State Mulliken Net Atomic Charges

     Atom                 Charge (a.u.)
  ----------------------------------------
      1 C                    -0.076375
      2 C                    -0.106765
      3 C                    -0.748354
      4 C                    -0.276415
      5 C                    -0.513921
      6 C                    -0.516948
      7 H                     0.214506
      8 H                     0.230987
      9 H                     0.174871
     10 H                     0.245434
     11 H                     0.160689
     12 H                     0.203930
     13 H                     0.231585
     14 H                     0.188622
     15 H                     0.222048
     16 H                     0.197507
     17 H                     0.182966
     18 N                    -0.459485
     19 H                     0.487717
     20 C                     0.262838
     21 H                     0.184514
     22 O                    -0.489953
     23 C                    -0.696999
     24 H                     0.235379
     25 H                     0.260674
     26 H                     0.257780
     27 S                     0.659434
     28 C                    -0.847537
     29 H                     0.259139
     30 H                     0.254445
     31 H                     0.265542
     32 O                    -0.673304
     33 C                    -0.990076
     34 H                     0.208161
     35 H                     0.268689
     36 H                     0.257937
     37 S                     0.962060
     38 C                    -0.916783
     39 H                     0.246851
     40 H                     0.294514
     41 H                     0.284239
     42 O                    -0.640947
     43 C                    -0.829244
     44 H                     0.245714
     45 H                     0.254354
     46 H                     0.275896
     47 S                     0.855996
     48 C                    -0.809725
     49 H                     0.252606
     50 H                     0.231632
     51 H                     0.247573
     52 O                    -0.700701
     53 C                    -0.837217
     54 H                     0.325137
     55 H                     0.233365
     56 H                     0.238613
     57 S                     0.749103
     58 C                    -0.776776
     59 H                     0.242904
     60 H                     0.231812
     61 H                     0.250764
     62 O                    -0.702504
     63 C                    -0.826811
     64 H                     0.280611
     65 H                     0.224349
     66 H                     0.252406
     67 S                     1.043969
     68 C                    -0.910914
     69 H                     0.255320
     70 H                     0.224075
     71 H                     0.249782
     72 O                    -0.760832
     73 C                    -0.904663
     74 H                     0.280504
     75 H                     0.268621
     76 H                     0.255888
     77 S                     0.806922
     78 C                    -0.907523
     79 H                     0.257401
     80 H                     0.259801
     81 H                     0.263187
     82 O                    -0.695947
     83 C                    -0.791177
     84 H                     0.263709
     85 H                     0.238077
     86 H                     0.280474
     87 S                     0.941876
     88 C                    -0.909220
     89 H                     0.275238
     90 H                     0.228501
     91 H                     0.247521
     92 O                    -0.680367
     93 C                    -0.883140
     94 H                     0.279857
     95 H                     0.283364
     96 H                     0.240884
     97 S                     0.489783
     98 C                    -0.604775
     99 H                     0.228462
    100 H                     0.302891
    101 H                     0.259908
    102 O                    -0.618802
    103 C                    -0.770417
    104 H                     0.260503
    105 H                     0.249630
    106 H                     0.281869
    107 S                     0.648098
    108 C                    -0.803797
    109 H                     0.252176
    110 H                     0.258370
    111 H                     0.263515
    112 O                    -0.647286
    113 C                    -1.055759
    114 H                     0.242228
    115 H                     0.248520
    116 H                     0.258862
    117 S                     1.225131
    118 C                    -1.002291
    119 H                     0.275932
    120 H                     0.218481
    121 H                     0.311936
    122 O                    -0.680663
    123 C                    -0.874178
    124 H                     0.292827
    125 H                     0.258732
    126 H                     0.258873
    127 S                     0.845081
    128 C                    -0.896969
    129 H                     0.228117
    130 H                     0.244443
    131 H                     0.257025
    132 O                    -0.645075
    133 C                    -0.668483
    134 H                     0.233049
    135 H                     0.269258
    136 H                     0.272418
    137 S                     0.479975
    138 C                    -0.656691
    139 H                     0.218518
    140 H                     0.253281
    141 H                     0.314131
    142 O                    -0.722163
    143 C                    -0.894116
    144 H                     0.275075
    145 H                     0.289582
    146 H                     0.229976
    147 S                     1.094644
    148 C                    -0.923272
    149 H                     0.232343
    150 H                     0.255192
    151 H                     0.251625
    152 O                    -0.744818
    153 C                    -1.055387
    154 H                     0.269153
    155 H                     0.265451
    156 H                     0.222656
    157 S                     1.151040
    158 C                    -0.898235
    159 H                     0.208509
    160 H                     0.283512
    161 H                     0.272959
    162 O                    -0.732124
    163 C                    -0.869692
    164 H                     0.236547
    165 H                     0.257479
    166 H                     0.237484
    167 S                     1.000639
    168 C                    -0.784999
    169 H                     0.252876
    170 H                     0.225408
    171 H                     0.281963
    172 O                    -0.763353
    173 C                    -0.802042
    174 H                     0.194091
    175 H                     0.280634
    176 H                     0.255365
    177 S                     0.585606
    178 C                    -0.627973
    179 H                     0.240152
    180 H                     0.258743
    181 H                     0.245851
    182 O                    -0.691105
    183 C                    -0.730496
    184 H                     0.228664
    185 H                     0.295926
    186 H                     0.255383
    187 S                     0.749542
    188 C                    -0.843673
    189 H                     0.250906
    190 H                     0.264872
    191 H                     0.212438
    192 O                    -0.637928
    193 C                    -1.116787
    194 H                     0.245844
    195 H                     0.329586
    196 H                     0.259255
    197 S                     1.129166
    198 C                    -0.880946
    199 H                     0.222603
    200 H                     0.262379
    201 H                     0.267288
    202 O                    -0.732014
    203 C                    -0.548494
    204 H                     0.241095
    205 H                     0.316750
    206 H                     0.255155
    207 S                     0.453164
    208 C                    -0.769992
    209 H                     0.263849
    210 H                     0.243766
    211 H                     0.263701
    212 O                    -0.659542
    213 C                    -0.768855
    214 H                     0.249444
    215 H                     0.274097
    216 H                     0.266886
    217 S                     0.361897
    218 C                    -0.636935
    219 H                     0.234756
    220 H                     0.272375
    221 H                     0.263421
    222 O                    -0.569125
    223 C                    -0.991077
    224 H                     0.239886
    225 H                     0.245419
    226 H                     0.240215
    227 S                     1.213893
    228 C                    -0.857394
    229 H                     0.241464
    230 H                     0.247863
    231 H                     0.313985
    232 O                    -0.727125
    233 C                    -0.861690
    234 H                     0.242761
    235 H                     0.251307
    236 H                     0.248033
    237 S                     0.964322
    238 C                    -0.897226
    239 H                     0.269539
    240 H                     0.226592
    241 H                     0.246354
    242 O                    -0.696092
    243 C                    -0.741949
    244 H                     0.239509
    245 H                     0.256449
    246 H                     0.227858
    247 S                     0.754709
    248 C                    -0.869702
    249 H                     0.238103
    250 H                     0.267740
    251 H                     0.245086
    252 O                    -0.638212
    253 C                    -0.796872
    254 H                     0.220729
    255 H                     0.239160
    256 H                     0.254538
    257 S                     0.901638
    258 C                    -0.828961
    259 H                     0.248845
    260 H                     0.274973
    261 H                     0.266788
    262 O                    -0.707120
    263 C                    -1.144565
    264 H                     0.279188
    265 H                     0.244029
    266 H                     0.272024
    267 S                     0.938664
    268 C                    -0.880040
    269 H                     0.250823
    270 H                     0.286540
    271 H                     0.233166
    272 O                    -0.632521
    273 C                    -0.959761
    274 H                     0.257679
    275 H                     0.241593
    276 H                     0.241538
    277 S                     1.185216
    278 C                    -0.951273
    279 H                     0.239500
    280 H                     0.250550
    281 H                     0.266872
    282 O                    -0.694665
    283 C                    -0.864018
    284 H                     0.294311
    285 H                     0.255420
    286 H                     0.223302
    287 S                     0.595755
    288 C                    -0.690875
    289 H                     0.260863
    290 H                     0.302456
    291 H                     0.218282
    292 O                    -0.756162
  ----------------------------------------
  Sum of atomic charges =     0.000000

 -----------------------------------------------------------------
                    Cartesian Multipole Moments
 -----------------------------------------------------------------
    Charge (ESU x 10^10)
                -0.0000
    Dipole Moment (Debye)
         X       4.8083      Y      23.6323      Z     -22.0829
       Tot      32.6995
    Quadrupole Moments (Debye-Ang)
        XX    -698.9517     XY     467.6196     YY    -438.1366
        XZ    -382.9414     YZ     261.1846     ZZ   -2124.9062
    Octopole Moments (Debye-Ang^2)
       XXX  -54223.4924    XXY   -3697.9063    XYY  -12058.1769
       YYY  -32290.9663    XXZ  -31033.8853    XYZ    4030.0914
       YYZ  -19836.7202    XZZ  -45584.1974    YZZ  -16869.5078
       ZZZ -127469.2514
    Hexadecapole Moments (Debye-Ang^3)
      XXXX ************   XXXY -708628.7816   XXYY -543885.2233
      XYYY -793049.7373   YYYY ************   XXXZ ************
      XXYZ -302555.7743   XYYZ -504476.3558   YYYZ ************
      XXZZ ************   XYZZ -442564.0657   YYZZ -989551.0257
      XZZZ ************   YZZZ ************   ZZZZ ************
 -----------------------------------------------------------------
Archival summary:
[...]
    2   0.0069430   0.0194862  -0.0207977   0.0352046  -0.0334926  -0.0046687
    3  -0.0075273   0.0022412  -0.0238135   0.0033654   0.0208392   0.0021205
          139         140         141         142         143         144
    1   0.0153227  -0.0141148  -0.0188689  -0.0490578  -0.0048869  -0.0083074
    2  -0.0217194  -0.0104625   0.0160729   0.0759064  -0.0036445   0.0197459
    3  -0.0235946   0.0351479  -0.0052907   0.0638164   0.0041572   0.0244486
          145         146         147         148         149         150
    1  -0.0282945   0.0056236  -0.0059625   0.0017816   0.0196044   0.0251341
    2  -0.0079639  -0.0350453  -0.0138572   0.0006540  -0.0276546   0.0152687
    3  -0.0112100   0.0092039  -0.0601309   0.0058245  -0.0078291  -0.0118024
          151         152         153         154         155         156
    1   0.0077657  -0.0143824  -0.0027664  -0.0261100   0.0207879   0.0119062
    2  -0.0050773   0.1022212   0.0070766   0.0236624   0.0116133   0.0091346
    3   0.0372862   0.0378021   0.0023890   0.0116976   0.0167984  -0.0296164
          157         158         159         160         161         162
    1  -0.0239845  -0.0025615  -0.0230751   0.0148227   0.0043002   0.1056826
    2  -0.0253490   0.0006385   0.0236519  -0.0315535   0.0222251  -0.0164568
    3  -0.0469094   0.0108171  -0.0065085   0.0101263   0.0254097   0.0283914
          163         164         165         166         167         168
    1  -0.0053432  -0.0193767  -0.0191383  -0.0034815   0.0343917   0.0028672
    2   0.0003113   0.0226510  -0.0257190   0.0205400  -0.0173828   0.0049510
    3   0.0016910  -0.0117259  -0.0014710   0.0310160   0.0416665  -0.0025822
          169         170         171         172         173         174
    1  -0.0182341  -0.0036702   0.0301219  -0.0200959  -0.0057256  -0.0049323
    2   0.0140962   0.0340709   0.0073837  -0.0497817  -0.0076018  -0.0052490
    3  -0.0209501   0.0148221  -0.0078192  -0.0926846   0.0039835   0.0264911
          175         176         177         178         179         180
    1  -0.0257299   0.0092649   0.0507023  -0.0041871  -0.0289777  -0.0092107
    2  -0.0169663  -0.0304051   0.0121617   0.0043308  -0.0104994  -0.0022366
    3  -0.0055080  -0.0056669   0.0217809   0.0041792  -0.0013925   0.0332496
          181         182         183         184         185         186
    1   0.0005669  -0.0231339   0.0089538  -0.0145861   0.0246970   0.0216643
    2   0.0285495  -0.0012944   0.0105016   0.0139993   0.0301106  -0.0128556
    3  -0.0159568  -0.1073764   0.0026932  -0.0219566   0.0101095  -0.0154132
          187         188         189         190         191         192
    1  -0.0233099  -0.0025352  -0.0233581   0.0045007  -0.0112649   0.0466609
    2  -0.0499181   0.0019514  -0.0084403   0.0246471   0.0138419  -0.0207699
    3  -0.0388187   0.0026759   0.0244861   0.0210643  -0.0258926   0.0951226
          193         194         195         196         197         198
    1   0.0024996  -0.0215400   0.0102892   0.0304619   0.0437972  -0.0013324
    2   0.0110710   0.0172338  -0.0163808   0.0229543  -0.0227735   0.0061973
    3   0.0087223   0.0069660   0.0262649   0.0082081  -0.0119445  -0.0029535
          199         200         201         202         203         204
    1   0.0218636  -0.0253615  -0.0199943  -0.0938763  -0.0020493  -0.0095654
    2   0.0202470  -0.0091907   0.0218507  -0.0475568   0.0064447  -0.0082728
    3  -0.0226582  -0.0199195  -0.0023356   0.0288055   0.0053902   0.0361698
          205         206         207         208         209         210
    1   0.0196233  -0.0259469  -0.0545631   0.0094431   0.0326691  -0.0124544
    2   0.0010541   0.0170714  -0.0231048  -0.0045841   0.0059942  -0.0207308
    3  -0.0210762  -0.0033770   0.0125749  -0.0019271  -0.0010926   0.0223767
          211         212         213         214         215         216
    1   0.0254249   0.0319158   0.0033084  -0.0030228   0.0269125  -0.0205254
    2  -0.0324557   0.0347001  -0.0057841  -0.0145975  -0.0095938  -0.0275381
    3  -0.0138307  -0.1005198   0.0020384  -0.0301155   0.0094701   0.0046694
          217         218         219         220         221         222
    1  -0.0569764   0.0037883  -0.0057366   0.0100810   0.0329447   0.0604086
    2   0.0129387   0.0036564  -0.0012045   0.0275031  -0.0028817   0.0313283
    3  -0.0032972  -0.0035174  -0.0362306   0.0081212  -0.0136835   0.0858748
          223         224         225         226         227         228
    1  -0.0063412   0.0133255  -0.0109006  -0.0196161   0.0428756   0.0036019
    2   0.0027790   0.0282515   0.0101063  -0.0157320  -0.0008502   0.0033914
    3   0.0033291  -0.0002874  -0.0304138   0.0271236   0.0305083  -0.0111577
          229         230         231         232         233         234
    1  -0.0078841   0.0235678   0.0038494  -0.0614151  -0.0019200  -0.0299122
    2   0.0257095   0.0169829  -0.0247326  -0.0869572  -0.0058127  -0.0075756
    3  -0.0074677  -0.0058162  -0.0181264  -0.0292914   0.0041334  -0.0142140
          235         236         237         238         239         240
    1   0.0243865  -0.0067386  -0.0348894   0.0020106   0.0245380  -0.0190283
    2  -0.0195602   0.0051711   0.0406273  -0.0020265  -0.0136832  -0.0260381
    3   0.0082816   0.0300927  -0.0082052  -0.0063883   0.0012389  -0.0088939
          241         242         243         244         245         246
    1   0.0089733   0.1054834  -0.0061927  -0.0050743  -0.0235767  -0.0108551
    2   0.0147061   0.0154335  -0.0009192   0.0313610  -0.0171015  -0.0027450
    3  -0.0301435   0.0313513   0.0010684  -0.0081196  -0.0142664   0.0285202
          247         248         249         250         251         252
    1   0.0397012  -0.0012078   0.0063127   0.0267773  -0.0254231   0.0053746
    2   0.0379975  -0.0036901   0.0287583  -0.0111837  -0.0151063  -0.1080994
    3   0.0247888  -0.0076130  -0.0133325  -0.0167609  -0.0170049   0.0259073
          253         254         255         256         257         258
    1  -0.0057533  -0.0019256  -0.0244489   0.0039186   0.0475216  -0.0055503
    2  -0.0019912  -0.0155310  -0.0061115   0.0295448  -0.0048619  -0.0089356
    3  -0.0043291  -0.0318478   0.0149310  -0.0008391  -0.0242499   0.0028218
          259         260         261         262         263         264
    1  -0.0223744  -0.0035560   0.0175494  -0.0205930   0.0037347   0.0317723
    2   0.0057521  -0.0259138  -0.0142534   0.0757822  -0.0008839  -0.0003194
    3   0.0124929  -0.0204284   0.0215356   0.0782301  -0.0079902   0.0001666
          265         266         267         268         269         270
    1  -0.0081417   0.0016584  -0.0524797   0.0047239  -0.0057753   0.0301062
    2  -0.0232432   0.0262185   0.0230092   0.0042646   0.0197172  -0.0070686
    3  -0.0183053  -0.0265281  -0.0131968   0.0019933   0.0290809  -0.0027280
          271         272         273         274         275         276
    1  -0.0047433   0.0198208   0.0061846  -0.0048098  -0.0069730   0.0319532
    2   0.0348256  -0.0874993  -0.0056129  -0.0082955  -0.0293840   0.0140547
    3  -0.0118550   0.0619909  -0.0004255   0.0302875  -0.0117650   0.0030367
          277         278         279         280         281         282
    1  -0.0175314  -0.0095975   0.0143468  -0.0199793  -0.0298368   0.0408682
    2   0.0373935  -0.0007956  -0.0224243  -0.0163720   0.0156844   0.0250570
    3   0.0376996  -0.0034390  -0.0166370   0.0245973  -0.0029876  -0.0991408
          283         284         285         286         287         288
    1   0.0050662   0.0138347   0.0078151   0.0068741  -0.0074938  -0.0087112
    2   0.0024209  -0.0107148  -0.0120208   0.0291986  -0.0470985   0.0043119
    3   0.0030883   0.0295190  -0.0293431   0.0145362  -0.0319516   0.0011557
          289         290         291         292
    1  -0.0144991  -0.0299753   0.0098464  -0.0033030
    2   0.0016845   0.0031543   0.0256460  -0.0021797
    3  -0.0300660   0.0044789   0.0061976   0.1226065
  --- DONE ESP SUMMARY ---
Archival summary:
1\1\n0099.mhg0\SP\ProcedureUnspecified\6-31+G*\272754h22\ymao\FriMar1212:36:292021FriMar1212:36:292021\0\\#,ProcedureUnspecified,6-31+G*,\\0,1\S\O,1,1.49744\C,1,1.80653,2,104.328\H,3,1.09329,1,107.476,2,176.162,0\H,3,1.09342,1,110.704,2,55.3715,0\H,3,1.09366,1,100.501,2,-61.121,0\C,1,1.80721,2,109.558,3,104.313,0\H,7,1.09241,1,105.386,2,63.0353,0\H,7,1.09286,1,105.972,2,177.944,0\H,7,1.09297,1,109.562,2,-57.1095,0\Gh,4,1.94915,3,119.909,1,31.0501,0\Gh,11,1.09701,4,154.568,3,172.165,0\Gh,12,1.09574,11,104.297,4,42.9232,0\Gh,12,1.5375,11,106.837,4,162.063,0\Gh,14,1.09687,12,115.156,11,-58.7859,0\Gh,14,1.09708,12,106.458,11,-179.963,0\Gh,14,1.53701,12,109.878,11,65.5245,0\Gh,17,1.09688,14,104.266,12,-69.9121,0\Gh,17,1.46192,14,114.687,12,179.449,0\Gh,19,1.0127,17,120.671,14,-29.3469,0\Gh,19,1.37898,17,124.741,14,143.67,0\Gh,21,1.10567,19,117.02,17,-154.922,0\Gh,21,1.21811,19,119.278,17,32.8161,0\Gh,17,1.53793,14,118.201,12,46.9662,0\Gh,24,1.09665,17,112.318,14,-163.919,0\Gh,24,1.09706,17,117.447,14,76.6559,0\Gh,24,1.53727,17,113.802,14,-44.0074,0\Gh,27,1.09664,24,109.367,17,-73.0018,0\Gh,27,1.09676,24,108.819,17,170.696,0\Gh,27,1.53712,24,111.856,17,42.55,0\Gh,30,1.09682,27,106.553,24,-169.538,0\Gh,30,1.09693,27,116.346,24,71.3878,0\O,20,1.80848,19,165.456,17,-140.12,0\S,33,1.49728,20,132.843,19,-162.609,0\C,34,1.80646,33,104.22,20,-27.5281,0\H,35,1.09245,34,112.224,33,165.886,0\H,35,1.09335,34,105.736,33,-78.7895,0\H,35,1.09372,34,110.448,33,47.3306,0\C,34,1.80687,33,103.756,20,-129.153,0\H,39,1.09238,34,112.582,33,67.7138,0\H,39,1.09288,34,106.868,33,-166.381,0\H,39,1.09314,34,100.65,33,-47.5849,0\H,36,2.07419,35,125.358,34,128.113,0\C,43,1.09314,36,139.506,35,-158.386,0\H,44,1.09288,43,109.103,36,151.428,0\H,44,1.09312,43,110.617,36,27.4067,0\S,44,1.80753,43,104.277,36,-89.7209,0\O,47,1.4972,44,107.128,43,62.9923,0\C,47,1.80746,44,97.4222,43,173.902,0\H,49,1.09273,47,103.563,44,-163.085,0\H,49,1.09287,47,106.683,44,-50.5877,0\H,49,1.09318,47,111.518,44,70.8846,0\H,6,2.19921,3,137.928,1,-3.21944,0\C,53,1.09289,6,137.413,3,-32.9756,0\H,54,1.09272,53,111.82,6,43.7652,0\H,54,1.09364,53,115.629,6,-76.0063,0\S,54,1.80772,53,105.237,6,168.462,0\O,57,1.49684,54,102.679,53,91.8268,0\C,57,1.80637,54,96.5529,53,-166.144,0\H,59,1.09248,57,111.398,54,-172.217,0\H,59,1.09313,57,113.366,54,72.7188,0\H,59,1.09355,57,106.784,54,-55.1759,0\H,16,2.287,14,150.281,12,-125.693,0\C,63,1.09284,16,115.381,14,93.7652,0\H,64,1.09274,63,112.13,16,-87.9564,0\H,64,1.09333,63,112.456,16,35.3489,0\S,64,1.80691,63,105.707,16,150.81,0\O,67,1.49651,64,102.223,63,79.9418,0\C,67,1.80732,64,94.3471,63,-173.088,0\H,69,1.09235,67,105.205,64,-66.0918,0\H,69,1.09268,67,107.44,64,52.5446,0\H,69,1.09301,67,104.103,64,172.546,0\H,42,2.30807,39,160.296,34,177.398,0\C,73,1.0922,42,95.1879,39,162.338,0\H,74,1.09316,73,109.529,42,157.546,0\H,74,1.09329,73,115.198,42,33.2288,0\S,74,1.80686,73,101.781,42,-89.8776,0\O,77,1.49603,74,105.354,73,75.7529,0\C,77,1.80754,74,86.4707,73,-179.716,0\H,79,1.09266,77,109.574,74,70.0689,0\H,79,1.09273,77,106.58,74,-175.39,0\H,79,1.09325,77,111.045,74,-51.8902,0\H,82,1.99893,79,169.57,77,-67.5925,0\C,83,1.09307,82,155.613,79,-64.3573,0\H,84,1.09276,83,107.61,82,-95.2704,0\H,84,1.09308,83,104.963,82,143.428,0\S,84,1.80676,83,104.816,82,26.6179,0\O,87,1.49703,84,99.9587,83,-60.5546,0\C,87,1.80659,84,97.9749,83,41.3546,0\H,89,1.09247,87,100.917,84,-155.278,0\H,89,1.09308,87,103.484,84,92.6667,0\H,89,1.09345,87,112.125,84,-27.7284,0\H,85,2.11847,84,111.02,83,33.8694,0\C,93,1.09258,85,153.503,84,46.0658,0\H,94,1.0927,93,110.222,85,18.6348,0\H,94,1.09286,93,112.957,85,-103.398,0\S,94,1.80778,93,105.031,85,140.949,0\O,97,1.4966,94,103.202,93,-144.932,0\C,97,1.80714,94,92.7853,93,110.276,0\H,99,1.09274,97,102.14,94,156.616,0\H,99,1.09317,97,113.479,94,50.2334,0\H,99,1.09327,97,115.042,94,-88.3331,0\H,61,2.33452,59,145.636,57,-110.867,0\C,103,1.09329,61,111.109,59,111.145,0\H,104,1.0935,103,108.874,61,14.3255,0\H,104,1.0935,103,118.894,61,-100.928,0\S,104,1.80642,103,114.87,61,127.761,0\O,107,1.49669,104,102.881,103,-54.6779,0\C,107,1.80656,104,97.1662,103,56.2868,0\H,109,1.09282,107,117.877,104,177.539,0\H,109,1.0932,107,103.94,104,52.518,0\H,109,1.09343,107,98.1997,104,-63.5278,0\H,61,2.35041,59,91.8435,57,-163.154,0\C,113,1.09345,61,137.95,59,-90.8994,0\H,114,1.09305,113,105.378,61,140.674,0\H,114,1.09315,113,101.991,61,27.7778,0\S,114,1.80634,113,117.698,61,-94.0992,0\O,117,1.49763,114,99.8499,113,-42.3307,0\C,117,1.80637,114,96.7229,113,67.0601,0\H,119,1.09285,117,106.673,114,-36.3183,0\H,119,1.09312,117,116.422,114,84.9266,0\H,119,1.09324,117,96.2158,114,-152.185,0\H,33,2.42975,20,77.6229,19,22.3396,0\C,123,1.09285,33,176.405,20,98.9656,0\H,124,1.09357,123,114.57,33,-62.1478,0\H,124,1.09361,123,103.983,33,64.1355,0\S,124,1.8073,123,111.068,33,178.349,0\O,127,1.49723,124,101.318,123,-80.3551,0\C,127,1.80695,124,90.5745,123,177.037,0\H,129,1.0926,127,110.132,124,59.3945,0\H,129,1.09276,127,107.337,124,-58.2441,0\H,129,1.09292,127,106.187,124,178.839,0\H,88,2.4321,87,101.535,84,-74.5611,0\C,133,1.09333,88,132.039,87,-126.237,0\H,134,1.0934,133,104.873,88,0.499931,0\H,134,1.09353,133,106.981,88,-122.678,0\S,134,1.80633,133,113.156,88,123.058,0\O,137,1.49781,134,109.116,133,-172.706,0\C,137,1.80723,134,95.6352,133,-59.1355,0\H,139,1.09271,137,107.985,134,-174.446,0\H,139,1.09277,137,113.207,134,61.7426,0\H,139,1.09324,137,108.039,134,-56.3807,0\O,111,2.43363,109,148.69,107,87.3586,0\S,143,1.49699,111,101.5,109,83.1402,0\C,144,1.806,143,108.224,111,-68.0434,0\H,145,1.09233,144,101.766,143,95.3486,0\H,145,1.09312,144,107.459,143,-140.317,0\H,145,1.09366,144,106.713,143,-19.1106,0\C,144,1.8066,143,99.3738,111,-171.224,0\H,149,1.09271,144,102.502,143,64.6904,0\H,149,1.09282,144,108.444,143,-54.2749,0\H,149,1.09327,144,106.268,143,-169.955,0\H,148,2.20576,145,131.067,144,-12.0944,0\C,153,1.09235,148,115.097,145,171.219,0\H,154,1.09316,153,108.328,148,45.6793,0\H,154,1.09331,153,111.383,148,-81.0811,0\S,154,1.80662,153,105.644,148,166.239,0\O,157,1.49737,154,105.999,153,-71.3967,0\C,157,1.80746,154,87.9382,153,-177.923,0\H,159,1.09248,157,111.553,154,-83.6501,0\H,159,1.09262,157,109.606,154,151.028,0\H,159,1.09295,157,107.604,154,42.7345,0\H,131,2.45266,129,108.852,127,148.708,0\C,163,1.09265,131,160.253,129,-39.2874,0\H,164,1.09333,163,104.474,131,29.75,0\H,164,1.09358,163,113.039,131,147.706,0\S,164,1.80695,163,110.387,131,-87.6421,0\O,167,1.49677,164,109.433,163,-41.7946,0\C,167,1.80731,164,91.7574,163,57.8006,0\H,169,1.09213,167,112.779,164,40.6895,0\H,169,1.09332,167,104.897,164,153.839,0\H,169,1.09357,167,105.01,164,-88.1642,0\H,10,2.45654,7,110.088,1,-159.132,0\C,173,1.09306,10,112.78,7,-151.696,0\H,174,1.09303,173,107.414,10,161.179,0\H,174,1.09331,173,108.448,10,41.5943,0\S,174,1.8066,173,111.322,10,-82.5906,0\O,177,1.49746,174,98.9501,173,55.5741,0\C,177,1.80638,174,99.3379,173,166.483,0\H,179,1.09287,177,104.576,174,-162.53,0\H,179,1.09318,177,105.821,174,-45.1099,0\H,179,1.09363,177,101.496,174,75.1982,0\O,173,2.34222,10,93.9837,7,22.9888,0\S,183,1.49639,173,137.349,10,-135.616,0\C,184,1.8068,183,110.08,173,-84.8945,0\H,185,1.09299,184,98.8338,183,-33.0612,0\H,185,1.09323,184,113.967,183,80.4855,0\H,185,1.09357,184,114.949,183,-145.412,0\C,184,1.80681,183,106.884,173,175.853,0\H,189,1.09273,184,108.942,183,49.0613,0\H,189,1.09276,184,104.123,183,-74.9551,0\H,189,1.0935,184,106.858,183,171.806,0\O,186,2.28527,185,140.937,184,-179.572,0\S,193,1.49715,186,108.618,185,-164.698,0\C,194,1.80676,193,108.238,186,5.78824,0\H,195,1.09207,194,107.026,193,-166.312,0\H,195,1.0926,194,110.311,193,-48.674,0\H,195,1.09395,194,104.319,193,75.651,0\C,194,1.80688,193,104.384,186,-96.4663,0\H,199,1.0928,194,111.064,193,54.1945,0\H,199,1.09323,194,105.834,193,-66.4247,0\H,199,1.09328,194,108.005,193,-178.975,0\H,196,2.02416,195,130.843,194,-27.3984,0\C,203,1.0933,196,112.016,195,167.233,0\H,204,1.09331,203,111.428,196,124.482,0\H,204,1.09346,203,103.507,196,-120.499,0\S,204,1.80613,203,114.969,196,1.32354,0\O,207,1.49703,204,102.153,203,-62.837,0\C,207,1.80719,204,96.4885,203,-160.986,0\H,209,1.0929,207,112.739,204,-162.562,0\H,209,1.09298,207,105.324,204,-49.9244,0\H,209,1.09329,207,110.781,204,62.1494,0\H,29,2.46044,27,130.256,24,140.952,0\C,213,1.09263,29,130.707,27,-94.785,0\H,214,1.09321,213,114.32,29,157.116,0\H,214,1.09325,213,106.714,29,-78.2229,0\S,214,1.8061,213,110.091,29,35.8319,0\O,217,1.4968,214,101.16,213,94.8794,0\C,217,1.80715,214,96.2092,213,-153.548,0\H,219,1.09245,217,106.548,214,-52.3418,0\H,219,1.09263,217,111.969,214,72.8772,0\H,219,1.09374,217,111.951,214,-174.347,0\H,221,1.95289,219,148.114,217,86.5336,0\C,223,1.09253,221,109.2,219,-49.1219,0\H,224,1.09305,223,114.06,221,0.410879,0\H,224,1.0935,223,118.307,221,-130.951,0\S,224,1.80741,223,104.274,221,113.109,0\O,227,1.49704,224,100.517,223,159.979,0\C,227,1.80677,224,94.7802,223,52.9205,0\H,229,1.09258,227,105.062,224,-87.0321,0\H,229,1.09334,227,108.722,224,159.978,0\H,229,1.09355,227,107.679,224,39.1981,0\H,5,2.54281,3,103.774,1,-82.982,0\C,233,1.09238,5,112.092,3,-137.783,0\H,234,1.09289,233,109.024,5,-123.134,0\H,234,1.09334,233,114.687,5,115.21,0\S,234,1.8075,233,108.913,5,-10.561,0\O,237,1.49706,234,105.055,233,102.554,0\C,237,1.80696,234,96.3365,233,-150.019,0\H,239,1.09287,237,109.64,234,-155.813,0\H,239,1.09335,237,97.8273,234,-45.2915,0\H,239,1.09362,237,105.521,234,71.0024,0\H,32,2.60291,30,131.726,27,77.9235,0\C,243,1.09287,32,108.542,30,-40.6648,0\H,244,1.09307,243,107.95,32,37.8914,0\H,244,1.09328,243,107.313,32,-78.7529,0\S,244,1.80669,243,120.227,32,166.821,0\O,247,1.49667,244,102.19,243,174.099,0\C,247,1.80761,244,95.8575,243,61.5312,0\H,249,1.09254,247,106.967,244,-166.183,0\H,249,1.09309,247,109.909,244,-55.3732,0\H,249,1.09315,247,110.707,244,74.6865,0\H,243,2.19113,32,103.735,30,58.0533,0\C,253,1.09329,243,132.141,32,35.5156,0\H,254,1.09211,253,111.32,243,-111.583,0\H,254,1.09392,253,109.93,243,7.1887,0\S,254,1.80738,253,109.884,243,129.27,0\O,257,1.49739,254,104.142,253,48.4822,0\C,257,1.80694,254,100.58,253,-52.8771,0\H,259,1.09251,257,109.525,254,34.8922,0\H,259,1.0928,257,104.8,254,-79.4648,0\H,259,1.09346,257,110.249,254,159.78,0\H,251,2.24336,249,166.563,247,-115.271,0\C,263,1.09285,251,140.027,249,-127.757,0\H,264,1.09309,263,107.272,251,47.1552,0\H,264,1.09316,263,109.699,251,171.087,0\S,264,1.80672,263,103.442,251,-67.8326,0\O,267,1.49672,264,106.291,263,-22.0353,0\C,267,1.80717,264,97.7496,263,-124.877,0\H,269,1.09278,267,101.971,264,-71.1002,0\H,269,1.09335,267,110.54,264,45.6473,0\H,269,1.09348,267,108.294,264,172.634,0\H,255,2.31802,254,118.654,253,-59.1323,0\C,273,1.09289,255,123.681,254,97.0838,0\H,274,1.09278,273,113.268,255,35.9247,0\H,274,1.09294,273,106.433,255,-81.0282,0\S,274,1.80705,273,115.768,255,160.957,0\O,277,1.49683,274,104.924,273,-175.506,0\C,277,1.80736,274,97.4786,273,-65.8435,0\H,279,1.0923,277,104.858,274,68.0869,0\H,279,1.09321,277,117.737,274,-46.4825,0\H,279,1.09374,277,103.43,274,-170.504,0\H,278,2.45025,277,168.477,274,154.962,0\C,283,1.09266,278,128.719,277,-146.097,0\H,284,1.09238,283,114.978,278,78.7694,0\H,284,1.09332,283,106.444,278,-159.982,0\S,284,1.80722,283,113.154,278,-46.6086,0\O,287,1.49712,284,103.95,283,-177.689,0\C,287,1.80661,284,94.5568,283,-81.3845,0\H,289,1.09227,287,105.885,284,63.9428,0\H,289,1.09294,287,106.401,284,175.19,0\H,289,1.09331,287,107.064,284,-67.8207,0\\\@

 Total job time:  69.70s(wall), 244.00s(cpu) 
 Fri Mar 12 12:36:29 2021

        *************************************************************
        *                                                           *
        *  Thank you very much for using Q-Chem.  Have a nice day.  *
        *                                                           *
        *************************************************************


