                  Welcome to Q-Chem
     A Quantum Leap Into The Future Of Chemistry


 Q-Chem 6.0 (devel), Q-Chem, Inc., Pleasanton, CA (2022)

 E. Epifanovsky,  A. T. B. Gilbert,  Xintian Feng,  Joonho Lee,  Yuezhi Mao,  
 N. Mardirossian,  P. Pokhilko,  A. White,  M. Wormit,  M. P. Coons,  
 A. L. Dempwolff,  Zhengting Gan,  D. Hait,  P. R. Horn,  L. D. Jacobson,  
 I. Kaliman,  J. Kussmann,  A. W. Lange,  Ka Un Lao,  D. S. Levine,  Jie Liu,  
 S. C. McKenzie,  A. F. Morrison,  K. Nanda,  F. Plasser,  D. R. Rehn,  
 M. L. Vidal,  Zhi-Qiang You,  Ying Zhu,  B. Alam,  B. Albrecht,  
 A. Aldossary,  E. Alguire,  J. H. Andersen,  V. Athavale,  D. Barton,  
 K. Begam,  A. Behn,  N. Bellonzi,  Y. A. Bernard,  E. J. Berquist,  
 H. Burton,  A. Carreras,  K. Carter-Fenk,  Romit Chakraborty,  
 Chandrima Chakravarty,  Junhan Chen,  A. D. Chien,  K. D. Closser,  
 V. Cofer-Shabica,  L. Cunha,  S. Dasgupta,  Jia Deng,  M. de Wergifosse,  
 M. Diedenhofen,  Hainam Do,  S. Ehlert,  Po-Tung Fang,  S. Fatehi,  
 Qingguo Feng,  T. Friedhoff,  B. Ganoe,  J. Gayvert,  Qinghui Ge,  
 G. Gidofalvi,  M. Goldey,  J. Gomes,  C. Gonzalez-Espinoza,  S. Gulania,  
 A. Gunina,  J. A. Gyamfi,  M. W. D. Hanson-Heine,  P. H. P. Harbach,  
 A. W. Hauser,  M. F. Herbst,  M. Hernandez Vera,  M. Hodecker,  
 Z. C. Holden,  S. Houck,  Xunkun Huang,  Kerwin Hui,  B. C. Huynh,  
 K. Ikeda,  M. Ivanov,  Hyunjun Ji,  Zuxin Jin,  Hanjie Jiang,  B. Kaduk,  
 S. Kaehler,  R. Kang,  K. Khistyaev,  Jaehoon Kim,  Yongbin Kim,  
 P. Klunzinger,  Z. Koczor-Benda,  Joong Hoon Koh,  D. Kosenkov,  
 Saikiran Kotaru,  L. Koulias,  T. Kowalczyk,  C. M. Krauter,  K. Kue,  
 A. Kunitsa,  T. Kus,  A. Landau,  K. V. Lawler,  D. Lefrancois,  S. Lehtola,  
 Rain Li,  Shaozhi Li,  Yi-Pei Li,  Jiashu Liang,  M. Liebenthal,  
 Hung-Hsuan Lin,  You-Sheng Lin,  Fenglai Liu,  Kuan-Yu Liu,  
 M. Loipersberger,  A. Luenser,  C. Malbon,  A. Manjanath,  P. Manohar,  
 E. Mansoor,  S. F. Manzer,  Shan-Ping Mao,  A. V. Marenich,  T. Markovich,  
 S. Mason,  F. Matz,  S. A. Maurer,  P. F. McLaughlin,  M. F. S. J. Menger,  
 J.-M. Mewes,  S. A. Mewes,  P. Morgante,  Mohammad Mostafanejad,  
 J. W. Mullinax,  K. J. Oosterbaan,  G. Paran,  V. Parravicini,  
 Alexander C. Paul,  Suranjan K. Paul,  F. Pavosevic,  Zheng Pei,  S. Prager,  
 E. I. Proynov,  E. Ramos,  B. Rana,  A. E. Rask,  A. Rettig,  R. M. Richard,  
 F. Rob,  E. Rossomme,  T. Scheele,  M. Scheurer,  M. Schneider,  
 P. E. Schneider,  N. Sergueev,  S. M. Sharada,  Hengyuan Shen,  
 W. Skomorowski,  D. W. Small,  C. J. Stein,  Yingli Su,  Yu-Chuan Su,  
 E. J. Sundstrom,  Zhen Tao,  J. Thirman,  Hung-Yi Tsai,  T. Tsuchimochi,  
 N. M. Tubman,  C. Utku,  S. P. Veccham,  O. Vydrov,  J. Wenzel,  
 Jonathan Wong,  J. Witte,  A. Yamada,  Chou-Hsun Yang,  Kun Yao,  
 S. Yeganeh,  S. R. Yost,  A. Zech,  F. Zeller,  Igor Ying Zhang,  
 Xing Zhang,  Yu Zhang,  D. Zuev,  A. Aspuru-Guzik,  A. T. Bell,  
 N. A. Besley,  K. B. Bravaya,  B. R. Brooks,  D. Casanova,  Jeng-Da Chai,  
 Hsing-Ta Chen,  S. Coriani,  C. J. Cramer,  A. E. DePrince, III,  
 R. A. DiStasio Jr.,  A. Dreuw,  B. D. Dunietz,  T. R. Furlani,  
 W. A. Goddard III,  S. Grimme,  S. Hammes-Schiffer,  T. Head-Gordon,  
 W. J. Hehre,  Chao-Ping Hsu,  T.-C. Jagau,  Yousung Jung,  A. Klamt,  
 Jing Kong,  D. S. Lambrecht,  Xiangyuan Li,  WanZhen Liang,  N. J. Mayhall,  
 C. W. McCurdy,  J. B. Neaton,  T. Neudecker,  C. Ochsenfeld,  
 J. A. Parkhill,  R. Peverati,  V. A. Rassolov,  Haisheng Ren,  Yihan Shao,  
 L. V. Slipchenko,  R. P. Steele,  J. E. Subotnik,  A. J. W. Thom,  
 A. Tkatchenko,  D. G. Truhlar,  T. Van Voorhis,  Fan Wang,  
 T. A. Wesolowski,  K. B. Whaley,  H. L. Woodcock III,  P. M. Zimmerman,  
 S. Faraji,  P. M. W. Gill,  M. Head-Gordon,  J. M. Herbert,  A. I. Krylov

 Contributors to earlier versions of Q-Chem not listed above: 
 R. D. Adamson,  B. Austin,  R. Baer,  J. Baker,  G. J. O. Beran,  
 K. Brandhorst,  S. T. Brown,  E. F. C. Byrd,  Arup K. Chakraborty,  
 G. K. L. Chan,  Chun-Min Chang,  Yunqing Chen,  C.-L. Cheng,  
 Siu Hung Chien,  D. M. Chipman,  D. L. Crittenden,  H. Dachsel,  
 R. J. Doerksen,  A. D. Dutoi,  R. G. Edgar,  J. Fosso-Tande,  
 L. Fusti-Molnar,  D. Ghosh,  A. Ghysels,  A. Golubeva-Zadorozhnaya,  
 J. Gonthier,  M. S. Gordon,  S. R. Gwaltney,  G. Hawkins,  J. E. Herr,  
 A. Heyden,  S. Hirata,  E. G. Hohenstein,  G. Kedziora,  F. J. Keil,  
 C. Kelley,  Jihan Kim,  R. A. King,  R. Z. Khaliullin,  P. P. Korambath,  
 W. Kurlancheek,  A. Laurent,  A. M. Lee,  M. S. Lee,  S. V. Levchenko,  
 Ching Yeh Lin,  D. Liotard,  E. Livshits,  R. C. Lochan,  I. Lotan,  
 L. A. Martinez-Martinez,  P. E. Maslen,  N. Nair,  D. P. O'Neill,  
 D. Neuhauser,  E. Neuscamman,  C. M. Oana,  R. Olivares-Amaya,  R. Olson,  
 T. M. Perrine,  B. Peters,  P. A. Pieniazek,  A. Prociuk,  Y. M. Rhee,  
 J. Ritchie,  M. A. Rohrdanz,  E. Rosta,  N. J. Russ,  H. F. Schaefer III,  
 M. W. Schmidt,  N. E. Schultz,  S. Sharma,  N. Shenvi,  C. D. Sherrill,  
 A. C. Simmonett,  A. Sodt,  T. Stein,  D. Stuck,  K. S. Thanthiriwatte,  
 V. Vanovschi,  L. Vogt,  Tao Wang,  A. Warshel,  M. A. Watson,  
 C. F. Williams,  Q. Wu,  X. Xu,  Jun Yang,  W. Zhang,  Yan Zhao

   Please cite Q-Chem as follows:
  "Software for the frontiers of quantum chemistry:
   An overview of developments in the Q-Chem 5 package"
   J. Chem. Phys. 155, 084801 (2021)
   https://doi.org/10.1063/5.0055522 (open access)

 Q-Chem 6.0.0 for Intel X86 EM64T Linux

 Parts of Q-Chem use Armadillo 9.900.5 (Nocturnal Misbehaviour).
 http://arma.sourceforge.net/

 Q-Chem begins on Thu Jul 21 06:05:01 2022  

 Host: nid00563
0

     Scratch files written to /global/cscratch1/sd/ymao90/r7.00_frame_0002_almo_B3LYP_dp20220721031452//
 Processing $rem in /global/homes/y/ymao90/my_qchem/qchem_embedding_5p4/config/preferences:
 Processing $rem in /global/homes/y/ymao90/.qchemrc:

 Checking the input file for inconsistencies... 	...done.

--------------------------------------------------------------
User input:
--------------------------------------------------------------
$molecule
0 1
--
0 1
C    19.82700   20.34100   28.08000  
C    20.42600   18.95500   27.78900  
C    20.63000   18.50800   26.33300  
C    21.32200   19.62600   25.53500  
C    20.58500   20.95800   25.75100  
C    20.58000   21.37700   27.23000  
H    21.20900   17.57800   26.27400  
H    21.43400   19.00700   28.22100  
H    18.74900   20.30800   27.88100  
H    19.98500   20.54900   29.14500  
H    22.38300   19.71200   25.80000  
H    21.39300   19.33400   24.48000  
H    21.11500   21.79100   25.27300  
H    19.56700   20.87100   25.35000  
H    21.62000   21.56300   27.52700  
H    20.02600   22.32000   27.30700  
H    19.63800   18.26800   25.93000  
N    19.70800   17.83800   28.40000  
H    19.05200   17.28100   27.86600  
C    19.83700   17.51900   29.73500  
H    19.09300   16.74900   30.01200  
O    20.71100   18.00200   30.43200  
--
0 1
C    17.21600   20.10700   19.45500  
H    18.10200   20.26300   18.83500  
H    17.53000   19.61600   20.38000  
H    16.35500   19.63900   18.97000  
S    16.88400   21.85000   19.79600  
C    16.53100   22.41800   18.11800  
H    16.74900   23.48600   18.03600  
H    17.07000   21.89200   17.32600  
H    15.44400   22.34000   18.02300  
O    18.18700   22.51400   20.11800  
C    18.09800   29.22900   31.69800  
H    17.06500   29.43000   31.99500  
H    18.59300   28.88700   32.61100  
H    18.46400   30.24000   31.50100  
S    18.20400   28.15700   30.24700  
C    18.59700   26.65100   31.16500  
H    17.81400   26.44000   31.89800  
H    18.59500   25.79700   30.48300  
H    19.56500   26.66200   31.67200  
O    19.47500   28.60700   29.59600  
C    26.12500   19.53100   26.41400  
H    25.49500   19.74400   25.54700  
H    26.22800   18.44800   26.51800  
H    25.74300   19.96100   27.34300  
S    27.76000   20.25000   26.13900  
C    28.46800   20.04300   27.78900  
H    27.65100   20.13500   28.50900  
H    28.93600   19.06400   27.91100  
H    29.15300   20.87500   27.97100  
O    27.64000   21.74000   26.22000  
C    21.22100   15.15600   31.68500  
H    20.54800   15.90600   32.10900  
H    21.74200   14.69200   32.52700  
H    21.93100   15.69700   31.05400  
S    20.38000   13.99900   30.58200  
C    19.84500   12.79400   31.81700  
H    20.63500   12.64900   32.55900  
H    18.99400   13.19200   32.37600  
H    19.59400   11.88500   31.26400  
O    21.59000   13.45500   29.88700  
C    17.81100   19.66100   31.99600  
H    17.59600   18.69000   32.45000  
H    17.99300   19.62800   30.91900  
H    18.66400   20.08000   32.53700  
S    16.37600   20.70900   32.32200  
C    16.52100   20.74200   34.12300  
H    15.50300   20.97700   34.44200  
H    16.83100   19.74800   34.45900  
H    17.25600   21.50300   34.39800  
O    15.22600   19.76700   32.14100  
C    13.84100   16.01600   26.43900  
H    13.86200   15.70800   25.39100  
H    12.79300   16.19900   26.68900  
H    14.38300   16.95000   26.60800  
S    14.49600   14.63600   27.40500  
C    13.23200   13.44800   26.89900  
H    13.38500   12.49100   27.40500  
H    12.22000   13.85400   26.98000  
H    13.51800   13.27400   25.85900  
O    14.11900   15.04200   28.79600  
C    15.95600   18.14200   29.10300  
H    16.94400   18.60300   29.02700  
H    16.06200   17.72500   30.10800  
H    15.87000   17.42200   28.28600  
S    14.63700   19.35800   28.88300  
C    13.29400   18.44400   29.67300  
H    12.29500   18.88700   29.65300  
H    13.21600   17.40900   29.32900  
H    13.67400   18.43800   30.69700  
O    14.46400   19.31400   27.39700  
C    21.65700   15.33600   21.88500  
H    22.33000   15.82900   22.59200  
H    21.96300   14.32900   21.58900  
H    21.67900   15.88000   20.93700  
S    20.07200   15.10700   22.72200  
C    20.29400   16.62800   23.67200  
H    20.41200   17.38400   22.89100  
H    19.36400   16.68000   24.24400  
H    21.11200   16.61700   24.39700  
O    20.21900   13.93600   23.64400  
C    23.34400   23.11600   28.95600  
H    23.45800   23.32600   27.89000  
H    23.17000   22.04100   29.04700  
H    22.57400   23.70600   29.46200  
S    24.92200   23.59600   29.69400  
C    25.94200   22.30900   28.94100  
H    25.74700   22.52200   27.88700  
H    26.98800   22.53200   29.16600  
H    25.61500   21.31000   29.24300  
O    24.76900   23.17400   31.12200  
C    25.34500   15.00500   30.43800  
H    25.58700   16.07100   30.45400  
H    25.97600   14.50400   29.69900  
H    24.30100   14.85300   30.15300  
S    25.39800   14.47300   32.16300  
C    24.79900   12.79700   31.84700  
H    25.60900   12.09000   31.65300  
H    24.30800   12.55100   32.79200  
H    24.19800   12.87400   30.93800  
O    24.27800   15.15300   32.88800  
C    21.60700   22.71500   34.91000  
H    21.24300   22.18000   35.79000  
H    22.53400   22.23500   34.58600  
H    21.81700   23.76300   35.14100  
S    20.47300   22.79100   33.50500  
C    21.36700   24.03600   32.54600  
H    22.36800   23.64600   32.34500  
H    20.81000   24.16200   31.61400  
H    21.42200   25.02000   33.01900  
O    19.28600   23.48800   34.09400  
C    20.76100   25.77700   27.02400  
H    20.72800   26.16600   26.00300  
H    20.83700   24.68700   27.03000  
H    19.81000   26.01300   27.50900  
S    22.11900   26.48600   27.98200  
C    22.09100   28.14300   27.26100  
H    22.03000   28.08600   26.17200  
H    21.22200   28.65500   27.68300  
H    22.97500   28.66600   27.63400  
O    23.38800   26.02400   27.33800  
C    16.01200   14.71600   31.07900  
H    16.12800   15.62500   30.48400  
H    16.87000   14.15300   30.70200  
H    15.05500   14.21300   30.91500  
S    16.48300   14.98400   32.80300  
C    15.21000   16.23500   33.08900  
H    15.38600   17.01600   32.34500  
H    14.18500   15.85700   33.09000  
H    15.41300   16.52800   34.12200  
O    17.68000   15.87600   32.69600  
C    24.08600   20.27800   31.38300  
H    24.91700   20.82400   31.83700  
H    23.75500   20.73000   30.44500  
H    23.28500   20.22400   32.12500  
S    24.65600   18.57000   31.23100  
C    25.37800   18.44400   32.88300  
H    24.58300   18.30200   33.61900  
H    25.95900   17.52900   33.02700  
H    26.03600   19.30400   33.03500  
O    25.86100   18.81800   30.37800  
C    15.31500   15.69800   22.88600  
H    15.60000   15.97400   23.90500  
H    15.77700   16.31800   22.11300  
H    14.23200   15.65700   22.75000  
S    16.01500   14.03900   22.73900  
C    15.16900   13.62900   21.19600  
H    15.05600   12.54200   21.21100  
H    14.18800   14.10900   21.14900  
H    15.85500   13.98900   20.42500  
O    15.23500   13.12500   23.63200  
C    19.72400   18.77900   35.09200  
H    19.13800   19.67600   34.88000  
H    18.99800   17.96900   35.20200  
H    20.24000   18.99300   36.03100  
S    21.03700   18.50800   33.88100  
C    21.62500   16.94800   34.57900  
H    20.97800   16.11700   34.28500  
H    22.69200   16.85000   34.36500  
H    21.60000   17.00500   35.67000  
O    22.13000   19.46800   34.23100  
C    23.39900   26.25100   22.11500  
H    23.78400   26.87500   22.92500  
H    22.95800   25.32500   22.49300  
H    24.08900   26.11500   21.27800  
S    21.91100   27.01700   21.43400  
C    20.73800   26.69500   22.77100  
H    19.79100   26.96500   22.29800  
H    20.87000   25.67800   23.14900  
H    20.75300   27.50400   23.50500  
O    21.41300   26.05100   20.40500  
C    24.05900   18.75600   21.38000  
H    24.35600   19.62700   21.97000  
H    23.69000   18.99400   20.37900  
H    23.22500   18.18700   21.80000  
S    25.44100   17.60100   21.23100  
C    25.59300   17.13300   22.97000  
H    24.56600   16.90900   23.27000  
H    26.21100   16.24500   23.12500  
H    25.86400   18.05100   23.49700  
O    26.62600   18.42800   20.84200  
C    20.94500   20.82800   20.23600  
H    20.95000   19.74100   20.13000  
H    20.10500   21.22200   19.65700  
H    21.87600   21.29300   19.90300  
S    20.76400   21.14700   22.00500  
C    21.09100   22.92300   21.93000  
H    21.87200   23.23600   21.23300  
H    20.18800   23.53300   21.84900  
H    21.51200   23.16400   22.90900  
O    22.12700   20.78700   22.51100  
C    24.56000   22.49500   24.50400  
H    24.73200   21.87200   25.38600  
H    23.76100   23.24000   24.51200  
H    24.24300   21.75200   23.76700  
S    26.05800   23.24200   23.82500  
C    26.03600   24.45500   25.16500  
H    26.41200   23.93400   26.04900  
H    26.67400   25.29600   24.88200  
H    25.03500   24.81200   25.42100  
O    25.64500   24.01100   22.60900  
C    23.65100   17.00400   27.96700  
H    23.32100   17.98500   27.61700  
H    23.01600   16.70400   28.80500  
H    24.66800   17.03800   28.36700  
S    23.46100   15.69600   26.73500  
C    25.22900   15.36700   26.55000  
H    25.67200   14.91500   27.44100  
H    25.32500   14.71200   25.68000  
H    25.77400   16.30000   26.39200  
O    23.24600   16.50100   25.49200  
C    17.08400   23.75600   22.61800  
H    17.78700   24.40100   22.08500  
H    17.51200   22.75100   22.56600  
H    16.15400   23.81900   22.04700  
S    16.60700   24.25100   24.28900  
C    18.10800   23.86300   25.21700  
H    18.83500   24.56400   24.79900  
H    17.98200   24.27400   26.22200  
H    18.34400   22.79700   25.25600  
O    15.65800   23.14700   24.63900  
C    20.17400   14.24200   26.99700  
H    20.02600   14.45800   25.93600  
H    20.74700   14.98100   27.56300  
H    20.61800   13.27900   27.26000  
S    18.53900   14.15100   27.76300  
C    17.71400   13.52100   26.28400  
H    16.75400   13.02200   26.44200  
H    17.69600   14.25800   25.47700  
H    18.38000   12.70600   25.99000  
O    18.07900   15.56900   27.62600  
C    16.36900   22.63000   28.24500  
H    15.49400   22.04600   28.54200  
H    16.00000   23.59800   27.89500  
H    16.89400   22.13700   27.42300  
S    17.53800   22.88800   29.59800  
C    16.42900   23.68600   30.78200  
H    15.48400   23.16700   30.95800  
H    16.81200   23.95000   31.77100  
H    16.21400   24.66300   30.34300  
O    18.47300   23.92900   29.06700  
C    16.98100   18.17000   25.55800  
H    16.02800   17.64800   25.43700  
H    17.73200   17.39500   25.73100  
H    16.86000   18.88600   26.37600  
S    17.17200   18.99500   23.96100  
C    15.51700   19.64100   23.63100  
H    15.45900   20.60900   24.13600  
H    15.52000   19.77700   22.54700  
H    14.69700   18.99500   23.95300  
O    17.26600   17.87000   22.97800  
$end

$rem
JOBTYPE  SP
METHOD  B3LYP
BASIS  6-31+G(D)
SYMMETRY  FALSE
SYM_IGNORE  TRUE
MEM_TOTAL  12000
MEM_STATIC  4000
BASIS_LIN_DEP_THRESH  6
THRESH  14
SCF_CONVERGENCE  8
FD_MAT_VEC_PROD  FALSE
XC_GRID  000075000302
NL_GRID  1
MAX_SCF_CYCLES  200
FRGM_METHOD  STOLL
SCFMI_MODE  1
ALMO_EFIELD  TRUE
$end

$rem_frgm
SCF_CONVERGENCE  4
$end


--------------------------------------------------------------
 ----------------------------------------------------------------
             Standard Nuclear Orientation (Angstroms)
    I     Atom           X                Y                Z
 ----------------------------------------------------------------
    1      C      19.8270000000    20.3410000000    28.0800000000
    2      C      20.4260000000    18.9550000000    27.7890000000
    3      C      20.6300000000    18.5080000000    26.3330000000
    4      C      21.3220000000    19.6260000000    25.5350000000
    5      C      20.5850000000    20.9580000000    25.7510000000
    6      C      20.5800000000    21.3770000000    27.2300000000
    7      H      21.2090000000    17.5780000000    26.2740000000
    8      H      21.4340000000    19.0070000000    28.2210000000
    9      H      18.7490000000    20.3080000000    27.8810000000
   10      H      19.9850000000    20.5490000000    29.1450000000
   11      H      22.3830000000    19.7120000000    25.8000000000
   12      H      21.3930000000    19.3340000000    24.4800000000
   13      H      21.1150000000    21.7910000000    25.2730000000
   14      H      19.5670000000    20.8710000000    25.3500000000
   15      H      21.6200000000    21.5630000000    27.5270000000
   16      H      20.0260000000    22.3200000000    27.3070000000
   17      H      19.6380000000    18.2680000000    25.9300000000
   18      N      19.7080000000    17.8380000000    28.4000000000
   19      H      19.0520000000    17.2810000000    27.8660000000
   20      C      19.8370000000    17.5190000000    29.7350000000
   21      H      19.0930000000    16.7490000000    30.0120000000
   22      O      20.7110000000    18.0020000000    30.4320000000
   23      C      17.2160000000    20.1070000000    19.4550000000
   24      H      18.1020000000    20.2630000000    18.8350000000
   25      H      17.5300000000    19.6160000000    20.3800000000
   26      H      16.3550000000    19.6390000000    18.9700000000
   27      S      16.8840000000    21.8500000000    19.7960000000
   28      C      16.5310000000    22.4180000000    18.1180000000
   29      H      16.7490000000    23.4860000000    18.0360000000
   30      H      17.0700000000    21.8920000000    17.3260000000
   31      H      15.4440000000    22.3400000000    18.0230000000
   32      O      18.1870000000    22.5140000000    20.1180000000
   33      C      18.0980000000    29.2290000000    31.6980000000
   34      H      17.0650000000    29.4300000000    31.9950000000
   35      H      18.5930000000    28.8870000000    32.6110000000
   36      H      18.4640000000    30.2400000000    31.5010000000
   37      S      18.2040000000    28.1570000000    30.2470000000
   38      C      18.5970000000    26.6510000000    31.1650000000
   39      H      17.8140000000    26.4400000000    31.8980000000
   40      H      18.5950000000    25.7970000000    30.4830000000
   41      H      19.5650000000    26.6620000000    31.6720000000
   42      O      19.4750000000    28.6070000000    29.5960000000
   43      C      26.1250000000    19.5310000000    26.4140000000
   44      H      25.4950000000    19.7440000000    25.5470000000
   45      H      26.2280000000    18.4480000000    26.5180000000
   46      H      25.7430000000    19.9610000000    27.3430000000
   47      S      27.7600000000    20.2500000000    26.1390000000
   48      C      28.4680000000    20.0430000000    27.7890000000
   49      H      27.6510000000    20.1350000000    28.5090000000
   50      H      28.9360000000    19.0640000000    27.9110000000
   51      H      29.1530000000    20.8750000000    27.9710000000
   52      O      27.6400000000    21.7400000000    26.2200000000
   53      C      21.2210000000    15.1560000000    31.6850000000
   54      H      20.5480000000    15.9060000000    32.1090000000
   55      H      21.7420000000    14.6920000000    32.5270000000
   56      H      21.9310000000    15.6970000000    31.0540000000
   57      S      20.3800000000    13.9990000000    30.5820000000
   58      C      19.8450000000    12.7940000000    31.8170000000
   59      H      20.6350000000    12.6490000000    32.5590000000
   60      H      18.9940000000    13.1920000000    32.3760000000
   61      H      19.5940000000    11.8850000000    31.2640000000
   62      O      21.5900000000    13.4550000000    29.8870000000
   63      C      17.8110000000    19.6610000000    31.9960000000
   64      H      17.5960000000    18.6900000000    32.4500000000
   65      H      17.9930000000    19.6280000000    30.9190000000
   66      H      18.6640000000    20.0800000000    32.5370000000
   67      S      16.3760000000    20.7090000000    32.3220000000
   68      C      16.5210000000    20.7420000000    34.1230000000
   69      H      15.5030000000    20.9770000000    34.4420000000
   70      H      16.8310000000    19.7480000000    34.4590000000
   71      H      17.2560000000    21.5030000000    34.3980000000
   72      O      15.2260000000    19.7670000000    32.1410000000
   73      C      13.8410000000    16.0160000000    26.4390000000
   74      H      13.8620000000    15.7080000000    25.3910000000
   75      H      12.7930000000    16.1990000000    26.6890000000
   76      H      14.3830000000    16.9500000000    26.6080000000
   77      S      14.4960000000    14.6360000000    27.4050000000
   78      C      13.2320000000    13.4480000000    26.8990000000
   79      H      13.3850000000    12.4910000000    27.4050000000
   80      H      12.2200000000    13.8540000000    26.9800000000
   81      H      13.5180000000    13.2740000000    25.8590000000
   82      O      14.1190000000    15.0420000000    28.7960000000
   83      C      15.9560000000    18.1420000000    29.1030000000
   84      H      16.9440000000    18.6030000000    29.0270000000
   85      H      16.0620000000    17.7250000000    30.1080000000
   86      H      15.8700000000    17.4220000000    28.2860000000
   87      S      14.6370000000    19.3580000000    28.8830000000
   88      C      13.2940000000    18.4440000000    29.6730000000
   89      H      12.2950000000    18.8870000000    29.6530000000
   90      H      13.2160000000    17.4090000000    29.3290000000
   91      H      13.6740000000    18.4380000000    30.6970000000
   92      O      14.4640000000    19.3140000000    27.3970000000
   93      C      21.6570000000    15.3360000000    21.8850000000
   94      H      22.3300000000    15.8290000000    22.5920000000
   95      H      21.9630000000    14.3290000000    21.5890000000
   96      H      21.6790000000    15.8800000000    20.9370000000
   97      S      20.0720000000    15.1070000000    22.7220000000
   98      C      20.2940000000    16.6280000000    23.6720000000
   99      H      20.4120000000    17.3840000000    22.8910000000
  100      H      19.3640000000    16.6800000000    24.2440000000
  101      H      21.1120000000    16.6170000000    24.3970000000
  102      O      20.2190000000    13.9360000000    23.6440000000
  103      C      23.3440000000    23.1160000000    28.9560000000
  104      H      23.4580000000    23.3260000000    27.8900000000
  105      H      23.1700000000    22.0410000000    29.0470000000
  106      H      22.5740000000    23.7060000000    29.4620000000
  107      S      24.9220000000    23.5960000000    29.6940000000
  108      C      25.9420000000    22.3090000000    28.9410000000
  109      H      25.7470000000    22.5220000000    27.8870000000
  110      H      26.9880000000    22.5320000000    29.1660000000
  111      H      25.6150000000    21.3100000000    29.2430000000
  112      O      24.7690000000    23.1740000000    31.1220000000
  113      C      25.3450000000    15.0050000000    30.4380000000
  114      H      25.5870000000    16.0710000000    30.4540000000
  115      H      25.9760000000    14.5040000000    29.6990000000
  116      H      24.3010000000    14.8530000000    30.1530000000
  117      S      25.3980000000    14.4730000000    32.1630000000
  118      C      24.7990000000    12.7970000000    31.8470000000
  119      H      25.6090000000    12.0900000000    31.6530000000
  120      H      24.3080000000    12.5510000000    32.7920000000
  121      H      24.1980000000    12.8740000000    30.9380000000
  122      O      24.2780000000    15.1530000000    32.8880000000
  123      C      21.6070000000    22.7150000000    34.9100000000
  124      H      21.2430000000    22.1800000000    35.7900000000
  125      H      22.5340000000    22.2350000000    34.5860000000
  126      H      21.8170000000    23.7630000000    35.1410000000
  127      S      20.4730000000    22.7910000000    33.5050000000
  128      C      21.3670000000    24.0360000000    32.5460000000
  129      H      22.3680000000    23.6460000000    32.3450000000
  130      H      20.8100000000    24.1620000000    31.6140000000
  131      H      21.4220000000    25.0200000000    33.0190000000
  132      O      19.2860000000    23.4880000000    34.0940000000
  133      C      20.7610000000    25.7770000000    27.0240000000
  134      H      20.7280000000    26.1660000000    26.0030000000
  135      H      20.8370000000    24.6870000000    27.0300000000
  136      H      19.8100000000    26.0130000000    27.5090000000
  137      S      22.1190000000    26.4860000000    27.9820000000
  138      C      22.0910000000    28.1430000000    27.2610000000
  139      H      22.0300000000    28.0860000000    26.1720000000
  140      H      21.2220000000    28.6550000000    27.6830000000
  141      H      22.9750000000    28.6660000000    27.6340000000
  142      O      23.3880000000    26.0240000000    27.3380000000
  143      C      16.0120000000    14.7160000000    31.0790000000
  144      H      16.1280000000    15.6250000000    30.4840000000
  145      H      16.8700000000    14.1530000000    30.7020000000
  146      H      15.0550000000    14.2130000000    30.9150000000
  147      S      16.4830000000    14.9840000000    32.8030000000
  148      C      15.2100000000    16.2350000000    33.0890000000
  149      H      15.3860000000    17.0160000000    32.3450000000
  150      H      14.1850000000    15.8570000000    33.0900000000
  151      H      15.4130000000    16.5280000000    34.1220000000
  152      O      17.6800000000    15.8760000000    32.6960000000
  153      C      24.0860000000    20.2780000000    31.3830000000
  154      H      24.9170000000    20.8240000000    31.8370000000
  155      H      23.7550000000    20.7300000000    30.4450000000
  156      H      23.2850000000    20.2240000000    32.1250000000
  157      S      24.6560000000    18.5700000000    31.2310000000
  158      C      25.3780000000    18.4440000000    32.8830000000
  159      H      24.5830000000    18.3020000000    33.6190000000
  160      H      25.9590000000    17.5290000000    33.0270000000
  161      H      26.0360000000    19.3040000000    33.0350000000
  162      O      25.8610000000    18.8180000000    30.3780000000
  163      C      15.3150000000    15.6980000000    22.8860000000
  164      H      15.6000000000    15.9740000000    23.9050000000
  165      H      15.7770000000    16.3180000000    22.1130000000
  166      H      14.2320000000    15.6570000000    22.7500000000
  167      S      16.0150000000    14.0390000000    22.7390000000
  168      C      15.1690000000    13.6290000000    21.1960000000
  169      H      15.0560000000    12.5420000000    21.2110000000
  170      H      14.1880000000    14.1090000000    21.1490000000
  171      H      15.8550000000    13.9890000000    20.4250000000
  172      O      15.2350000000    13.1250000000    23.6320000000
  173      C      19.7240000000    18.7790000000    35.0920000000
  174      H      19.1380000000    19.6760000000    34.8800000000
  175      H      18.9980000000    17.9690000000    35.2020000000
  176      H      20.2400000000    18.9930000000    36.0310000000
  177      S      21.0370000000    18.5080000000    33.8810000000
  178      C      21.6250000000    16.9480000000    34.5790000000
  179      H      20.9780000000    16.1170000000    34.2850000000
  180      H      22.6920000000    16.8500000000    34.3650000000
  181      H      21.6000000000    17.0050000000    35.6700000000
  182      O      22.1300000000    19.4680000000    34.2310000000
  183      C      23.3990000000    26.2510000000    22.1150000000
  184      H      23.7840000000    26.8750000000    22.9250000000
  185      H      22.9580000000    25.3250000000    22.4930000000
  186      H      24.0890000000    26.1150000000    21.2780000000
  187      S      21.9110000000    27.0170000000    21.4340000000
  188      C      20.7380000000    26.6950000000    22.7710000000
  189      H      19.7910000000    26.9650000000    22.2980000000
  190      H      20.8700000000    25.6780000000    23.1490000000
  191      H      20.7530000000    27.5040000000    23.5050000000
  192      O      21.4130000000    26.0510000000    20.4050000000
  193      C      24.0590000000    18.7560000000    21.3800000000
  194      H      24.3560000000    19.6270000000    21.9700000000
  195      H      23.6900000000    18.9940000000    20.3790000000
  196      H      23.2250000000    18.1870000000    21.8000000000
  197      S      25.4410000000    17.6010000000    21.2310000000
  198      C      25.5930000000    17.1330000000    22.9700000000
  199      H      24.5660000000    16.9090000000    23.2700000000
  200      H      26.2110000000    16.2450000000    23.1250000000
  201      H      25.8640000000    18.0510000000    23.4970000000
  202      O      26.6260000000    18.4280000000    20.8420000000
  203      C      20.9450000000    20.8280000000    20.2360000000
  204      H      20.9500000000    19.7410000000    20.1300000000
  205      H      20.1050000000    21.2220000000    19.6570000000
  206      H      21.8760000000    21.2930000000    19.9030000000
  207      S      20.7640000000    21.1470000000    22.0050000000
  208      C      21.0910000000    22.9230000000    21.9300000000
  209      H      21.8720000000    23.2360000000    21.2330000000
  210      H      20.1880000000    23.5330000000    21.8490000000
  211      H      21.5120000000    23.1640000000    22.9090000000
  212      O      22.1270000000    20.7870000000    22.5110000000
  213      C      24.5600000000    22.4950000000    24.5040000000
  214      H      24.7320000000    21.8720000000    25.3860000000
  215      H      23.7610000000    23.2400000000    24.5120000000
  216      H      24.2430000000    21.7520000000    23.7670000000
  217      S      26.0580000000    23.2420000000    23.8250000000
  218      C      26.0360000000    24.4550000000    25.1650000000
  219      H      26.4120000000    23.9340000000    26.0490000000
  220      H      26.6740000000    25.2960000000    24.8820000000
  221      H      25.0350000000    24.8120000000    25.4210000000
  222      O      25.6450000000    24.0110000000    22.6090000000
  223      C      23.6510000000    17.0040000000    27.9670000000
  224      H      23.3210000000    17.9850000000    27.6170000000
  225      H      23.0160000000    16.7040000000    28.8050000000
  226      H      24.6680000000    17.0380000000    28.3670000000
  227      S      23.4610000000    15.6960000000    26.7350000000
  228      C      25.2290000000    15.3670000000    26.5500000000
  229      H      25.6720000000    14.9150000000    27.4410000000
  230      H      25.3250000000    14.7120000000    25.6800000000
  231      H      25.7740000000    16.3000000000    26.3920000000
  232      O      23.2460000000    16.5010000000    25.4920000000
  233      C      17.0840000000    23.7560000000    22.6180000000
  234      H      17.7870000000    24.4010000000    22.0850000000
  235      H      17.5120000000    22.7510000000    22.5660000000
  236      H      16.1540000000    23.8190000000    22.0470000000
  237      S      16.6070000000    24.2510000000    24.2890000000
  238      C      18.1080000000    23.8630000000    25.2170000000
  239      H      18.8350000000    24.5640000000    24.7990000000
  240      H      17.9820000000    24.2740000000    26.2220000000
  241      H      18.3440000000    22.7970000000    25.2560000000
  242      O      15.6580000000    23.1470000000    24.6390000000
  243      C      20.1740000000    14.2420000000    26.9970000000
  244      H      20.0260000000    14.4580000000    25.9360000000
  245      H      20.7470000000    14.9810000000    27.5630000000
  246      H      20.6180000000    13.2790000000    27.2600000000
  247      S      18.5390000000    14.1510000000    27.7630000000
  248      C      17.7140000000    13.5210000000    26.2840000000
  249      H      16.7540000000    13.0220000000    26.4420000000
  250      H      17.6960000000    14.2580000000    25.4770000000
  251      H      18.3800000000    12.7060000000    25.9900000000
  252      O      18.0790000000    15.5690000000    27.6260000000
  253      C      16.3690000000    22.6300000000    28.2450000000
  254      H      15.4940000000    22.0460000000    28.5420000000
  255      H      16.0000000000    23.5980000000    27.8950000000
  256      H      16.8940000000    22.1370000000    27.4230000000
  257      S      17.5380000000    22.8880000000    29.5980000000
  258      C      16.4290000000    23.6860000000    30.7820000000
  259      H      15.4840000000    23.1670000000    30.9580000000
  260      H      16.8120000000    23.9500000000    31.7710000000
  261      H      16.2140000000    24.6630000000    30.3430000000
  262      O      18.4730000000    23.9290000000    29.0670000000
  263      C      16.9810000000    18.1700000000    25.5580000000
  264      H      16.0280000000    17.6480000000    25.4370000000
  265      H      17.7320000000    17.3950000000    25.7310000000
  266      H      16.8600000000    18.8860000000    26.3760000000
  267      S      17.1720000000    18.9950000000    23.9610000000
  268      C      15.5170000000    19.6410000000    23.6310000000
  269      H      15.4590000000    20.6090000000    24.1360000000
  270      H      15.5200000000    19.7770000000    22.5470000000
  271      H      14.6970000000    18.9950000000    23.9530000000
  272      O      17.2660000000    17.8700000000    22.9780000000
 ----------------------------------------------------------------
 Nuclear Repulsion Energy =       43088.63881129 hartrees
 There are      560 alpha and      560 beta electrons
 Requested basis set is 6-31+G(d)
 There are 896 shells and 2497 basis functions

 Total QAlloc Memory Limit  12000 MB
 Mega-Array Size      3911 MB
 MEM_STATIC part      4000 MB

 A cutoff of  1.0D-14 yielded 162578 shell pairs
 There are   1402700 function pairs
 Smallest overlap matrix eigenvalue = 3.41E-07
 Linear dependence detected in AO basis
 Tighter screening thresholds may be required for diffuse basis sets
 Use S2THRESH > 14 and THRESH = 14 in case of SCF convergence issues
 Number of orthogonalized atomic orbitals = 2495
 Maximum deviation from orthogonality = 1.943E-10

 Scale SEOQF with 1.000000e-03/1.000000e-03/1.000000e-03

 Standard Electronic Orientation quadrupole field applied
 Nucleus-field energy     =    -0.0000004252 hartrees
 Attempting to make child job directory: /global/cscratch1/sd/ymao90/r7.00_frame_0002_almo_B3LYP_dp20220721031452//Frg1/
 Attempting to make child job directory: /global/cscratch1/sd/ymao90/r7.00_frame_0002_almo_B3LYP_dp20220721031452//Frg2/
 Creating input file /global/cscratch1/sd/ymao90/r7.00_frame_0002_almo_B3LYP_dp20220721031452/Frg1.input
 using default PutDataFrgm: nothing
 calling putenv with: QCSCRATCH=/global/cscratch1/sd/ymao90/r7.00_frame_0002_almo_B3LYP_dp20220721031452/ 
 Spawning Job For Fragment 0
 Done Job For Fragment 0
 calling putenv with: QCSCRATCH=/global/cscratch1/sd/ymao90 
 calling putenv with: QCTHREADS=16 
 Creating input file /global/cscratch1/sd/ymao90/r7.00_frame_0002_almo_B3LYP_dp20220721031452/Frg2.input
 using default PutDataFrgm: nothing
 calling putenv with: QCSCRATCH=/global/cscratch1/sd/ymao90/r7.00_frame_0002_almo_B3LYP_dp20220721031452/ 
 Spawning Job For Fragment 1
 Done Job For Fragment 1
 calling putenv with: QCSCRATCH=/global/cscratch1/sd/ymao90 
 calling putenv with: QCTHREADS=16 
 Time for running child jobs:  CPU 0.46 s  wall 9764.18 s

 -----------------------------------------------------------------------
  General SCF calculation program by
  Eric Jon Sundstrom, Paul Horn, Yuezhi Mao, Dmitri Zuev, Alec White,
  David Stuck, Shaama M.S., Shane Yost, Joonho Lee, David Small,
  Daniel Levine, Susi Lehtola, Hugh Burton, Evgeny Epifanovsky,
  Bang C. Huynh
 -----------------------------------------------------------------------
Performing Restricted Closed Shell SCFMI
Doing General SCFMI
 Exchange:     0.2000 Hartree-Fock + 0.0800 Slater + 0.7200 B88
 Correlation:  0.1900 VWN1RPA + 0.8100 LYP
 Using Euler-Maclaurin-Lebedev (75,302) quadrature formula
performing fock build before subrot guess so that all methods have access
 using 16 threads for integral computing
 -------------------------------------------------------
 OpenMP Integral computing Module                
 Release: version 1.0, May 2013, Q-Chem Inc. Pittsburgh 
 -------------------------------------------------------
Printing subrot_rss_gen Method Specification:
Occupied Subspace Method is 0
Virtual Subspace Method is 0
Energy prior to optimization (guess energy) = -14234.368450653179
Begin Timing: Total SCF Calculation
begin iterations for algorithm: DIIS         
the SCF tolerance is set to 1.00e-08
    1  -14234.3684506532      3.50e-05     00000 
    2  -14234.3753001770      2.20e-05     00000 
    3  -14234.3761888521      1.69e-05     00000 
    4  -14234.3767816871      7.00e-06     00000 
    5  -14234.3768875808      3.03e-06     00000 
    6  -14234.3769116884      1.68e-06     00000 
    7  -14234.3769184538      1.26e-06     00000 
    8  -14234.3769214291      7.74e-07     00000 
    9  -14234.3769225182      4.12e-07     00000 
   10  -14234.3769228276      2.51e-07     00000 
   11  -14234.3769229487      1.67e-07     00000 
   12  -14234.3769230036      1.08e-07     00000 
   13  -14234.3769230284      5.83e-08     00000 
   14  -14234.3769230354      3.58e-08     00000 
   15  -14234.3769230376      2.34e-08     00000 
   16  -14234.3769230385      1.62e-08     00000 
   17  -14234.3769230391      7.62e-09     00000 Convergence criterion met
write pseudocanon occs and virts to disk
write pseudocanon orbital energies to disk
Timing for Total SCF: 15660.00s (wall), 216390.90s (cpu)
SCFMI Energy  -14234.3769230391
<S^2>            0.00000
 Total energy in the final basis set =   -14234.3769230391
    ==================================================
        The end of Object-Oriented SCFman: SCFMI      
    ==================================================

 --------------------------------------------------------------

                    Orbital Energies (a.u.)
 --------------------------------------------------------------

 Alpha MOs
 -- Occupied --
-89.0157 -89.0117 -89.0107 -89.0074 -89.0051 -89.0043 -89.0041 -89.0013
-89.0012 -89.0009 -88.9997 -88.9996 -88.9990 -88.9973 -88.9959 -88.9956
-88.9926 -88.9925 -88.9906 -88.9900 -88.9853 -88.9809 -88.9807 -88.9722
-88.9636 -19.1339 -19.1326 -19.1291 -19.1256 -19.1255 -19.1204 -19.1198
-19.1190 -19.1185 -19.1173 -19.1152 -19.1143 -19.1130 -19.1126 -19.1120
-19.1114 -19.1106 -19.1101 -19.1034 -19.0997 -19.0990 -19.0963 -19.0963
-19.0936 -19.0890 -19.0829 -14.3519 -10.2830 -10.2403 -10.2352 -10.2276
-10.2253 -10.2247 -10.2240 -10.2229 -10.2224 -10.2223 -10.2217 -10.2211
-10.2208 -10.2190 -10.2187 -10.2185 -10.2185 -10.2175 -10.2164 -10.2164
-10.2156 -10.2150 -10.2149 -10.2133 -10.2131 -10.2125 -10.2117 -10.2109
-10.2099 -10.2096 -10.2094 -10.2092 -10.2080 -10.2063 -10.2055 -10.2052
-10.2051 -10.2042 -10.2039 -10.2032 -10.2019 -10.2016 -10.2012 -10.1997
-10.1996 -10.1990 -10.1990 -10.1947 -10.1943 -10.1905 -10.1904 -10.1869
-10.1856 -10.1826 -10.1823 -10.1752 -10.1735  -8.0622  -8.0571  -8.0565
 -8.0529  -8.0518  -8.0507  -8.0507  -8.0472  -8.0468  -8.0468  -8.0459
 -8.0456  -8.0445  -8.0439  -8.0413  -8.0412  -8.0389  -8.0380  -8.0362
 -8.0360  -8.0314  -8.0281  -8.0268  -8.0185  -8.0091  -6.0266  -6.0254
 -6.0216  -6.0208  -6.0203  -6.0197  -6.0194  -6.0173  -6.0161  -6.0160
 -6.0150  -6.0150  -6.0146  -6.0143  -6.0140  -6.0138  -6.0137  -6.0116
 -6.0113  -6.0112  -6.0105  -6.0104  -6.0103  -6.0101  -6.0099  -6.0099
 -6.0094  -6.0089  -6.0088  -6.0086  -6.0081  -6.0081  -6.0080  -6.0077
 -6.0068  -6.0058  -6.0058  -6.0046  -6.0044  -6.0043  -6.0042  -6.0042
 -6.0035  -6.0032  -6.0028  -6.0022  -6.0021  -6.0016  -6.0013  -6.0011
 -6.0005  -6.0003  -5.9993  -5.9990  -5.9987  -5.9985  -5.9961  -5.9960
 -5.9958  -5.9943  -5.9936  -5.9933  -5.9923  -5.9913  -5.9912  -5.9899
 -5.9889  -5.9854  -5.9840  -5.9829  -5.9817  -5.9758  -5.9734  -5.9720
 -5.9666  -1.0431  -1.0407  -1.0391  -1.0356  -1.0344  -1.0341  -1.0321
 -1.0283  -1.0273  -1.0272  -1.0268  -1.0265  -1.0243  -1.0241  -1.0226
 -1.0201  -1.0197  -1.0184  -1.0172  -1.0141  -1.0131  -1.0123  -1.0071
 -1.0055  -0.9948  -0.9888  -0.9198  -0.8264  -0.8222  -0.8121  -0.8091
 -0.8056  -0.8055  -0.8025  -0.8017  -0.8009  -0.8009  -0.7997  -0.7989
 -0.7980  -0.7972  -0.7966  -0.7946  -0.7934  -0.7929  -0.7923  -0.7880
 -0.7878  -0.7863  -0.7823  -0.7801  -0.7793  -0.7698  -0.7509  -0.7500
 -0.7409  -0.7374  -0.7360  -0.7346  -0.7332  -0.7323  -0.7318  -0.7300
 -0.7290  -0.7285  -0.7268  -0.7259  -0.7246  -0.7232  -0.7225  -0.7213
 -0.7190  -0.7182  -0.7169  -0.7158  -0.7156  -0.7143  -0.7088  -0.7072
 -0.6884  -0.6353  -0.6278  -0.6259  -0.6255  -0.6221  -0.6205  -0.6193
 -0.6182  -0.6161  -0.6149  -0.6136  -0.6129  -0.6124  -0.6108  -0.6086
 -0.6082  -0.6066  -0.6051  -0.6048  -0.6045  -0.6026  -0.6019  -0.5990
 -0.5923  -0.5893  -0.5844  -0.5800  -0.5782  -0.5658  -0.5248  -0.5036
 -0.4933  -0.4927  -0.4910  -0.4892  -0.4875  -0.4871  -0.4863  -0.4852
 -0.4845  -0.4842  -0.4826  -0.4813  -0.4812  -0.4802  -0.4799  -0.4789
 -0.4784  -0.4778  -0.4768  -0.4764  -0.4752  -0.4749  -0.4748  -0.4747
 -0.4736  -0.4733  -0.4729  -0.4718  -0.4716  -0.4716  -0.4711  -0.4702
 -0.4696  -0.4692  -0.4685  -0.4681  -0.4678  -0.4672  -0.4667  -0.4660
 -0.4659  -0.4655  -0.4648  -0.4641  -0.4634  -0.4627  -0.4620  -0.4612
 -0.4609  -0.4604  -0.4599  -0.4591  -0.4588  -0.4586  -0.4575  -0.4570
 -0.4569  -0.4560  -0.4557  -0.4551  -0.4545  -0.4542  -0.4537  -0.4533
 -0.4522  -0.4503  -0.4493  -0.4487  -0.4465  -0.4439  -0.4432  -0.4425
 -0.4412  -0.4404  -0.4394  -0.4394  -0.4385  -0.4367  -0.4341  -0.4326
 -0.4324  -0.4316  -0.4309  -0.4306  -0.4303  -0.4299  -0.4275  -0.4271
 -0.4268  -0.4266  -0.4256  -0.4254  -0.4251  -0.4248  -0.4243  -0.4233
 -0.4230  -0.4229  -0.4222  -0.4197  -0.4195  -0.4191  -0.4180  -0.4175
 -0.4173  -0.4165  -0.4155  -0.4146  -0.4141  -0.4131  -0.4125  -0.4119
 -0.4112  -0.4102  -0.4100  -0.4089  -0.4076  -0.4074  -0.4069  -0.4066
 -0.4043  -0.4036  -0.4024  -0.4017  -0.4012  -0.4007  -0.4004  -0.3991
 -0.3981  -0.3976  -0.3971  -0.3965  -0.3955  -0.3955  -0.3948  -0.3933
 -0.3922  -0.3918  -0.3916  -0.3912  -0.3911  -0.3908  -0.3893  -0.3889
 -0.3888  -0.3880  -0.3871  -0.3862  -0.3850  -0.3845  -0.3826  -0.3818
 -0.3811  -0.3794  -0.3782  -0.3777  -0.3736  -0.3729  -0.3718  -0.3708
 -0.3704  -0.3692  -0.3687  -0.3684  -0.3673  -0.3664  -0.3645  -0.3634
 -0.3626  -0.3615  -0.3599  -0.3591  -0.3587  -0.3565  -0.3545  -0.3535
 -0.3534  -0.3521  -0.3490  -0.3475  -0.3466  -0.3445  -0.3442  -0.3374
 -0.3314  -0.3305  -0.3148  -0.3001  -0.2963  -0.2958  -0.2918  -0.2845
 -0.2830  -0.2821  -0.2806  -0.2799  -0.2788  -0.2781  -0.2746  -0.2739
 -0.2737  -0.2730  -0.2723  -0.2718  -0.2706  -0.2673  -0.2619  -0.2610
 -0.2606  -0.2596  -0.2578  -0.2568  -0.2558  -0.2544  -0.2531  -0.2522
 -0.2510  -0.2495  -0.2481  -0.2457  -0.2454  -0.2453  -0.2425  -0.2418
 -0.2404  -0.2395  -0.2394  -0.2367  -0.2361  -0.2353  -0.2333  -0.2325
 -0.2319  -0.2319  -0.2291  -0.2287  -0.2205  -0.2166  -0.2081  -0.2066
 -- Virtual --
 -0.0217  -0.0208  -0.0197  -0.0184  -0.0146  -0.0123  -0.0113  -0.0108
 -0.0102  -0.0093  -0.0088  -0.0066  -0.0056  -0.0043  -0.0037  -0.0023
 -0.0015  -0.0011  -0.0005   0.0008   0.0018   0.0019   0.0025   0.0034
  0.0040   0.0047   0.0060   0.0064   0.0069   0.0071   0.0074   0.0085
  0.0087   0.0104   0.0106   0.0125   0.0129   0.0135   0.0138   0.0146
  0.0157   0.0162   0.0178   0.0183   0.0191   0.0197   0.0202   0.0206
  0.0212   0.0220   0.0225   0.0226   0.0229   0.0240   0.0255   0.0263
  0.0269   0.0279   0.0286   0.0292   0.0301   0.0306   0.0314   0.0316
  0.0325   0.0328   0.0338   0.0340   0.0349   0.0357   0.0366   0.0372
  0.0379   0.0385   0.0397   0.0405   0.0410   0.0417   0.0419   0.0424
  0.0430   0.0442   0.0446   0.0449   0.0453   0.0461   0.0466   0.0471
  0.0473   0.0484   0.0489   0.0494   0.0502   0.0509   0.0520   0.0521
  0.0532   0.0538   0.0543   0.0550   0.0555   0.0562   0.0564   0.0579
  0.0581   0.0588   0.0590   0.0597   0.0604   0.0614   0.0626   0.0629
  0.0636   0.0649   0.0654   0.0663   0.0669   0.0673   0.0678   0.0685
  0.0693   0.0699   0.0712   0.0715   0.0719   0.0726   0.0731   0.0739
  0.0746   0.0766   0.0768   0.0770   0.0780   0.0781   0.0789   0.0795
  0.0808   0.0810   0.0814   0.0820   0.0827   0.0840   0.0845   0.0854
  0.0856   0.0868   0.0872   0.0881   0.0885   0.0893   0.0901   0.0907
  0.0910   0.0918   0.0920   0.0932   0.0939   0.0945   0.0951   0.0956
  0.0965   0.0972   0.0976   0.0983   0.0985   0.1003   0.1008   0.1017
  0.1021   0.1029   0.1035   0.1036   0.1043   0.1048   0.1062   0.1066
  0.1072   0.1072   0.1084   0.1086   0.1096   0.1101   0.1110   0.1117
  0.1126   0.1136   0.1149   0.1151   0.1157   0.1160   0.1166   0.1172
  0.1177   0.1178   0.1189   0.1199   0.1204   0.1213   0.1224   0.1226
  0.1233   0.1242   0.1246   0.1250   0.1264   0.1271   0.1276   0.1279
  0.1284   0.1294   0.1297   0.1309   0.1312   0.1318   0.1327   0.1337
  0.1346   0.1352   0.1360   0.1364   0.1370   0.1374   0.1384   0.1388
  0.1391   0.1399   0.1408   0.1422   0.1425   0.1433   0.1441   0.1445
  0.1458   0.1460   0.1464   0.1475   0.1478   0.1484   0.1487   0.1502
  0.1506   0.1510   0.1512   0.1521   0.1529   0.1536   0.1543   0.1549
  0.1552   0.1570   0.1574   0.1578   0.1582   0.1592   0.1597   0.1602
  0.1606   0.1609   0.1614   0.1617   0.1620   0.1628   0.1640   0.1645
  0.1651   0.1660   0.1667   0.1677   0.1681   0.1688   0.1699   0.1705
  0.1707   0.1714   0.1723   0.1728   0.1732   0.1747   0.1749   0.1757
  0.1763   0.1768   0.1769   0.1781   0.1787   0.1795   0.1801   0.1807
  0.1817   0.1819   0.1828   0.1834   0.1840   0.1844   0.1855   0.1859
  0.1869   0.1879   0.1883   0.1888   0.1897   0.1904   0.1912   0.1917
  0.1925   0.1931   0.1937   0.1941   0.1953   0.1958   0.1968   0.1971
  0.1977   0.1984   0.1986   0.1998   0.2003   0.2004   0.2012   0.2020
  0.2027   0.2036   0.2042   0.2052   0.2056   0.2059   0.2063   0.2077
  0.2082   0.2093   0.2097   0.2101   0.2105   0.2118   0.2118   0.2125
  0.2126   0.2134   0.2143   0.2146   0.2154   0.2164   0.2168   0.2173
  0.2181   0.2191   0.2195   0.2205   0.2216   0.2218   0.2224   0.2226
  0.2238   0.2240   0.2249   0.2250   0.2261   0.2263   0.2270   0.2272
  0.2279   0.2292   0.2297   0.2302   0.2306   0.2319   0.2320   0.2325
  0.2337   0.2346   0.2349   0.2355   0.2358   0.2369   0.2376   0.2379
  0.2380   0.2391   0.2399   0.2404   0.2410   0.2415   0.2430   0.2435
  0.2445   0.2449   0.2455   0.2462   0.2470   0.2479   0.2486   0.2499
  0.2502   0.2505   0.2515   0.2518   0.2521   0.2528   0.2542   0.2549
  0.2564   0.2574   0.2578   0.2583   0.2589   0.2591   0.2600   0.2607
  0.2616   0.2618   0.2625   0.2642   0.2645   0.2655   0.2658   0.2662
  0.2670   0.2681   0.2689   0.2695   0.2706   0.2710   0.2721   0.2736
  0.2743   0.2750   0.2757   0.2760   0.2765   0.2783   0.2788   0.2791
  0.2799   0.2802   0.2828   0.2831   0.2838   0.2844   0.2845   0.2861
  0.2871   0.2881   0.2890   0.2895   0.2906   0.2916   0.2922   0.2926
  0.2942   0.2947   0.2964   0.2969   0.2981   0.2995   0.3002   0.3006
  0.3020   0.3026   0.3027   0.3031   0.3055   0.3061   0.3065   0.3071
  0.3078   0.3090   0.3090   0.3098   0.3113   0.3127   0.3137   0.3139
  0.3150   0.3158   0.3168   0.3173   0.3180   0.3183   0.3197   0.3201
  0.3214   0.3222   0.3232   0.3246   0.3252   0.3259   0.3271   0.3275
  0.3279   0.3288   0.3290   0.3302   0.3306   0.3326   0.3338   0.3343
  0.3354   0.3356   0.3364   0.3379   0.3380   0.3396   0.3402   0.3411
  0.3416   0.3427   0.3432   0.3446   0.3455   0.3460   0.3467   0.3477
  0.3481   0.3494   0.3505   0.3508   0.3521   0.3529   0.3535   0.3545
  0.3566   0.3568   0.3579   0.3591   0.3597   0.3611   0.3623   0.3630
  0.3633   0.3650   0.3661   0.3671   0.3688   0.3706   0.3709   0.3717
  0.3724   0.3729   0.3746   0.3749   0.3761   0.3772   0.3787   0.3792
  0.3800   0.3806   0.3816   0.3820   0.3835   0.3846   0.3854   0.3862
  0.3867   0.3876   0.3886   0.3895   0.3902   0.3916   0.3925   0.3934
  0.3964   0.3967   0.3974   0.3985   0.3987   0.4008   0.4019   0.4023
  0.4027   0.4031   0.4050   0.4060   0.4068   0.4080   0.4083   0.4099
  0.4103   0.4107   0.4120   0.4128   0.4141   0.4154   0.4154   0.4162
  0.4171   0.4180   0.4186   0.4204   0.4208   0.4226   0.4234   0.4242
  0.4258   0.4263   0.4272   0.4281   0.4285   0.4301   0.4317   0.4318
  0.4334   0.4351   0.4357   0.4369   0.4380   0.4387   0.4399   0.4413
  0.4430   0.4432   0.4437   0.4452   0.4462   0.4480   0.4487   0.4501
  0.4510   0.4514   0.4526   0.4535   0.4543   0.4555   0.4565   0.4576
  0.4594   0.4607   0.4615   0.4627   0.4640   0.4642   0.4653   0.4676
  0.4700   0.4712   0.4717   0.4728   0.4757   0.4764   0.4787   0.4790
  0.4809   0.4833   0.4849   0.4868   0.4871   0.4893   0.4912   0.4932
  0.4938   0.4950   0.4964   0.4968   0.4982   0.5012   0.5016   0.5034
  0.5041   0.5066   0.5073   0.5086   0.5110   0.5113   0.5143   0.5172
  0.5191   0.5196   0.5227   0.5229   0.5237   0.5252   0.5286   0.5294
  0.5301   0.5322   0.5349   0.5368   0.5383   0.5396   0.5418   0.5441
  0.5453   0.5484   0.5497   0.5505   0.5516   0.5541   0.5554   0.5573
  0.5615   0.5625   0.5643   0.5663   0.5676   0.5687   0.5708   0.5714
  0.5725   0.5726   0.5744   0.5770   0.5780   0.5808   0.5828   0.5847
  0.5851   0.5860   0.5872   0.5886   0.5901   0.5913   0.5925   0.5939
  0.5940   0.5974   0.5977   0.5985   0.6005   0.6024   0.6051   0.6057
  0.6062   0.6076   0.6094   0.6102   0.6118   0.6149   0.6153   0.6175
  0.6179   0.6213   0.6225   0.6236   0.6248   0.6265   0.6278   0.6284
  0.6304   0.6313   0.6330   0.6340   0.6345   0.6360   0.6374   0.6381
  0.6388   0.6401   0.6414   0.6432   0.6451   0.6470   0.6481   0.6496
  0.6503   0.6527   0.6539   0.6545   0.6552   0.6566   0.6579   0.6588
  0.6611   0.6615   0.6621   0.6639   0.6656   0.6662   0.6669   0.6675
  0.6694   0.6715   0.6723   0.6729   0.6740   0.6748   0.6761   0.6767
  0.6780   0.6800   0.6805   0.6827   0.6837   0.6850   0.6854   0.6871
  0.6873   0.6897   0.6913   0.6919   0.6941   0.6946   0.6958   0.6959
  0.6969   0.6993   0.7023   0.7024   0.7044   0.7061   0.7074   0.7083
  0.7094   0.7115   0.7122   0.7126   0.7140   0.7163   0.7170   0.7180
  0.7190   0.7196   0.7202   0.7226   0.7239   0.7247   0.7270   0.7279
  0.7293   0.7308   0.7323   0.7344   0.7352   0.7360   0.7394   0.7403
  0.7419   0.7428   0.7432   0.7447   0.7454   0.7491   0.7505   0.7529
  0.7538   0.7544   0.7556   0.7581   0.7587   0.7605   0.7616   0.7653
  0.7655   0.7669   0.7684   0.7707   0.7734   0.7752   0.7762   0.7768
  0.7794   0.7806   0.7821   0.7831   0.7847   0.7858   0.7879   0.7887
  0.7908   0.7914   0.7939   0.7955   0.7960   0.7966   0.7986   0.8008
  0.8029   0.8044   0.8066   0.8080   0.8085   0.8115   0.8120   0.8131
  0.8137   0.8181   0.8192   0.8204   0.8223   0.8230   0.8248   0.8260
  0.8274   0.8290   0.8300   0.8302   0.8338   0.8347   0.8356   0.8379
  0.8389   0.8397   0.8413   0.8434   0.8454   0.8458   0.8482   0.8497
  0.8507   0.8511   0.8536   0.8547   0.8561   0.8565   0.8575   0.8586
  0.8598   0.8610   0.8638   0.8651   0.8653   0.8668   0.8685   0.8705
  0.8713   0.8731   0.8736   0.8758   0.8765   0.8791   0.8797   0.8820
  0.8823   0.8838   0.8847   0.8859   0.8877   0.8895   0.8900   0.8907
  0.8918   0.8921   0.8951   0.8960   0.8978   0.8985   0.8989   0.9002
  0.9017   0.9035   0.9050   0.9060   0.9076   0.9091   0.9103   0.9118
  0.9127   0.9148   0.9161   0.9178   0.9198   0.9209   0.9226   0.9229
  0.9248   0.9265   0.9278   0.9282   0.9292   0.9314   0.9318   0.9333
  0.9341   0.9354   0.9366   0.9374   0.9385   0.9402   0.9409   0.9432
  0.9439   0.9456   0.9471   0.9486   0.9507   0.9517   0.9526   0.9539
  0.9546   0.9559   0.9563   0.9572   0.9588   0.9593   0.9608   0.9632
  0.9637   0.9640   0.9645   0.9658   0.9680   0.9686   0.9693   0.9701
  0.9714   0.9724   0.9743   0.9750   0.9757   0.9769   0.9781   0.9799
  0.9805   0.9821   0.9828   0.9846   0.9857   0.9878   0.9879   0.9899
  0.9911   0.9923   0.9923   0.9933   0.9949   0.9961   0.9965   0.9982
  0.9987   1.0001   1.0008   1.0022   1.0039   1.0053   1.0068   1.0076
  1.0086   1.0099   1.0102   1.0115   1.0139   1.0140   1.0156   1.0170
  1.0183   1.0189   1.0211   1.0223   1.0225   1.0233   1.0246   1.0268
  1.0276   1.0283   1.0295   1.0305   1.0323   1.0339   1.0350   1.0366
  1.0372   1.0384   1.0398   1.0412   1.0425   1.0439   1.0450   1.0454
  1.0473   1.0482   1.0500   1.0521   1.0529   1.0545   1.0547   1.0576
  1.0585   1.0594   1.0605   1.0616   1.0649   1.0653   1.0663   1.0667
  1.0686   1.0698   1.0701   1.0724   1.0727   1.0747   1.0771   1.0783
  1.0792   1.0801   1.0814   1.0836   1.0856   1.0864   1.0873   1.0893
  1.0916   1.0926   1.0936   1.0950   1.0975   1.0987   1.0999   1.1018
  1.1034   1.1035   1.1056   1.1071   1.1079   1.1098   1.1119   1.1122
  1.1142   1.1163   1.1164   1.1179   1.1201   1.1209   1.1231   1.1236
  1.1245   1.1283   1.1287   1.1302   1.1319   1.1328   1.1356   1.1357
  1.1361   1.1370   1.1402   1.1409   1.1424   1.1444   1.1452   1.1472
  1.1476   1.1495   1.1519   1.1538   1.1545   1.1556   1.1574   1.1586
  1.1590   1.1613   1.1626   1.1628   1.1636   1.1652   1.1661   1.1673
  1.1698   1.1720   1.1726   1.1748   1.1764   1.1768   1.1779   1.1795
  1.1804   1.1823   1.1844   1.1853   1.1891   1.1907   1.1919   1.1925
  1.1938   1.1944   1.1988   1.1995   1.1999   1.2011   1.2040   1.2043
  1.2062   1.2080   1.2084   1.2122   1.2149   1.2166   1.2176   1.2197
  1.2210   1.2239   1.2249   1.2259   1.2277   1.2284   1.2319   1.2328
  1.2364   1.2373   1.2402   1.2418   1.2440   1.2462   1.2481   1.2492
  1.2510   1.2530   1.2560   1.2591   1.2626   1.2642   1.2660   1.2663
  1.2680   1.2722   1.2748   1.2762   1.2778   1.2787   1.2828   1.2864
  1.2884   1.2894   1.2930   1.2958   1.2988   1.3002   1.3014   1.3028
  1.3063   1.3079   1.3106   1.3130   1.3138   1.3164   1.3179   1.3216
  1.3235   1.3260   1.3275   1.3278   1.3301   1.3314   1.3338   1.3358
  1.3376   1.3397   1.3420   1.3454   1.3470   1.3488   1.3496   1.3519
  1.3526   1.3548   1.3560   1.3582   1.3620   1.3623   1.3636   1.3679
  1.3694   1.3695   1.3734   1.3748   1.3763   1.3769   1.3796   1.3814
  1.3826   1.3837   1.3849   1.3854   1.3871   1.3887   1.3904   1.3927
  1.3947   1.3954   1.3981   1.3998   1.4008   1.4026   1.4051   1.4061
  1.4064   1.4097   1.4099   1.4111   1.4139   1.4155   1.4169   1.4185
  1.4208   1.4230   1.4230   1.4236   1.4281   1.4286   1.4305   1.4325
  1.4328   1.4354   1.4364   1.4387   1.4409   1.4412   1.4424   1.4460
  1.4485   1.4494   1.4502   1.4517   1.4530   1.4537   1.4567   1.4572
  1.4589   1.4611   1.4621   1.4635   1.4648   1.4681   1.4684   1.4717
  1.4723   1.4768   1.4789   1.4802   1.4811   1.4830   1.4844   1.4865
  1.4880   1.4887   1.4912   1.4927   1.4953   1.4972   1.4985   1.5022
  1.5039   1.5059   1.5088   1.5105   1.5120   1.5149   1.5151   1.5177
  1.5206   1.5228   1.5243   1.5309   1.5344   1.5354   1.5361   1.5372
  1.5427   1.5450   1.5470   1.5504   1.5534   1.5547   1.5562   1.5575
  1.5611   1.5629   1.5666   1.5674   1.5710   1.5773   1.5803   1.5867
  1.5894   1.5922   1.5933   1.5956   1.5980   1.6021   1.6056   1.6090
  1.6149   1.6238   1.6241   1.6263   1.6325   1.6378   1.6429   1.6458
  1.6494   1.6615   1.6648   1.6666   1.6686   1.6687   1.6708   1.6738
  1.6742   1.6758   1.6765   1.6781   1.6790   1.6796   1.6814   1.6835
  1.6842   1.6861   1.6882   1.6886   1.6891   1.6902   1.6932   1.6939
  1.6955   1.6994   1.6996   1.7013   1.7016   1.7035   1.7054   1.7056
  1.7073   1.7077   1.7087   1.7095   1.7101   1.7118   1.7120   1.7130
  1.7152   1.7162   1.7183   1.7207   1.7217   1.7236   1.7250   1.7261
  1.7283   1.7299   1.7320   1.7325   1.7334   1.7363   1.7370   1.7389
  1.7415   1.7421   1.7440   1.7451   1.7469   1.7477   1.7501   1.7507
  1.7522   1.7536   1.7564   1.7569   1.7571   1.7627   1.7637   1.7657
  1.7671   1.7694   1.7704   1.7716   1.7718   1.7727   1.7744   1.7759
  1.7777   1.7789   1.7798   1.7803   1.7829   1.7852   1.7868   1.7880
  1.7895   1.7928   1.7942   1.7960   1.7984   1.8000   1.8015   1.8032
  1.8053   1.8073   1.8086   1.8104   1.8125   1.8174   1.8174   1.8197
  1.8249   1.8306   1.8310   1.8340   1.8368   1.8391   1.8426   1.8445
  1.8479   1.8542   1.8584   1.8620   1.8645   1.8664   1.8674   1.8693
  1.8719   1.8732   1.8773   1.8800   1.8819   1.8843   1.8856   1.8869
  1.8885   1.8899   1.8911   1.8917   1.8933   1.8948   1.8961   1.8982
  1.8990   1.9008   1.9021   1.9034   1.9053   1.9072   1.9083   1.9089
  1.9090   1.9123   1.9126   1.9133   1.9143   1.9150   1.9155   1.9162
  1.9181   1.9191   1.9192   1.9217   1.9219   1.9223   1.9264   1.9277
  1.9298   1.9307   1.9325   1.9349   1.9356   1.9379   1.9400   1.9415
  1.9435   1.9456   1.9467   1.9506   1.9539   1.9552   1.9576   1.9593
  1.9612   1.9654   1.9695   1.9726   1.9739   1.9774   1.9818   1.9848
  1.9911   1.9989   2.0039   2.0084   2.0105   2.0133   2.0220   2.0326
  2.0417   2.0449   2.0471   2.0500   2.0505   2.0533   2.0599   2.0627
  2.0636   2.0651   2.0664   2.0673   2.0678   2.0710   2.0714   2.0715
  2.0725   2.0752   2.0769   2.0772   2.0779   2.0812   2.0857   2.0866
  2.0880   2.0883   2.0896   2.0909   2.0916   2.0934   2.0947   2.0958
  2.0974   2.0993   2.1002   2.1022   2.1026   2.1051   2.1059   2.1070
  2.1104   2.1126   2.1139   2.1174   2.1183   2.1199   2.1214   2.1218
  2.1253   2.1258   2.1281   2.1291   2.1314   2.1329   2.1434   2.1460
  2.1464   2.1508   2.1619   2.1741   2.1758   2.1783   2.1806   2.1838
  2.1852   2.1888   2.1940   2.1955   2.1980   2.2012   2.2038   2.2043
  2.2053   2.2087   2.2105   2.2124   2.2147   2.2165   2.2191   2.2197
  2.2209   2.2227   2.2256   2.2293   2.2317   2.2319   2.2342   2.2347
  2.2383   2.2396   2.2406   2.2418   2.2429   2.2439   2.2465   2.2473
  2.2497   2.2504   2.2522   2.2526   2.2540   2.2561   2.2565   2.2575
  2.2598   2.2607   2.2619   2.2624   2.2638   2.2651   2.2652   2.2664
  2.2667   2.2684   2.2695   2.2712   2.2717   2.2722   2.2735   2.2744
  2.2751   2.2755   2.2761   2.2779   2.2791   2.2798   2.2799   2.2808
  2.2815   2.2824   2.2834   2.2837   2.2846   2.2850   2.2873   2.2881
  2.2884   2.2894   2.2899   2.2902   2.2909   2.2918   2.2929   2.2940
  2.2956   2.2966   2.2974   2.2982   2.3003   2.3008   2.3013   2.3016
  2.3030   2.3038   2.3045   2.3071   2.3093   2.3109   2.3132   2.3136
  2.3150   2.3164   2.3169   2.3190   2.3202   2.3209   2.3219   2.3228
  2.3244   2.3246   2.3252   2.3258   2.3268   2.3278   2.3282   2.3305
  2.3309   2.3330   2.3348   2.3359   2.3374   2.3388   2.3397   2.3431
  2.3461   2.3468   2.3485   2.3509   2.3518   2.3550   2.3561   2.3579
  2.3589   2.3598   2.3629   2.3647   2.3666   2.3687   2.3692   2.3716
  2.3725   2.3775   2.3779   2.3805   2.3824   2.3848   2.3863   2.3908
  2.3961   2.4001   2.4014   2.4023   2.4153   2.4212   2.4258   2.4554
  2.4680   2.4890   2.5037   2.5342   2.5395   2.6155   2.6720   2.7436
  2.7825   2.7908   2.8156   2.8226   2.8300   2.8309   2.8409   2.8423
  2.8445   2.8458   2.8468   2.8471   2.8508   2.8511   2.8532   2.8536
  2.8561   2.8581   2.8605   2.8622   2.8629   2.8668   2.8683   2.8697
  2.8756   2.8791   2.8831   2.8890   2.8945   2.9045   2.9113   2.9823
  3.1098   3.2634   3.9563   3.9585   3.9589   3.9672   3.9698   3.9722
  3.9773   3.9795   3.9817   3.9834   3.9866   3.9897   3.9925   3.9938
  3.9974   4.0010   4.0062   4.0090   4.0109   4.0136   4.0165   4.0170
  4.0266   4.0296   4.0349   4.2141   4.2230   4.2312   4.2354   4.2404
  4.2460   4.2473   4.2582   4.2592   4.2621   4.2655   4.2665   4.2689
  4.2709   4.2762   4.2780   4.2791   4.2824   4.2844   4.2879   4.2897
  4.2913   4.2949   4.2983   4.3012   4.3053   4.3080   4.3102   4.3136
  4.3147   4.3192   4.3211   4.3221   4.3253   4.3286   4.3293   4.3317
  4.3357   4.3381   4.3396   4.3427   4.3446   4.3497   4.3529   4.3547
  4.3563   4.3591   4.3616   4.3640   4.3663   4.3710   4.3747   4.3785
  4.3814   4.3834   4.3851   4.3885   4.3938   4.3985   4.4071   4.4184
  4.4242   4.4315   4.4351   4.4412   4.4507   4.4539   4.4717   4.4806
  4.4871   4.5082   4.5119   4.5338   4.5447   4.5542   4.5784   4.5892
  4.6000   4.6127   4.6518   4.7111   4.7704   4.7863   4.9901
 --------------------------------------------------------------

          Ground-State Mulliken Net Atomic Charges

     Atom                 Charge (a.u.)
  ----------------------------------------
      1 C                    -0.180646
      2 C                    -0.127243
      3 C                    -0.723614
      4 C                    -0.236870
      5 C                    -0.355975
      6 C                    -0.642153
      7 H                     0.244799
      8 H                     0.209888
      9 H                     0.190508
     10 H                     0.228024
     11 H                     0.195168
     12 H                     0.240399
     13 H                     0.205602
     14 H                     0.194896
     15 H                     0.189594
     16 H                     0.225932
     17 H                     0.175102
     18 N                    -0.481273
     19 H                     0.494478
     20 C                     0.251950
     21 H                     0.190848
     22 O                    -0.489415
     23 C                    -0.745884
     24 H                     0.247635
     25 H                     0.291497
     26 H                     0.241205
     27 S                     0.830160
     28 C                    -0.890885
     29 H                     0.280604
     30 H                     0.243027
     31 H                     0.241645
     32 O                    -0.709985
     33 C                    -0.953375
     34 H                     0.237677
     35 H                     0.252084
     36 H                     0.267038
     37 S                     1.012409
     38 C                    -0.846489
     39 H                     0.239715
     40 H                     0.307075
     41 H                     0.263542
     42 O                    -0.764159
     43 C                    -0.763509
     44 H                     0.259367
     45 H                     0.229454
     46 H                     0.263968
     47 S                     0.844997
     48 C                    -0.800334
     49 H                     0.280352
     50 H                     0.225765
     51 H                     0.271438
     52 O                    -0.711478
     53 C                    -0.818963
     54 H                     0.271839
     55 H                     0.264600
     56 H                     0.268744
     57 S                     0.659342
     58 C                    -0.871346
     59 H                     0.252069
     60 H                     0.257015
     61 H                     0.249621
     62 O                    -0.666670
     63 C                    -1.040240
     64 H                     0.303598
     65 H                     0.265737
     66 H                     0.261589
     67 S                     0.994444
     68 C                    -0.944097
     69 H                     0.254519
     70 H                     0.243557
     71 H                     0.289182
     72 O                    -0.687186
     73 C                    -0.951363
     74 H                     0.238152
     75 H                     0.258362
     76 H                     0.290190
     77 S                     1.011795
     78 C                    -0.933107
     79 H                     0.246909
     80 H                     0.244095
     81 H                     0.284615
     82 O                    -0.684267
     83 C                    -1.006727
     84 H                     0.269764
     85 H                     0.242436
     86 H                     0.298950
     87 S                     0.957319
     88 C                    -0.958515
     89 H                     0.243865
     90 H                     0.296086
     91 H                     0.277196
     92 O                    -0.665500
     93 C                    -1.032327
     94 H                     0.261349
     95 H                     0.252946
     96 H                     0.243072
     97 S                     1.081154
     98 C                    -1.052767
     99 H                     0.251031
    100 H                     0.244653
    101 H                     0.327976
    102 O                    -0.648683
    103 C                    -0.964771
    104 H                     0.276691
    105 H                     0.229150
    106 H                     0.256403
    107 S                     0.931353
    108 C                    -0.859233
    109 H                     0.242014
    110 H                     0.261156
    111 H                     0.271617
    112 O                    -0.722194
    113 C                    -0.678071
    114 H                     0.271293
    115 H                     0.237247
    116 H                     0.281108
    117 S                     0.604216
    118 C                    -0.786835
    119 H                     0.239860
    120 H                     0.248188
    121 H                     0.274472
    122 O                    -0.690728
    123 C                    -0.920805
    124 H                     0.258474
    125 H                     0.281476
    126 H                     0.240406
    127 S                     0.993353
    128 C                    -0.941506
    129 H                     0.293821
    130 H                     0.258684
    131 H                     0.254700
    132 O                    -0.720240
    133 C                    -0.850646
    134 H                     0.221865
    135 H                     0.269783
    136 H                     0.275234
    137 S                     0.918642
    138 C                    -0.957103
    139 H                     0.229029
    140 H                     0.283481
    141 H                     0.254002
    142 O                    -0.675468
    143 C                    -0.746650
    144 H                     0.287538
    145 H                     0.239221
    146 H                     0.276188
    147 S                     0.709788
    148 C                    -0.768488
    149 H                     0.270795
    150 H                     0.238194
    151 H                     0.232171
    152 O                    -0.752297
    153 C                    -0.995365
    154 H                     0.289434
    155 H                     0.216369
    156 H                     0.284883
    157 S                     0.923653
    158 C                    -0.762999
    159 H                     0.273617
    160 H                     0.257415
    161 H                     0.238735
    162 O                    -0.745265
    163 C                    -0.835517
    164 H                     0.236982
    165 H                     0.286913
    166 H                     0.234741
    167 S                     1.018610
    168 C                    -0.916027
    169 H                     0.265961
    170 H                     0.236514
    171 H                     0.226304
    172 O                    -0.713321
    173 C                    -0.973968
    174 H                     0.242680
    175 H                     0.258468
    176 H                     0.261383
    177 S                     1.182653
    178 C                    -0.989912
    179 H                     0.238454
    180 H                     0.295939
    181 H                     0.241795
    182 O                    -0.724097
    183 C                    -0.590117
    184 H                     0.237536
    185 H                     0.225206
    186 H                     0.283945
    187 S                     0.565340
    188 C                    -0.719671
    189 H                     0.254247
    190 H                     0.228774
    191 H                     0.227137
    192 O                    -0.698769
    193 C                    -0.687443
    194 H                     0.277282
    195 H                     0.244940
    196 H                     0.224240
    197 S                     0.517170
    198 C                    -0.637770
    199 H                     0.253884
    200 H                     0.235271
    201 H                     0.242930
    202 O                    -0.673917
    203 C                    -0.838016
    204 H                     0.229412
    205 H                     0.274979
    206 H                     0.269808
    207 S                     0.685740
    208 C                    -0.807017
    209 H                     0.295592
    210 H                     0.264679
    211 H                     0.250974
    212 O                    -0.653624
    213 C                    -0.944190
    214 H                     0.223305
    215 H                     0.240037
    216 H                     0.289978
    217 S                     0.908471
    218 C                    -0.804732
    219 H                     0.261973
    220 H                     0.239399
    221 H                     0.264126
    222 O                    -0.659204
    223 C                    -1.087736
    224 H                     0.289231
    225 H                     0.288024
    226 H                     0.288824
    227 S                     1.025409
    228 C                    -0.878449
    229 H                     0.227714
    230 H                     0.257892
    231 H                     0.260677
    232 O                    -0.730987
    233 C                    -0.795265
    234 H                     0.270927
    235 H                     0.271970
    236 H                     0.250199
    237 S                     0.734608
    238 C                    -0.781168
    239 H                     0.224553
    240 H                     0.289637
    241 H                     0.268629
    242 O                    -0.690493
    243 C                    -1.052755
    244 H                     0.308103
    245 H                     0.270429
    246 H                     0.274634
    247 S                     1.254340
    248 C                    -0.904670
    249 H                     0.262987
    250 H                     0.275558
    251 H                     0.257859
    252 O                    -0.782504
    253 C                    -0.897487
    254 H                     0.263840
    255 H                     0.271046
    256 H                     0.282580
    257 S                     0.909002
    258 C                    -0.993219
    259 H                     0.268143
    260 H                     0.297407
    261 H                     0.256887
    262 O                    -0.648592
    263 C                    -0.659443
    264 H                     0.226069
    265 H                     0.281723
    266 H                     0.277724
    267 S                     0.626361
    268 C                    -0.865359
    269 H                     0.317843
    270 H                     0.239573
    271 H                     0.256175
    272 O                    -0.632539
  ----------------------------------------
  Sum of atomic charges =     0.000000

 -----------------------------------------------------------------
                    Cartesian Multipole Moments
 -----------------------------------------------------------------
    Charge (ESU x 10^10)
                -0.0000
    Dipole Moment (Debye)
         X     -16.0531      Y      -8.2880      Z       7.3197
       Tot      19.4929
    Quadrupole Moments (Debye-Ang)
        XX   -1569.3574     XY    -544.4119     YY   -1181.5436
        XZ    -204.1004     YZ     -77.0986     ZZ    -453.9120
    Octopole Moments (Debye-Ang^2)
       XXX  -76252.0052    XXY  -37184.9402    XYY  -32737.9626
       YYY  -60143.5263    XXZ  -36031.2113    XYZ  -10144.0068
       YYZ  -28751.5995    XZZ  -17644.9993    YZZ  -15229.4693
       ZZZ  -53631.2275
    Hexadecapole Moments (Debye-Ang^3)
      XXXX ************   XXXY ************   XXYY ************
      XYYY ************   YYYY ************   XXXZ ************
      XXYZ -877229.9738   XYYZ -789444.3461   YYYZ ************
      XXZZ ************   XYZZ -522321.9030   YYZZ ************
      XZZZ ************   YZZZ ************   ZZZZ ************
 -----------------------------------------------------------------
 Total job time:  27040.11s(wall), 239266.71s(cpu) 
 Thu Jul 21 13:35:41 2022

        *************************************************************
        *                                                           *
        *  Thank you very much for using Q-Chem.  Have a nice day.  *
        *                                                           *
        *************************************************************


 
User input: 2 of 2 
 
                  Welcome to Q-Chem
     A Quantum Leap Into The Future Of Chemistry


 Q-Chem 6.0 (devel), Q-Chem, Inc., Pleasanton, CA (2022)

 E. Epifanovsky,  A. T. B. Gilbert,  Xintian Feng,  Joonho Lee,  Yuezhi Mao,  
 N. Mardirossian,  P. Pokhilko,  A. White,  M. Wormit,  M. P. Coons,  
 A. L. Dempwolff,  Zhengting Gan,  D. Hait,  P. R. Horn,  L. D. Jacobson,  
 I. Kaliman,  J. Kussmann,  A. W. Lange,  Ka Un Lao,  D. S. Levine,  Jie Liu,  
 S. C. McKenzie,  A. F. Morrison,  K. Nanda,  F. Plasser,  D. R. Rehn,  
 M. L. Vidal,  Zhi-Qiang You,  Ying Zhu,  B. Alam,  B. Albrecht,  
 A. Aldossary,  E. Alguire,  J. H. Andersen,  V. Athavale,  D. Barton,  
 K. Begam,  A. Behn,  N. Bellonzi,  Y. A. Bernard,  E. J. Berquist,  
 H. Burton,  A. Carreras,  K. Carter-Fenk,  Romit Chakraborty,  
 Chandrima Chakravarty,  Junhan Chen,  A. D. Chien,  K. D. Closser,  
 V. Cofer-Shabica,  L. Cunha,  S. Dasgupta,  Jia Deng,  M. de Wergifosse,  
 M. Diedenhofen,  Hainam Do,  S. Ehlert,  Po-Tung Fang,  S. Fatehi,  
 Qingguo Feng,  T. Friedhoff,  B. Ganoe,  J. Gayvert,  Qinghui Ge,  
 G. Gidofalvi,  M. Goldey,  J. Gomes,  C. Gonzalez-Espinoza,  S. Gulania,  
 A. Gunina,  J. A. Gyamfi,  M. W. D. Hanson-Heine,  P. H. P. Harbach,  
 A. W. Hauser,  M. F. Herbst,  M. Hernandez Vera,  M. Hodecker,  
 Z. C. Holden,  S. Houck,  Xunkun Huang,  Kerwin Hui,  B. C. Huynh,  
 K. Ikeda,  M. Ivanov,  Hyunjun Ji,  Zuxin Jin,  Hanjie Jiang,  B. Kaduk,  
 S. Kaehler,  R. Kang,  K. Khistyaev,  Jaehoon Kim,  Yongbin Kim,  
 P. Klunzinger,  Z. Koczor-Benda,  Joong Hoon Koh,  D. Kosenkov,  
 Saikiran Kotaru,  L. Koulias,  T. Kowalczyk,  C. M. Krauter,  K. Kue,  
 A. Kunitsa,  T. Kus,  A. Landau,  K. V. Lawler,  D. Lefrancois,  S. Lehtola,  
 Rain Li,  Shaozhi Li,  Yi-Pei Li,  Jiashu Liang,  M. Liebenthal,  
 Hung-Hsuan Lin,  You-Sheng Lin,  Fenglai Liu,  Kuan-Yu Liu,  
 M. Loipersberger,  A. Luenser,  C. Malbon,  A. Manjanath,  P. Manohar,  
 E. Mansoor,  S. F. Manzer,  Shan-Ping Mao,  A. V. Marenich,  T. Markovich,  
 S. Mason,  F. Matz,  S. A. Maurer,  P. F. McLaughlin,  M. F. S. J. Menger,  
 J.-M. Mewes,  S. A. Mewes,  P. Morgante,  Mohammad Mostafanejad,  
 J. W. Mullinax,  K. J. Oosterbaan,  G. Paran,  V. Parravicini,  
 Alexander C. Paul,  Suranjan K. Paul,  F. Pavosevic,  Zheng Pei,  S. Prager,  
 E. I. Proynov,  E. Ramos,  B. Rana,  A. E. Rask,  A. Rettig,  R. M. Richard,  
 F. Rob,  E. Rossomme,  T. Scheele,  M. Scheurer,  M. Schneider,  
 P. E. Schneider,  N. Sergueev,  S. M. Sharada,  Hengyuan Shen,  
 W. Skomorowski,  D. W. Small,  C. J. Stein,  Yingli Su,  Yu-Chuan Su,  
 E. J. Sundstrom,  Zhen Tao,  J. Thirman,  Hung-Yi Tsai,  T. Tsuchimochi,  
 N. M. Tubman,  C. Utku,  S. P. Veccham,  O. Vydrov,  J. Wenzel,  
 Jonathan Wong,  J. Witte,  A. Yamada,  Chou-Hsun Yang,  Kun Yao,  
 S. Yeganeh,  S. R. Yost,  A. Zech,  F. Zeller,  Igor Ying Zhang,  
 Xing Zhang,  Yu Zhang,  D. Zuev,  A. Aspuru-Guzik,  A. T. Bell,  
 N. A. Besley,  K. B. Bravaya,  B. R. Brooks,  D. Casanova,  Jeng-Da Chai,  
 Hsing-Ta Chen,  S. Coriani,  C. J. Cramer,  A. E. DePrince, III,  
 R. A. DiStasio Jr.,  A. Dreuw,  B. D. Dunietz,  T. R. Furlani,  
 W. A. Goddard III,  S. Grimme,  S. Hammes-Schiffer,  T. Head-Gordon,  
 W. J. Hehre,  Chao-Ping Hsu,  T.-C. Jagau,  Yousung Jung,  A. Klamt,  
 Jing Kong,  D. S. Lambrecht,  Xiangyuan Li,  WanZhen Liang,  N. J. Mayhall,  
 C. W. McCurdy,  J. B. Neaton,  T. Neudecker,  C. Ochsenfeld,  
 J. A. Parkhill,  R. Peverati,  V. A. Rassolov,  Haisheng Ren,  Yihan Shao,  
 L. V. Slipchenko,  R. P. Steele,  J. E. Subotnik,  A. J. W. Thom,  
 A. Tkatchenko,  D. G. Truhlar,  T. Van Voorhis,  Fan Wang,  
 T. A. Wesolowski,  K. B. Whaley,  H. L. Woodcock III,  P. M. Zimmerman,  
 S. Faraji,  P. M. W. Gill,  M. Head-Gordon,  J. M. Herbert,  A. I. Krylov

 Contributors to earlier versions of Q-Chem not listed above: 
 R. D. Adamson,  B. Austin,  R. Baer,  J. Baker,  G. J. O. Beran,  
 K. Brandhorst,  S. T. Brown,  E. F. C. Byrd,  Arup K. Chakraborty,  
 G. K. L. Chan,  Chun-Min Chang,  Yunqing Chen,  C.-L. Cheng,  
 Siu Hung Chien,  D. M. Chipman,  D. L. Crittenden,  H. Dachsel,  
 R. J. Doerksen,  A. D. Dutoi,  R. G. Edgar,  J. Fosso-Tande,  
 L. Fusti-Molnar,  D. Ghosh,  A. Ghysels,  A. Golubeva-Zadorozhnaya,  
 J. Gonthier,  M. S. Gordon,  S. R. Gwaltney,  G. Hawkins,  J. E. Herr,  
 A. Heyden,  S. Hirata,  E. G. Hohenstein,  G. Kedziora,  F. J. Keil,  
 C. Kelley,  Jihan Kim,  R. A. King,  R. Z. Khaliullin,  P. P. Korambath,  
 W. Kurlancheek,  A. Laurent,  A. M. Lee,  M. S. Lee,  S. V. Levchenko,  
 Ching Yeh Lin,  D. Liotard,  E. Livshits,  R. C. Lochan,  I. Lotan,  
 L. A. Martinez-Martinez,  P. E. Maslen,  N. Nair,  D. P. O'Neill,  
 D. Neuhauser,  E. Neuscamman,  C. M. Oana,  R. Olivares-Amaya,  R. Olson,  
 T. M. Perrine,  B. Peters,  P. A. Pieniazek,  A. Prociuk,  Y. M. Rhee,  
 J. Ritchie,  M. A. Rohrdanz,  E. Rosta,  N. J. Russ,  H. F. Schaefer III,  
 M. W. Schmidt,  N. E. Schultz,  S. Sharma,  N. Shenvi,  C. D. Sherrill,  
 A. C. Simmonett,  A. Sodt,  T. Stein,  D. Stuck,  K. S. Thanthiriwatte,  
 V. Vanovschi,  L. Vogt,  Tao Wang,  A. Warshel,  M. A. Watson,  
[...]
    2   0.1273285  -0.1718191   0.4542842  -0.2713137  -1.5085560  -1.7168550
    3  -1.6127712   0.2021432  -3.3356315  -1.7480424  -1.7797079  -2.9666122
          169         170         171         172         173         174
    1  -1.4427427  -3.3815269   0.0225721  -2.2858647  -1.1546893  -1.5669899
    2  -3.5854208  -0.5137242  -0.8397613  -3.3563391  -0.1319335   1.3553273
    3  -2.1327429  -2.3402624  -3.8050443   0.1023401   3.3992212   2.7108722
          175         176         177         178         179         180
    1  -1.9091957   0.2844335  -0.1993437   0.7624242  -0.6812040   2.5017845
    2  -1.7075592   0.2675111  -0.5412024  -1.9329620  -2.7907967  -1.4126315
    3   3.1723144   4.7860040   1.4204072   2.8823507   2.2584145   2.4162988
          181         182         183         184         185         186
    1   0.5756517   2.1997452   2.0115765   2.0698416   0.6653582   2.7016306
    2  -1.2532044   1.3537758   1.4828748   2.9712749  -0.0598279   1.3084409
    3   4.6399688   2.7364600  -0.9006493   0.4373501  -0.4260791  -2.8232536
          187         188         189         190         191         192
    1   0.5365850  -0.9590760  -2.4989689  -0.2195737  -0.4572118  -0.4899681
    2   2.8452136   1.9950603   2.5809949   0.2814016   3.5704426   0.4083354
    3  -1.3808968  -0.0921900  -1.4715244   0.0688016   0.6332990  -3.4900492
          193         194         195         196         197         198
    1   0.3024145   1.5434589   0.1459710  -0.6853096   1.1566800   1.9569329
    2   0.2485148   1.4676233   0.2212900  -1.2816249  -1.4922723  -1.4911166
    3  -1.9723426  -0.8469903  -3.9896459  -1.2528566  -2.1154017  -0.2193383
          199         200         201         202         203         204
    1   0.0422911   2.9658441   2.3973140   3.4504327   0.5152851   0.3551421
    2  -1.6562964  -2.9144115   0.5155844   0.6515510  -0.2456550  -2.2096211
    3  -0.4858972  -0.5846147   0.1615764  -2.4031859  -3.5950280  -3.1810879
          205         206         207         208         209         210
    1  -0.6464788   2.2270548  -0.6078594   0.4091402   1.8814365  -1.2811987
    2   0.5393654   0.8782163   0.0778033   1.9895997   1.7015333   2.3851972
    3  -3.9049238  -3.7001678  -1.2841295  -1.5511180  -3.0632658  -1.5891757
          211         212         213         214         215         216
    1   0.9887217   2.3091901   0.1542804   0.7715574  -0.8559208   0.3601616
    2   1.8066693  -0.4003911   0.1576648  -0.5608457   1.8338495  -0.9130567
    3   0.5412713  -0.5076414  -0.3622753   0.8195108  -0.4487807  -1.9213054
          217         218         219         220         221         222
    1   2.4481195   1.9615538   2.6418932   3.0587702   0.0760481   1.3037704
    2   0.4867073   2.4789240   1.2838574   3.4611858   2.6272999   2.0827254
    3  -1.0469893   0.3409236   1.4243097  -0.5757297   0.2237904  -3.2434653
          223         224         225         226         227         228
    1   1.0312376   0.1647066  -0.2599596   3.0310194   0.8705053   3.0523204
    2   0.1026477   1.5912759  -0.8142581  -0.4908387  -2.1531866  -2.0891470
    3   0.7196365  -0.3133261   1.6614365   0.7973176   0.0137305  -0.5890103
          229         230         231         232         233         234
    1   3.1556062   2.4954837   3.5059127   0.6930493  -1.0738854   0.0393270
    2  -2.6638747  -3.1910172  -0.1381839  -0.0092799   1.4288651   2.8511945
    3   0.9185358  -2.0900030  -0.7589855  -2.3279014  -2.1296837  -2.3891444
          235         236         237         238         239         240
    1  -0.4097935  -3.1848521  -1.5227837   0.2034250   0.9362403  -0.7331588
    2  -0.4099751   1.6809365   2.5864466   1.2228855   2.6369077   2.2183502
    3  -1.3669673  -2.5768514  -0.7364197   0.0622133  -0.9851678   1.2266651
          241         242         243         244         245         246
    1   0.2837364  -3.4214974   1.3806061   0.6091189   1.5532431   1.6327752
    2  -0.7465431  -0.0666437  -2.0445038  -1.6268271  -0.3100663  -4.2138094
    3  -0.1399567  -0.1427631  -0.7800536  -2.0619710   0.4603680  -0.2532990
          247         248         249         250         251         252
    1  -0.3148765  -1.0531921  -2.2373852  -0.7479369   0.5107850  -0.9491891
    2  -2.7050211  -2.9751866  -3.6951138  -1.1101336  -4.4472738   0.8325665
    3   0.6043810  -1.2280856  -0.2854247  -2.1407142  -1.3399174   0.0493594
          253         254         255         256         257         258
    1  -2.3009005  -3.5364022  -2.8771455  -0.6009735  -0.8609763  -2.4070930
    2   0.9717610   0.4983427   2.9559442  -0.0083815   0.4178437   2.0409146
    3  -0.7555372   0.2230020  -0.7943806  -1.5887188   0.7417172   1.7544572
          259         260         261         262         263         264
    1  -3.8713801  -1.2262307  -2.6604114   0.7117302  -0.8234416  -2.8873482
    2   1.0722785   2.1983613   3.4757735   2.5227957  -0.4184593  -1.2036828
    3   1.5095018   3.1410893   0.4726131  -0.3774026   0.4292480  -0.4955302
          265         266         267         268         269         270
    1   0.6365138  -0.7698409  -0.5520779  -3.0928187  -2.6259336  -2.5982234
    2  -1.4070363   1.1592395   0.7904246   0.7566733   2.0366061   0.5962029
    3   0.1185241   1.0480946  -0.8026427  -1.4281492  -0.3179887  -3.2840293
          271         272
    1  -4.0837719  -0.6922437
    2  -0.5579190  -1.6762352
    3  -0.8516069  -3.0116927
 EField
            1           2           3           4           5           6
    1   0.0009982  -0.0033735   0.0005527   0.0033331   0.0039689   0.0001312
    2  -0.0006759  -0.0034867  -0.0029471  -0.0019006  -0.0040638   0.0000931
    3  -0.0023638  -0.0041460  -0.0044257  -0.0087884  -0.0044992  -0.0012186
            7           8           9          10          11          12
    1   0.0053624  -0.0062665   0.0040155   0.0001899  -0.0022712   0.0095029
    2  -0.0012943  -0.0001502  -0.0026957   0.0020240  -0.0030642   0.0050587
    3  -0.0096441  -0.0037465  -0.0021327  -0.0021967  -0.0117144  -0.0096335
           13          14          15          16          17          18
    1   0.0054980   0.0040768  -0.0025354  -0.0014353   0.0026430  -0.0099915
    2  -0.0064887  -0.0070156   0.0008503   0.0033498  -0.0025658  -0.0118081
    3  -0.0041807  -0.0040441  -0.0032176   0.0052990   0.0021215  -0.0063458
           19          20          21          22          23          24
    1  -0.0188001  -0.0086848  -0.0112992  -0.0051390   0.0063540   0.0269511
    2  -0.0336319  -0.0056446  -0.0069111  -0.0000442  -0.0060580  -0.0172312
    3  -0.0038002  -0.0064415  -0.0095613  -0.0021958  -0.0008624  -0.0251073
           25          26          27          28          29          30
    1   0.0051421  -0.0199699  -0.0495788  -0.0019233   0.0129479   0.0158021
    2  -0.0187490  -0.0189362   0.0080805   0.0038104   0.0295984  -0.0163600
    3   0.0267129  -0.0155560   0.0354187  -0.0075433   0.0038339  -0.0227940
           31          32          33          34          35          36
    1  -0.0323201   0.0932005  -0.0001850  -0.0355854   0.0211072   0.0198116
    2  -0.0046516   0.0523902   0.0078553  -0.0003678  -0.0155664   0.0241989
    3  -0.0133382   0.0242410   0.0086611   0.0065553   0.0206732  -0.0169691
           37          38          39          40          41          42
    1  -0.0486587   0.0036136  -0.0219005   0.0032782   0.0290557   0.0922482
    2  -0.0054199  -0.0112330  -0.0053611  -0.0242529   0.0092925   0.0352698
    3  -0.0270469   0.0022752   0.0255613  -0.0252665   0.0118135  -0.0486836
           43          44          45          46          47          48
    1  -0.0071638  -0.0214640  -0.0003340  -0.0180122   0.0306502   0.0013006
    2  -0.0006025   0.0055222  -0.0306348   0.0091469  -0.0272393  -0.0009744
    3   0.0031954  -0.0234526   0.0033553   0.0228735  -0.0416256   0.0097838
           49          50          51          52          53          54
    1  -0.0194233   0.0185182   0.0209051  -0.0038696   0.0025452  -0.0304626
    2  -0.0002055  -0.0280162   0.0220620   0.1097722   0.0031949   0.0140015
    3   0.0255107   0.0078063  -0.0029160   0.0045932   0.0065734   0.0064242
           55          56          57          58          59          60
    1   0.0236162   0.0219334  -0.0467059  -0.0013579   0.0254035  -0.0293042
    2  -0.0209055   0.0055375   0.0265257  -0.0050489  -0.0129211   0.0107911
    3   0.0168818  -0.0145426  -0.0273331   0.0053616   0.0155392   0.0123152
           61          62          63          64          65          66
    1  -0.0077052   0.0863765   0.0022384  -0.0096577   0.0060837   0.0276132
    2  -0.0295708  -0.0389080  -0.0069146  -0.0349080  -0.0056412   0.0137533
    3  -0.0103164  -0.0540574   0.0009085   0.0027454  -0.0297926   0.0064614
           67          68          69          70          71          72
    1   0.0047163   0.0003354  -0.0272874   0.0009281   0.0181270  -0.0859467
    2   0.0505059   0.0015927   0.0062914  -0.0276770   0.0272156  -0.0671968
    3  -0.0227648   0.0073132   0.0173190   0.0130900   0.0152922  -0.0131156
           73          74          75          76          77          78
    1  -0.0026540   0.0024433  -0.0284763   0.0151699   0.0519688  -0.0032826
    2   0.0081357  -0.0019851   0.0050533   0.0265819  -0.0154446  -0.0039778
    3  -0.0049562  -0.0335358   0.0139848   0.0065957  -0.0162481  -0.0055405
           79          80          81          82          83          84
    1   0.0000685  -0.0278924  -0.0006753  -0.0249379   0.0078653   0.0277503
    2  -0.0242633   0.0091775  -0.0127878   0.0297176  -0.0127340   0.0153107
    3   0.0194310   0.0069316  -0.0381515   0.1011664  -0.0019071  -0.0176771
           85          86          87          88          89          90
    1  -0.0088496   0.0023583   0.0098546  -0.0039225  -0.0234307   0.0038082
    2  -0.0207698  -0.0279972   0.0501554  -0.0110646   0.0215662  -0.0323666
    3   0.0247525  -0.0156993   0.0286407   0.0056899  -0.0051854  -0.0131258
           91          92          93          94          95          96
    1   0.0007782  -0.0124276   0.0092415   0.0254212   0.0176404  -0.0100877
    2  -0.0021061  -0.0003855  -0.0011588   0.0040337  -0.0295527   0.0225923
    3   0.0376374  -0.1085791  -0.0007440   0.0203133   0.0006686  -0.0254467
           97          98          99         100         101         102
    1  -0.0472762   0.0010911  -0.0029185  -0.0287368   0.0336597   0.0074776
    2   0.0109480   0.0067116   0.0358544   0.0194580  -0.0034318  -0.0864984
    3  -0.0355213   0.0102137  -0.0091262   0.0145266   0.0189140   0.0655265
          103         104         105         106         107         108
    1  -0.0043515  -0.0099814  -0.0092826  -0.0241236   0.0176760   0.0029137
    2  -0.0011622   0.0159495  -0.0290485   0.0146290   0.0520461  -0.0042162
    3  -0.0070328  -0.0339954   0.0054345   0.0068908  -0.0177998  -0.0055892
          109         110         111         112         113         114
    1   0.0122224   0.0293823  -0.0024994  -0.0086005  -0.0039607   0.0088107
    2  -0.0080774   0.0014574  -0.0268239  -0.0286376   0.0052032   0.0297163
    3  -0.0394695   0.0037605   0.0120664   0.1046128  -0.0076265  -0.0070246
          115         116         117         118         119         120
    1   0.0250546  -0.0311001   0.0604798  -0.0046239   0.0268594  -0.0236872
    2  -0.0206800  -0.0000504  -0.0035890  -0.0067044  -0.0212034  -0.0152407
    3  -0.0132777  -0.0133837   0.0212025  -0.0031272  -0.0031527   0.0192834
          121         122         123         124         125         126
    1  -0.0344964  -0.0777503   0.0095495  -0.0174151   0.0281305   0.0064056
    2  -0.0105927   0.0479448   0.0019828  -0.0146383  -0.0167235   0.0293971
    3  -0.0168652   0.0567713   0.0064922   0.0206397  -0.0056912   0.0162688
          127         128         129         130         131         132
    1  -0.0028203   0.0064136   0.0346580  -0.0132228   0.0005375  -0.0873311
    2  -0.0481264   0.0065594  -0.0046218   0.0040283   0.0263136   0.0515272
    3  -0.0278305  -0.0049365  -0.0123756  -0.0302181   0.0209900   0.0445232
          133         134         135         136         137         138
    1  -0.0072425   0.0040367   0.0042242  -0.0282865  -0.0088246  -0.0041872
    2  -0.0026238   0.0084266  -0.0318549   0.0065551   0.0008656   0.0092765
    3  -0.0035976  -0.0307419  -0.0002532   0.0165111   0.0537657  -0.0002827
          139         140         141         142         143         144
    1   0.0056166  -0.0287453   0.0282321   0.0952607  -0.0004767  -0.0064691
    2  -0.0017926   0.0205378   0.0122682  -0.0312840   0.0013850   0.0284627
    3  -0.0305540   0.0104398   0.0044924  -0.0454839  -0.0133627  -0.0160028
          145         146         147         148         149         150
    1   0.0183824  -0.0259940  -0.0093101  -0.0044108   0.0011675  -0.0318358
    2  -0.0257165  -0.0098579  -0.0437960   0.0067486   0.0285086  -0.0114756
    3  -0.0212474  -0.0126638   0.0259285  -0.0004469  -0.0131687  -0.0073505
          151         152         153         154         155         156
    1   0.0021602   0.0861909   0.0013319   0.0214944  -0.0054791  -0.0260209
    2   0.0240813   0.0636807   0.0124890   0.0279720   0.0106494   0.0136735
    3   0.0262951  -0.0092485   0.0082039   0.0031758  -0.0228423   0.0237398
          157         158         159         160         161         162
    1  -0.0364274   0.0047164  -0.0222626   0.0205390   0.0179016   0.0903577
    2  -0.0337693   0.0002379   0.0109865  -0.0269672   0.0255395   0.0196224
    3  -0.0098520   0.0105014   0.0271513  -0.0058780   0.0085797  -0.0619973
          163         164         165         166         167         168
    1  -0.0003161   0.0079612   0.0182188  -0.0325276   0.0544773  -0.0014587
    2   0.0072753   0.0234175   0.0287954  -0.0011302   0.0023059  -0.0023656
    3   0.0010055   0.0218146  -0.0089560   0.0012396  -0.0055246  -0.0045359
          169         170         171         172         173         174
    1  -0.0016034  -0.0277604   0.0119778  -0.0545870  -0.0050936  -0.0132360
    2  -0.0296966   0.0113659   0.0042525  -0.0703013   0.0024945   0.0288288
    3  -0.0017889  -0.0018570  -0.0358674   0.0633610   0.0108990  -0.0086624
          175         176         177         178         179         180
    1  -0.0175286   0.0136046  -0.0223115   0.0053413  -0.0123219   0.0283525
    2  -0.0300878   0.0035408  -0.0084506  -0.0088522  -0.0283101  -0.0129165
    3   0.0029086   0.0324614  -0.0527934   0.0086827  -0.0087257  -0.0159017
          181         182         183         184         185         186
    1  -0.0021498   0.0817620   0.0048704   0.0201411   0.0134346   0.0245173
    2   0.0033520   0.0717865  -0.0069009   0.0125987  -0.0374179  -0.0128262
    3   0.0365482   0.0271240   0.0022730   0.0244182   0.0102320  -0.0154867
          187         188         189         190         191         192
    1   0.0080187  -0.0027579  -0.0326367  -0.0047332   0.0128157  -0.0375621
    2   0.0552096   0.0012798  -0.0126546  -0.0279689   0.0183124  -0.0691462
    3  -0.0100700   0.0021542  -0.0187724   0.0107345   0.0333344  -0.0782980
          193         194         195         196         197         198
    1  -0.0059644  -0.0021657  -0.0013015  -0.0281772  -0.0173570  -0.0046801
    2   0.0066044   0.0279566   0.0171337  -0.0045148  -0.0457513   0.0023072
    3   0.0043702   0.0132316  -0.0281879   0.0250515  -0.0327567   0.0069183
          199         200         201         202         203         204
    1  -0.0290649   0.0228117   0.0178913   0.0878066  -0.0004968   0.0065384
    2  -0.0106692  -0.0186461   0.0209518   0.0601663   0.0015319  -0.0323662
    3   0.0223302   0.0029672   0.0200405  -0.0316064  -0.0094152  -0.0068082
          205         206         207         208         209         210
    1  -0.0239709   0.0285324  -0.0453972   0.0001024   0.0171590  -0.0250481
    2   0.0194634   0.0085323  -0.0123844   0.0116622   0.0037576   0.0172479
    3  -0.0114829  -0.0079723   0.0201157  -0.0007316  -0.0272358  -0.0170506
          211         212         213         214         215         216
    1   0.0142819   0.0992737  -0.0076023   0.0039685  -0.0227700  -0.0180658
    2  -0.0002967  -0.0264191  -0.0055008  -0.0044792   0.0196143  -0.0194950
    3   0.0314969   0.0391585  -0.0036808   0.0328232   0.0084304  -0.0261118
          217         218         219         220         221         222
    1   0.0470585  -0.0005642   0.0201991   0.0192357  -0.0293139  -0.0259152
    2  -0.0347278   0.0051108  -0.0113709   0.0236799   0.0151512   0.0544391
    3   0.0045468   0.0070667   0.0249251  -0.0048330   0.0024898  -0.0908675
          223         224         225         226         227         228
    1   0.0005160  -0.0104324  -0.0182701   0.0298923  -0.0311996   0.0075314
    2   0.0049879   0.0249456  -0.0017605   0.0093240  -0.0409834  -0.0008335
    3   0.0044873  -0.0250205   0.0221374   0.0077621   0.0158047  -0.0022163
          229         230         231         232         233         234
    1   0.0127338   0.0067280   0.0091384  -0.0191765   0.0046527   0.0229542
    2  -0.0202380  -0.0183974   0.0278858   0.0612427  -0.0041233   0.0205050
    3   0.0230377  -0.0247747  -0.0133813  -0.0911494  -0.0100334  -0.0139054
          235         236         237         238         239         240
    1   0.0072140  -0.0266043  -0.0111875   0.0043818   0.0370138  -0.0060990
    2  -0.0295956  -0.0060433   0.0525628   0.0002163   0.0081887   0.0025073
    3   0.0011438  -0.0164601   0.0033341   0.0048205  -0.0142556   0.0342379
          241         242         243         244         245         246
    1   0.0094682  -0.0719882   0.0052246   0.0067530   0.0108217   0.0253064
    2  -0.0310983  -0.0800226   0.0024322   0.0042460   0.0235983  -0.0263136
    3  -0.0047906   0.0258118  -0.0057023  -0.0316323   0.0098342  -0.0049947
          247         248         249         250         251         252
    1  -0.0010409  -0.0020714  -0.0289280   0.0008786   0.0158975  -0.0292406
    2  -0.0274117  -0.0044552  -0.0021967   0.0249806  -0.0249194   0.1157868
    3   0.0386503  -0.0087717   0.0053108  -0.0150271  -0.0266422  -0.0094942
          253         254         255         256         257         258
    1  -0.0092077  -0.0240797  -0.0090511   0.0109229   0.0190188  -0.0092918
    2  -0.0001770  -0.0218197   0.0277017  -0.0149056  -0.0567163   0.0087253
    3  -0.0088486   0.0052938  -0.0142950  -0.0251656   0.0194807   0.0050289
          259         260         261         262         263         264
    1  -0.0265770   0.0249697  -0.0123295   0.0710161  -0.0016691  -0.0243561
    2  -0.0187666  -0.0037781   0.0301400   0.0732372  -0.0067753  -0.0167320
    3  -0.0005993   0.0267148  -0.0165230  -0.0405339   0.0111206   0.0082146
          265         266         267         268         269         270
    1   0.0312336  -0.0018278   0.0398050  -0.0077594  -0.0101821  -0.0051735
    2  -0.0208345   0.0153578   0.0447718   0.0064300   0.0329035   0.0050393
    3   0.0136808   0.0251868   0.0037927   0.0024702   0.0123663  -0.0297074
          271         272
    1  -0.0218711   0.0086135
    2  -0.0200712  -0.0817538
    3   0.0101825  -0.0707016
  --- DONE ESP SUMMARY ---
 Total job time:  26.39s(wall), 84.36s(cpu) 
 Thu Jul 21 13:36:08 2022

        *************************************************************
        *                                                           *
        *  Thank you very much for using Q-Chem.  Have a nice day.  *
        *                                                           *
        *************************************************************


