                  Welcome to Q-Chem
     A Quantum Leap Into The Future Of Chemistry


 Q-Chem 6.0 (devel), Q-Chem, Inc., Pleasanton, CA (2022)

 E. Epifanovsky,  A. T. B. Gilbert,  Xintian Feng,  Joonho Lee,  Yuezhi Mao,  
 N. Mardirossian,  P. Pokhilko,  A. White,  M. Wormit,  M. P. Coons,  
 A. L. Dempwolff,  Zhengting Gan,  D. Hait,  P. R. Horn,  L. D. Jacobson,  
 I. Kaliman,  J. Kussmann,  A. W. Lange,  Ka Un Lao,  D. S. Levine,  Jie Liu,  
 S. C. McKenzie,  A. F. Morrison,  K. Nanda,  F. Plasser,  D. R. Rehn,  
 M. L. Vidal,  Zhi-Qiang You,  Ying Zhu,  B. Alam,  B. Albrecht,  
 A. Aldossary,  E. Alguire,  J. H. Andersen,  V. Athavale,  D. Barton,  
 K. Begam,  A. Behn,  N. Bellonzi,  Y. A. Bernard,  E. J. Berquist,  
 H. Burton,  A. Carreras,  K. Carter-Fenk,  Romit Chakraborty,  
 Chandrima Chakravarty,  Junhan Chen,  A. D. Chien,  K. D. Closser,  
 V. Cofer-Shabica,  L. Cunha,  S. Dasgupta,  Jia Deng,  M. de Wergifosse,  
 M. Diedenhofen,  Hainam Do,  S. Ehlert,  Po-Tung Fang,  S. Fatehi,  
 Qingguo Feng,  T. Friedhoff,  B. Ganoe,  J. Gayvert,  Qinghui Ge,  
 G. Gidofalvi,  M. Goldey,  J. Gomes,  C. Gonzalez-Espinoza,  S. Gulania,  
 A. Gunina,  J. A. Gyamfi,  M. W. D. Hanson-Heine,  P. H. P. Harbach,  
 A. W. Hauser,  M. F. Herbst,  M. Hernandez Vera,  M. Hodecker,  
 Z. C. Holden,  S. Houck,  Xunkun Huang,  Kerwin Hui,  B. C. Huynh,  
 K. Ikeda,  M. Ivanov,  Hyunjun Ji,  Zuxin Jin,  Hanjie Jiang,  B. Kaduk,  
 S. Kaehler,  R. Kang,  K. Khistyaev,  Jaehoon Kim,  Yongbin Kim,  
 P. Klunzinger,  Z. Koczor-Benda,  Joong Hoon Koh,  D. Kosenkov,  
 Saikiran Kotaru,  L. Koulias,  T. Kowalczyk,  C. M. Krauter,  K. Kue,  
 A. Kunitsa,  T. Kus,  A. Landau,  K. V. Lawler,  D. Lefrancois,  S. Lehtola,  
 Rain Li,  Shaozhi Li,  Yi-Pei Li,  Jiashu Liang,  M. Liebenthal,  
 Hung-Hsuan Lin,  You-Sheng Lin,  Fenglai Liu,  Kuan-Yu Liu,  
 M. Loipersberger,  A. Luenser,  C. Malbon,  A. Manjanath,  P. Manohar,  
 E. Mansoor,  S. F. Manzer,  Shan-Ping Mao,  A. V. Marenich,  T. Markovich,  
 S. Mason,  F. Matz,  S. A. Maurer,  P. F. McLaughlin,  M. F. S. J. Menger,  
 J.-M. Mewes,  S. A. Mewes,  P. Morgante,  Mohammad Mostafanejad,  
 J. W. Mullinax,  K. J. Oosterbaan,  G. Paran,  V. Parravicini,  
 Alexander C. Paul,  Suranjan K. Paul,  F. Pavosevic,  Zheng Pei,  S. Prager,  
 E. I. Proynov,  E. Ramos,  B. Rana,  A. E. Rask,  A. Rettig,  R. M. Richard,  
 F. Rob,  E. Rossomme,  T. Scheele,  M. Scheurer,  M. Schneider,  
 P. E. Schneider,  N. Sergueev,  S. M. Sharada,  Hengyuan Shen,  
 W. Skomorowski,  D. W. Small,  C. J. Stein,  Yingli Su,  Yu-Chuan Su,  
 E. J. Sundstrom,  Zhen Tao,  J. Thirman,  Hung-Yi Tsai,  T. Tsuchimochi,  
 N. M. Tubman,  C. Utku,  S. P. Veccham,  O. Vydrov,  J. Wenzel,  
 Jonathan Wong,  J. Witte,  A. Yamada,  Chou-Hsun Yang,  Kun Yao,  
 S. Yeganeh,  S. R. Yost,  A. Zech,  F. Zeller,  Igor Ying Zhang,  
 Xing Zhang,  Yu Zhang,  D. Zuev,  A. Aspuru-Guzik,  A. T. Bell,  
 N. A. Besley,  K. B. Bravaya,  B. R. Brooks,  D. Casanova,  Jeng-Da Chai,  
 Hsing-Ta Chen,  S. Coriani,  C. J. Cramer,  A. E. DePrince, III,  
 R. A. DiStasio Jr.,  A. Dreuw,  B. D. Dunietz,  T. R. Furlani,  
 W. A. Goddard III,  S. Grimme,  S. Hammes-Schiffer,  T. Head-Gordon,  
 W. J. Hehre,  Chao-Ping Hsu,  T.-C. Jagau,  Yousung Jung,  A. Klamt,  
 Jing Kong,  D. S. Lambrecht,  Xiangyuan Li,  WanZhen Liang,  N. J. Mayhall,  
 C. W. McCurdy,  J. B. Neaton,  T. Neudecker,  C. Ochsenfeld,  
 J. A. Parkhill,  R. Peverati,  V. A. Rassolov,  Haisheng Ren,  Yihan Shao,  
 L. V. Slipchenko,  R. P. Steele,  J. E. Subotnik,  A. J. W. Thom,  
 A. Tkatchenko,  D. G. Truhlar,  T. Van Voorhis,  Fan Wang,  
 T. A. Wesolowski,  K. B. Whaley,  H. L. Woodcock III,  P. M. Zimmerman,  
 S. Faraji,  P. M. W. Gill,  M. Head-Gordon,  J. M. Herbert,  A. I. Krylov

 Contributors to earlier versions of Q-Chem not listed above: 
 R. D. Adamson,  B. Austin,  R. Baer,  J. Baker,  G. J. O. Beran,  
 K. Brandhorst,  S. T. Brown,  E. F. C. Byrd,  Arup K. Chakraborty,  
 G. K. L. Chan,  Chun-Min Chang,  Yunqing Chen,  C.-L. Cheng,  
 Siu Hung Chien,  D. M. Chipman,  D. L. Crittenden,  H. Dachsel,  
 R. J. Doerksen,  A. D. Dutoi,  R. G. Edgar,  J. Fosso-Tande,  
 L. Fusti-Molnar,  D. Ghosh,  A. Ghysels,  A. Golubeva-Zadorozhnaya,  
 J. Gonthier,  M. S. Gordon,  S. R. Gwaltney,  G. Hawkins,  J. E. Herr,  
 A. Heyden,  S. Hirata,  E. G. Hohenstein,  G. Kedziora,  F. J. Keil,  
 C. Kelley,  Jihan Kim,  R. A. King,  R. Z. Khaliullin,  P. P. Korambath,  
 W. Kurlancheek,  A. Laurent,  A. M. Lee,  M. S. Lee,  S. V. Levchenko,  
 Ching Yeh Lin,  D. Liotard,  E. Livshits,  R. C. Lochan,  I. Lotan,  
 L. A. Martinez-Martinez,  P. E. Maslen,  N. Nair,  D. P. O'Neill,  
 D. Neuhauser,  E. Neuscamman,  C. M. Oana,  R. Olivares-Amaya,  R. Olson,  
 T. M. Perrine,  B. Peters,  P. A. Pieniazek,  A. Prociuk,  Y. M. Rhee,  
 J. Ritchie,  M. A. Rohrdanz,  E. Rosta,  N. J. Russ,  H. F. Schaefer III,  
 M. W. Schmidt,  N. E. Schultz,  S. Sharma,  N. Shenvi,  C. D. Sherrill,  
 A. C. Simmonett,  A. Sodt,  T. Stein,  D. Stuck,  K. S. Thanthiriwatte,  
 V. Vanovschi,  L. Vogt,  Tao Wang,  A. Warshel,  M. A. Watson,  
 C. F. Williams,  Q. Wu,  X. Xu,  Jun Yang,  W. Zhang,  Yan Zhao

   Please cite Q-Chem as follows:
  "Software for the frontiers of quantum chemistry:
   An overview of developments in the Q-Chem 5 package"
   J. Chem. Phys. 155, 084801 (2021)
   https://doi.org/10.1063/5.0055522 (open access)

 Q-Chem 6.0.0 for Intel X86 EM64T Linux

 Parts of Q-Chem use Armadillo 9.900.5 (Nocturnal Misbehaviour).
 http://arma.sourceforge.net/

 Q-Chem begins on Thu Jul 21 04:08:46 2022  

 Host: nid00564
0

     Scratch files written to /global/cscratch1/sd/ymao90/r7.00_frame_0049_almo_B3LYP_dp20220721031450//
 Processing $rem in /global/homes/y/ymao90/my_qchem/qchem_embedding_5p4/config/preferences:
 Processing $rem in /global/homes/y/ymao90/.qchemrc:

 Checking the input file for inconsistencies... 	...done.

--------------------------------------------------------------
User input:
--------------------------------------------------------------
$molecule
0 1
--
0 1
C    29.68200   18.71800   25.50000  
C    29.14500   19.83700   26.40800  
C    29.75200   19.79200   27.81900  
C    31.28100   19.82200   27.65800  
C    31.85900   18.81900   26.64600  
C    31.19700   18.82800   25.25900  
H    29.51100   20.65500   28.45200  
H    29.45000   20.75600   25.89200  
H    29.60500   17.74800   26.00700  
H    29.07300   18.59400   24.59700  
H    31.54100   20.79600   27.22700  
H    31.81900   19.65800   28.60000  
H    32.94500   18.96100   26.58600  
H    31.75800   17.81000   27.06500  
H    31.44200   19.72100   24.67100  
H    31.44000   17.91700   24.69800  
H    29.53700   18.88100   28.39100  
N    27.71500   19.54700   26.50100  
H    27.43500   18.61000   26.76600  
C    26.72000   20.39600   26.06500  
H    25.75900   19.90700   25.82500  
O    26.98300   21.57500   25.90600  
--
0 1
C    24.51600   25.45700   21.57200  
H    25.48200   25.96600   21.62100  
H    24.69400   24.40900   21.82800  
H    24.01600   25.66100   20.62200  
S    23.59000   26.38900   22.81300  
C    24.04200   28.00200   22.13500  
H    24.48500   28.56700   22.96000  
H    24.87900   27.77400   21.47100  
H    23.19200   28.43000   21.59700  
O    24.37700   26.23200   24.07700  
C    31.29200   20.76900   31.91100  
H    31.79100   19.79700   31.87000  
H    31.21000   21.36800   31.00100  
H    31.80500   21.34900   32.68300  
S    29.57100   20.39400   32.31400  
C    29.86600   19.35100   33.76000  
H    30.77200   18.77500   33.55500  
H    29.88000   20.04900   34.60100  
H    28.98900   18.71600   33.90700  
O    29.18700   19.50400   31.17300  
C    31.25600   25.20100   30.99800  
H    30.18000   25.01700   31.05400  
H    31.62200   26.22500   30.88800  
H    31.65300   24.68800   30.11900  
S    31.90400   24.53200   32.54700  
C    31.53300   25.98700   33.55200  
H    30.46300   26.12200   33.73000  
H    31.87600   25.88200   34.58400  
H    31.98500   26.91000   33.17900  
O    33.34700   24.68900   32.18000  
C    34.21500   21.69400   27.90200  
H    33.39600   22.14700   27.33700  
H    34.72500   20.98200   27.24900  
H    33.79600   21.12900   28.73900  
S    35.28800   23.02500   28.48700  
C    33.90100   23.92500   29.21500  
H    33.13800   24.22600   28.49300  
H    33.56000   23.16100   29.91900  
H    34.23800   24.83400   29.72100  
O    35.69400   23.72600   27.22900  
C    27.79600   14.73200   26.06300  
H    27.09900   15.25400   25.40200  
H    27.32600   13.92900   26.63600  
H    28.32800   15.48500   26.64900  
S    28.96400   13.82700   25.02400  
C    29.86700   13.30600   26.50000  
H    29.25600   12.74800   27.21400  
H    30.71000   12.65800   26.24900  
H    30.31000   14.17800   26.98800  
O    29.83800   14.88300   24.42400  
C    24.89100   19.02600   32.46300  
H    24.99300   17.93700   32.45600  
H    24.01900   19.31600   33.05400  
H    24.72400   19.43900   31.46500  
S    26.33700   19.85900   33.15500  
C    26.17000   19.25100   34.84900  
H    26.21600   18.16000   34.82000  
H    27.10200   19.63400   35.27200  
H    25.23300   19.68000   35.21400  
O    25.72000   21.22200   33.15500  
C    25.36500   19.43600   22.91900  
H    26.10700   20.02200   23.46800  
H    24.46500   19.29500   23.52200  
H    25.74200   18.43200   22.70800  
S    24.94300   20.28600   21.38100  
C    24.01800   21.51800   22.32500  
H    23.62300   22.34500   21.72900  
H    23.12600   20.98800   22.67100  
H    24.64000   21.79900   23.17800  
O    23.82500   19.42600   20.87900  
C    32.36900   13.08800   20.82900  
H    31.90800   13.12400   21.82000  
H    31.64900   13.41300   20.07300  
H    32.71700   12.06100   20.69000  
S    33.70900   14.28400   21.02200  
C    32.53900   15.62900   21.32000  
H    33.02900   16.59700   21.45000  
H    31.86500   15.72100   20.46500  
H    31.86400   15.44300   22.16000  
O    34.22700   14.62300   19.65900  
C    33.61900   14.12000   26.36900  
H    34.19700   15.03700   26.50600  
H    33.06100   14.19100   25.43100  
H    33.01300   13.89000   27.24800  
S    34.95100   12.89800   26.37600  
C    35.40000   12.86800   24.62600  
H    35.83500   13.85700   24.46400  
H    36.17600   12.11100   24.48700  
H    34.46800   12.73100   24.07100  
O    34.27000   11.60000   26.68000  
C    39.40400   20.01000   27.05300  
H    40.27600   20.48900   26.60100  
H    39.68000   19.43200   27.93900  
H    38.88700   19.40300   26.30500  
S    38.31400   21.41100   27.38800  
C    38.93300   22.49700   26.08300  
H    38.97000   22.01800   25.10200  
H    38.42200   23.45400   25.94500  
H    39.95200   22.66900   26.43900  
O    39.07400   21.92500   28.57100  
C    31.72700   15.51100   29.97700  
H    31.93700   14.67900   30.65300  
H    32.10200   15.21100   28.99500  
H    32.25800   16.39200   30.34800  
S    29.93600   15.75200   29.94300  
C    29.98300   16.21800   31.68800  
H    28.97400   16.34800   32.08900  
H    30.46800   15.39500   32.21900  
H    30.47500   17.18200   31.83900  
O    29.27100   14.41000   29.95500  
C    26.89900   24.19900   23.99200  
H    26.96100   23.92800   25.04900  
H    27.52800   25.05900   23.74500  
H    25.85400   24.35300   23.71500  
S    27.47300   22.75500   23.07100  
C    29.25000   22.91900   23.35200  
H    29.80600   22.73500   22.42900  
H    29.55100   23.88900   23.75700  
H    29.39100   22.06500   24.01900  
O    27.38000   23.17800   21.63800  
C    28.75900   23.59300   27.20400  
H    28.28100   24.28700   27.90000  
H    28.58100   23.71600   26.13200  
H    28.67000   22.51500   27.35700  
S    30.52300   23.94600   27.36600  
C    30.43400   25.69400   26.91800  
H    29.73800   26.02800   27.69200  
H    31.34400   26.26400   27.11900  
H    29.97900   25.88700   25.94300  
O    31.23900   23.27200   26.23800  
C    33.42300   17.56400   32.81000  
H    33.37100   16.92600   31.92400  
H    32.39600   17.50600   33.17800  
H    33.89500   18.55000   32.79900  
S    34.38200   16.68500   34.06500  
C    34.07700   17.71700   35.51700  
H    33.29100   17.24800   36.11400  
H    35.02600   17.71500   36.05800  
H    33.81700   18.75100   35.27700  
O    35.77000   17.03900   33.63300  
C    33.37000   20.97500   17.67500  
H    33.59400   20.83800   16.61400  
H    32.35100   20.71100   17.96800  
H    33.53600   22.04100   17.85100  
S    34.37100   19.86500   18.69000  
C    34.42700   21.09400   20.01400  
H    34.86000   20.68100   20.92800  
H    35.11600   21.82300   19.57800  
H    33.43700   21.51500   20.20500  
O    35.74400   20.00100   18.10800  
C    25.62600   15.76100   28.97900  
H    24.95800   16.13800   29.75700  
H    24.96600   15.21500   28.30000  
H    26.33800   14.99900   29.30800  
S    26.35700   17.17500   28.12400  
C    26.87900   17.82000   29.72900  
H    27.38400   17.06900   30.34200  
H    27.59000   18.60500   29.45700  
H    26.10800   18.31800   30.32200  
O    25.17400   18.05300   27.85900  
C    35.04600   21.97000   32.14300  
H    33.98900   21.79000   32.35800  
H    35.62000   22.23200   33.03600  
H    35.17500   22.72100   31.35900  
S    35.77900   20.42400   31.56300  
C    37.25000   21.02700   30.70400  
H    37.66000   20.15800   30.18500  
H    37.11700   21.83400   29.97900  
H    37.91900   21.41200   31.47800  
O    34.83300   20.01900   30.47500  
C    35.92100   19.18500   24.68100  
H    36.82600   18.64700   24.97400  
H    35.89700   19.83700   23.80400  
H    35.66200   19.75400   25.57800  
S    34.62800   17.98300   24.29600  
C    35.82500   16.88600   23.50300  
H    35.28300   16.23900   22.80900  
H    36.57300   17.47100   22.96100  
H    36.34400   16.40500   24.33600  
O    34.06700   18.54400   23.02600  
C    29.14900   19.16800   19.98100  
H    28.58000   19.69500   20.75200  
H    29.00400   19.39200   18.92100  
H    29.09500   18.08700   20.13400  
S    30.89000   19.53200   20.30100  
C    30.64700   19.20800   22.06200  
H    30.19000   18.22000   22.15800  
H    31.61900   19.29500   22.55400  
H    30.03600   20.05800   22.37700  
O    30.94700   21.02800   20.31900  
C    36.74500   18.54100   27.93500  
H    36.19000   19.48000   28.00700  
H    37.62900   18.70300   28.55700  
H    37.03500   18.22900   26.92900  
S    35.77600   17.22300   28.70200  
C    36.87300   15.92500   28.09000  
H    36.47100   15.02500   28.56300  
H    36.76300   15.73100   27.02000  
H    37.92400   16.12800   28.31300  
O    34.60000   17.02800   27.79600  
C    25.29500   24.18700   27.15700  
H    25.05300   23.22100   26.70600  
H    25.86700   24.85800   26.51200  
H    25.82700   24.19300   28.11200  
S    23.69200   24.97900   27.41600  
C    24.27900   26.65700   27.73800  
H    23.42300   27.27900   28.01200  
H    24.92300   26.57800   28.61800  
H    24.83000   27.05200   26.88000  
O    23.30700   24.52900   28.79100  
C    27.80100   16.01300   21.97100  
H    28.73600   16.20200   22.50500  
H    27.36500   16.98400   21.72500  
H    27.17400   15.37100   22.59400  
S    28.10800   15.03200   20.48400  
C    28.71000   13.56000   21.34200  
H    29.47900   13.83800   22.06700  
H    27.97100   13.05900   21.97200  
H    29.02700   12.79500   20.62700  
O    29.38700   15.57500   19.92900  
C    20.90900   19.36500   26.99900  
H    20.16300   20.14900   26.84900  
H    20.91000   18.61700   26.20200  
H    20.68500   18.86000   27.94300  
S    22.54200   20.13300   27.08800  
C    22.22000   21.46200   28.26800  
H    21.45700   22.11400   27.83600  
H    21.86600   20.91200   29.14400  
H    23.09200   22.11300   28.36100  
O    22.60600   20.90600   25.80700  
C    33.29300   21.81200   23.86200  
H    32.77500   21.96100   24.81400  
H    32.73800   22.29500   23.05400  
H    33.40100   20.74600   23.65000  
S    34.93900   22.51100   24.12300  
C    34.52200   24.26300   24.27300  
H    34.11400   24.57600   23.30900  
H    33.83500   24.26800   25.12300  
H    35.50600   24.72700   24.38000  
O    35.55600   22.56400   22.76000  
C    26.94600   22.05800   29.89800  
H    26.18400   22.53200   29.27400  
H    27.85800   21.78700   29.36000  
H    26.46900   21.19600   30.37100  
S    27.38000   23.22600   31.20700  
C    25.75700   24.01800   31.27500  
H    25.01100   23.30800   31.64200  
H    25.80400   24.82800   32.00600  
H    25.48600   24.41500   30.29300  
O    28.13200   24.35900   30.58000  
C    22.92100   16.24800   26.15100  
H    23.21500   15.25700   25.79400  
H    23.28900   16.43400   27.16300  
H    21.83100   16.30900   26.20100  
S    23.61500   17.41600   24.95900  
C    22.15700   17.20500   23.91200  
H    21.31000   17.76900   24.31100  
H    22.59100   17.60800   22.99300  
H    21.88400   16.15200   23.81000  
O    24.63700   16.60100   24.22900  
C    34.29500   12.83100   29.86800  
H    34.51800   11.98500   29.21200  
H    33.33400   12.68300   30.36800  
H    34.37300   13.75900   29.29600  
S    35.67400   13.05200   31.01400  
C    35.18800   14.68100   31.62800  
H    35.06700   15.40200   30.81600  
H    34.28400   14.54000   32.22600  
H    35.98900   15.05300   32.27200  
O    36.87800   13.26600   30.15200  
$end

$rem
JOBTYPE  SP
METHOD  B3LYP
BASIS  6-31+G(D)
SYMMETRY  FALSE
SYM_IGNORE  TRUE
MEM_TOTAL  12000
MEM_STATIC  4000
BASIS_LIN_DEP_THRESH  6
THRESH  14
SCF_CONVERGENCE  8
FD_MAT_VEC_PROD  FALSE
XC_GRID  000075000302
NL_GRID  1
MAX_SCF_CYCLES  200
FRGM_METHOD  STOLL
SCFMI_MODE  1
ALMO_EFIELD  TRUE
$end

$rem_frgm
SCF_CONVERGENCE  4
$end


--------------------------------------------------------------
 ----------------------------------------------------------------
             Standard Nuclear Orientation (Angstroms)
    I     Atom           X                Y                Z
 ----------------------------------------------------------------
    1      C      29.6820000000    18.7180000000    25.5000000000
    2      C      29.1450000000    19.8370000000    26.4080000000
    3      C      29.7520000000    19.7920000000    27.8190000000
    4      C      31.2810000000    19.8220000000    27.6580000000
    5      C      31.8590000000    18.8190000000    26.6460000000
    6      C      31.1970000000    18.8280000000    25.2590000000
    7      H      29.5110000000    20.6550000000    28.4520000000
    8      H      29.4500000000    20.7560000000    25.8920000000
    9      H      29.6050000000    17.7480000000    26.0070000000
   10      H      29.0730000000    18.5940000000    24.5970000000
   11      H      31.5410000000    20.7960000000    27.2270000000
   12      H      31.8190000000    19.6580000000    28.6000000000
   13      H      32.9450000000    18.9610000000    26.5860000000
   14      H      31.7580000000    17.8100000000    27.0650000000
   15      H      31.4420000000    19.7210000000    24.6710000000
   16      H      31.4400000000    17.9170000000    24.6980000000
   17      H      29.5370000000    18.8810000000    28.3910000000
   18      N      27.7150000000    19.5470000000    26.5010000000
   19      H      27.4350000000    18.6100000000    26.7660000000
   20      C      26.7200000000    20.3960000000    26.0650000000
   21      H      25.7590000000    19.9070000000    25.8250000000
   22      O      26.9830000000    21.5750000000    25.9060000000
   23      C      24.5160000000    25.4570000000    21.5720000000
   24      H      25.4820000000    25.9660000000    21.6210000000
   25      H      24.6940000000    24.4090000000    21.8280000000
   26      H      24.0160000000    25.6610000000    20.6220000000
   27      S      23.5900000000    26.3890000000    22.8130000000
   28      C      24.0420000000    28.0020000000    22.1350000000
   29      H      24.4850000000    28.5670000000    22.9600000000
   30      H      24.8790000000    27.7740000000    21.4710000000
   31      H      23.1920000000    28.4300000000    21.5970000000
   32      O      24.3770000000    26.2320000000    24.0770000000
   33      C      31.2920000000    20.7690000000    31.9110000000
   34      H      31.7910000000    19.7970000000    31.8700000000
   35      H      31.2100000000    21.3680000000    31.0010000000
   36      H      31.8050000000    21.3490000000    32.6830000000
   37      S      29.5710000000    20.3940000000    32.3140000000
   38      C      29.8660000000    19.3510000000    33.7600000000
   39      H      30.7720000000    18.7750000000    33.5550000000
   40      H      29.8800000000    20.0490000000    34.6010000000
   41      H      28.9890000000    18.7160000000    33.9070000000
   42      O      29.1870000000    19.5040000000    31.1730000000
   43      C      31.2560000000    25.2010000000    30.9980000000
   44      H      30.1800000000    25.0170000000    31.0540000000
   45      H      31.6220000000    26.2250000000    30.8880000000
   46      H      31.6530000000    24.6880000000    30.1190000000
   47      S      31.9040000000    24.5320000000    32.5470000000
   48      C      31.5330000000    25.9870000000    33.5520000000
   49      H      30.4630000000    26.1220000000    33.7300000000
   50      H      31.8760000000    25.8820000000    34.5840000000
   51      H      31.9850000000    26.9100000000    33.1790000000
   52      O      33.3470000000    24.6890000000    32.1800000000
   53      C      34.2150000000    21.6940000000    27.9020000000
   54      H      33.3960000000    22.1470000000    27.3370000000
   55      H      34.7250000000    20.9820000000    27.2490000000
   56      H      33.7960000000    21.1290000000    28.7390000000
   57      S      35.2880000000    23.0250000000    28.4870000000
   58      C      33.9010000000    23.9250000000    29.2150000000
   59      H      33.1380000000    24.2260000000    28.4930000000
   60      H      33.5600000000    23.1610000000    29.9190000000
   61      H      34.2380000000    24.8340000000    29.7210000000
   62      O      35.6940000000    23.7260000000    27.2290000000
   63      C      27.7960000000    14.7320000000    26.0630000000
   64      H      27.0990000000    15.2540000000    25.4020000000
   65      H      27.3260000000    13.9290000000    26.6360000000
   66      H      28.3280000000    15.4850000000    26.6490000000
   67      S      28.9640000000    13.8270000000    25.0240000000
   68      C      29.8670000000    13.3060000000    26.5000000000
   69      H      29.2560000000    12.7480000000    27.2140000000
   70      H      30.7100000000    12.6580000000    26.2490000000
   71      H      30.3100000000    14.1780000000    26.9880000000
   72      O      29.8380000000    14.8830000000    24.4240000000
   73      C      24.8910000000    19.0260000000    32.4630000000
   74      H      24.9930000000    17.9370000000    32.4560000000
   75      H      24.0190000000    19.3160000000    33.0540000000
   76      H      24.7240000000    19.4390000000    31.4650000000
   77      S      26.3370000000    19.8590000000    33.1550000000
   78      C      26.1700000000    19.2510000000    34.8490000000
   79      H      26.2160000000    18.1600000000    34.8200000000
   80      H      27.1020000000    19.6340000000    35.2720000000
   81      H      25.2330000000    19.6800000000    35.2140000000
   82      O      25.7200000000    21.2220000000    33.1550000000
   83      C      25.3650000000    19.4360000000    22.9190000000
   84      H      26.1070000000    20.0220000000    23.4680000000
   85      H      24.4650000000    19.2950000000    23.5220000000
   86      H      25.7420000000    18.4320000000    22.7080000000
   87      S      24.9430000000    20.2860000000    21.3810000000
   88      C      24.0180000000    21.5180000000    22.3250000000
   89      H      23.6230000000    22.3450000000    21.7290000000
   90      H      23.1260000000    20.9880000000    22.6710000000
   91      H      24.6400000000    21.7990000000    23.1780000000
   92      O      23.8250000000    19.4260000000    20.8790000000
   93      C      32.3690000000    13.0880000000    20.8290000000
   94      H      31.9080000000    13.1240000000    21.8200000000
   95      H      31.6490000000    13.4130000000    20.0730000000
   96      H      32.7170000000    12.0610000000    20.6900000000
   97      S      33.7090000000    14.2840000000    21.0220000000
   98      C      32.5390000000    15.6290000000    21.3200000000
   99      H      33.0290000000    16.5970000000    21.4500000000
  100      H      31.8650000000    15.7210000000    20.4650000000
  101      H      31.8640000000    15.4430000000    22.1600000000
  102      O      34.2270000000    14.6230000000    19.6590000000
  103      C      33.6190000000    14.1200000000    26.3690000000
  104      H      34.1970000000    15.0370000000    26.5060000000
  105      H      33.0610000000    14.1910000000    25.4310000000
  106      H      33.0130000000    13.8900000000    27.2480000000
  107      S      34.9510000000    12.8980000000    26.3760000000
  108      C      35.4000000000    12.8680000000    24.6260000000
  109      H      35.8350000000    13.8570000000    24.4640000000
  110      H      36.1760000000    12.1110000000    24.4870000000
  111      H      34.4680000000    12.7310000000    24.0710000000
  112      O      34.2700000000    11.6000000000    26.6800000000
  113      C      39.4040000000    20.0100000000    27.0530000000
  114      H      40.2760000000    20.4890000000    26.6010000000
  115      H      39.6800000000    19.4320000000    27.9390000000
  116      H      38.8870000000    19.4030000000    26.3050000000
  117      S      38.3140000000    21.4110000000    27.3880000000
  118      C      38.9330000000    22.4970000000    26.0830000000
  119      H      38.9700000000    22.0180000000    25.1020000000
  120      H      38.4220000000    23.4540000000    25.9450000000
  121      H      39.9520000000    22.6690000000    26.4390000000
  122      O      39.0740000000    21.9250000000    28.5710000000
  123      C      31.7270000000    15.5110000000    29.9770000000
  124      H      31.9370000000    14.6790000000    30.6530000000
  125      H      32.1020000000    15.2110000000    28.9950000000
  126      H      32.2580000000    16.3920000000    30.3480000000
  127      S      29.9360000000    15.7520000000    29.9430000000
  128      C      29.9830000000    16.2180000000    31.6880000000
  129      H      28.9740000000    16.3480000000    32.0890000000
  130      H      30.4680000000    15.3950000000    32.2190000000
  131      H      30.4750000000    17.1820000000    31.8390000000
  132      O      29.2710000000    14.4100000000    29.9550000000
  133      C      26.8990000000    24.1990000000    23.9920000000
  134      H      26.9610000000    23.9280000000    25.0490000000
  135      H      27.5280000000    25.0590000000    23.7450000000
  136      H      25.8540000000    24.3530000000    23.7150000000
  137      S      27.4730000000    22.7550000000    23.0710000000
  138      C      29.2500000000    22.9190000000    23.3520000000
  139      H      29.8060000000    22.7350000000    22.4290000000
  140      H      29.5510000000    23.8890000000    23.7570000000
  141      H      29.3910000000    22.0650000000    24.0190000000
  142      O      27.3800000000    23.1780000000    21.6380000000
  143      C      28.7590000000    23.5930000000    27.2040000000
  144      H      28.2810000000    24.2870000000    27.9000000000
  145      H      28.5810000000    23.7160000000    26.1320000000
  146      H      28.6700000000    22.5150000000    27.3570000000
  147      S      30.5230000000    23.9460000000    27.3660000000
  148      C      30.4340000000    25.6940000000    26.9180000000
  149      H      29.7380000000    26.0280000000    27.6920000000
  150      H      31.3440000000    26.2640000000    27.1190000000
  151      H      29.9790000000    25.8870000000    25.9430000000
  152      O      31.2390000000    23.2720000000    26.2380000000
  153      C      33.4230000000    17.5640000000    32.8100000000
  154      H      33.3710000000    16.9260000000    31.9240000000
  155      H      32.3960000000    17.5060000000    33.1780000000
  156      H      33.8950000000    18.5500000000    32.7990000000
  157      S      34.3820000000    16.6850000000    34.0650000000
  158      C      34.0770000000    17.7170000000    35.5170000000
  159      H      33.2910000000    17.2480000000    36.1140000000
  160      H      35.0260000000    17.7150000000    36.0580000000
  161      H      33.8170000000    18.7510000000    35.2770000000
  162      O      35.7700000000    17.0390000000    33.6330000000
  163      C      33.3700000000    20.9750000000    17.6750000000
  164      H      33.5940000000    20.8380000000    16.6140000000
  165      H      32.3510000000    20.7110000000    17.9680000000
  166      H      33.5360000000    22.0410000000    17.8510000000
  167      S      34.3710000000    19.8650000000    18.6900000000
  168      C      34.4270000000    21.0940000000    20.0140000000
  169      H      34.8600000000    20.6810000000    20.9280000000
  170      H      35.1160000000    21.8230000000    19.5780000000
  171      H      33.4370000000    21.5150000000    20.2050000000
  172      O      35.7440000000    20.0010000000    18.1080000000
  173      C      25.6260000000    15.7610000000    28.9790000000
  174      H      24.9580000000    16.1380000000    29.7570000000
  175      H      24.9660000000    15.2150000000    28.3000000000
  176      H      26.3380000000    14.9990000000    29.3080000000
  177      S      26.3570000000    17.1750000000    28.1240000000
  178      C      26.8790000000    17.8200000000    29.7290000000
  179      H      27.3840000000    17.0690000000    30.3420000000
  180      H      27.5900000000    18.6050000000    29.4570000000
  181      H      26.1080000000    18.3180000000    30.3220000000
  182      O      25.1740000000    18.0530000000    27.8590000000
  183      C      35.0460000000    21.9700000000    32.1430000000
  184      H      33.9890000000    21.7900000000    32.3580000000
  185      H      35.6200000000    22.2320000000    33.0360000000
  186      H      35.1750000000    22.7210000000    31.3590000000
  187      S      35.7790000000    20.4240000000    31.5630000000
  188      C      37.2500000000    21.0270000000    30.7040000000
  189      H      37.6600000000    20.1580000000    30.1850000000
  190      H      37.1170000000    21.8340000000    29.9790000000
  191      H      37.9190000000    21.4120000000    31.4780000000
  192      O      34.8330000000    20.0190000000    30.4750000000
  193      C      35.9210000000    19.1850000000    24.6810000000
  194      H      36.8260000000    18.6470000000    24.9740000000
  195      H      35.8970000000    19.8370000000    23.8040000000
  196      H      35.6620000000    19.7540000000    25.5780000000
  197      S      34.6280000000    17.9830000000    24.2960000000
  198      C      35.8250000000    16.8860000000    23.5030000000
  199      H      35.2830000000    16.2390000000    22.8090000000
  200      H      36.5730000000    17.4710000000    22.9610000000
  201      H      36.3440000000    16.4050000000    24.3360000000
  202      O      34.0670000000    18.5440000000    23.0260000000
  203      C      29.1490000000    19.1680000000    19.9810000000
  204      H      28.5800000000    19.6950000000    20.7520000000
  205      H      29.0040000000    19.3920000000    18.9210000000
  206      H      29.0950000000    18.0870000000    20.1340000000
  207      S      30.8900000000    19.5320000000    20.3010000000
  208      C      30.6470000000    19.2080000000    22.0620000000
  209      H      30.1900000000    18.2200000000    22.1580000000
  210      H      31.6190000000    19.2950000000    22.5540000000
  211      H      30.0360000000    20.0580000000    22.3770000000
  212      O      30.9470000000    21.0280000000    20.3190000000
  213      C      36.7450000000    18.5410000000    27.9350000000
  214      H      36.1900000000    19.4800000000    28.0070000000
  215      H      37.6290000000    18.7030000000    28.5570000000
  216      H      37.0350000000    18.2290000000    26.9290000000
  217      S      35.7760000000    17.2230000000    28.7020000000
  218      C      36.8730000000    15.9250000000    28.0900000000
  219      H      36.4710000000    15.0250000000    28.5630000000
  220      H      36.7630000000    15.7310000000    27.0200000000
  221      H      37.9240000000    16.1280000000    28.3130000000
  222      O      34.6000000000    17.0280000000    27.7960000000
  223      C      25.2950000000    24.1870000000    27.1570000000
  224      H      25.0530000000    23.2210000000    26.7060000000
  225      H      25.8670000000    24.8580000000    26.5120000000
  226      H      25.8270000000    24.1930000000    28.1120000000
  227      S      23.6920000000    24.9790000000    27.4160000000
  228      C      24.2790000000    26.6570000000    27.7380000000
  229      H      23.4230000000    27.2790000000    28.0120000000
  230      H      24.9230000000    26.5780000000    28.6180000000
  231      H      24.8300000000    27.0520000000    26.8800000000
  232      O      23.3070000000    24.5290000000    28.7910000000
  233      C      27.8010000000    16.0130000000    21.9710000000
  234      H      28.7360000000    16.2020000000    22.5050000000
  235      H      27.3650000000    16.9840000000    21.7250000000
  236      H      27.1740000000    15.3710000000    22.5940000000
  237      S      28.1080000000    15.0320000000    20.4840000000
  238      C      28.7100000000    13.5600000000    21.3420000000
  239      H      29.4790000000    13.8380000000    22.0670000000
  240      H      27.9710000000    13.0590000000    21.9720000000
  241      H      29.0270000000    12.7950000000    20.6270000000
  242      O      29.3870000000    15.5750000000    19.9290000000
  243      C      20.9090000000    19.3650000000    26.9990000000
  244      H      20.1630000000    20.1490000000    26.8490000000
  245      H      20.9100000000    18.6170000000    26.2020000000
  246      H      20.6850000000    18.8600000000    27.9430000000
  247      S      22.5420000000    20.1330000000    27.0880000000
  248      C      22.2200000000    21.4620000000    28.2680000000
  249      H      21.4570000000    22.1140000000    27.8360000000
  250      H      21.8660000000    20.9120000000    29.1440000000
  251      H      23.0920000000    22.1130000000    28.3610000000
  252      O      22.6060000000    20.9060000000    25.8070000000
  253      C      33.2930000000    21.8120000000    23.8620000000
  254      H      32.7750000000    21.9610000000    24.8140000000
  255      H      32.7380000000    22.2950000000    23.0540000000
  256      H      33.4010000000    20.7460000000    23.6500000000
  257      S      34.9390000000    22.5110000000    24.1230000000
  258      C      34.5220000000    24.2630000000    24.2730000000
  259      H      34.1140000000    24.5760000000    23.3090000000
  260      H      33.8350000000    24.2680000000    25.1230000000
  261      H      35.5060000000    24.7270000000    24.3800000000
  262      O      35.5560000000    22.5640000000    22.7600000000
  263      C      26.9460000000    22.0580000000    29.8980000000
  264      H      26.1840000000    22.5320000000    29.2740000000
  265      H      27.8580000000    21.7870000000    29.3600000000
  266      H      26.4690000000    21.1960000000    30.3710000000
  267      S      27.3800000000    23.2260000000    31.2070000000
  268      C      25.7570000000    24.0180000000    31.2750000000
  269      H      25.0110000000    23.3080000000    31.6420000000
  270      H      25.8040000000    24.8280000000    32.0060000000
  271      H      25.4860000000    24.4150000000    30.2930000000
  272      O      28.1320000000    24.3590000000    30.5800000000
  273      C      22.9210000000    16.2480000000    26.1510000000
  274      H      23.2150000000    15.2570000000    25.7940000000
  275      H      23.2890000000    16.4340000000    27.1630000000
  276      H      21.8310000000    16.3090000000    26.2010000000
  277      S      23.6150000000    17.4160000000    24.9590000000
  278      C      22.1570000000    17.2050000000    23.9120000000
  279      H      21.3100000000    17.7690000000    24.3110000000
  280      H      22.5910000000    17.6080000000    22.9930000000
  281      H      21.8840000000    16.1520000000    23.8100000000
  282      O      24.6370000000    16.6010000000    24.2290000000
  283      C      34.2950000000    12.8310000000    29.8680000000
  284      H      34.5180000000    11.9850000000    29.2120000000
  285      H      33.3340000000    12.6830000000    30.3680000000
  286      H      34.3730000000    13.7590000000    29.2960000000
  287      S      35.6740000000    13.0520000000    31.0140000000
  288      C      35.1880000000    14.6810000000    31.6280000000
  289      H      35.0670000000    15.4020000000    30.8160000000
  290      H      34.2840000000    14.5400000000    32.2260000000
  291      H      35.9890000000    15.0530000000    32.2720000000
  292      O      36.8780000000    13.2660000000    30.1520000000
 ----------------------------------------------------------------
 Nuclear Repulsion Energy =       48739.44586085 hartrees
 There are      602 alpha and      602 beta electrons
 Requested basis set is 6-31+G(d)
 There are 962 shells and 2681 basis functions

 Total QAlloc Memory Limit  12000 MB
 Mega-Array Size      3911 MB
 MEM_STATIC part      4000 MB

 A cutoff of  1.0D-14 yielded 180382 shell pairs
 There are   1559772 function pairs
 Smallest overlap matrix eigenvalue = 3.38E-07
 Linear dependence detected in AO basis
 Tighter screening thresholds may be required for diffuse basis sets
 Use S2THRESH > 14 and THRESH = 14 in case of SCF convergence issues
 Number of orthogonalized atomic orbitals = 2678
 Maximum deviation from orthogonality = 1.759E-10

 Scale SEOQF with 1.000000e-03/1.000000e-03/1.000000e-03

 Standard Electronic Orientation quadrupole field applied
 Nucleus-field energy     =    -0.0000001964 hartrees
 Attempting to make child job directory: /global/cscratch1/sd/ymao90/r7.00_frame_0049_almo_B3LYP_dp20220721031450//Frg1/
 Attempting to make child job directory: /global/cscratch1/sd/ymao90/r7.00_frame_0049_almo_B3LYP_dp20220721031450//Frg2/
 Creating input file /global/cscratch1/sd/ymao90/r7.00_frame_0049_almo_B3LYP_dp20220721031450/Frg1.input
 using default PutDataFrgm: nothing
 calling putenv with: QCSCRATCH=/global/cscratch1/sd/ymao90/r7.00_frame_0049_almo_B3LYP_dp20220721031450/ 
 Spawning Job For Fragment 0
 Done Job For Fragment 0
 calling putenv with: QCSCRATCH=/global/cscratch1/sd/ymao90 
 calling putenv with: QCTHREADS=16 
 Creating input file /global/cscratch1/sd/ymao90/r7.00_frame_0049_almo_B3LYP_dp20220721031450/Frg2.input
 using default PutDataFrgm: nothing
 calling putenv with: QCSCRATCH=/global/cscratch1/sd/ymao90/r7.00_frame_0049_almo_B3LYP_dp20220721031450/ 
 Spawning Job For Fragment 1
 Done Job For Fragment 1
 calling putenv with: QCSCRATCH=/global/cscratch1/sd/ymao90 
 calling putenv with: QCTHREADS=16 
 Time for running child jobs:  CPU 0.51 s  wall 15614.75 s

 -----------------------------------------------------------------------
  General SCF calculation program by
  Eric Jon Sundstrom, Paul Horn, Yuezhi Mao, Dmitri Zuev, Alec White,
  David Stuck, Shaama M.S., Shane Yost, Joonho Lee, David Small,
  Daniel Levine, Susi Lehtola, Hugh Burton, Evgeny Epifanovsky,
  Bang C. Huynh
 -----------------------------------------------------------------------
Performing Restricted Closed Shell SCFMI
Doing General SCFMI
 Exchange:     0.2000 Hartree-Fock + 0.0800 Slater + 0.7200 B88
 Correlation:  0.1900 VWN1RPA + 0.8100 LYP
 Using Euler-Maclaurin-Lebedev (75,302) quadrature formula
performing fock build before subrot guess so that all methods have access
 using 16 threads for integral computing
 -------------------------------------------------------
 OpenMP Integral computing Module                
 Release: version 1.0, May 2013, Q-Chem Inc. Pittsburgh 
 -------------------------------------------------------
Printing subrot_rss_gen Method Specification:
Occupied Subspace Method is 0
Virtual Subspace Method is 0
Energy prior to optimization (guess energy) = -15340.634185454001
Begin Timing: Total SCF Calculation
begin iterations for algorithm: DIIS         
the SCF tolerance is set to 1.00e-08
    1  -15340.6341854540      3.35e-05     00000 
    2  -15340.6408532733      2.51e-05     00000 
    3  -15340.6424374260      1.60e-05     00000 
    4  -15340.6430365350      8.30e-06     00000 
    5  -15340.6432092006      2.96e-06     00000 
    6  -15340.6432373804      1.69e-06     00000 
    7  -15340.6432455247      1.31e-06     00000 
    8  -15340.6432491976      7.99e-07     00000 
    9  -15340.6432505943      4.39e-07     00000 
   10  -15340.6432510479      2.63e-07     00000 
   11  -15340.6432512194      1.77e-07     00000 
   12  -15340.6432512869      1.20e-07     00000 
   13  -15340.6432513211      6.83e-08     00000 
   14  -15340.6432513336      3.82e-08     00000 
   15  -15340.6432513375      2.30e-08     00000 
   16  -15340.6432513384      1.66e-08     00000 
   17  -15340.6432513390      1.00e-08     00000 
   18  -15340.6432513393      5.61e-09     00000 Convergence criterion met
write pseudocanon occs and virts to disk
write pseudocanon orbital energies to disk
Timing for Total SCF: 21391.00s (wall), 295966.65s (cpu)
SCFMI Energy  -15340.6432513393
<S^2>            0.00000
 Total energy in the final basis set =   -15340.6432513393
    ==================================================
        The end of Object-Oriented SCFman: SCFMI      
    ==================================================

 --------------------------------------------------------------

                    Orbital Energies (a.u.)
 --------------------------------------------------------------

 Alpha MOs
 -- Occupied --
-89.0411 -89.0394 -89.0368 -89.0354 -89.0290 -89.0223 -89.0195 -89.0116
-89.0079 -89.0055 -89.0043 -89.0040 -89.0038 -89.0022 -89.0007 -88.9995
-88.9982 -88.9957 -88.9945 -88.9943 -88.9919 -88.9783 -88.9781 -88.9767
-88.9683 -88.9640 -88.9392 -19.1574 -19.1566 -19.1515 -19.1469 -19.1373
-19.1371 -19.1356 -19.1272 -19.1260 -19.1252 -19.1246 -19.1237 -19.1221
-19.1218 -19.1214 -19.1110 -19.1108 -19.1102 -19.1089 -19.1083 -19.1062
-19.1048 -19.0876 -19.0865 -19.0850 -19.0836 -19.0737 -19.0517 -14.3721
-10.2983 -10.2723 -10.2664 -10.2583 -10.2571 -10.2560 -10.2530 -10.2529
-10.2483 -10.2437 -10.2400 -10.2361 -10.2358 -10.2333 -10.2305 -10.2302
-10.2297 -10.2281 -10.2277 -10.2257 -10.2256 -10.2252 -10.2249 -10.2233
-10.2230 -10.2224 -10.2219 -10.2182 -10.2181 -10.2169 -10.2169 -10.2166
-10.2164 -10.2156 -10.2151 -10.2142 -10.2133 -10.2131 -10.2127 -10.2114
-10.2113 -10.2095 -10.2073 -10.2009 -10.1981 -10.1977 -10.1965 -10.1928
-10.1925 -10.1924 -10.1879 -10.1876 -10.1857 -10.1833 -10.1821 -10.1788
-10.1781 -10.1770 -10.1768 -10.1587 -10.1455  -8.0876  -8.0854  -8.0823
 -8.0817  -8.0757  -8.0681  -8.0655  -8.0570  -8.0538  -8.0515  -8.0510
 -8.0500  -8.0498  -8.0485  -8.0478  -8.0459  -8.0446  -8.0412  -8.0411
 -8.0402  -8.0384  -8.0241  -8.0234  -8.0233  -8.0148  -8.0103  -7.9856
 -6.0517  -6.0508  -6.0497  -6.0485  -6.0466  -6.0458  -6.0453  -6.0451
 -6.0445  -6.0425  -6.0399  -6.0398  -6.0395  -6.0389  -6.0330  -6.0324
 -6.0311  -6.0298  -6.0283  -6.0259  -6.0232  -6.0213  -6.0200  -6.0185
 -6.0168  -6.0160  -6.0155  -6.0146  -6.0144  -6.0143  -6.0140  -6.0140
 -6.0131  -6.0128  -6.0127  -6.0122  -6.0117  -6.0112  -6.0106  -6.0102
 -6.0091  -6.0089  -6.0087  -6.0081  -6.0076  -6.0075  -6.0074  -6.0058
 -6.0056  -6.0056  -6.0050  -6.0045  -6.0044  -6.0041  -6.0034  -6.0030
 -6.0027  -6.0022  -6.0015  -5.9987  -5.9982  -5.9976  -5.9956  -5.9884
 -5.9877  -5.9875  -5.9871  -5.9865  -5.9864  -5.9818  -5.9812  -5.9806
 -5.9790  -5.9776  -5.9746  -5.9733  -5.9725  -5.9677  -5.9499  -5.9484
 -5.9433  -1.0674  -1.0658  -1.0615  -1.0605  -1.0562  -1.0510  -1.0444
 -1.0408  -1.0377  -1.0356  -1.0348  -1.0346  -1.0319  -1.0300  -1.0281
 -1.0264  -1.0237  -1.0230  -1.0206  -1.0194  -1.0183  -1.0161  -1.0001
 -0.9987  -0.9957  -0.9943  -0.9875  -0.9623  -0.9364  -0.8496  -0.8427
 -0.8420  -0.8337  -0.8318  -0.8311  -0.8224  -0.8175  -0.8139  -0.8133
 -0.8113  -0.8103  -0.8090  -0.8065  -0.8063  -0.8040  -0.8024  -0.8016
 -0.8007  -0.7996  -0.7954  -0.7923  -0.7801  -0.7795  -0.7790  -0.7781
 -0.7774  -0.7739  -0.7708  -0.7630  -0.7577  -0.7544  -0.7497  -0.7453
 -0.7417  -0.7413  -0.7395  -0.7392  -0.7386  -0.7377  -0.7372  -0.7358
 -0.7339  -0.7304  -0.7285  -0.7279  -0.7270  -0.7263  -0.7251  -0.7207
 -0.7169  -0.7116  -0.7005  -0.6968  -0.6956  -0.6945  -0.6602  -0.6564
 -0.6532  -0.6517  -0.6505  -0.6420  -0.6417  -0.6346  -0.6311  -0.6260
 -0.6211  -0.6195  -0.6180  -0.6174  -0.6172  -0.6162  -0.6159  -0.6151
 -0.6132  -0.6131  -0.6089  -0.6081  -0.6073  -0.6055  -0.6048  -0.5947
 -0.5891  -0.5886  -0.5812  -0.5737  -0.5645  -0.5524  -0.5454  -0.5425
 -0.5303  -0.5287  -0.5189  -0.5168  -0.5157  -0.5089  -0.5066  -0.5055
 -0.5044  -0.5036  -0.5019  -0.5006  -0.4992  -0.4979  -0.4962  -0.4958
 -0.4954  -0.4937  -0.4933  -0.4930  -0.4926  -0.4922  -0.4905  -0.4897
 -0.4889  -0.4877  -0.4868  -0.4855  -0.4849  -0.4837  -0.4817  -0.4807
 -0.4797  -0.4790  -0.4784  -0.4782  -0.4775  -0.4761  -0.4758  -0.4751
 -0.4749  -0.4746  -0.4745  -0.4733  -0.4724  -0.4722  -0.4715  -0.4714
 -0.4710  -0.4705  -0.4696  -0.4692  -0.4688  -0.4682  -0.4679  -0.4671
 -0.4654  -0.4649  -0.4648  -0.4641  -0.4635  -0.4632  -0.4620  -0.4610
 -0.4608  -0.4599  -0.4592  -0.4591  -0.4572  -0.4560  -0.4552  -0.4542
 -0.4537  -0.4532  -0.4528  -0.4519  -0.4514  -0.4506  -0.4496  -0.4474
 -0.4467  -0.4464  -0.4460  -0.4451  -0.4449  -0.4440  -0.4431  -0.4414
 -0.4407  -0.4401  -0.4397  -0.4394  -0.4382  -0.4375  -0.4373  -0.4369
 -0.4359  -0.4357  -0.4356  -0.4340  -0.4330  -0.4316  -0.4307  -0.4306
 -0.4303  -0.4301  -0.4295  -0.4286  -0.4283  -0.4269  -0.4260  -0.4255
 -0.4247  -0.4235  -0.4220  -0.4209  -0.4185  -0.4169  -0.4167  -0.4162
 -0.4157  -0.4146  -0.4141  -0.4126  -0.4110  -0.4106  -0.4104  -0.4101
 -0.4096  -0.4096  -0.4084  -0.4083  -0.4077  -0.4074  -0.4069  -0.4060
 -0.4058  -0.4049  -0.4040  -0.4034  -0.4033  -0.4030  -0.4025  -0.4016
 -0.4010  -0.4004  -0.4000  -0.3995  -0.3986  -0.3980  -0.3978  -0.3973
 -0.3963  -0.3950  -0.3938  -0.3923  -0.3916  -0.3893  -0.3893  -0.3879
 -0.3871  -0.3866  -0.3847  -0.3839  -0.3810  -0.3803  -0.3793  -0.3785
 -0.3781  -0.3770  -0.3750  -0.3739  -0.3728  -0.3722  -0.3717  -0.3715
 -0.3710  -0.3693  -0.3690  -0.3681  -0.3666  -0.3638  -0.3600  -0.3596
 -0.3594  -0.3586  -0.3573  -0.3565  -0.3553  -0.3527  -0.3481  -0.3433
 -0.3404  -0.3393  -0.3364  -0.3353  -0.3293  -0.3240  -0.3220  -0.3202
 -0.3157  -0.3154  -0.3144  -0.3111  -0.3036  -0.3023  -0.2997  -0.2935
 -0.2875  -0.2873  -0.2860  -0.2858  -0.2851  -0.2834  -0.2831  -0.2827
 -0.2822  -0.2811  -0.2801  -0.2786  -0.2760  -0.2738  -0.2714  -0.2694
 -0.2693  -0.2686  -0.2673  -0.2656  -0.2653  -0.2642  -0.2607  -0.2595
 -0.2585  -0.2512  -0.2505  -0.2494  -0.2482  -0.2462  -0.2458  -0.2452
 -0.2418  -0.2416  -0.2410  -0.2403  -0.2389  -0.2372  -0.2339  -0.2335
 -0.2332  -0.2327  -0.2327  -0.2200  -0.2157  -0.2144  -0.2141  -0.2093
 -0.2030  -0.1832
 -- Virtual --
 -0.0600  -0.0518  -0.0416  -0.0396  -0.0363  -0.0337  -0.0327  -0.0297
 -0.0269  -0.0257  -0.0242  -0.0218  -0.0205  -0.0204  -0.0185  -0.0175
 -0.0155  -0.0148  -0.0142  -0.0129  -0.0125  -0.0109  -0.0105  -0.0089
 -0.0077  -0.0069  -0.0061  -0.0054  -0.0044  -0.0033  -0.0018  -0.0011
 -0.0005   0.0005   0.0016   0.0023   0.0027   0.0032   0.0036   0.0049
  0.0057   0.0058   0.0064   0.0075   0.0089   0.0096   0.0104   0.0107
  0.0119   0.0126   0.0127   0.0132   0.0151   0.0151   0.0162   0.0167
  0.0180   0.0181   0.0188   0.0192   0.0199   0.0210   0.0214   0.0226
  0.0238   0.0247   0.0251   0.0257   0.0269   0.0269   0.0278   0.0279
  0.0284   0.0294   0.0296   0.0304   0.0306   0.0309   0.0317   0.0327
  0.0334   0.0340   0.0352   0.0358   0.0366   0.0370   0.0374   0.0382
  0.0388   0.0396   0.0403   0.0412   0.0415   0.0427   0.0431   0.0437
  0.0440   0.0444   0.0447   0.0454   0.0468   0.0481   0.0483   0.0487
  0.0490   0.0500   0.0511   0.0517   0.0518   0.0529   0.0531   0.0546
  0.0548   0.0551   0.0554   0.0565   0.0572   0.0580   0.0585   0.0588
  0.0593   0.0593   0.0605   0.0609   0.0614   0.0620   0.0628   0.0632
  0.0638   0.0644   0.0661   0.0665   0.0671   0.0676   0.0686   0.0687
  0.0697   0.0705   0.0709   0.0718   0.0722   0.0723   0.0737   0.0746
  0.0753   0.0754   0.0760   0.0764   0.0768   0.0775   0.0785   0.0791
  0.0793   0.0801   0.0814   0.0817   0.0819   0.0838   0.0840   0.0853
  0.0859   0.0866   0.0872   0.0878   0.0881   0.0882   0.0898   0.0902
  0.0910   0.0917   0.0933   0.0936   0.0941   0.0948   0.0950   0.0962
  0.0965   0.0968   0.0977   0.0984   0.0990   0.1000   0.1004   0.1012
  0.1015   0.1026   0.1028   0.1034   0.1041   0.1046   0.1061   0.1062
  0.1068   0.1076   0.1081   0.1082   0.1092   0.1095   0.1099   0.1109
  0.1112   0.1123   0.1126   0.1131   0.1134   0.1140   0.1148   0.1159
  0.1163   0.1171   0.1178   0.1178   0.1191   0.1195   0.1203   0.1210
  0.1218   0.1220   0.1226   0.1241   0.1243   0.1253   0.1257   0.1259
  0.1269   0.1275   0.1283   0.1285   0.1292   0.1298   0.1304   0.1305
  0.1322   0.1326   0.1332   0.1333   0.1344   0.1345   0.1351   0.1358
  0.1365   0.1374   0.1375   0.1387   0.1391   0.1398   0.1403   0.1406
  0.1411   0.1420   0.1423   0.1432   0.1435   0.1442   0.1446   0.1451
  0.1458   0.1462   0.1469   0.1470   0.1481   0.1491   0.1495   0.1503
  0.1507   0.1514   0.1521   0.1523   0.1530   0.1534   0.1542   0.1548
  0.1553   0.1558   0.1568   0.1578   0.1584   0.1588   0.1594   0.1601
  0.1610   0.1613   0.1619   0.1624   0.1630   0.1632   0.1643   0.1647
  0.1658   0.1666   0.1670   0.1673   0.1678   0.1682   0.1691   0.1702
  0.1705   0.1718   0.1724   0.1728   0.1735   0.1746   0.1748   0.1757
  0.1758   0.1764   0.1767   0.1777   0.1780   0.1786   0.1792   0.1801
  0.1810   0.1817   0.1820   0.1821   0.1833   0.1839   0.1843   0.1846
  0.1856   0.1859   0.1865   0.1879   0.1883   0.1890   0.1892   0.1894
  0.1904   0.1912   0.1914   0.1924   0.1927   0.1938   0.1939   0.1946
  0.1951   0.1962   0.1970   0.1975   0.1979   0.1982   0.1986   0.1998
  0.2001   0.2007   0.2019   0.2023   0.2026   0.2029   0.2049   0.2052
  0.2054   0.2059   0.2069   0.2074   0.2081   0.2087   0.2089   0.2095
  0.2102   0.2109   0.2114   0.2115   0.2128   0.2132   0.2137   0.2141
  0.2151   0.2165   0.2165   0.2167   0.2176   0.2177   0.2183   0.2194
  0.2197   0.2208   0.2222   0.2224   0.2229   0.2231   0.2238   0.2245
  0.2247   0.2253   0.2265   0.2268   0.2284   0.2289   0.2293   0.2298
  0.2306   0.2312   0.2317   0.2319   0.2324   0.2331   0.2341   0.2342
  0.2351   0.2357   0.2361   0.2369   0.2384   0.2388   0.2393   0.2396
  0.2403   0.2414   0.2423   0.2433   0.2437   0.2440   0.2451   0.2455
  0.2457   0.2461   0.2468   0.2478   0.2486   0.2486   0.2497   0.2501
  0.2515   0.2515   0.2526   0.2530   0.2540   0.2546   0.2559   0.2565
  0.2570   0.2582   0.2586   0.2593   0.2598   0.2613   0.2617   0.2619
  0.2624   0.2635   0.2637   0.2654   0.2663   0.2664   0.2670   0.2679
  0.2688   0.2694   0.2705   0.2712   0.2716   0.2719   0.2726   0.2734
  0.2743   0.2753   0.2765   0.2770   0.2781   0.2784   0.2798   0.2803
  0.2806   0.2815   0.2822   0.2831   0.2839   0.2850   0.2857   0.2864
  0.2869   0.2879   0.2889   0.2907   0.2908   0.2914   0.2921   0.2927
  0.2935   0.2940   0.2946   0.2956   0.2960   0.2973   0.2985   0.2991
  0.3005   0.3008   0.3011   0.3017   0.3026   0.3034   0.3042   0.3048
  0.3049   0.3056   0.3067   0.3071   0.3079   0.3089   0.3093   0.3098
  0.3107   0.3110   0.3114   0.3136   0.3141   0.3150   0.3159   0.3169
  0.3180   0.3184   0.3189   0.3198   0.3215   0.3218   0.3234   0.3237
  0.3245   0.3258   0.3261   0.3268   0.3270   0.3277   0.3296   0.3298
  0.3312   0.3320   0.3331   0.3333   0.3338   0.3348   0.3351   0.3361
  0.3364   0.3384   0.3394   0.3397   0.3404   0.3418   0.3428   0.3434
  0.3437   0.3447   0.3458   0.3461   0.3468   0.3471   0.3483   0.3488
  0.3499   0.3510   0.3521   0.3538   0.3545   0.3564   0.3569   0.3573
  0.3587   0.3593   0.3596   0.3597   0.3601   0.3611   0.3624   0.3629
  0.3648   0.3652   0.3662   0.3666   0.3674   0.3680   0.3688   0.3692
  0.3701   0.3705   0.3717   0.3722   0.3733   0.3744   0.3762   0.3765
  0.3770   0.3782   0.3787   0.3795   0.3804   0.3814   0.3821   0.3832
  0.3837   0.3842   0.3855   0.3860   0.3864   0.3876   0.3888   0.3899
  0.3906   0.3913   0.3934   0.3946   0.3951   0.3958   0.3967   0.3971
  0.3979   0.3989   0.3996   0.4003   0.4019   0.4030   0.4041   0.4055
  0.4066   0.4078   0.4085   0.4089   0.4098   0.4109   0.4114   0.4121
  0.4125   0.4130   0.4138   0.4149   0.4169   0.4170   0.4187   0.4188
  0.4194   0.4197   0.4212   0.4223   0.4227   0.4245   0.4254   0.4258
  0.4267   0.4277   0.4285   0.4298   0.4304   0.4315   0.4337   0.4348
  0.4355   0.4363   0.4368   0.4370   0.4388   0.4397   0.4402   0.4416
  0.4418   0.4433   0.4452   0.4467   0.4484   0.4490   0.4501   0.4513
  0.4525   0.4530   0.4554   0.4566   0.4572   0.4585   0.4594   0.4604
  0.4620   0.4625   0.4627   0.4655   0.4659   0.4672   0.4678   0.4701
  0.4717   0.4724   0.4728   0.4747   0.4760   0.4773   0.4799   0.4802
  0.4818   0.4838   0.4853   0.4866   0.4878   0.4900   0.4904   0.4934
  0.4944   0.4956   0.4972   0.4982   0.5009   0.5019   0.5034   0.5039
  0.5052   0.5077   0.5087   0.5115   0.5131   0.5142   0.5152   0.5183
  0.5190   0.5212   0.5228   0.5237   0.5257   0.5279   0.5296   0.5306
  0.5320   0.5336   0.5351   0.5375   0.5375   0.5399   0.5419   0.5430
  0.5447   0.5466   0.5494   0.5505   0.5522   0.5537   0.5561   0.5565
  0.5582   0.5594   0.5616   0.5636   0.5649   0.5658   0.5671   0.5706
  0.5711   0.5727   0.5743   0.5753   0.5770   0.5782   0.5798   0.5806
  0.5822   0.5837   0.5849   0.5852   0.5862   0.5869   0.5901   0.5926
  0.5929   0.5947   0.5961   0.5966   0.5972   0.5981   0.5985   0.5998
  0.6017   0.6027   0.6031   0.6045   0.6068   0.6095   0.6114   0.6142
  0.6154   0.6161   0.6171   0.6184   0.6192   0.6202   0.6215   0.6239
  0.6251   0.6263   0.6264   0.6268   0.6284   0.6293   0.6310   0.6315
  0.6330   0.6336   0.6348   0.6364   0.6372   0.6386   0.6392   0.6411
  0.6416   0.6434   0.6443   0.6453   0.6465   0.6477   0.6484   0.6502
  0.6518   0.6524   0.6541   0.6549   0.6554   0.6568   0.6571   0.6593
  0.6601   0.6604   0.6619   0.6630   0.6655   0.6664   0.6674   0.6680
  0.6683   0.6688   0.6701   0.6721   0.6738   0.6739   0.6747   0.6763
  0.6776   0.6784   0.6792   0.6798   0.6806   0.6817   0.6831   0.6849
  0.6867   0.6873   0.6876   0.6880   0.6901   0.6910   0.6917   0.6932
  0.6942   0.6959   0.6962   0.6976   0.6986   0.6991   0.7010   0.7019
  0.7023   0.7029   0.7044   0.7071   0.7075   0.7092   0.7103   0.7112
  0.7122   0.7136   0.7146   0.7174   0.7177   0.7180   0.7209   0.7214
  0.7233   0.7238   0.7257   0.7267   0.7274   0.7295   0.7317   0.7318
  0.7332   0.7342   0.7355   0.7364   0.7372   0.7390   0.7401   0.7408
  0.7431   0.7432   0.7449   0.7461   0.7486   0.7494   0.7500   0.7518
  0.7522   0.7527   0.7540   0.7558   0.7566   0.7594   0.7604   0.7613
  0.7650   0.7658   0.7671   0.7688   0.7703   0.7723   0.7730   0.7752
  0.7757   0.7769   0.7792   0.7801   0.7816   0.7832   0.7854   0.7876
  0.7884   0.7895   0.7908   0.7919   0.7949   0.7952   0.7964   0.7971
  0.7992   0.8001   0.8015   0.8024   0.8051   0.8054   0.8077   0.8095
  0.8110   0.8117   0.8134   0.8148   0.8158   0.8188   0.8196   0.8201
  0.8227   0.8243   0.8265   0.8266   0.8284   0.8301   0.8315   0.8321
  0.8333   0.8376   0.8384   0.8399   0.8410   0.8416   0.8420   0.8433
  0.8448   0.8481   0.8494   0.8509   0.8517   0.8529   0.8542   0.8560
  0.8565   0.8572   0.8595   0.8617   0.8626   0.8637   0.8646   0.8660
  0.8684   0.8694   0.8706   0.8713   0.8716   0.8731   0.8760   0.8763
  0.8780   0.8785   0.8805   0.8811   0.8825   0.8842   0.8858   0.8874
  0.8879   0.8886   0.8898   0.8910   0.8919   0.8937   0.8946   0.8956
  0.8961   0.8969   0.8978   0.8984   0.9004   0.9016   0.9029   0.9046
  0.9052   0.9072   0.9081   0.9096   0.9106   0.9122   0.9131   0.9157
  0.9165   0.9172   0.9184   0.9188   0.9215   0.9219   0.9231   0.9242
  0.9246   0.9265   0.9274   0.9286   0.9299   0.9305   0.9326   0.9338
  0.9341   0.9354   0.9363   0.9381   0.9388   0.9408   0.9411   0.9422
  0.9437   0.9448   0.9453   0.9461   0.9468   0.9489   0.9509   0.9514
  0.9522   0.9534   0.9536   0.9545   0.9571   0.9583   0.9590   0.9592
  0.9609   0.9613   0.9631   0.9641   0.9650   0.9659   0.9667   0.9678
  0.9694   0.9696   0.9709   0.9724   0.9727   0.9733   0.9746   0.9755
  0.9767   0.9773   0.9792   0.9800   0.9822   0.9830   0.9836   0.9839
  0.9860   0.9869   0.9871   0.9877   0.9900   0.9907   0.9914   0.9934
  0.9939   0.9943   0.9970   0.9976   0.9986   0.9990   1.0012   1.0019
  1.0033   1.0058   1.0065   1.0069   1.0085   1.0093   1.0110   1.0113
  1.0118   1.0127   1.0137   1.0163   1.0167   1.0172   1.0191   1.0205
  1.0210   1.0215   1.0225   1.0246   1.0258   1.0262   1.0272   1.0297
  1.0304   1.0315   1.0316   1.0329   1.0344   1.0361   1.0370   1.0382
  1.0384   1.0389   1.0408   1.0417   1.0426   1.0453   1.0462   1.0470
  1.0484   1.0491   1.0510   1.0513   1.0536   1.0556   1.0562   1.0587
  1.0594   1.0604   1.0617   1.0628   1.0642   1.0659   1.0674   1.0680
  1.0687   1.0715   1.0722   1.0734   1.0747   1.0756   1.0783   1.0786
  1.0802   1.0805   1.0836   1.0843   1.0853   1.0858   1.0868   1.0891
  1.0904   1.0909   1.0928   1.0948   1.0967   1.0977   1.0984   1.0991
  1.1005   1.1009   1.1020   1.1048   1.1068   1.1082   1.1087   1.1097
  1.1117   1.1126   1.1136   1.1150   1.1164   1.1176   1.1200   1.1208
  1.1215   1.1228   1.1241   1.1262   1.1270   1.1275   1.1278   1.1303
  1.1309   1.1322   1.1324   1.1350   1.1360   1.1367   1.1394   1.1409
  1.1419   1.1445   1.1449   1.1463   1.1471   1.1479   1.1495   1.1508
  1.1513   1.1531   1.1544   1.1563   1.1578   1.1585   1.1599   1.1607
  1.1617   1.1631   1.1645   1.1672   1.1680   1.1683   1.1708   1.1724
  1.1740   1.1748   1.1755   1.1790   1.1813   1.1818   1.1829   1.1842
  1.1847   1.1854   1.1874   1.1904   1.1919   1.1933   1.1967   1.1974
  1.1980   1.1993   1.2007   1.2015   1.2043   1.2057   1.2071   1.2099
  1.2116   1.2128   1.2134   1.2150   1.2185   1.2197   1.2213   1.2230
  1.2235   1.2272   1.2287   1.2314   1.2316   1.2340   1.2346   1.2373
  1.2396   1.2402   1.2415   1.2450   1.2465   1.2484   1.2506   1.2514
  1.2543   1.2546   1.2567   1.2582   1.2607   1.2625   1.2649   1.2653
  1.2674   1.2708   1.2719   1.2751   1.2776   1.2795   1.2818   1.2851
  1.2857   1.2878   1.2887   1.2901   1.2964   1.2981   1.2997   1.3023
  1.3058   1.3074   1.3090   1.3106   1.3149   1.3177   1.3191   1.3209
  1.3213   1.3233   1.3258   1.3267   1.3283   1.3321   1.3333   1.3350
  1.3374   1.3404   1.3412   1.3431   1.3444   1.3470   1.3481   1.3491
  1.3513   1.3520   1.3539   1.3554   1.3570   1.3593   1.3612   1.3626
  1.3658   1.3677   1.3699   1.3723   1.3725   1.3736   1.3749   1.3769
  1.3782   1.3812   1.3820   1.3828   1.3848   1.3860   1.3892   1.3906
  1.3916   1.3929   1.3943   1.3951   1.3985   1.4007   1.4031   1.4033
  1.4035   1.4048   1.4074   1.4082   1.4099   1.4111   1.4124   1.4138
  1.4165   1.4177   1.4182   1.4211   1.4220   1.4238   1.4255   1.4275
  1.4279   1.4287   1.4316   1.4324   1.4334   1.4355   1.4366   1.4370
  1.4392   1.4401   1.4422   1.4447   1.4453   1.4458   1.4467   1.4474
  1.4494   1.4520   1.4546   1.4551   1.4574   1.4587   1.4602   1.4622
  1.4628   1.4651   1.4662   1.4675   1.4699   1.4720   1.4737   1.4738
  1.4787   1.4795   1.4814   1.4832   1.4840   1.4866   1.4883   1.4891
  1.4898   1.4928   1.4940   1.4966   1.4976   1.4993   1.5021   1.5049
  1.5073   1.5087   1.5105   1.5137   1.5141   1.5159   1.5177   1.5188
  1.5230   1.5240   1.5272   1.5299   1.5308   1.5347   1.5363   1.5389
  1.5416   1.5430   1.5484   1.5494   1.5517   1.5534   1.5563   1.5584
  1.5590   1.5663   1.5668   1.5706   1.5749   1.5771   1.5778   1.5836
  1.5872   1.5898   1.5930   1.5939   1.5987   1.6019   1.6037   1.6075
  1.6078   1.6138   1.6184   1.6211   1.6235   1.6286   1.6311   1.6371
  1.6390   1.6405   1.6416   1.6455   1.6474   1.6516   1.6545   1.6564
  1.6572   1.6581   1.6619   1.6641   1.6651   1.6675   1.6680   1.6708
  1.6724   1.6728   1.6759   1.6776   1.6781   1.6800   1.6806   1.6821
  1.6836   1.6850   1.6872   1.6877   1.6891   1.6904   1.6925   1.6934
  1.6943   1.6960   1.6965   1.6990   1.7004   1.7021   1.7035   1.7055
  1.7067   1.7092   1.7098   1.7115   1.7144   1.7148   1.7159   1.7178
  1.7181   1.7187   1.7199   1.7209   1.7228   1.7242   1.7260   1.7270
  1.7293   1.7307   1.7324   1.7331   1.7341   1.7360   1.7379   1.7390
  1.7401   1.7407   1.7428   1.7451   1.7453   1.7465   1.7484   1.7498
  1.7524   1.7527   1.7544   1.7553   1.7568   1.7578   1.7588   1.7602
  1.7619   1.7631   1.7652   1.7664   1.7691   1.7694   1.7699   1.7711
  1.7730   1.7755   1.7765   1.7784   1.7795   1.7830   1.7838   1.7859
  1.7870   1.7883   1.7909   1.7917   1.7944   1.7958   1.7968   1.7990
  1.8004   1.8019   1.8042   1.8071   1.8102   1.8119   1.8143   1.8163
  1.8190   1.8221   1.8257   1.8291   1.8298   1.8322   1.8340   1.8387
  1.8412   1.8428   1.8468   1.8474   1.8493   1.8520   1.8523   1.8551
  1.8574   1.8609   1.8624   1.8630   1.8642   1.8659   1.8685   1.8696
  1.8712   1.8737   1.8740   1.8789   1.8804   1.8816   1.8826   1.8854
  1.8864   1.8879   1.8905   1.8923   1.8940   1.8955   1.8970   1.8986
  1.8988   1.9012   1.9038   1.9057   1.9062   1.9081   1.9087   1.9099
  1.9111   1.9119   1.9132   1.9143   1.9150   1.9164   1.9180   1.9194
  1.9210   1.9230   1.9242   1.9246   1.9266   1.9279   1.9298   1.9307
  1.9323   1.9340   1.9349   1.9371   1.9389   1.9395   1.9415   1.9423
  1.9441   1.9450   1.9460   1.9461   1.9502   1.9514   1.9536   1.9565
  1.9596   1.9608   1.9630   1.9657   1.9679   1.9717   1.9755   1.9775
  1.9803   1.9846   1.9881   1.9922   1.9953   1.9979   2.0086   2.0144
  2.0218   2.0306   2.0310   2.0319   2.0384   2.0425   2.0454   2.0463
  2.0486   2.0528   2.0541   2.0559   2.0572   2.0596   2.0625   2.0631
  2.0652   2.0673   2.0705   2.0713   2.0724   2.0730   2.0735   2.0752
  2.0764   2.0774   2.0804   2.0833   2.0867   2.0873   2.0881   2.0902
  2.0920   2.0936   2.0951   2.0967   2.0988   2.0993   2.1001   2.1016
  2.1031   2.1036   2.1053   2.1066   2.1084   2.1110   2.1116   2.1118
  2.1153   2.1159   2.1177   2.1189   2.1228   2.1243   2.1266   2.1277
  2.1300   2.1361   2.1408   2.1436   2.1464   2.1476   2.1508   2.1521
  2.1563   2.1608   2.1630   2.1683   2.1689   2.1719   2.1775   2.1794
  2.1831   2.1873   2.1902   2.1925   2.1947   2.1961   2.2003   2.2015
  2.2022   2.2038   2.2054   2.2090   2.2093   2.2124   2.2139   2.2159
  2.2173   2.2196   2.2224   2.2242   2.2253   2.2260   2.2282   2.2301
  2.2313   2.2323   2.2338   2.2347   2.2350   2.2360   2.2362   2.2376
  2.2385   2.2403   2.2419   2.2437   2.2442   2.2449   2.2463   2.2470
  2.2482   2.2487   2.2499   2.2511   2.2521   2.2528   2.2540   2.2549
  2.2554   2.2573   2.2582   2.2592   2.2600   2.2608   2.2611   2.2630
  2.2645   2.2648   2.2662   2.2682   2.2687   2.2695   2.2713   2.2716
  2.2721   2.2735   2.2741   2.2755   2.2761   2.2775   2.2779   2.2789
  2.2797   2.2810   2.2818   2.2827   2.2832   2.2840   2.2843   2.2853
  2.2868   2.2887   2.2889   2.2891   2.2903   2.2913   2.2928   2.2937
  2.2948   2.2961   2.2977   2.2989   2.2998   2.3004   2.3017   2.3026
  2.3039   2.3044   2.3060   2.3079   2.3087   2.3090   2.3108   2.3116
  2.3119   2.3135   2.3157   2.3167   2.3174   2.3183   2.3187   2.3201
  2.3208   2.3221   2.3243   2.3251   2.3270   2.3274   2.3295   2.3306
  2.3311   2.3322   2.3332   2.3348   2.3357   2.3386   2.3388   2.3404
  2.3420   2.3424   2.3445   2.3456   2.3463   2.3477   2.3482   2.3502
  2.3514   2.3571   2.3578   2.3622   2.3647   2.3675   2.3702   2.3722
  2.3746   2.3750   2.3770   2.3785   2.3790   2.3828   2.3861   2.3900
  2.3909   2.3965   2.4003   2.4052   2.4070   2.4083   2.4148   2.4205
  2.4286   2.4386   2.4418   2.4510   2.4835   2.4929   2.5242   2.5771
  2.6061   2.6769   2.7293   2.7643   2.7931   2.8098   2.8167   2.8236
  2.8313   2.8325   2.8339   2.8358   2.8367   2.8409   2.8428   2.8468
  2.8499   2.8505   2.8519   2.8536   2.8558   2.8564   2.8660   2.8696
  2.8698   2.8748   2.8778   2.8787   2.8813   2.8824   2.8861   2.8985
  2.9011   2.9109   2.9127   2.9133   2.9576   3.1080   3.2324   3.9322
  3.9335   3.9545   3.9651   3.9653   3.9701   3.9727   3.9750   3.9770
  3.9818   3.9828   3.9830   3.9877   3.9892   3.9917   3.9984   4.0010
  4.0063   4.0080   4.0112   4.0184   4.0197   4.0237   4.0254   4.0331
  4.0339   4.0480   4.2148   4.2197   4.2290   4.2405   4.2421   4.2431
  4.2467   4.2491   4.2520   4.2541   4.2593   4.2611   4.2618   4.2650
  4.2661   4.2675   4.2708   4.2734   4.2753   4.2787   4.2790   4.2812
  4.2837   4.2871   4.2892   4.2942   4.2979   4.2993   4.3007   4.3033
  4.3050   4.3063   4.3081   4.3140   4.3166   4.3193   4.3203   4.3223
  4.3252   4.3297   4.3327   4.3373   4.3387   4.3441   4.3481   4.3513
  4.3533   4.3537   4.3621   4.3644   4.3680   4.3693   4.3721   4.3781
  4.3805   4.3864   4.3878   4.3915   4.3931   4.3968   4.4005   4.4066
  4.4070   4.4141   4.4178   4.4211   4.4289   4.4362   4.4404   4.4462
  4.4557   4.4606   4.4775   4.4825   4.4954   4.5090   4.5268   4.5299
  4.5383   4.5541   4.5585   4.5865   4.5982   4.6081   4.6346   4.6941
  4.7385   4.7729   4.7883   4.8907
 --------------------------------------------------------------

          Ground-State Mulliken Net Atomic Charges

     Atom                 Charge (a.u.)
  ----------------------------------------
      1 C                    -0.219234
      2 C                    -0.666281
      3 C                    -0.266067
      4 C                    -0.416821
      5 C                    -0.362856
      6 C                    -0.500646
      7 H                     0.181073
      8 H                     0.246588
      9 H                     0.205240
     10 H                     0.218304
     11 H                     0.233035
     12 H                     0.203459
     13 H                     0.209094
     14 H                     0.200333
     15 H                     0.208380
     16 H                     0.232113
     17 H                     0.207838
     18 N                    -0.303708
     19 H                     0.382522
     20 C                     0.361748
     21 H                     0.210802
     22 O                    -0.564918
     23 C                    -0.814166
     24 H                     0.248483
     25 H                     0.273752
     26 H                     0.238416
     27 S                     1.013417
     28 C                    -0.882973
     29 H                     0.272015
     30 H                     0.239995
     31 H                     0.242379
     32 O                    -0.805010
     33 C                    -0.442707
     34 H                     0.257846
     35 H                     0.267661
     36 H                     0.246562
     37 S                     0.091384
     38 C                    -0.693224
     39 H                     0.224429
     40 H                     0.257644
     41 H                     0.259592
     42 O                    -0.507170
     43 C                    -0.884740
     44 H                     0.307443
     45 H                     0.248970
     46 H                     0.267317
     47 S                     1.093321
     48 C                    -1.007658
     49 H                     0.243670
     50 H                     0.248416
     51 H                     0.263710
     52 O                    -0.714884
     53 C                    -0.915801
     54 H                     0.302087
     55 H                     0.244597
     56 H                     0.305375
     57 S                     0.594371
     58 C                    -0.755861
     59 H                     0.248886
     60 H                     0.234769
     61 H                     0.292642
     62 O                    -0.634806
     63 C                    -0.725355
     64 H                     0.287965
     65 H                     0.229316
     66 H                     0.261295
     67 S                     0.739817
     68 C                    -0.876414
     69 H                     0.257946
     70 H                     0.273971
     71 H                     0.251445
     72 O                    -0.667987
     73 C                    -0.852426
     74 H                     0.228485
     75 H                     0.267421
     76 H                     0.266223
     77 S                     0.845386
     78 C                    -0.859945
     79 H                     0.244332
     80 H                     0.238608
     81 H                     0.271688
     82 O                    -0.672204
     83 C                    -1.015667
     84 H                     0.237965
     85 H                     0.253568
     86 H                     0.281091
     87 S                     1.029925
     88 C                    -0.845666
     89 H                     0.230497
     90 H                     0.283886
     91 H                     0.239482
     92 O                    -0.725699
     93 C                    -0.876059
     94 H                     0.216441
     95 H                     0.281671
     96 H                     0.241513
     97 S                     0.931978
     98 C                    -1.003397
     99 H                     0.294299
    100 H                     0.312216
    101 H                     0.246975
    102 O                    -0.678907
    103 C                    -0.878043
    104 H                     0.290090
    105 H                     0.265196
    106 H                     0.235367
    107 S                     1.093516
    108 C                    -0.960530
    109 H                     0.227415
    110 H                     0.262255
    111 H                     0.249963
    112 O                    -0.695018
    113 C                    -0.848888
    114 H                     0.252899
    115 H                     0.267967
    116 H                     0.225539
    117 S                     1.016301
    118 C                    -0.961157
    119 H                     0.258818
    120 H                     0.288838
    121 H                     0.256984
    122 O                    -0.693497
    123 C                    -1.036627
    124 H                     0.256272
    125 H                     0.268925
    126 H                     0.247508
    127 S                     1.215679
    128 C                    -1.027044
    129 H                     0.243584
    130 H                     0.250794
    131 H                     0.248275
    132 O                    -0.682053
    133 C                    -1.057213
    134 H                     0.234158
    135 H                     0.246273
    136 H                     0.268332
    137 S                     1.345548
    138 C                    -1.165087
    139 H                     0.330066
    140 H                     0.244459
    141 H                     0.243287
    142 O                    -0.701769
    143 C                    -0.798014
    144 H                     0.256783
    145 H                     0.264630
    146 H                     0.290032
    147 S                     0.497310
    148 C                    -0.726703
    149 H                     0.239021
    150 H                     0.264873
    151 H                     0.264294
    152 O                    -0.594881
    153 C                    -0.733898
    154 H                     0.245315
    155 H                     0.193360
    156 H                     0.271753
    157 S                     1.037256
    158 C                    -0.997630
    159 H                     0.239067
    160 H                     0.282611
    161 H                     0.244144
    162 O                    -0.695117
    163 C                    -0.880768
    164 H                     0.240433
    165 H                     0.233607
    166 H                     0.245020
    167 S                     1.061277
    168 C                    -0.883129
    169 H                     0.272671
    170 H                     0.259550
    171 H                     0.269781
    172 O                    -0.770443
    173 C                    -0.981343
    174 H                     0.255343
    175 H                     0.263491
    176 H                     0.284457
    177 S                     0.835118
    178 C                    -0.860384
    179 H                     0.224397
    180 H                     0.316665
    181 H                     0.249203
    182 O                    -0.657088
    183 C                    -0.578316
    184 H                     0.229517
    185 H                     0.243696
    186 H                     0.289755
    187 S                     0.272681
    188 C                    -0.494011
    189 H                     0.236543
    190 H                     0.294150
    191 H                     0.246037
    192 O                    -0.625610
    193 C                    -0.830189
    194 H                     0.215366
    195 H                     0.322820
    196 H                     0.260196
    197 S                     0.989870
    198 C                    -0.932675
    199 H                     0.267631
    200 H                     0.285763
    201 H                     0.204285
    202 O                    -0.733482
    203 C                    -0.938392
    204 H                     0.237518
    205 H                     0.245176
    206 H                     0.260371
    207 S                     1.237521
    208 C                    -1.033674
    209 H                     0.230248
    210 H                     0.305636
    211 H                     0.251523
    212 O                    -0.754078
    213 C                    -0.772952
    214 H                     0.307012
    215 H                     0.241209
    216 H                     0.227939
    217 S                     0.155939
    218 C                    -0.701540
    219 H                     0.304478
    220 H                     0.255697
    221 H                     0.241367
    222 O                    -0.487269
    223 C                    -0.950685
    224 H                     0.296287
    225 H                     0.239677
    226 H                     0.226124
    227 S                     1.059340
    228 C                    -0.901850
    229 H                     0.248068
    230 H                     0.245188
    231 H                     0.256276
    232 O                    -0.712927
    233 C                    -1.021857
    234 H                     0.308632
    235 H                     0.255966
    236 H                     0.247759
    237 S                     1.016962
    238 C                    -0.899326
    239 H                     0.283465
    240 H                     0.235436
    241 H                     0.253807
    242 O                    -0.695421
    243 C                    -0.887726
    244 H                     0.256843
    245 H                     0.228218
    246 H                     0.234094
    247 S                     0.997916
    248 C                    -0.857963
    249 H                     0.273740
    250 H                     0.201985
    251 H                     0.288969
    252 O                    -0.667603
    253 C                    -0.718795
    254 H                     0.268915
    255 H                     0.273607
    256 H                     0.291771
    257 S                     0.617459
    258 C                    -0.818952
    259 H                     0.255465
    260 H                     0.245387
    261 H                     0.255881
    262 O                    -0.654658
    263 C                    -0.985869
    264 H                     0.253890
    265 H                     0.259237
    266 H                     0.249730
    267 S                     0.964080
    268 C                    -0.843462
    269 H                     0.267942
    270 H                     0.243532
    271 H                     0.264992
    272 O                    -0.688351
    273 C                    -1.103158
    274 H                     0.272617
    275 H                     0.262935
    276 H                     0.236038
    277 S                     1.279566
    278 C                    -0.916659
    279 H                     0.228726
    280 H                     0.284728
    281 H                     0.249733
    282 O                    -0.764104
    283 C                    -0.823313
    284 H                     0.315589
    285 H                     0.231401
    286 H                     0.229730
    287 S                     0.674602
    288 C                    -0.904834
    289 H                     0.246478
    290 H                     0.220369
    291 H                     0.315826
    292 O                    -0.640492
  ----------------------------------------
  Sum of atomic charges =     0.000000

 -----------------------------------------------------------------
                    Cartesian Multipole Moments
 -----------------------------------------------------------------
    Charge (ESU x 10^10)
                -0.0000
    Dipole Moment (Debye)
         X     -18.7045      Y       0.7983      Z      37.0171
       Tot      41.4820
    Quadrupole Moments (Debye-Ang)
        XX   -2141.6691     XY    -308.3878     YY    -896.4332
        XZ     659.0541     YZ     714.3978     ZZ     956.2528
    Octopole Moments (Debye-Ang^2)
       XXX -144353.9963    XXY  -39242.2983    XYY  -33967.1570
       YYY  -52517.8923    XXZ  -20581.8735    XYZ   13851.1464
       YYZ  -11275.2674    XZZ   16604.0555    YZZ   17878.2912
       ZZZ     137.7525
    Hexadecapole Moments (Debye-Ang^3)
      XXXX ************   XXXY ************   XXYY ************
      XYYY ************   YYYY ************   XXXZ ************
      XXYZ -340646.2323   XYYZ -495097.7741   YYYZ ************
      XXZZ -613520.5614   XYZZ  347149.6461   YYZZ -372785.9673
      XZZZ -352484.0714   YZZZ  -32896.2074   ZZZZ ************
 -----------------------------------------------------------------
 Total job time:  39141.01s(wall), 326108.15s(cpu) 
 Thu Jul 21 15:01:07 2022

        *************************************************************
        *                                                           *
        *  Thank you very much for using Q-Chem.  Have a nice day.  *
        *                                                           *
        *************************************************************


 
User input: 2 of 2 
 
                  Welcome to Q-Chem
     A Quantum Leap Into The Future Of Chemistry


 Q-Chem 6.0 (devel), Q-Chem, Inc., Pleasanton, CA (2022)

 E. Epifanovsky,  A. T. B. Gilbert,  Xintian Feng,  Joonho Lee,  Yuezhi Mao,  
 N. Mardirossian,  P. Pokhilko,  A. White,  M. Wormit,  M. P. Coons,  
 A. L. Dempwolff,  Zhengting Gan,  D. Hait,  P. R. Horn,  L. D. Jacobson,  
 I. Kaliman,  J. Kussmann,  A. W. Lange,  Ka Un Lao,  D. S. Levine,  Jie Liu,  
 S. C. McKenzie,  A. F. Morrison,  K. Nanda,  F. Plasser,  D. R. Rehn,  
 M. L. Vidal,  Zhi-Qiang You,  Ying Zhu,  B. Alam,  B. Albrecht,  
[...]
          205         206         207         208         209         210
    1  -1.3843799  -1.1768511   0.3285016  -0.2169788  -0.8985181   1.3186234
    2   0.3676247  -1.8212961  -0.5089678  -0.3320175  -1.8773662   0.0276642
    3  -4.5617526  -2.3201826  -2.5214353  -0.0307805  -0.4180133   0.0945429
          211         212         213         214         215         216
    1  -1.2125324   0.0654150   2.7134064   1.0434556   4.1458460   3.1368425
    2   1.3385209   3.0265425   0.1580114   1.2727841  -0.3087463  -0.8883894
    3   0.0415435  -2.2219884  -0.1918631   0.0866397   1.4173300  -1.8926173
          217         218         219         220         221         222
    1   1.8062049   3.2025551   1.9894243   2.6569760   4.6883133  -0.8148036
    2  -0.7400325  -2.0143139  -2.9062836  -1.9119093  -1.1820323  -0.9964740
    3   1.3573038  -0.1295031   0.7525143  -2.0171171   0.5067806  -0.8711370
          223         224         225         226         227         228
    1  -0.2664061  -1.3036953   0.3513875   0.0507226  -2.2002766  -0.9540964
    2   0.9276773  -0.6948205   2.7152939   1.4602468   1.7203738   3.4996660
    3  -0.1423432  -0.8385679  -1.0402348   1.5612036  -0.4705635   0.6086426
          229         230         231         232         233         234
    1  -2.6865853   0.1335790   0.0325764  -2.7495005  -1.4492243   0.5216602
    2   3.6686062   2.9432029   3.5955209   0.8985678  -0.4626281  -0.2488197
    3   1.0158636   2.2193366  -0.9597453   2.7091110  -0.5873590  -0.0333057
          235         236         237         238         239         240
    1  -1.8934173  -2.5472489  -1.8849489  -0.5565509   0.7864195  -2.1843254
    2   0.7663386  -2.1674275  -1.6499382  -3.2093247  -2.2553206  -3.5576873
    3  -1.6540637  -0.0047547  -2.3043473  -1.1230145  -0.2170372  -0.2409499
          241         242         243         244         245         246
    1  -0.1034332   1.0570879  -3.8847723  -4.5419604  -3.4739756  -3.4611777
    2  -3.8663920  -0.4835870  -0.8184830   1.0211403  -1.7659894  -1.5344788
    3  -2.5699118  -3.2408212   0.3491538  -0.1017195  -1.0950765   2.2343749
          247         248         249         250         251         252
    1  -1.9204292  -2.6223739  -4.0477830  -3.1078911  -1.0031793  -2.1608039
    2  -0.4167253   1.1629096   2.0250813  -0.3037882   1.4962720   1.5096361
    3   0.8767142   1.7249235   0.2835481   3.0095561   1.3384781  -2.0518557
          253         254         255         256         257         258
    1  -0.4717307  -0.8088773  -0.7730200   0.1985430   1.5408648   0.8461342
    2   0.6804824   0.8725391   2.0693893  -0.8246638   1.2378918   3.5878542
    3  -1.2461400   0.4469384  -2.6642289  -1.3473235  -0.5155020  -1.0275597
          259         260         261         262         263         264
    1   0.1187555  -0.2552664   2.9169698   2.7004206  -1.3521382  -2.5010920
    2   3.5032005   3.0601262   3.7649071   1.5384949  -0.0661179   1.0142712
    3  -2.8710000   0.3058382  -0.8652119  -3.3850458  -0.0998228  -0.6192681
          265         266         267         268         269         270
    1   0.5003326  -2.2475338  -0.8650688  -2.5519499  -3.4762033  -1.7045364
    2  -0.2161743  -1.0689711   1.0585081   2.2166813   0.5359233   3.4224431
    3  -0.7291850   1.0471321   2.1639105   1.8413495   2.3528213   3.0767460
          271         272         273         274         275         276
    1  -2.2023777   0.3575318  -2.7141369  -1.8359460  -2.0962066  -4.3406870
    2   2.6362703   3.5600886  -2.4902633  -4.0602504  -1.7834911  -1.8630188
    3   0.1531365   0.5266887   0.8890516  -0.2509748   2.2431531   0.5972817
          277         278         279         280         281         282
    1  -1.9945597  -3.4667140  -4.3852115  -2.2777623  -3.1979719  -0.1384953
    2  -0.4480236  -1.1842900  -0.0098182  -0.4296510  -3.1463071  -2.5547008
    3  -0.2829226  -1.7611971  -0.6287056  -3.2215991  -1.4897138  -1.8646816
          283         284         285         286         287         288
    1  -0.4101128   0.5809059  -1.6734874   0.2733167   1.0368613   0.9092877
    2  -2.7263275  -4.1493839  -2.9389855  -0.7975562  -2.6540320  -0.8597997
    3   0.4783753  -0.1705123   1.7884345  -0.2752766   2.0014948   2.0244025
          289         290         291         292
    1   0.8983938  -0.8942515   2.9595034   3.6899716
    2  -0.0893697  -1.9990694  -0.7841094  -1.7703151
    3   0.4142918   2.8600258   2.7547722  -0.1326495
 EField
            1           2           3           4           5           6
    1   0.0034468   0.0045930   0.0054061   0.0037174   0.0041861   0.0022924
    2  -0.0043431  -0.0060538  -0.0052962  -0.0024269  -0.0034423  -0.0028508
    3  -0.0025597  -0.0028801   0.0001471  -0.0031524  -0.0006451  -0.0019850
            7           8           9          10          11          12
    1   0.0074376   0.0111455   0.0036368   0.0029644   0.0021855   0.0034499
    2  -0.0126946  -0.0052937  -0.0031093  -0.0050320   0.0037639  -0.0044344
    3   0.0033399  -0.0021679  -0.0059322  -0.0005382  -0.0081644  -0.0031628
           13          14          15          16          17          18
    1   0.0013514   0.0088330   0.0023655   0.0004724   0.0056584  -0.0037575
    2  -0.0097276  -0.0003644  -0.0009944  -0.0037256  -0.0006962  -0.0064221
    3   0.0050443  -0.0023376  -0.0005910  -0.0023083   0.0035812  -0.0035959
           19          20          21          22          23          24
    1  -0.0020940  -0.0074445  -0.0095889  -0.0055060   0.0075683   0.0358427
    2   0.0002336  -0.0118609  -0.0120882  -0.0139372  -0.0025436   0.0010139
    3  -0.0115558   0.0001134   0.0051761  -0.0009567  -0.0049743  -0.0104382
           25          26          27          28          29          30
    1  -0.0010046  -0.0084000  -0.0596885   0.0051788   0.0024430   0.0220788
    2  -0.0285598  -0.0055166  -0.0107018   0.0050003   0.0220760   0.0085153
    3  -0.0017382  -0.0355631  -0.0047233  -0.0023734   0.0242661  -0.0264993
           31          32          33          34          35          36
    1  -0.0214841   0.0534125   0.0082369   0.0209062   0.0101757   0.0112133
    2   0.0208939  -0.0106681  -0.0011841  -0.0227992   0.0075233   0.0214588
    3  -0.0125036   0.0927236  -0.0021611  -0.0225156  -0.0313155   0.0227277
           37          38          39          40          41          42
    1  -0.0305596   0.0013399   0.0241028   0.0124427  -0.0201777  -0.0298406
    2   0.0504329  -0.0040419  -0.0186526   0.0149207  -0.0233189  -0.0639073
    3   0.0152285   0.0024553   0.0072376   0.0304530  -0.0001183  -0.0849910
           43          44          45          46          47          48
    1  -0.0096221  -0.0397892   0.0041115   0.0117821  -0.0216189  -0.0013470
    2   0.0021104   0.0080332   0.0319823  -0.0244406  -0.0424752   0.0091405
    3  -0.0079701  -0.0137290   0.0018444  -0.0157519   0.0113886   0.0055208
           49          50          51          52          53          54
    1  -0.0362130   0.0220149   0.0150494   0.1060807  -0.0102019  -0.0250846
    2   0.0067566  -0.0096517   0.0222730   0.0112796  -0.0086717   0.0115580
    3  -0.0058888   0.0285220  -0.0175533  -0.0288856  -0.0029213  -0.0214984
           55          56          57          58          59          60
    1   0.0172721  -0.0066891   0.0346454  -0.0041535  -0.0172632  -0.0231623
    2  -0.0165441  -0.0219434  -0.0173124   0.0046729  -0.0002718  -0.0069223
    3  -0.0184872   0.0252808   0.0396428   0.0033227  -0.0263488   0.0286267
           61          62          63          64          65          66
    1   0.0105401   0.0313123  -0.0048545  -0.0261478  -0.0235842   0.0164409
    2   0.0192727   0.0511685   0.0082607   0.0170581  -0.0104510   0.0214558
    3   0.0227789  -0.0918750   0.0010277  -0.0145077   0.0251596   0.0182900
           67          68          69          70          71          72
    1  -0.0245058   0.0069825  -0.0178699   0.0241224   0.0075639   0.0637408
    2  -0.0384561  -0.0018791  -0.0124607  -0.0192413   0.0287396   0.0789022
    3  -0.0239961   0.0081329   0.0236400  -0.0111964   0.0113751  -0.0444622
           73          74          75          76          77          78
    1  -0.0075497  -0.0009579  -0.0237842  -0.0057988   0.0461943  -0.0022023
    2  -0.0037261  -0.0339228   0.0112195   0.0086973  -0.0148523   0.0001300
    3  -0.0023200  -0.0052813   0.0187016  -0.0284662  -0.0234727   0.0041393
           79          80          81          82          83          84
    1  -0.0036335   0.0171772  -0.0220645  -0.0458666   0.0011284   0.0220207
    2  -0.0343188   0.0116392   0.0121905   0.1003661  -0.0084876   0.0081472
    3   0.0082916   0.0331964   0.0199460  -0.0004302   0.0088835   0.0229885
           85          86          87          88          89          90
    1  -0.0238109   0.0095729   0.0411279  -0.0083847  -0.0042996  -0.0233640
    2   0.0021249  -0.0303990   0.0162541  -0.0003391   0.0235036  -0.0190171
    3   0.0178959  -0.0026415  -0.0278795   0.0050486  -0.0204397   0.0139570
           91          92          93          94          95          96
    1   0.0050298  -0.0816266  -0.0063206  -0.0244795  -0.0167290   0.0130112
    2   0.0148135  -0.0637296  -0.0026647  -0.0047011   0.0099195  -0.0268049
    3   0.0250598  -0.0392228  -0.0016827   0.0274067  -0.0237863  -0.0110507
           97          98          99         100         101         102
    1   0.0300189  -0.0099766   0.0175984  -0.0167527  -0.0179581   0.0397746
    2  -0.0095645   0.0101452   0.0266707   0.0018614  -0.0026487   0.0261221
    3   0.0409808  -0.0009548   0.0055564  -0.0290940   0.0309474  -0.1002496
          103         104         105         106         107         108
    1  -0.0025382  -0.0014944  -0.0225733  -0.0196715   0.0436098  -0.0010058
    2   0.0088623   0.0417407  -0.0004648  -0.0042826   0.0205744   0.0003880
    3  -0.0015913   0.0114371  -0.0232577   0.0200264   0.0330511  -0.0062126
          109         110         111         112         113         114
    1   0.0134130   0.0165890  -0.0196061  -0.0488403   0.0047562   0.0317200
    2   0.0286051  -0.0245369  -0.0093863  -0.0958038  -0.0032937   0.0029635
    3  -0.0193251  -0.0081690  -0.0247996   0.0240073  -0.0052697  -0.0094634
          115         116         117         118         119         120
    1   0.0055975  -0.0042411  -0.0536724   0.0067747  -0.0000200  -0.0228922
    2  -0.0082859  -0.0259955  -0.0117508   0.0072683  -0.0153730   0.0231749
    3   0.0266103  -0.0244422   0.0002227  -0.0067523  -0.0316832   0.0076094
          121         122         123         124         125         126
    1   0.0301607   0.0567318   0.0092036   0.0037722   0.0123394   0.0138675
    2   0.0132895   0.0375693  -0.0034460  -0.0263619   0.0007616   0.0280966
    3   0.0087359   0.0865262  -0.0026546   0.0179935  -0.0292481  -0.0023209
          127         128         129         130         131         132
    1  -0.0153015  -0.0004747  -0.0297770   0.0115905   0.0136141  -0.0502571
    2   0.0460672   0.0020633   0.0000738  -0.0231932   0.0267811  -0.0970622
    3  -0.0359371   0.0069460   0.0069596   0.0176618  -0.0024878  -0.0016093
          133         134         135         136         137         138
    1  -0.0037459  -0.0034918   0.0137380  -0.0300210  -0.0164568   0.0134018
    2   0.0103504   0.0075369   0.0303810   0.0173000  -0.0451794  -0.0019146
    3  -0.0020702   0.0229509  -0.0129179  -0.0045614   0.0090677  -0.0043126
          139         140         141         142         143         144
    1   0.0102386   0.0160565   0.0355985  -0.0033674   0.0017650  -0.0238600
    2  -0.0082733   0.0233756  -0.0214456   0.0282911   0.0031443   0.0134241
    3  -0.0340666   0.0131128   0.0269270  -0.1102763  -0.0001997   0.0262249
          145         146         147         148         149         150
    1  -0.0052366  -0.0028475   0.0197701  -0.0005055  -0.0223620   0.0324725
    2   0.0143947  -0.0293760  -0.0054977   0.0080030   0.0269180   0.0105495
    3  -0.0257349   0.0179967   0.0566249  -0.0004571   0.0206033  -0.0028448
          151         152         153         154         155         156
    1  -0.0042963   0.0569591  -0.0014540   0.0154497  -0.0342602   0.0099994
    2   0.0046011  -0.0516312   0.0030872  -0.0047878   0.0109190   0.0260469
    3  -0.0308148  -0.0825389  -0.0031048  -0.0311612   0.0103946  -0.0196197
          157         158         159         160         161         162
    1  -0.0165742   0.0008062  -0.0220771   0.0272505  -0.0051017   0.1030869
    2  -0.0530321   0.0040781  -0.0113651   0.0000100   0.0309886   0.0250592
    3   0.0057228   0.0059656   0.0225904   0.0165963  -0.0076321  -0.0327256
          163         164         165         166         167         168
    1  -0.0039176   0.0039922  -0.0365767   0.0083743  -0.0251182   0.0023643
    2   0.0036407  -0.0140633   0.0027281   0.0286710  -0.0441344   0.0072129
    3  -0.0034948  -0.0299092  -0.0017348   0.0128707   0.0125861   0.0073485
          169         170         171         172         173         174
    1   0.0127877   0.0213708  -0.0291340   0.1007958  -0.0046074  -0.0142445
    2  -0.0078234   0.0233835   0.0132609   0.0079832  -0.0088360   0.0119491
    3   0.0270365  -0.0039648   0.0093636  -0.0427190   0.0009074   0.0238403
          175         176         177         178         179         180
    1  -0.0182566   0.0267475   0.0430831   0.0077380   0.0179196   0.0276871
    2  -0.0130965  -0.0159198  -0.0055402   0.0062637  -0.0186169   0.0205008
    3  -0.0252967   0.0153679  -0.0352739   0.0032576   0.0145020   0.0049445
          181         182         183         184         185         186
    1  -0.0298962  -0.0808025  -0.0002118  -0.0256954   0.0089051  -0.0015885
    2   0.0057310   0.0671818   0.0082429  -0.0007437   0.0195948   0.0257865
    3   0.0018319  -0.0260620  -0.0007359   0.0053815   0.0285238  -0.0127287
          187         188         189         190         191         192
    1   0.0161245   0.0072204   0.0198223  -0.0063244   0.0310884  -0.0693605
    2  -0.0329205   0.0077568  -0.0195633   0.0200818   0.0076466  -0.0314756
    3   0.0442717  -0.0073409  -0.0100464  -0.0184360   0.0163185  -0.0790376
          193         194         195         196         197         198
    1   0.0010765   0.0323576   0.0123152  -0.0129646  -0.0267558   0.0040026
    2   0.0084174  -0.0078938   0.0162154   0.0211621  -0.0220655  -0.0031253
    3   0.0008456  -0.0063582  -0.0269581   0.0207222   0.0406492  -0.0040181
          199         200         201         202         203         204
    1  -0.0115199   0.0139529   0.0192681  -0.0409225  -0.0042121  -0.0237874
    2  -0.0213822   0.0189045  -0.0300075   0.0389345  -0.0047630   0.0212640
    3  -0.0168256  -0.0215337   0.0169418  -0.0932678  -0.0008013   0.0078453
          205         206         207         208         209         210
    1  -0.0188727  -0.0099914   0.0323028   0.0025439  -0.0114162   0.0300721
    2   0.0102069  -0.0364700  -0.0349412  -0.0001759  -0.0297488  -0.0064459
    3  -0.0260002  -0.0040169  -0.0236342   0.0085973   0.0171371   0.0186634
          211         212         213         214         215         216
    1  -0.0187376   0.0051509   0.0002855  -0.0199546   0.0274669   0.0035862
    2   0.0194079   0.1088079   0.0068704   0.0218097   0.0004200  -0.0048994
    3   0.0135673  -0.0002167  -0.0020258  -0.0028476   0.0151412  -0.0250701
          217         218         219         220         221         222
    1   0.0010642   0.0021808   0.0101258  -0.0078571   0.0305666  -0.0882422
    2   0.0022332  -0.0104259  -0.0343147   0.0040853  -0.0045691  -0.0129230
    3   0.0544601  -0.0006844   0.0166671  -0.0319602   0.0125605  -0.0652432
          223         224         225         226         227         228
    1   0.0010554  -0.0019078   0.0133893   0.0082545  -0.0357562   0.0032663
    2   0.0040029  -0.0264379   0.0172243  -0.0042088  -0.0026882   0.0072934
    3   0.0028508  -0.0081971  -0.0263253   0.0311506  -0.0469089   0.0026774
          229         230         231         232         233         234
    1  -0.0252061   0.0179832   0.0106642  -0.0325125   0.0025982   0.0300590
    2   0.0190126   0.0018994   0.0168426  -0.0317983   0.0043042  -0.0011705
    3   0.0053711   0.0279339  -0.0265409   0.1013735   0.0100239   0.0168782
          235         236         237         238         239         240
    1  -0.0196662  -0.0273016  -0.0463282   0.0046087   0.0301493  -0.0307930
    2   0.0222157  -0.0039283  -0.0074796  -0.0057518   0.0133285  -0.0132322
    3  -0.0058072   0.0260203  -0.0287407   0.0076231   0.0123704   0.0160649
          241         242         243         244         245         246
    1   0.0152223   0.0933042  -0.0062600  -0.0221818  -0.0025824  -0.0089753
    2  -0.0148594   0.0391319  -0.0002177   0.0206580  -0.0148575  -0.0179316
    3  -0.0219971  -0.0429653   0.0007899  -0.0127059  -0.0234192   0.0278964
          247         248         249         250         251         252
    1   0.0442825  -0.0030739  -0.0260006  -0.0084065   0.0229284   0.0053336
    2  -0.0367172   0.0061941   0.0172620   0.0013968   0.0142655   0.0543085
    3   0.0174285   0.0022348  -0.0106951   0.0402617   0.0154366  -0.0940559
          253         254         255         256         257         258
    1  -0.0085108  -0.0278070  -0.0117037   0.0011457   0.0229670  -0.0021625
    2  -0.0049764  -0.0000234   0.0130072  -0.0332499  -0.0191231   0.0041982
    3   0.0002485   0.0259433  -0.0252755  -0.0101344   0.0435003   0.0007444
          259         260         261         262         263         264
    1  -0.0147301  -0.0167288   0.0220369   0.0456222  -0.0042426  -0.0170345
    2   0.0060644   0.0215493   0.0202652   0.0049301  -0.0045646   0.0068784
    3  -0.0272357   0.0272236   0.0139974  -0.1004140  -0.0027379  -0.0202060
          265         266         267         268         269         270
    1   0.0234644  -0.0092829   0.0129527  -0.0115578  -0.0254195   0.0025312
    2  -0.0146198  -0.0295304  -0.0267740   0.0026181  -0.0202723   0.0253283
    3  -0.0122677   0.0129546   0.0521555   0.0009996   0.0101246   0.0202272
          271         272         273         274         275         276
    1  -0.0124118   0.0540056   0.0011632   0.0113657   0.0179948  -0.0304858
    2   0.0114522   0.0841833  -0.0045937  -0.0265168   0.0085482  -0.0004011
    3  -0.0222348  -0.0402671   0.0067101  -0.0113335   0.0255120   0.0002158
          277         278         279         280         281         282
    1   0.0054432  -0.0010509  -0.0244027  -0.0077333  -0.0015894   0.0760381
    2   0.0538382   0.0006932   0.0210182   0.0099016  -0.0306712  -0.0563867
    3   0.0209711  -0.0081021   0.0003359  -0.0392492  -0.0076701  -0.0528179
          283         284         285         286         287         288
    1  -0.0021945   0.0039720  -0.0286763  -0.0101585  -0.0016905   0.0033511
    2  -0.0018518  -0.0239007  -0.0037289   0.0228527  -0.0395031   0.0070972
    3  -0.0089713  -0.0217533   0.0122630  -0.0253208   0.0448656   0.0016932
          289         290         291         292
    1  -0.0042133  -0.0272437   0.0220655   0.0915395
    2   0.0215591  -0.0009390   0.0138904   0.0120578
    3  -0.0226213   0.0181773   0.0185651  -0.0611717
  --- DONE ESP SUMMARY ---
 Total job time:  34.39s(wall), 87.14s(cpu) 
 Thu Jul 21 15:01:41 2022

        *************************************************************
        *                                                           *
        *  Thank you very much for using Q-Chem.  Have a nice day.  *
        *                                                           *
        *************************************************************


