                  Welcome to Q-Chem
     A Quantum Leap Into The Future Of Chemistry


 Q-Chem 5.2 (devel), Q-Chem, Inc., Pleasanton, CA (2019)

 Yihan Shao,  Zhengting Gan,  E. Epifanovsky,  A. T. B. Gilbert,  M. Wormit,  
 J. Kussmann,  A. W. Lange,  A. Behn,  Jia Deng,  Xintian Feng,  D. Ghosh,  
 M. Goldey,  P. R. Horn,  L. D. Jacobson,  I. Kaliman,  T. Kus,  A. Landau,  
 Jie Liu,  E. I. Proynov,  R. M. Richard,  R. P. Steele,  E. J. Sundstrom,  
 H. L. Woodcock III,  P. M. Zimmerman,  D. Zuev,  B. Alam,  B. Albrecht,  
 E. Alguire,  S. A. Baeppler,  D. Barton,  Z. Benda,  Y. A. Bernard,  
 E. J. Berquist,  K. B. Bravaya,  H. Burton,  K. Carter-Fenk,  D. Casanova,  
 Chun-Min Chang,  Yunqing Chen,  A. Chien,  K. D. Closser,  M. P. Coons,  
 S. Coriani,  S. Dasgupta,  A. L. Dempwolff,  M. Diedenhofen,  Hainam Do,  
 R. G. Edgar,  Po-Tung Fang,  S. Faraji,  S. Fatehi,  Qingguo Feng,  
 J. Fosso-Tande,  J. Gayvert,  Qinghui Ge,  A. Ghysels,  G. Gidofalvi,  
 J. Gomes,  J. Gonthier,  A. Gunina,  D. Hait,  M. W. D. Hanson-Heine,  
 P. H. P. Harbach,  A. W. Hauser,  M. F. Herbst,  J. E. Herr,  
 E. G. Hohenstein,  Z. C. Holden,  Kerwin Hui,  B. C. Huynh,  T.-C. Jagau,  
 Hyunjun Ji,  B. Kaduk,  K. Khistyaev,  Jaehoon Kim,  P. Klunzinger,  K. Koh,  
 D. Kosenkov,  L. Koulias,  T. Kowalczyk,  C. M. Krauter,  A. Kunitsa,  
 Ka Un Lao,  A. Laurent,  K. V. Lawler,  Joonho Lee,  D. Lefrancois,  
 S. Lehtola,  D. S. Levine,  Yi-Pei Li,  You-Sheng Lin,  Fenglai Liu,  
 Kuan-Yu Liu,  E. Livshits,  M. Loipersberger,  A. Luenser,  P. Manohar,  
 E. Mansoor,  S. F. Manzer,  Shan-Ping Mao,  Yuezhi Mao,  N. Mardirossian,  
 A. V. Marenich,  T. Markovich,  L. A. Martinez-Martinez,  S. A. Maurer,  
 N. J. Mayhall,  S. C. McKenzie,  J.-M. Mewes,  P. Morgante,  A. F. Morrison,  
 J. W. Mullinax,  K. Nanda,  T. S. Nguyen-Beck,  R. Olivares-Amaya,  
 J. A. Parkhill,  S. K. Paul,  F. Pavosevic,  Zheng Pei,  T. M. Perrine,  
 F. Plasser,  P. Pokhilko,  S. Prager,  A. Prociuk,  E. Ramos,  B. Rana,  
 D. R. Rehn,  F. Rob,  M. Scheurer,  M. Schneider,  N. Sergueev,  
 S. M. Sharada,  S. Sharma,  D. W. Small,  T. Stauch,  C. J. Stein,  
 T. Stein,  Yu-Chuan Su,  S. P. Veccham,  Zhen Tao,  A. J. W. Thom,  
 A. Tkatchenko,  T. Tsuchimochi,  N. M. Tubman,  L. Vogt,  M. L. Vidal,  
 O. Vydrov,  M. A. Watson,  J. Wenzel,  M. de Wergifosse,  T. A. Wesolowski,  
 A. White,  J. Witte,  A. Yamada,  Jun Yang,  K. Yao,  S. Yeganeh,  
 S. R. Yost,  Zhi-Qiang You,  A. Zech,  Igor Ying Zhang,  Xing Zhang,  
 Yan Zhao,  Ying Zhu,  B. R. Brooks,  G. K. L. Chan,  C. J. Cramer,  
 M. S. Gordon,  W. J. Hehre,  A. Klamt,  M. W. Schmidt,  C. D. Sherrill,  
 D. G. Truhlar,  A. Aspuru-Guzik,  R. Baer,  A. T. Bell,  N. A. Besley,  
 Jeng-Da Chai,  A. E. DePrince, III,  R. A. DiStasio Jr.,  A. Dreuw,  
 B. D. Dunietz,  T. R. Furlani,  Chao-Ping Hsu,  Yousung Jung,  Jing Kong,  
 D. S. Lambrecht,  WanZhen Liang,  C. Ochsenfeld,  V. A. Rassolov,  
 L. V. Slipchenko,  J. E. Subotnik,  T. Van Voorhis,  J. M. Herbert,  
 A. I. Krylov,  P. M. W. Gill,  M. Head-Gordon

 Contributors to earlier versions of Q-Chem not listed above: 
 R. D. Adamson,  B. Austin,  J. Baker,  G. J. O. Beran,  K. Brandhorst,  
 S. T. Brown,  E. F. C. Byrd,  A. K. Chakraborty,  C.-L. Cheng,  
 Siu Hung Chien,  D. M. Chipman,  D. L. Crittenden,  H. Dachsel,  
 R. J. Doerksen,  A. D. Dutoi,  L. Fusti-Molnar,  W. A. Goddard III,  
 A. Golubeva-Zadorozhnaya,  S. R. Gwaltney,  G. Hawkins,  A. Heyden,  
 S. Hirata,  G. Kedziora,  F. J. Keil,  C. Kelley,  Jihan Kim,  R. A. King,  
 R. Z. Khaliullin,  P. P. Korambath,  W. Kurlancheek,  A. M. Lee,  M. S. Lee,  
 S. V. Levchenko,  Ching Yeh Lin,  D. Liotard,  R. C. Lochan,  I. Lotan,  
 P. E. Maslen,  N. Nair,  D. P. O'Neill,  D. Neuhauser,  E. Neuscamman,  
 C. M. Oana,  R. Olson,  B. Peters,  R. Peverati,  P. A. Pieniazek,  
 Y. M. Rhee,  J. Ritchie,  M. A. Rohrdanz,  E. Rosta,  N. J. Russ,  
 H. F. Schaefer III,  N. E. Schultz,  N. Shenvi,  A. C. Simmonett,  A. Sodt,  
 D. Stuck,  K. S. Thanthiriwatte,  V. Vanovschi,  Tao Wang,  A. Warshel,  
 C. F. Williams,  Q. Wu,  X. Xu,  W. Zhang

 Please cite Q-Chem as follows:
 Y. Shao et al., Mol. Phys. 113, 184-215 (2015)
 DOI: 10.1080/00268976.2014.952696

 Q-Chem 5.2.2 for Intel X86 EM64T Linux

 Parts of Q-Chem use Armadillo 9.800.1 (Horizon Scraper).
 http://arma.sourceforge.net/

 Q-Chem begins on Thu Mar 11 13:37:42 2021  

Host: n0094.mhg0
0

     Scratch files written to /local/scratch/users/ymao/r7.00_frame_0029_almo_B3LYP_dp.in20210311133739//

Checking the input file for inconsistencies... 	...done.

--------------------------------------------------------------
User input:
--------------------------------------------------------------
$molecule
0 1
--
0 1
C    21.92900   14.54700   28.80200  
C    22.59100   14.75600   27.43000  
C    23.47400   16.00800   27.29900  
C    24.42600   16.14900   28.49800  
C    23.59000   16.14900   29.78900  
C    22.87700   14.80200   29.98500  
H    24.01200   16.13900   26.35200  
H    23.26000   13.88800   27.38500  
H    20.98700   15.09700   28.91400  
H    21.67700   13.48000   28.84600  
H    25.15400   15.32900   28.48100  
H    24.91800   17.11800   28.35700  
H    24.17600   16.38500   30.68600  
H    22.88800   16.99100   29.82700  
H    23.59300   13.97600   29.89300  
H    22.32900   14.85100   30.93400  
H    22.76000   16.83900   27.34200  
N    21.65600   14.62500   26.31500  
H    20.66800   14.83600   26.38700  
C    21.99000   13.91600   25.18000  
H    21.08600   13.69400   24.58300  
O    23.08900   13.44900   24.94000  
--
0 1
C    20.02400   18.31200   29.53300  
H    19.05300   18.37600   30.03100  
H    20.29500   17.30500   29.20400  
H    20.91700   18.79400   29.94000  
S    19.66400   19.29300   28.05900  
C    21.34900   19.87100   27.75800  
H    21.77800   19.57300   26.79800  
H    21.32400   20.96300   27.76700  
H    22.04900   19.50000   28.51200  
O    18.80800   20.42200   28.54500  
C    19.25800   19.37000   21.42000  
H    18.72200   19.81900   20.58000  
H    20.34400   19.44900   21.32400  
H    18.84400   18.44300   21.82500  
S    18.92300   20.56800   22.73100  
C    19.70800   22.06300   22.08800  
H    19.80000   22.81300   22.87800  
H    20.73200   21.75100   21.86700  
H    19.12700   22.30400   21.19500  
O    19.81100   20.13300   23.85500  
C    25.86600   12.78400   27.40200  
H    25.16600   12.76700   28.24200  
H    26.25500   13.78200   27.18200  
H    25.52500   12.37400   26.44800  
S    27.27400   11.74900   27.86100  
C    26.45800   10.14600   27.69600  
H    25.53700   10.05100   28.27800  
H    26.18600   10.01800   26.64500  
H    27.16100   9.36600    28.00100  
O    27.45100   11.94500   29.33500  
C    16.69900   10.21400   19.54800  
H    17.25000   9.36200    19.95400  
H    15.63800   10.14400   19.80000  
H    16.72600   10.39500   18.47100  
S    17.38700   11.69700   20.31800  
C    16.68200   11.47600   21.96700  
H    17.30500   12.07800   22.63300  
H    15.69600   11.94700   21.95600  
H    16.78700   10.42700   22.25700  
O    16.69600   12.91500   19.78900  
C    26.94000   17.99900   35.91600  
H    26.59900   17.07000   36.37900  
H    27.33000   18.76500   36.59100  
H    26.02300   18.39500   35.47300  
S    28.14300   17.60700   34.62500  
C    29.48000   17.40400   35.82400  
H    29.37800   18.21600   36.54900  
H    29.39600   16.43900   36.32900  
H    30.40700   17.40600   35.24600  
O    28.34800   19.01400   34.15900  
C    20.33400   8.84500    34.51800  
H    19.88200   8.91400    35.51100  
H    19.67600   9.27400    33.75800  
H    20.50700   7.79300    34.27700  
S    21.89000   9.76400    34.52200  
C    22.80400   8.89100    35.81400  
H    22.85800   7.82900    35.56100  
H    23.82100   9.27600    35.91900  
H    22.13700   8.87700    36.68000  
O    21.52400   11.02500   35.24100  
C    12.95700   15.85200   25.35400  
H    13.01000   15.42800   24.34800  
H    12.36700   15.03300   25.77200  
H    12.44600   16.81400   25.43900  
S    14.60300   16.13100   26.04600  
C    15.23600   14.47700   25.68900  
H    14.56400   13.69500   26.05100  
H    15.37600   14.39900   24.60700  
H    16.18200   14.30300   26.20800  
O    14.40400   16.23100   27.52600  
C    19.31600   6.62300    30.74900  
H    19.64700   6.64800    31.79100  
H    18.28800   6.98100    30.64700  
H    19.39300   5.55600    30.52400  
S    20.18800   7.65000    29.54600  
C    20.06000   9.18400    30.49400  
H    20.46400   9.10400    31.50700  
H    20.45800   10.06300   29.98100  
H    18.99000   9.39100    30.56600  
O    19.10800   7.94900    28.55300  
C    28.93300   15.64000   23.69500  
H    27.87000   15.56900   23.93600  
H    29.35000   16.40800   24.35100  
H    29.20200   15.92200   22.67300  
S    29.73700   14.08500   24.14300  
C    28.88000   13.93400   25.72700  
H    29.21700   14.73200   26.39400  
H    27.80200   13.91200   25.55100  
H    29.20800   12.96600   26.11500  
O    31.15300   14.35100   24.54900  
C    28.07900   21.57600   31.58400  
H    28.53900   21.35500   32.55000  
H    28.39200   22.47400   31.04600  
H    27.00300   21.61800   31.77200  
S    28.17800   20.20600   30.41000  
C    29.96800   20.42600   30.28900  
H    30.34500   19.50200   29.84300  
H    30.18900   21.29100   29.65800  
H    30.38500   20.53000   31.29400  
O    27.63500   20.65400   29.08900  
C    20.10400   17.03400   33.12800  
H    20.92700   17.41600   32.51800  
H    19.63200   16.27200   32.50200  
H    19.36100   17.75900   33.47100  
S    20.86500   16.35400   34.61900  
C    21.52900   17.94500   35.16100  
H    22.18100   17.93700   36.03900  
H    22.08200   18.54700   34.43500  
H    20.65400   18.54700   35.41800  
O    22.11100   15.66300   34.16000  
C    29.28100   14.51500   30.66600  
H    28.83300   13.76100   30.01400  
H    30.30300   14.59400   30.28500  
H    29.13300   14.33800   31.73400  
S    28.41800   16.04200   30.23100  
C    26.86700   15.52500   31.00000  
H    26.89200   15.71500   32.07600  
H    26.19800   16.24300   30.51900  
H    26.65400   14.51600   30.63700  
O    28.01100   15.88700   28.79900  
C    23.78500   15.10400   20.33500  
H    24.55900   15.70800   20.81400  
H    23.41200   14.20500   20.83200  
H    24.12400   14.85000   19.32700  
S    22.29400   16.08700   20.06400  
C    23.30200   17.42800   19.39400  
H    23.87300   17.86700   20.21700  
H    23.93200   16.98600   18.61800  
H    22.57600   18.14100   18.99500  
O    21.75000   16.50300   21.39500  
C    23.45600   22.54300   30.37000  
H    24.26400   23.27900   30.38800  
H    22.89000   22.71200   29.45000  
H    22.93800   22.45500   31.32800  
S    24.36100   21.00000   30.11100  
C    24.61700   21.16100   28.32900  
H    25.16100   22.08900   28.13700  
H    25.21200   20.30900   27.99000  
H    23.64600   21.24800   27.83500  
O    23.32500   19.92900   30.24400  
C    29.04200   19.56900   26.19700  
H    29.00200   20.23400   27.06400  
H    29.45700   18.59200   26.45600  
H    29.62500   20.05200   25.40900  
S    27.42300   19.26600   25.45400  
C    26.83600   17.99300   26.59300  
H    27.35300   17.04400   26.42600  
H    27.07600   18.29100   27.61700  
H    25.76100   17.88900   26.42500  
O    27.71900   18.48300   24.21300  
C    24.44700   17.51600   23.80900  
H    24.92500   16.92000   24.59000  
H    23.83800   16.83700   23.20600  
H    25.26700   17.91800   23.20800  
S    23.35400   18.83100   24.39500  
C    22.87500   19.34200   22.72900  
H    23.78500   19.76000   22.29200  
H    22.46400   18.47300   22.20800  
H    22.16900   20.16800   22.85000  
O    24.21800   19.98500   24.79600  
C    18.88800   11.88500   27.15700  
H    18.04200   12.21800   27.76400  
H    19.16300   10.83100   27.24900  
H    19.74000   12.56100   27.27400  
S    18.43900   12.17500   25.43100  
C    17.17100   10.88900   25.49200  
H    16.51800   11.07300   24.63600  
H    17.76600   9.97900    25.38200  
H    16.66800   10.81300   26.46000  
O    19.48700   11.61400   24.52200  
C    17.87700   13.71200   33.09500  
H    18.51800   14.09800   33.89100  
H    17.72100   14.48800   32.34100  
H    16.88600   13.40700   33.44200  
S    18.67700   12.22500   32.45200  
C    20.17200   13.06500   31.88300  
H    19.88900   13.94700   31.30400  
H    20.67800   13.40200   32.79100  
H    20.76400   12.38500   31.26500  
O    18.03400   12.00000   31.11900  
C    20.82200   13.08300   21.30600  
H    21.57300   13.31300   22.06600  
H    20.67500   13.82100   20.51200  
H    19.88500   12.89400   21.83600  
S    21.21000   11.54100   20.44800  
C    21.29800   10.52000   21.93600  
H    20.52900   10.93100   22.59400  
H    20.95000   9.54700    21.57900  
H    22.34500   10.54900   22.24700  
O    22.64500   11.70300   20.05300  
C    15.70200   18.96000   29.42800  
H    15.97500   20.01000   29.30100  
H    16.52900   18.34900   29.05700  
H    14.72000   18.76300   28.99100  
S    15.59800   18.67300   31.20900  
C    15.34400   16.90900   30.90900  
H    14.88900   16.51400   31.82100  
H    14.59500   16.80100   30.12100  
H    16.26500   16.41300   30.59200  
O    14.28400   19.23100   31.66000  
C    28.15900   12.53100   36.67700  
H    27.97800   11.49600   36.37700  
H    29.18100   12.74700   36.99900  
H    27.44300   12.84700   37.44100  
S    27.94300   13.71400   35.32800  
C    26.59100   12.85700   34.49000  
H    25.86000   12.52900   35.23400  
H    26.17800   13.46900   33.68400  
H    26.91000   11.94200   33.98500  
O    29.10200   13.52400   34.39900  
C    14.70300   14.80800   21.16300  
H    14.80000   14.38100   20.16200  
H    15.18800   14.11400   21.85400  
H    13.68000   14.84500   21.54800  
S    15.65000   16.31200   21.48800  
C    17.30200   15.78300   20.97900  
H    17.98600   16.39600   21.57200  
H    17.49000   14.75700   21.30400  
H    17.48100   15.89200   19.90600  
O    15.62400   16.41100   22.98200  
C    25.20100   10.08300   31.98400  
H    24.79300   9.49700    32.81000  
H    25.52900   9.41400    31.18400  
H    26.03600   10.65800   32.39400  
S    23.83100   11.12300   31.42900  
C    23.65000   12.31900   32.77100  
H    22.71700   12.88900   32.76300  
H    23.72500   11.77300   33.71500  
H    24.47100   13.04000   32.79000  
O    22.57700   10.31000   31.51300  
C    22.21700   9.91500    27.47000  
H    22.33000   8.88900    27.82900  
H    22.78800   10.62900   28.06900  
H    21.15900   10.16200   27.58500  
S    22.66400   10.02900   25.72200  
C    21.36200   8.98900    25.02500  
H    21.30200   8.05300    25.58800  
H    20.54200   9.70100    25.14200  
H    21.56500   8.75000    23.97800  
O    23.85100   9.14300    25.50300  
C    25.62100   11.15900   21.97600  
H    26.42900   11.53500   21.34200  
H    25.70600   10.08500   22.15800  
H    24.66000   11.43600   21.53500  
S    25.72400   11.77800   23.67000  
C    25.83000   13.53300   23.25300  
H    26.10400   14.01800   24.19300  
H    26.53600   13.72700   22.44100  
H    24.85000   13.83000   22.87100  
O    27.08000   11.34600   24.13500  
C    19.75700   16.94000   24.34900  
H    20.22600   17.86200   24.70300  
H    20.53600   16.18300   24.47700  
H    19.58300   17.10700   23.28300  
S    18.32800   16.35400   25.28700  
C    17.57400   17.90000   25.84000  
H    18.20400   18.76700   25.62600  
H    16.59400   17.99600   25.36600  
H    17.47300   17.85300   26.92700  
O    19.12400   15.97900   26.49900  
$end

$rem
JOBTYPE  SP
METHOD  B3LYP
BASIS  6-31+G(D)
SYMMETRY  FALSE
SYM_IGNORE  TRUE
MEM_TOTAL  16000
MEM_STATIC  8000
MAX_SUB_FILE_NUM  16000
BASIS_LIN_DEP_THRESH  6
THRESH  14
SCF_CONVERGENCE  8
GEN_SCFMAN  TRUE
SCF_GUESS  FRAGMO
FD_MAT_VEC_PROD  FALSE
XC_GRID  000075000302
NL_GRID  1
MAX_SCF_CYCLES  200
FRGM_METHOD  STOLL
SCFMI_MODE  1
$end

$development
almo_efield  1
$end

$rem_frgm
SCF_CONVERGENCE  4
$end

--------------------------------------------------------------
 ----------------------------------------------------------------
             Standard Nuclear Orientation (Angstroms)
    I     Atom           X                Y                Z
 ----------------------------------------------------------------
    1      C      21.9290000000    14.5470000000    28.8020000000
    2      C      22.5910000000    14.7560000000    27.4300000000
    3      C      23.4740000000    16.0080000000    27.2990000000
    4      C      24.4260000000    16.1490000000    28.4980000000
    5      C      23.5900000000    16.1490000000    29.7890000000
    6      C      22.8770000000    14.8020000000    29.9850000000
    7      H      24.0120000000    16.1390000000    26.3520000000
    8      H      23.2600000000    13.8880000000    27.3850000000
    9      H      20.9870000000    15.0970000000    28.9140000000
   10      H      21.6770000000    13.4800000000    28.8460000000
   11      H      25.1540000000    15.3290000000    28.4810000000
   12      H      24.9180000000    17.1180000000    28.3570000000
   13      H      24.1760000000    16.3850000000    30.6860000000
   14      H      22.8880000000    16.9910000000    29.8270000000
   15      H      23.5930000000    13.9760000000    29.8930000000
   16      H      22.3290000000    14.8510000000    30.9340000000
   17      H      22.7600000000    16.8390000000    27.3420000000
   18      N      21.6560000000    14.6250000000    26.3150000000
   19      H      20.6680000000    14.8360000000    26.3870000000
   20      C      21.9900000000    13.9160000000    25.1800000000
   21      H      21.0860000000    13.6940000000    24.5830000000
   22      O      23.0890000000    13.4490000000    24.9400000000
   23      C      20.0240000000    18.3120000000    29.5330000000
   24      H      19.0530000000    18.3760000000    30.0310000000
   25      H      20.2950000000    17.3050000000    29.2040000000
   26      H      20.9170000000    18.7940000000    29.9400000000
   27      S      19.6640000000    19.2930000000    28.0590000000
   28      C      21.3490000000    19.8710000000    27.7580000000
   29      H      21.7780000000    19.5730000000    26.7980000000
   30      H      21.3240000000    20.9630000000    27.7670000000
   31      H      22.0490000000    19.5000000000    28.5120000000
   32      O      18.8080000000    20.4220000000    28.5450000000
   33      C      19.2580000000    19.3700000000    21.4200000000
   34      H      18.7220000000    19.8190000000    20.5800000000
   35      H      20.3440000000    19.4490000000    21.3240000000
   36      H      18.8440000000    18.4430000000    21.8250000000
   37      S      18.9230000000    20.5680000000    22.7310000000
   38      C      19.7080000000    22.0630000000    22.0880000000
   39      H      19.8000000000    22.8130000000    22.8780000000
   40      H      20.7320000000    21.7510000000    21.8670000000
   41      H      19.1270000000    22.3040000000    21.1950000000
   42      O      19.8110000000    20.1330000000    23.8550000000
   43      C      25.8660000000    12.7840000000    27.4020000000
   44      H      25.1660000000    12.7670000000    28.2420000000
   45      H      26.2550000000    13.7820000000    27.1820000000
   46      H      25.5250000000    12.3740000000    26.4480000000
   47      S      27.2740000000    11.7490000000    27.8610000000
   48      C      26.4580000000    10.1460000000    27.6960000000
   49      H      25.5370000000    10.0510000000    28.2780000000
   50      H      26.1860000000    10.0180000000    26.6450000000
   51      H      27.1610000000     9.3660000000    28.0010000000
   52      O      27.4510000000    11.9450000000    29.3350000000
   53      C      16.6990000000    10.2140000000    19.5480000000
   54      H      17.2500000000     9.3620000000    19.9540000000
   55      H      15.6380000000    10.1440000000    19.8000000000
   56      H      16.7260000000    10.3950000000    18.4710000000
   57      S      17.3870000000    11.6970000000    20.3180000000
   58      C      16.6820000000    11.4760000000    21.9670000000
   59      H      17.3050000000    12.0780000000    22.6330000000
   60      H      15.6960000000    11.9470000000    21.9560000000
   61      H      16.7870000000    10.4270000000    22.2570000000
   62      O      16.6960000000    12.9150000000    19.7890000000
   63      C      26.9400000000    17.9990000000    35.9160000000
   64      H      26.5990000000    17.0700000000    36.3790000000
   65      H      27.3300000000    18.7650000000    36.5910000000
   66      H      26.0230000000    18.3950000000    35.4730000000
   67      S      28.1430000000    17.6070000000    34.6250000000
   68      C      29.4800000000    17.4040000000    35.8240000000
   69      H      29.3780000000    18.2160000000    36.5490000000
   70      H      29.3960000000    16.4390000000    36.3290000000
   71      H      30.4070000000    17.4060000000    35.2460000000
   72      O      28.3480000000    19.0140000000    34.1590000000
   73      C      20.3340000000     8.8450000000    34.5180000000
   74      H      19.8820000000     8.9140000000    35.5110000000
   75      H      19.6760000000     9.2740000000    33.7580000000
   76      H      20.5070000000     7.7930000000    34.2770000000
   77      S      21.8900000000     9.7640000000    34.5220000000
   78      C      22.8040000000     8.8910000000    35.8140000000
   79      H      22.8580000000     7.8290000000    35.5610000000
   80      H      23.8210000000     9.2760000000    35.9190000000
   81      H      22.1370000000     8.8770000000    36.6800000000
   82      O      21.5240000000    11.0250000000    35.2410000000
   83      C      12.9570000000    15.8520000000    25.3540000000
   84      H      13.0100000000    15.4280000000    24.3480000000
   85      H      12.3670000000    15.0330000000    25.7720000000
   86      H      12.4460000000    16.8140000000    25.4390000000
   87      S      14.6030000000    16.1310000000    26.0460000000
   88      C      15.2360000000    14.4770000000    25.6890000000
   89      H      14.5640000000    13.6950000000    26.0510000000
   90      H      15.3760000000    14.3990000000    24.6070000000
   91      H      16.1820000000    14.3030000000    26.2080000000
   92      O      14.4040000000    16.2310000000    27.5260000000
   93      C      19.3160000000     6.6230000000    30.7490000000
   94      H      19.6470000000     6.6480000000    31.7910000000
   95      H      18.2880000000     6.9810000000    30.6470000000
   96      H      19.3930000000     5.5560000000    30.5240000000
   97      S      20.1880000000     7.6500000000    29.5460000000
   98      C      20.0600000000     9.1840000000    30.4940000000
   99      H      20.4640000000     9.1040000000    31.5070000000
  100      H      20.4580000000    10.0630000000    29.9810000000
  101      H      18.9900000000     9.3910000000    30.5660000000
  102      O      19.1080000000     7.9490000000    28.5530000000
  103      C      28.9330000000    15.6400000000    23.6950000000
  104      H      27.8700000000    15.5690000000    23.9360000000
  105      H      29.3500000000    16.4080000000    24.3510000000
  106      H      29.2020000000    15.9220000000    22.6730000000
  107      S      29.7370000000    14.0850000000    24.1430000000
  108      C      28.8800000000    13.9340000000    25.7270000000
  109      H      29.2170000000    14.7320000000    26.3940000000
  110      H      27.8020000000    13.9120000000    25.5510000000
  111      H      29.2080000000    12.9660000000    26.1150000000
  112      O      31.1530000000    14.3510000000    24.5490000000
  113      C      28.0790000000    21.5760000000    31.5840000000
  114      H      28.5390000000    21.3550000000    32.5500000000
  115      H      28.3920000000    22.4740000000    31.0460000000
  116      H      27.0030000000    21.6180000000    31.7720000000
  117      S      28.1780000000    20.2060000000    30.4100000000
  118      C      29.9680000000    20.4260000000    30.2890000000
  119      H      30.3450000000    19.5020000000    29.8430000000
  120      H      30.1890000000    21.2910000000    29.6580000000
  121      H      30.3850000000    20.5300000000    31.2940000000
  122      O      27.6350000000    20.6540000000    29.0890000000
  123      C      20.1040000000    17.0340000000    33.1280000000
  124      H      20.9270000000    17.4160000000    32.5180000000
  125      H      19.6320000000    16.2720000000    32.5020000000
  126      H      19.3610000000    17.7590000000    33.4710000000
  127      S      20.8650000000    16.3540000000    34.6190000000
  128      C      21.5290000000    17.9450000000    35.1610000000
  129      H      22.1810000000    17.9370000000    36.0390000000
  130      H      22.0820000000    18.5470000000    34.4350000000
  131      H      20.6540000000    18.5470000000    35.4180000000
  132      O      22.1110000000    15.6630000000    34.1600000000
  133      C      29.2810000000    14.5150000000    30.6660000000
  134      H      28.8330000000    13.7610000000    30.0140000000
  135      H      30.3030000000    14.5940000000    30.2850000000
  136      H      29.1330000000    14.3380000000    31.7340000000
  137      S      28.4180000000    16.0420000000    30.2310000000
  138      C      26.8670000000    15.5250000000    31.0000000000
  139      H      26.8920000000    15.7150000000    32.0760000000
  140      H      26.1980000000    16.2430000000    30.5190000000
  141      H      26.6540000000    14.5160000000    30.6370000000
  142      O      28.0110000000    15.8870000000    28.7990000000
  143      C      23.7850000000    15.1040000000    20.3350000000
  144      H      24.5590000000    15.7080000000    20.8140000000
  145      H      23.4120000000    14.2050000000    20.8320000000
  146      H      24.1240000000    14.8500000000    19.3270000000
  147      S      22.2940000000    16.0870000000    20.0640000000
  148      C      23.3020000000    17.4280000000    19.3940000000
  149      H      23.8730000000    17.8670000000    20.2170000000
  150      H      23.9320000000    16.9860000000    18.6180000000
  151      H      22.5760000000    18.1410000000    18.9950000000
  152      O      21.7500000000    16.5030000000    21.3950000000
  153      C      23.4560000000    22.5430000000    30.3700000000
  154      H      24.2640000000    23.2790000000    30.3880000000
  155      H      22.8900000000    22.7120000000    29.4500000000
  156      H      22.9380000000    22.4550000000    31.3280000000
  157      S      24.3610000000    21.0000000000    30.1110000000
  158      C      24.6170000000    21.1610000000    28.3290000000
  159      H      25.1610000000    22.0890000000    28.1370000000
  160      H      25.2120000000    20.3090000000    27.9900000000
  161      H      23.6460000000    21.2480000000    27.8350000000
  162      O      23.3250000000    19.9290000000    30.2440000000
  163      C      29.0420000000    19.5690000000    26.1970000000
  164      H      29.0020000000    20.2340000000    27.0640000000
  165      H      29.4570000000    18.5920000000    26.4560000000
  166      H      29.6250000000    20.0520000000    25.4090000000
  167      S      27.4230000000    19.2660000000    25.4540000000
  168      C      26.8360000000    17.9930000000    26.5930000000
  169      H      27.3530000000    17.0440000000    26.4260000000
  170      H      27.0760000000    18.2910000000    27.6170000000
  171      H      25.7610000000    17.8890000000    26.4250000000
  172      O      27.7190000000    18.4830000000    24.2130000000
  173      C      24.4470000000    17.5160000000    23.8090000000
  174      H      24.9250000000    16.9200000000    24.5900000000
  175      H      23.8380000000    16.8370000000    23.2060000000
  176      H      25.2670000000    17.9180000000    23.2080000000
  177      S      23.3540000000    18.8310000000    24.3950000000
  178      C      22.8750000000    19.3420000000    22.7290000000
  179      H      23.7850000000    19.7600000000    22.2920000000
  180      H      22.4640000000    18.4730000000    22.2080000000
  181      H      22.1690000000    20.1680000000    22.8500000000
  182      O      24.2180000000    19.9850000000    24.7960000000
  183      C      18.8880000000    11.8850000000    27.1570000000
  184      H      18.0420000000    12.2180000000    27.7640000000
  185      H      19.1630000000    10.8310000000    27.2490000000
  186      H      19.7400000000    12.5610000000    27.2740000000
  187      S      18.4390000000    12.1750000000    25.4310000000
  188      C      17.1710000000    10.8890000000    25.4920000000
  189      H      16.5180000000    11.0730000000    24.6360000000
  190      H      17.7660000000     9.9790000000    25.3820000000
  191      H      16.6680000000    10.8130000000    26.4600000000
  192      O      19.4870000000    11.6140000000    24.5220000000
  193      C      17.8770000000    13.7120000000    33.0950000000
  194      H      18.5180000000    14.0980000000    33.8910000000
  195      H      17.7210000000    14.4880000000    32.3410000000
  196      H      16.8860000000    13.4070000000    33.4420000000
  197      S      18.6770000000    12.2250000000    32.4520000000
  198      C      20.1720000000    13.0650000000    31.8830000000
  199      H      19.8890000000    13.9470000000    31.3040000000
  200      H      20.6780000000    13.4020000000    32.7910000000
  201      H      20.7640000000    12.3850000000    31.2650000000
  202      O      18.0340000000    12.0000000000    31.1190000000
  203      C      20.8220000000    13.0830000000    21.3060000000
  204      H      21.5730000000    13.3130000000    22.0660000000
  205      H      20.6750000000    13.8210000000    20.5120000000
  206      H      19.8850000000    12.8940000000    21.8360000000
  207      S      21.2100000000    11.5410000000    20.4480000000
  208      C      21.2980000000    10.5200000000    21.9360000000
  209      H      20.5290000000    10.9310000000    22.5940000000
  210      H      20.9500000000     9.5470000000    21.5790000000
  211      H      22.3450000000    10.5490000000    22.2470000000
  212      O      22.6450000000    11.7030000000    20.0530000000
  213      C      15.7020000000    18.9600000000    29.4280000000
  214      H      15.9750000000    20.0100000000    29.3010000000
  215      H      16.5290000000    18.3490000000    29.0570000000
  216      H      14.7200000000    18.7630000000    28.9910000000
  217      S      15.5980000000    18.6730000000    31.2090000000
  218      C      15.3440000000    16.9090000000    30.9090000000
  219      H      14.8890000000    16.5140000000    31.8210000000
  220      H      14.5950000000    16.8010000000    30.1210000000
  221      H      16.2650000000    16.4130000000    30.5920000000
  222      O      14.2840000000    19.2310000000    31.6600000000
  223      C      28.1590000000    12.5310000000    36.6770000000
  224      H      27.9780000000    11.4960000000    36.3770000000
  225      H      29.1810000000    12.7470000000    36.9990000000
  226      H      27.4430000000    12.8470000000    37.4410000000
  227      S      27.9430000000    13.7140000000    35.3280000000
  228      C      26.5910000000    12.8570000000    34.4900000000
  229      H      25.8600000000    12.5290000000    35.2340000000
  230      H      26.1780000000    13.4690000000    33.6840000000
  231      H      26.9100000000    11.9420000000    33.9850000000
  232      O      29.1020000000    13.5240000000    34.3990000000
  233      C      14.7030000000    14.8080000000    21.1630000000
  234      H      14.8000000000    14.3810000000    20.1620000000
  235      H      15.1880000000    14.1140000000    21.8540000000
  236      H      13.6800000000    14.8450000000    21.5480000000
  237      S      15.6500000000    16.3120000000    21.4880000000
  238      C      17.3020000000    15.7830000000    20.9790000000
  239      H      17.9860000000    16.3960000000    21.5720000000
  240      H      17.4900000000    14.7570000000    21.3040000000
  241      H      17.4810000000    15.8920000000    19.9060000000
  242      O      15.6240000000    16.4110000000    22.9820000000
  243      C      25.2010000000    10.0830000000    31.9840000000
  244      H      24.7930000000     9.4970000000    32.8100000000
  245      H      25.5290000000     9.4140000000    31.1840000000
  246      H      26.0360000000    10.6580000000    32.3940000000
  247      S      23.8310000000    11.1230000000    31.4290000000
  248      C      23.6500000000    12.3190000000    32.7710000000
  249      H      22.7170000000    12.8890000000    32.7630000000
  250      H      23.7250000000    11.7730000000    33.7150000000
  251      H      24.4710000000    13.0400000000    32.7900000000
  252      O      22.5770000000    10.3100000000    31.5130000000
  253      C      22.2170000000     9.9150000000    27.4700000000
  254      H      22.3300000000     8.8890000000    27.8290000000
  255      H      22.7880000000    10.6290000000    28.0690000000
  256      H      21.1590000000    10.1620000000    27.5850000000
  257      S      22.6640000000    10.0290000000    25.7220000000
  258      C      21.3620000000     8.9890000000    25.0250000000
  259      H      21.3020000000     8.0530000000    25.5880000000
  260      H      20.5420000000     9.7010000000    25.1420000000
  261      H      21.5650000000     8.7500000000    23.9780000000
  262      O      23.8510000000     9.1430000000    25.5030000000
  263      C      25.6210000000    11.1590000000    21.9760000000
  264      H      26.4290000000    11.5350000000    21.3420000000
  265      H      25.7060000000    10.0850000000    22.1580000000
  266      H      24.6600000000    11.4360000000    21.5350000000
  267      S      25.7240000000    11.7780000000    23.6700000000
  268      C      25.8300000000    13.5330000000    23.2530000000
  269      H      26.1040000000    14.0180000000    24.1930000000
  270      H      26.5360000000    13.7270000000    22.4410000000
  271      H      24.8500000000    13.8300000000    22.8710000000
  272      O      27.0800000000    11.3460000000    24.1350000000
  273      C      19.7570000000    16.9400000000    24.3490000000
  274      H      20.2260000000    17.8620000000    24.7030000000
  275      H      20.5360000000    16.1830000000    24.4770000000
  276      H      19.5830000000    17.1070000000    23.2830000000
  277      S      18.3280000000    16.3540000000    25.2870000000
  278      C      17.5740000000    17.9000000000    25.8400000000
  279      H      18.2040000000    18.7670000000    25.6260000000
  280      H      16.5940000000    17.9960000000    25.3660000000
  281      H      17.4730000000    17.8530000000    26.9270000000
  282      O      19.1240000000    15.9790000000    26.4990000000
 ----------------------------------------------------------------
 Nuclear Repulsion Energy =       44877.16549157 hartrees
 There are      581 alpha and      581 beta electrons
 Requested basis set is 6-31+G(d)
 There are 929 shells and 2589 basis functions

 Total QAlloc Memory Limit  16000 MB
 Mega-Array Size      7821 MB
 MEM_STATIC part      8000 MB
 A cutoff of  1.0D-14 yielded 164223 shell pairs
 There are   1427820 function pairs
 Smallest overlap matrix eigenvalue = 5.49E-07
 Linear dependence detected in AO basis
 Tighter screening thresholds may be required for diffuse basis sets
 Use S2THRESH > 14 and THRESH = 14 in case of SCF convergence issues
 Number of orthogonalized atomic orbitals = 2587
 Maximum deviation from orthogonality = 1.390E-10

 Scale SEOQF with 1.000000e-03/1.000000e-03/1.000000e-03

 Standard Electronic Orientation quadrupole field applied
 Nucleus-field energy     =    -0.0000005601 hartrees
Attempting to make child job directory: /local/scratch/users/ymao/r7.00_frame_0029_almo_B3LYP_dp.in20210311133739//Frg1/
Attempting to make child job directory: /local/scratch/users/ymao/r7.00_frame_0029_almo_B3LYP_dp.in20210311133739//Frg2/
Creating input file /local/scratch/users/ymao/r7.00_frame_0029_almo_B3LYP_dp.in20210311133739/Frg1.input
using default PutDataFrgm: nothing
calling putenv with: QCSCRATCH=/local/scratch/users/ymao/r7.00_frame_0029_almo_B3LYP_dp.in20210311133739/ 
Spawning Job For Fragment 0
Done Job For Fragment 0
calling putenv with: QCSCRATCH=/local/scratch/users/ymao 
calling putenv with: QCTHREADS=8 
Creating input file /local/scratch/users/ymao/r7.00_frame_0029_almo_B3LYP_dp.in20210311133739/Frg2.input
using default PutDataFrgm: nothing
calling putenv with: QCSCRATCH=/local/scratch/users/ymao/r7.00_frame_0029_almo_B3LYP_dp.in20210311133739/ 
Spawning Job For Fragment 1
Done Job For Fragment 1
calling putenv with: QCSCRATCH=/local/scratch/users/ymao 
calling putenv with: QCTHREADS=8 
 Time for running child jobs:  CPU 0.80 s  wall 18194.32 s

 -----------------------------------------------------------------------
  General SCF calculation program by
  Eric Jon Sundstrom, Paul Horn, Yuezhi Mao, Dmitri Zuev, Alec White,
  David Stuck, Shaama M.S., Shane Yost, Joonho Lee, David Small,
  Daniel Levine, Susi Lehtola, Hugh Burton, Evgeny Epifanovsky,
  Bang C. Huynh
 -----------------------------------------------------------------------
Performing Restricted Closed Shell SCFMI
Doing General SCFMI
 Exchange:     0.2000 Hartree-Fock + 0.0800 Slater + 0.7200 B88
 Correlation:  0.1900 VWN1RPA + 0.8100 LYP
 Using Euler-Maclaurin-Lebedev (75,302) quadrature formula
performing fock build before subrot guess so that all methods have access
Printing subrot_rss_gen Method Specification:
Occupied Subspace Method is 0
Virtual Subspace Method is 0
Energy prior to optimization (guess energy) = -14787.550983379326
Begin Timing: Total SCF Calculation
begin iterations for algorithm: DIIS         
the SCF tolerance is set to 1.00e-08
    1  -14787.5509833793      4.04e-05     00000 
    2  -14787.5521020505      5.71e-05     00000 
    3  -14787.5594248657      1.74e-05     00000 
    4  -14787.5600905959      6.54e-06     00000 
    5  -14787.5602080166      2.95e-06     00000 
    6  -14787.5602303238      1.69e-06     00000 
    7  -14787.5602367892      1.20e-06     00000 
    8  -14787.5602400983      5.91e-07     00000 
    9  -14787.5602408143      3.15e-07     00000 
   10  -14787.5602410023      1.90e-07     00000 
   11  -14787.5602410662      1.32e-07     00000 
   12  -14787.5602411007      7.65e-08     00000 
   13  -14787.5602411153      3.55e-08     00000 
   14  -14787.5602411181      2.21e-08     00000 
   15  -14787.5602411191      1.76e-08     00000 
   16  -14787.5602411199      7.31e-09     00000 Convergence criterion met
write pseudocanon occs and virts to disk
write pseudocanon orbital energies to disk
Timing for Total SCF: 44100.00s (wall), 349508.73s (cpu)
SCFMI Energy  -14787.5602411199
<S^2>            0.00000
 Total energy in the final basis set =   -14787.5602411199
    ==================================================
        The end of Object-Oriented SCFman: SCFMI      
    ==================================================
 
 --------------------------------------------------------------
 
                    Orbital Energies (a.u.)
 --------------------------------------------------------------
 
 Alpha MOs
 -- Occupied --
-89.0246 -89.0198 -89.0134 -89.0121 -89.0119 -89.0116 -89.0106 -89.0053
-89.0035 -89.0029 -89.0025 -89.0001 -88.9956 -88.9940 -88.9910 -88.9896
-88.9848 -88.9823 -88.9776 -88.9762 -88.9701 -88.9696 -88.9677 -88.9646
-88.9588 -88.9477 -19.1462 -19.1421 -19.1392 -19.1319 -19.1311 -19.1220
-19.1210 -19.1210 -19.1186 -19.1180 -19.1171 -19.1162 -19.1122 -19.1104
-19.1101 -19.1096 -19.1027 -19.0993 -19.0951 -19.0929 -19.0915 -19.0912
-19.0908 -19.0893 -19.0875 -19.0778 -19.0699 -14.3488 -10.2790 -10.2482
-10.2470 -10.2407 -10.2362 -10.2356 -10.2348 -10.2327 -10.2324 -10.2313
-10.2310 -10.2280 -10.2279 -10.2271 -10.2268 -10.2263 -10.2246 -10.2246
-10.2246 -10.2243 -10.2225 -10.2196 -10.2192 -10.2175 -10.2167 -10.2132
-10.2129 -10.2126 -10.2120 -10.2118 -10.2070 -10.2055 -10.2053 -10.1992
-10.1964 -10.1957 -10.1952 -10.1952 -10.1950 -10.1946 -10.1939 -10.1935
-10.1926 -10.1906 -10.1880 -10.1856 -10.1850 -10.1843 -10.1822 -10.1821
-10.1819 -10.1797 -10.1790 -10.1771 -10.1723 -10.1699 -10.1690 -10.1690
-10.1686  -8.0709  -8.0658  -8.0591  -8.0585  -8.0584  -8.0577  -8.0566
 -8.0517  -8.0499  -8.0492  -8.0484  -8.0461  -8.0423  -8.0392  -8.0370
 -8.0355  -8.0312  -8.0276  -8.0235  -8.0224  -8.0162  -8.0160  -8.0135
 -8.0114  -8.0048  -7.9941  -6.0353  -6.0341  -6.0301  -6.0291  -6.0280
 -6.0235  -6.0233  -6.0229  -6.0228  -6.0222  -6.0219  -6.0213  -6.0212
 -6.0210  -6.0207  -6.0199  -6.0166  -6.0159  -6.0159  -6.0158  -6.0156
 -6.0150  -6.0143  -6.0138  -6.0137  -6.0131  -6.0127  -6.0126  -6.0115
 -6.0103  -6.0092  -6.0087  -6.0069  -6.0066  -6.0062  -6.0060  -6.0053
 -6.0037  -6.0036  -6.0025  -6.0014  -6.0001  -5.9998  -5.9997  -5.9984
 -5.9965  -5.9957  -5.9943  -5.9942  -5.9929  -5.9920  -5.9907  -5.9885
 -5.9880  -5.9868  -5.9867  -5.9853  -5.9852  -5.9807  -5.9806  -5.9803
 -5.9801  -5.9792  -5.9789  -5.9779  -5.9768  -5.9757  -5.9745  -5.9737
 -5.9733  -5.9707  -5.9692  -5.9683  -5.9681  -5.9620  -5.9584  -5.9572
 -5.9514  -1.0531  -1.0487  -1.0437  -1.0394  -1.0383  -1.0341  -1.0321
 -1.0313  -1.0307  -1.0300  -1.0290  -1.0230  -1.0226  -1.0225  -1.0208
 -1.0186  -1.0161  -1.0129  -1.0049  -1.0045  -0.9999  -0.9981  -0.9959
 -0.9954  -0.9943  -0.9870  -0.9750  -0.9153  -0.8332  -0.8266  -0.8228
 -0.8221  -0.8212  -0.8162  -0.8112  -0.8102  -0.8083  -0.8074  -0.8043
 -0.8034  -0.8009  -0.7981  -0.7962  -0.7919  -0.7915  -0.7833  -0.7823
 -0.7781  -0.7779  -0.7776  -0.7747  -0.7746  -0.7743  -0.7613  -0.7609
 -0.7568  -0.7511  -0.7484  -0.7454  -0.7430  -0.7420  -0.7372  -0.7367
 -0.7367  -0.7357  -0.7345  -0.7337  -0.7285  -0.7284  -0.7240  -0.7211
 -0.7150  -0.7143  -0.7141  -0.7126  -0.7067  -0.7030  -0.7027  -0.7020
 -0.7014  -0.6925  -0.6921  -0.6799  -0.6386  -0.6334  -0.6286  -0.6258
 -0.6241  -0.6237  -0.6236  -0.6228  -0.6227  -0.6184  -0.6145  -0.6143
 -0.6128  -0.6115  -0.6086  -0.6060  -0.6034  -0.6011  -0.5962  -0.5939
 -0.5925  -0.5860  -0.5825  -0.5807  -0.5806  -0.5800  -0.5750  -0.5729
 -0.5615  -0.5588  -0.5212  -0.5101  -0.5051  -0.5022  -0.5002  -0.4992
 -0.4976  -0.4972  -0.4957  -0.4942  -0.4925  -0.4904  -0.4888  -0.4851
 -0.4850  -0.4840  -0.4829  -0.4825  -0.4822  -0.4821  -0.4819  -0.4815
 -0.4811  -0.4799  -0.4791  -0.4785  -0.4779  -0.4765  -0.4763  -0.4758
 -0.4750  -0.4749  -0.4727  -0.4722  -0.4719  -0.4707  -0.4706  -0.4692
 -0.4690  -0.4686  -0.4679  -0.4673  -0.4670  -0.4650  -0.4643  -0.4618
 -0.4608  -0.4605  -0.4599  -0.4597  -0.4590  -0.4582  -0.4580  -0.4576
 -0.4572  -0.4570  -0.4543  -0.4527  -0.4523  -0.4503  -0.4500  -0.4497
 -0.4494  -0.4483  -0.4479  -0.4472  -0.4462  -0.4461  -0.4458  -0.4454
 -0.4446  -0.4428  -0.4421  -0.4415  -0.4414  -0.4409  -0.4403  -0.4400
 -0.4393  -0.4392  -0.4384  -0.4380  -0.4358  -0.4356  -0.4349  -0.4342
 -0.4335  -0.4330  -0.4328  -0.4323  -0.4318  -0.4315  -0.4308  -0.4307
 -0.4294  -0.4288  -0.4276  -0.4263  -0.4250  -0.4236  -0.4234  -0.4227
 -0.4209  -0.4192  -0.4187  -0.4182  -0.4174  -0.4159  -0.4154  -0.4149
 -0.4148  -0.4140  -0.4130  -0.4128  -0.4128  -0.4124  -0.4118  -0.4105
 -0.4096  -0.4093  -0.4078  -0.4071  -0.4065  -0.4057  -0.4053  -0.4048
 -0.4040  -0.4038  -0.4029  -0.4023  -0.4003  -0.3997  -0.3995  -0.3983
 -0.3982  -0.3980  -0.3948  -0.3945  -0.3936  -0.3923  -0.3919  -0.3911
 -0.3902  -0.3899  -0.3890  -0.3880  -0.3877  -0.3872  -0.3856  -0.3847
 -0.3829  -0.3826  -0.3816  -0.3806  -0.3804  -0.3798  -0.3794  -0.3776
 -0.3759  -0.3741  -0.3734  -0.3730  -0.3723  -0.3721  -0.3708  -0.3689
 -0.3679  -0.3677  -0.3668  -0.3657  -0.3652  -0.3637  -0.3629  -0.3626
 -0.3625  -0.3597  -0.3589  -0.3557  -0.3549  -0.3545  -0.3523  -0.3520
 -0.3518  -0.3453  -0.3442  -0.3434  -0.3413  -0.3378  -0.3374  -0.3330
 -0.3313  -0.3306  -0.3239  -0.3126  -0.3123  -0.3080  -0.3022  -0.3008
 -0.2980  -0.2971  -0.2963  -0.2917  -0.2877  -0.2812  -0.2809  -0.2809
 -0.2756  -0.2743  -0.2724  -0.2717  -0.2713  -0.2682  -0.2667  -0.2647
 -0.2643  -0.2635  -0.2614  -0.2582  -0.2562  -0.2554  -0.2544  -0.2533
 -0.2525  -0.2510  -0.2499  -0.2497  -0.2491  -0.2489  -0.2487  -0.2483
 -0.2462  -0.2416  -0.2411  -0.2405  -0.2398  -0.2377  -0.2376  -0.2339
 -0.2312  -0.2309  -0.2299  -0.2271  -0.2218  -0.2215  -0.2148  -0.2137
 -0.2121  -0.2095  -0.2029  -0.2011  -0.1890
 -- Virtual --
 -0.0301  -0.0299  -0.0249  -0.0239  -0.0223  -0.0202  -0.0178  -0.0149
 -0.0148  -0.0120  -0.0108  -0.0092  -0.0086  -0.0084  -0.0067  -0.0061
 -0.0046  -0.0037  -0.0034  -0.0018  -0.0014  -0.0002   0.0006   0.0018
  0.0023   0.0028   0.0040   0.0045   0.0053   0.0059   0.0063   0.0066
  0.0084   0.0089   0.0096   0.0111   0.0118   0.0133   0.0141   0.0146
  0.0153   0.0162   0.0164   0.0175   0.0185   0.0192   0.0197   0.0200
  0.0211   0.0214   0.0227   0.0229   0.0234   0.0245   0.0251   0.0259
  0.0260   0.0267   0.0280   0.0291   0.0300   0.0301   0.0311   0.0316
  0.0319   0.0322   0.0326   0.0343   0.0348   0.0353   0.0359   0.0360
  0.0367   0.0376   0.0379   0.0394   0.0400   0.0402   0.0405   0.0412
  0.0420   0.0422   0.0426   0.0430   0.0444   0.0446   0.0453   0.0458
  0.0467   0.0470   0.0475   0.0483   0.0487   0.0495   0.0500   0.0505
  0.0514   0.0518   0.0525   0.0526   0.0528   0.0537   0.0550   0.0551
  0.0561   0.0564   0.0566   0.0582   0.0588   0.0598   0.0602   0.0614
  0.0617   0.0620   0.0626   0.0628   0.0641   0.0642   0.0654   0.0665
  0.0669   0.0677   0.0682   0.0687   0.0696   0.0704   0.0707   0.0714
  0.0717   0.0728   0.0732   0.0734   0.0741   0.0745   0.0746   0.0758
  0.0764   0.0770   0.0786   0.0795   0.0800   0.0803   0.0806   0.0815
  0.0822   0.0829   0.0831   0.0834   0.0844   0.0859   0.0862   0.0873
  0.0876   0.0884   0.0889   0.0898   0.0900   0.0915   0.0916   0.0924
  0.0925   0.0928   0.0937   0.0947   0.0957   0.0963   0.0968   0.0974
  0.0980   0.0987   0.0990   0.1000   0.1003   0.1012   0.1012   0.1025
  0.1029   0.1035   0.1039   0.1048   0.1055   0.1059   0.1062   0.1068
  0.1075   0.1081   0.1096   0.1104   0.1105   0.1115   0.1120   0.1129
  0.1135   0.1140   0.1145   0.1149   0.1156   0.1160   0.1166   0.1172
  0.1178   0.1185   0.1186   0.1200   0.1202   0.1212   0.1216   0.1223
  0.1229   0.1236   0.1241   0.1254   0.1261   0.1263   0.1276   0.1285
  0.1292   0.1297   0.1302   0.1308   0.1312   0.1317   0.1322   0.1330
  0.1334   0.1341   0.1347   0.1354   0.1356   0.1362   0.1370   0.1381
  0.1383   0.1385   0.1394   0.1400   0.1405   0.1408   0.1416   0.1423
  0.1434   0.1439   0.1450   0.1454   0.1456   0.1458   0.1463   0.1472
  0.1473   0.1476   0.1492   0.1496   0.1503   0.1512   0.1514   0.1520
  0.1528   0.1535   0.1537   0.1542   0.1547   0.1557   0.1562   0.1573
  0.1577   0.1583   0.1593   0.1598   0.1606   0.1613   0.1618   0.1622
  0.1628   0.1635   0.1637   0.1642   0.1654   0.1663   0.1668   0.1672
  0.1681   0.1684   0.1690   0.1695   0.1706   0.1710   0.1713   0.1728
  0.1729   0.1736   0.1747   0.1755   0.1756   0.1764   0.1768   0.1773
  0.1787   0.1793   0.1794   0.1802   0.1805   0.1813   0.1818   0.1825
  0.1833   0.1842   0.1846   0.1851   0.1858   0.1868   0.1881   0.1885
  0.1889   0.1896   0.1903   0.1914   0.1919   0.1923   0.1932   0.1939
  0.1940   0.1951   0.1957   0.1963   0.1964   0.1966   0.1976   0.1983
  0.1987   0.1992   0.1997   0.2002   0.2005   0.2011   0.2019   0.2025
  0.2037   0.2046   0.2057   0.2061   0.2064   0.2076   0.2080   0.2084
  0.2096   0.2098   0.2101   0.2112   0.2116   0.2124   0.2133   0.2140
  0.2143   0.2149   0.2157   0.2159   0.2169   0.2176   0.2179   0.2183
  0.2188   0.2193   0.2201   0.2213   0.2217   0.2225   0.2232   0.2242
  0.2247   0.2256   0.2259   0.2264   0.2268   0.2275   0.2281   0.2286
  0.2296   0.2303   0.2306   0.2313   0.2318   0.2323   0.2338   0.2347
  0.2351   0.2359   0.2364   0.2367   0.2372   0.2380   0.2389   0.2394
  0.2400   0.2411   0.2414   0.2419   0.2423   0.2430   0.2433   0.2453
  0.2459   0.2464   0.2473   0.2484   0.2490   0.2496   0.2500   0.2506
  0.2516   0.2519   0.2528   0.2531   0.2541   0.2545   0.2547   0.2556
  0.2560   0.2567   0.2574   0.2580   0.2591   0.2600   0.2606   0.2613
  0.2615   0.2618   0.2634   0.2637   0.2649   0.2651   0.2659   0.2669
  0.2679   0.2681   0.2686   0.2697   0.2701   0.2707   0.2714   0.2720
  0.2725   0.2737   0.2741   0.2747   0.2763   0.2774   0.2777   0.2789
  0.2794   0.2806   0.2810   0.2814   0.2823   0.2836   0.2840   0.2853
  0.2856   0.2857   0.2864   0.2877   0.2881   0.2887   0.2896   0.2902
  0.2912   0.2926   0.2931   0.2942   0.2949   0.2956   0.2964   0.2981
  0.2984   0.2987   0.2998   0.3004   0.3009   0.3022   0.3034   0.3042
  0.3048   0.3049   0.3057   0.3077   0.3083   0.3091   0.3094   0.3108
  0.3115   0.3123   0.3132   0.3138   0.3145   0.3152   0.3162   0.3166
  0.3173   0.3184   0.3196   0.3204   0.3211   0.3219   0.3225   0.3228
  0.3240   0.3243   0.3250   0.3264   0.3280   0.3287   0.3291   0.3295
  0.3300   0.3317   0.3330   0.3334   0.3352   0.3359   0.3362   0.3377
  0.3380   0.3383   0.3394   0.3399   0.3414   0.3419   0.3433   0.3441
  0.3450   0.3463   0.3467   0.3474   0.3480   0.3492   0.3502   0.3518
  0.3523   0.3531   0.3548   0.3551   0.3567   0.3575   0.3588   0.3596
  0.3606   0.3612   0.3616   0.3623   0.3630   0.3632   0.3639   0.3651
  0.3664   0.3677   0.3690   0.3696   0.3701   0.3709   0.3719   0.3729
  0.3737   0.3747   0.3758   0.3767   0.3778   0.3785   0.3794   0.3801
  0.3822   0.3825   0.3838   0.3844   0.3849   0.3858   0.3862   0.3863
  0.3870   0.3881   0.3889   0.3901   0.3906   0.3916   0.3932   0.3942
  0.3953   0.3965   0.3966   0.3977   0.3996   0.4003   0.4009   0.4012
  0.4032   0.4040   0.4050   0.4059   0.4065   0.4071   0.4086   0.4100
  0.4109   0.4113   0.4128   0.4134   0.4143   0.4148   0.4162   0.4170
  0.4185   0.4205   0.4213   0.4219   0.4225   0.4234   0.4242   0.4251
  0.4263   0.4273   0.4283   0.4290   0.4299   0.4322   0.4331   0.4341
  0.4343   0.4357   0.4372   0.4375   0.4383   0.4397   0.4404   0.4416
  0.4427   0.4435   0.4449   0.4460   0.4477   0.4484   0.4492   0.4509
  0.4526   0.4536   0.4548   0.4553   0.4569   0.4585   0.4591   0.4597
  0.4613   0.4624   0.4629   0.4636   0.4647   0.4661   0.4680   0.4685
  0.4692   0.4712   0.4736   0.4736   0.4748   0.4772   0.4780   0.4792
  0.4799   0.4835   0.4847   0.4867   0.4869   0.4882   0.4884   0.4903
  0.4915   0.4922   0.4931   0.4954   0.4963   0.4983   0.4992   0.5024
  0.5031   0.5040   0.5063   0.5084   0.5093   0.5122   0.5124   0.5148
  0.5162   0.5184   0.5194   0.5207   0.5210   0.5237   0.5248   0.5260
  0.5270   0.5291   0.5301   0.5318   0.5335   0.5374   0.5378   0.5388
  0.5408   0.5430   0.5447   0.5466   0.5468   0.5493   0.5525   0.5551
  0.5557   0.5568   0.5577   0.5617   0.5624   0.5640   0.5655   0.5675
  0.5684   0.5698   0.5717   0.5730   0.5750   0.5751   0.5790   0.5821
  0.5823   0.5829   0.5846   0.5858   0.5882   0.5891   0.5902   0.5910
  0.5944   0.5951   0.5968   0.5973   0.5979   0.6003   0.6020   0.6045
  0.6055   0.6070   0.6079   0.6089   0.6094   0.6109   0.6144   0.6155
  0.6171   0.6177   0.6186   0.6192   0.6209   0.6234   0.6243   0.6246
  0.6256   0.6268   0.6283   0.6295   0.6305   0.6311   0.6325   0.6345
  0.6358   0.6370   0.6384   0.6387   0.6389   0.6399   0.6423   0.6435
  0.6441   0.6453   0.6462   0.6474   0.6502   0.6504   0.6508   0.6531
  0.6554   0.6564   0.6569   0.6574   0.6584   0.6591   0.6601   0.6620
  0.6629   0.6633   0.6652   0.6656   0.6671   0.6689   0.6702   0.6708
  0.6711   0.6725   0.6748   0.6750   0.6773   0.6783   0.6796   0.6802
  0.6807   0.6823   0.6832   0.6846   0.6850   0.6857   0.6873   0.6895
  0.6912   0.6921   0.6938   0.6948   0.6964   0.6967   0.6977   0.6987
  0.6989   0.7004   0.7028   0.7029   0.7048   0.7062   0.7076   0.7079
  0.7085   0.7099   0.7102   0.7108   0.7124   0.7134   0.7160   0.7172
  0.7181   0.7192   0.7200   0.7215   0.7217   0.7246   0.7253   0.7258
  0.7269   0.7290   0.7301   0.7303   0.7309   0.7321   0.7336   0.7350
  0.7351   0.7374   0.7393   0.7409   0.7421   0.7423   0.7439   0.7442
  0.7470   0.7484   0.7501   0.7507   0.7511   0.7545   0.7546   0.7591
  0.7605   0.7623   0.7635   0.7641   0.7658   0.7679   0.7689   0.7697
  0.7714   0.7743   0.7755   0.7774   0.7799   0.7803   0.7812   0.7831
  0.7841   0.7851   0.7877   0.7892   0.7906   0.7911   0.7927   0.7935
  0.7968   0.7973   0.7986   0.8008   0.8012   0.8036   0.8051   0.8071
  0.8089   0.8109   0.8114   0.8128   0.8136   0.8157   0.8171   0.8180
  0.8191   0.8200   0.8210   0.8225   0.8258   0.8268   0.8281   0.8295
  0.8313   0.8314   0.8336   0.8349   0.8360   0.8372   0.8388   0.8402
  0.8425   0.8427   0.8448   0.8458   0.8486   0.8501   0.8504   0.8526
  0.8530   0.8554   0.8557   0.8566   0.8578   0.8594   0.8611   0.8616
  0.8634   0.8659   0.8667   0.8690   0.8699   0.8708   0.8718   0.8728
  0.8740   0.8751   0.8767   0.8784   0.8796   0.8812   0.8814   0.8836
  0.8837   0.8867   0.8878   0.8893   0.8900   0.8907   0.8924   0.8943
  0.8951   0.8961   0.8967   0.8983   0.9005   0.9020   0.9033   0.9050
  0.9061   0.9079   0.9085   0.9099   0.9105   0.9121   0.9134   0.9138
  0.9154   0.9162   0.9170   0.9173   0.9185   0.9196   0.9211   0.9224
  0.9240   0.9247   0.9256   0.9276   0.9281   0.9295   0.9315   0.9321
  0.9336   0.9350   0.9361   0.9372   0.9376   0.9392   0.9413   0.9418
  0.9422   0.9428   0.9453   0.9464   0.9475   0.9483   0.9492   0.9500
  0.9512   0.9520   0.9533   0.9538   0.9551   0.9573   0.9584   0.9589
  0.9610   0.9614   0.9625   0.9629   0.9642   0.9660   0.9664   0.9672
  0.9681   0.9701   0.9715   0.9722   0.9730   0.9740   0.9759   0.9769
  0.9788   0.9799   0.9814   0.9825   0.9833   0.9853   0.9863   0.9867
  0.9877   0.9884   0.9899   0.9908   0.9915   0.9924   0.9931   0.9937
  0.9968   0.9970   0.9975   0.9986   0.9993   1.0002   1.0016   1.0026
  1.0030   1.0043   1.0047   1.0065   1.0078   1.0094   1.0105   1.0112
  1.0124   1.0130   1.0148   1.0154   1.0173   1.0182   1.0202   1.0211
  1.0227   1.0241   1.0244   1.0273   1.0275   1.0289   1.0293   1.0314
  1.0329   1.0338   1.0349   1.0356   1.0370   1.0382   1.0389   1.0400
  1.0425   1.0429   1.0438   1.0460   1.0466   1.0482   1.0489   1.0512
  1.0520   1.0538   1.0553   1.0573   1.0578   1.0598   1.0605   1.0618
  1.0634   1.0635   1.0656   1.0670   1.0677   1.0688   1.0698   1.0719
  1.0743   1.0748   1.0762   1.0775   1.0783   1.0812   1.0816   1.0825
  1.0854   1.0861   1.0882   1.0890   1.0897   1.0911   1.0935   1.0945
  1.0951   1.0970   1.0976   1.0994   1.1014   1.1016   1.1038   1.1061
  1.1077   1.1086   1.1095   1.1099   1.1117   1.1125   1.1140   1.1155
  1.1182   1.1190   1.1197   1.1216   1.1233   1.1254   1.1264   1.1274
  1.1277   1.1289   1.1303   1.1315   1.1337   1.1364   1.1377   1.1387
  1.1405   1.1406   1.1411   1.1415   1.1436   1.1464   1.1473   1.1483
  1.1490   1.1511   1.1519   1.1539   1.1547   1.1553   1.1563   1.1586
  1.1597   1.1609   1.1629   1.1642   1.1658   1.1675   1.1689   1.1692
  1.1698   1.1720   1.1747   1.1752   1.1762   1.1765   1.1793   1.1801
  1.1810   1.1836   1.1851   1.1863   1.1877   1.1890   1.1910   1.1921
  1.1939   1.1955   1.1969   1.1973   1.1987   1.2020   1.2039   1.2063
  1.2079   1.2088   1.2102   1.2112   1.2143   1.2150   1.2188   1.2193
  1.2209   1.2227   1.2238   1.2266   1.2279   1.2300   1.2308   1.2313
  1.2328   1.2371   1.2386   1.2413   1.2434   1.2439   1.2475   1.2495
  1.2510   1.2524   1.2548   1.2599   1.2603   1.2631   1.2673   1.2692
  1.2710   1.2731   1.2744   1.2784   1.2792   1.2810   1.2836   1.2849
  1.2872   1.2875   1.2943   1.2954   1.2970   1.2988   1.3014   1.3046
  1.3052   1.3076   1.3099   1.3135   1.3148   1.3183   1.3189   1.3205
  1.3234   1.3266   1.3277   1.3289   1.3308   1.3340   1.3351   1.3371
  1.3391   1.3407   1.3418   1.3424   1.3447   1.3482   1.3491   1.3514
  1.3530   1.3548   1.3565   1.3583   1.3607   1.3622   1.3634   1.3636
  1.3662   1.3696   1.3704   1.3737   1.3748   1.3768   1.3776   1.3786
  1.3821   1.3823   1.3842   1.3853   1.3877   1.3885   1.3899   1.3905
  1.3933   1.3940   1.3957   1.3972   1.3983   1.3993   1.4001   1.4025
  1.4030   1.4043   1.4054   1.4059   1.4081   1.4101   1.4133   1.4148
  1.4153   1.4169   1.4178   1.4186   1.4207   1.4217   1.4230   1.4244
  1.4271   1.4276   1.4296   1.4298   1.4322   1.4339   1.4370   1.4378
  1.4395   1.4398   1.4424   1.4428   1.4438   1.4459   1.4477   1.4481
  1.4499   1.4511   1.4539   1.4542   1.4559   1.4601   1.4607   1.4617
  1.4645   1.4656   1.4665   1.4690   1.4699   1.4725   1.4746   1.4764
  1.4775   1.4789   1.4804   1.4837   1.4844   1.4868   1.4899   1.4904
  1.4928   1.4962   1.4966   1.4983   1.5010   1.5020   1.5051   1.5108
  1.5115   1.5127   1.5135   1.5180   1.5200   1.5215   1.5233   1.5271
  1.5286   1.5315   1.5358   1.5373   1.5416   1.5432   1.5444   1.5489
  1.5513   1.5537   1.5555   1.5586   1.5621   1.5642   1.5660   1.5683
  1.5715   1.5766   1.5793   1.5835   1.5859   1.5913   1.5937   1.5986
  1.6063   1.6069   1.6135   1.6189   1.6229   1.6311   1.6349   1.6407
  1.6421   1.6468   1.6480   1.6485   1.6535   1.6547   1.6567   1.6592
  1.6606   1.6609   1.6619   1.6644   1.6659   1.6693   1.6696   1.6715
  1.6722   1.6723   1.6735   1.6754   1.6763   1.6785   1.6801   1.6808
  1.6808   1.6850   1.6885   1.6886   1.6896   1.6912   1.6923   1.6936
  1.6947   1.6954   1.6966   1.6976   1.6988   1.7010   1.7024   1.7032
  1.7035   1.7067   1.7094   1.7110   1.7123   1.7137   1.7140   1.7154
  1.7168   1.7183   1.7209   1.7228   1.7258   1.7271   1.7279   1.7301
  1.7308   1.7317   1.7325   1.7340   1.7358   1.7377   1.7390   1.7397
  1.7410   1.7432   1.7452   1.7454   1.7470   1.7470   1.7504   1.7517
  1.7534   1.7542   1.7553   1.7569   1.7576   1.7579   1.7590   1.7612
  1.7618   1.7630   1.7645   1.7650   1.7664   1.7678   1.7693   1.7708
  1.7726   1.7733   1.7757   1.7786   1.7806   1.7840   1.7850   1.7870
  1.7890   1.7897   1.7930   1.7975   1.7982   1.7994   1.8000   1.8041
  1.8056   1.8068   1.8097   1.8117   1.8138   1.8159   1.8201   1.8224
  1.8232   1.8276   1.8303   1.8328   1.8338   1.8370   1.8380   1.8425
  1.8439   1.8461   1.8469   1.8498   1.8518   1.8577   1.8590   1.8608
  1.8618   1.8661   1.8678   1.8697   1.8724   1.8749   1.8752   1.8790
  1.8812   1.8827   1.8837   1.8851   1.8854   1.8888   1.8903   1.8913
  1.8926   1.8934   1.8940   1.8944   1.8977   1.9001   1.9004   1.9009
  1.9030   1.9044   1.9057   1.9063   1.9068   1.9074   1.9079   1.9106
  1.9123   1.9136   1.9141   1.9153   1.9170   1.9175   1.9196   1.9217
  1.9223   1.9231   1.9264   1.9280   1.9300   1.9310   1.9322   1.9338
  1.9374   1.9395   1.9416   1.9435   1.9448   1.9476   1.9509   1.9517
  1.9535   1.9549   1.9604   1.9633   1.9674   1.9697   1.9759   1.9776
  1.9851   1.9876   1.9960   1.9991   2.0056   2.0113   2.0157   2.0191
  2.0218   2.0289   2.0360   2.0458   2.0461   2.0522   2.0554   2.0572
  2.0579   2.0602   2.0607   2.0629   2.0655   2.0673   2.0701   2.0710
  2.0726   2.0741   2.0750   2.0759   2.0785   2.0795   2.0810   2.0831
  2.0832   2.0846   2.0870   2.0888   2.0903   2.0923   2.0951   2.0973
  2.0979   2.1002   2.1022   2.1023   2.1065   2.1071   2.1085   2.1098
  2.1110   2.1123   2.1133   2.1158   2.1164   2.1171   2.1187   2.1224
  2.1251   2.1271   2.1298   2.1350   2.1379   2.1423   2.1438   2.1446
  2.1483   2.1511   2.1537   2.1557   2.1574   2.1600   2.1614   2.1648
  2.1659   2.1685   2.1709   2.1747   2.1812   2.1874   2.1884   2.1888
  2.1909   2.1939   2.1982   2.1992   2.2003   2.2059   2.2110   2.2126
  2.2141   2.2171   2.2173   2.2192   2.2196   2.2198   2.2206   2.2219
  2.2226   2.2238   2.2255   2.2262   2.2282   2.2295   2.2305   2.2316
  2.2318   2.2333   2.2347   2.2355   2.2365   2.2397   2.2405   2.2418
  2.2429   2.2439   2.2453   2.2455   2.2460   2.2468   2.2482   2.2488
  2.2490   2.2513   2.2520   2.2542   2.2545   2.2560   2.2563   2.2580
  2.2585   2.2588   2.2597   2.2607   2.2618   2.2624   2.2628   2.2642
  2.2648   2.2655   2.2660   2.2673   2.2686   2.2696   2.2713   2.2736
  2.2744   2.2752   2.2768   2.2775   2.2791   2.2798   2.2811   2.2824
  2.2829   2.2837   2.2851   2.2870   2.2879   2.2903   2.2911   2.2926
  2.2931   2.2933   2.2942   2.2968   2.2978   2.2988   2.2996   2.3008
  2.3023   2.3026   2.3034   2.3037   2.3055   2.3087   2.3091   2.3094
  2.3099   2.3106   2.3128   2.3133   2.3143   2.3157   2.3165   2.3184
  2.3199   2.3210   2.3222   2.3239   2.3244   2.3255   2.3276   2.3291
  2.3304   2.3323   2.3331   2.3352   2.3364   2.3375   2.3398   2.3398
  2.3432   2.3448   2.3460   2.3462   2.3486   2.3503   2.3513   2.3529
  2.3551   2.3573   2.3599   2.3621   2.3637   2.3660   2.3666   2.3690
  2.3723   2.3755   2.3759   2.3778   2.3792   2.3823   2.3849   2.3858
  2.3899   2.3934   2.3982   2.3994   2.4071   2.4112   2.4197   2.4268
  2.4293   2.4468   2.4634   2.4897   2.4950   2.5448   2.5691   2.5975
  2.6900   2.7290   2.7573   2.7894   2.8083   2.8104   2.8173   2.8290
  2.8338   2.8366   2.8386   2.8401   2.8405   2.8427   2.8438   2.8489
  2.8525   2.8546   2.8602   2.8606   2.8614   2.8657   2.8734   2.8750
  2.8768   2.8829   2.8838   2.8854   2.8882   2.8905   2.8911   2.8921
  2.8948   2.9181   2.9732   3.0957   3.2633   3.9352   3.9367   3.9567
  3.9605   3.9656   3.9685   3.9686   3.9782   3.9813   3.9828   3.9863
  3.9918   3.9953   3.9961   4.0021   4.0062   4.0080   4.0139   4.0193
  4.0202   4.0240   4.0297   4.0316   4.0356   4.0367   4.0480   4.1960
  4.2128   4.2154   4.2201   4.2253   4.2282   4.2360   4.2390   4.2424
  4.2449   4.2456   4.2472   4.2513   4.2518   4.2568   4.2578   4.2612
  4.2627   4.2643   4.2662   4.2704   4.2750   4.2760   4.2780   4.2819
  4.2837   4.2877   4.2945   4.2967   4.2977   4.3032   4.3051   4.3096
  4.3153   4.3183   4.3203   4.3231   4.3245   4.3259   4.3290   4.3308
  4.3358   4.3394   4.3406   4.3452   4.3474   4.3496   4.3522   4.3546
  4.3558   4.3564   4.3612   4.3647   4.3663   4.3688   4.3733   4.3748
  4.3809   4.3858   4.3890   4.3899   4.3951   4.4010   4.4061   4.4072
  4.4161   4.4198   4.4302   4.4318   4.4387   4.4499   4.4590   4.4776
  4.4893   4.4944   4.4984   4.5107   4.5310   4.5567   4.5658   4.5814
  4.6362   4.6980   4.7146   4.7407   4.7731   4.9110
 --------------------------------------------------------------
 
          Ground-State Mulliken Net Atomic Charges

     Atom                 Charge (a.u.)
  ----------------------------------------
      1 C                    -0.439376
      2 C                    -0.166101
      3 C                    -0.403106
      4 C                    -0.461047
      5 C                    -0.363947
      6 C                    -0.442297
      7 H                     0.185481
      8 H                     0.211254
      9 H                     0.214653
     10 H                     0.203709
     11 H                     0.227803
     12 H                     0.201243
     13 H                     0.190902
     14 H                     0.224174
     15 H                     0.201015
     16 H                     0.207200
     17 H                     0.218124
     18 N                    -0.489915
     19 H                     0.500214
     20 C                     0.316031
     21 H                     0.163903
     22 O                    -0.499915
     23 C                    -0.811554
     24 H                     0.234261
     25 H                     0.255028
     26 H                     0.283355
     27 S                     1.002221
     28 C                    -1.199530
     29 H                     0.272704
     30 H                     0.252496
     31 H                     0.297553
     32 O                    -0.694821
     33 C                    -0.682118
     34 H                     0.224525
     35 H                     0.256984
     36 H                     0.235022
     37 S                     0.712866
     38 C                    -0.765501
     39 H                     0.274984
     40 H                     0.243624
     41 H                     0.221869
     42 O                    -0.700474
     43 C                    -1.025556
     44 H                     0.260975
     45 H                     0.286988
     46 H                     0.273264
     47 S                     0.946966
     48 C                    -0.924640
     49 H                     0.235249
     50 H                     0.312234
     51 H                     0.241359
     52 O                    -0.667595
     53 C                    -0.919437
     54 H                     0.240274
     55 H                     0.253852
     56 H                     0.266229
     57 S                     0.953828
     58 C                    -0.935969
     59 H                     0.266668
     60 H                     0.262587
     61 H                     0.247133
     62 O                    -0.684391
     63 C                    -0.900322
     64 H                     0.227743
     65 H                     0.241802
     66 H                     0.258837
     67 S                     1.078975
     68 C                    -0.824131
     69 H                     0.233124
     70 H                     0.236368
     71 H                     0.255509
     72 O                    -0.778039
     73 C                    -0.889410
     74 H                     0.255706
     75 H                     0.270950
     76 H                     0.228414
     77 S                     0.905822
     78 C                    -0.834748
     79 H                     0.234975
     80 H                     0.239800
     81 H                     0.253171
     82 O                    -0.652187
     83 C                    -0.866953
     84 H                     0.231976
     85 H                     0.250811
     86 H                     0.244167
     87 S                     0.888904
     88 C                    -0.851788
     89 H                     0.238047
     90 H                     0.268457
     91 H                     0.260544
     92 O                    -0.689210
     93 C                    -0.927864
     94 H                     0.223245
     95 H                     0.268455
     96 H                     0.242804
     97 S                     0.964078
     98 C                    -0.919906
     99 H                     0.245207
    100 H                     0.282943
    101 H                     0.288327
    102 O                    -0.744362
    103 C                    -0.800639
    104 H                     0.224609
    105 H                     0.288950
    106 H                     0.237637
    107 S                     0.961646
    108 C                    -0.901569
    109 H                     0.283984
    110 H                     0.189681
    111 H                     0.267524
    112 O                    -0.705519
    113 C                    -0.847414
    114 H                     0.275510
    115 H                     0.243566
    116 H                     0.241482
    117 S                     1.018090
    118 C                    -0.959309
    119 H                     0.253517
    120 H                     0.261377
    121 H                     0.239517
    122 O                    -0.693602
    123 C                    -0.731488
    124 H                     0.278636
    125 H                     0.251537
    126 H                     0.236270
    127 S                     0.841899
    128 C                    -0.891563
    129 H                     0.252963
    130 H                     0.272780
    131 H                     0.228112
    132 O                    -0.704534
    133 C                    -0.863866
    134 H                     0.326959
    135 H                     0.244142
    136 H                     0.263837
    137 S                     0.771838
    138 C                    -0.774530
    139 H                     0.217765
    140 H                     0.257140
    141 H                     0.282816
    142 O                    -0.710172
    143 C                    -0.831936
    144 H                     0.254931
    145 H                     0.276481
    146 H                     0.250468
    147 S                     0.924070
    148 C                    -0.863010
    149 H                     0.275198
    150 H                     0.240286
    151 H                     0.242544
    152 O                    -0.675806
    153 C                    -0.724497
    154 H                     0.232769
    155 H                     0.245649
    156 H                     0.252156
    157 S                     0.531373
    158 C                    -0.684417
    159 H                     0.255458
    160 H                     0.298407
    161 H                     0.252012
    162 O                    -0.645608
    163 C                    -0.923409
    164 H                     0.273975
    165 H                     0.254303
    166 H                     0.244891
    167 S                     1.076244
    168 C                    -0.957990
    169 H                     0.291288
    170 H                     0.285303
    171 H                     0.232275
    172 O                    -0.716682
    173 C                    -1.150902
    174 H                     0.257235
    175 H                     0.252225
    176 H                     0.305364
    177 S                     1.186368
    178 C                    -0.988130
    179 H                     0.259810
    180 H                     0.274747
    181 H                     0.258578
    182 O                    -0.682266
    183 C                    -0.775556
    184 H                     0.275503
    185 H                     0.271535
    186 H                     0.279578
    187 S                     0.524969
    188 C                    -0.742081
    189 H                     0.234813
    190 H                     0.286903
    191 H                     0.267747
    192 O                    -0.646571
    193 C                    -1.060820
    194 H                     0.239963
    195 H                     0.261263
    196 H                     0.255247
    197 S                     1.297820
    198 C                    -1.067717
    199 H                     0.263244
    200 H                     0.261445
    201 H                     0.291355
    202 O                    -0.697543
    203 C                    -0.931510
    204 H                     0.293314
    205 H                     0.249509
    206 H                     0.241331
    207 S                     0.710110
    208 C                    -0.771928
    209 H                     0.275805
    210 H                     0.236400
    211 H                     0.281838
    212 O                    -0.720180
    213 C                    -0.841665
    214 H                     0.272977
    215 H                     0.216031
    216 H                     0.272793
    217 S                     0.921162
    218 C                    -0.857728
    219 H                     0.236424
    220 H                     0.294221
    221 H                     0.221163
    222 O                    -0.723365
    223 C                    -0.895383
    224 H                     0.253736
    225 H                     0.257489
    226 H                     0.240862
    227 S                     0.782223
    228 C                    -0.794034
    229 H                     0.239777
    230 H                     0.250615
    231 H                     0.262507
    232 O                    -0.681039
    233 C                    -0.786393
    234 H                     0.286365
    235 H                     0.223423
    236 H                     0.250041
    237 S                     0.722219
    238 C                    -0.720014
    239 H                     0.239934
    240 H                     0.265722
    241 H                     0.261147
    242 O                    -0.721632
    243 C                    -0.823260
    244 H                     0.252952
    245 H                     0.273875
    246 H                     0.248505
    247 S                     0.696263
    248 C                    -0.764992
    249 H                     0.280535
    250 H                     0.247170
    251 H                     0.230564
    252 O                    -0.572797
    253 C                    -1.027989
    254 H                     0.267658
    255 H                     0.252100
    256 H                     0.226280
    257 S                     1.303470
    258 C                    -0.975219
    259 H                     0.257151
    260 H                     0.255839
    261 H                     0.250127
    262 O                    -0.728679
    263 C                    -0.930839
    264 H                     0.246048
    265 H                     0.254107
    266 H                     0.278753
    267 S                     0.828668
    268 C                    -0.765866
    269 H                     0.223769
    270 H                     0.248723
    271 H                     0.252181
    272 O                    -0.655328
    273 C                    -0.968230
    274 H                     0.328929
    275 H                     0.262687
    276 H                     0.216127
    277 S                     1.112273
    278 C                    -1.002487
    279 H                     0.312712
    280 H                     0.266281
    281 H                     0.277085
    282 O                    -0.783603
  ----------------------------------------
  Sum of atomic charges =     0.000000

 -----------------------------------------------------------------
                    Cartesian Multipole Moments
 -----------------------------------------------------------------
    Charge (ESU x 10^10)
                 0.0000
    Dipole Moment (Debye)
         X     -10.4440      Y      -5.2121      Z       4.8558
       Tot      12.6421
    Quadrupole Moments (Debye-Ang)
        XX   -1524.8327     XY    -157.8355     YY   -1023.7516
        XZ      17.5742     YZ    -144.4558     ZZ    -425.8211
    Octopole Moments (Debye-Ang^2)
       XXX  -87386.3170    XXY  -20622.5071    XYY  -21742.5824
       YYY  -42704.5191    XXZ  -30927.1056    XYZ   -1343.3160
       YYZ  -29117.3650    XZZ   -6516.7430    YZZ  -14480.3037
       ZZZ  -45822.9257
    Hexadecapole Moments (Debye-Ang^3)
      XXXX ************   XXXY ************   XXYY -739311.6076
      XYYY -911450.6867   YYYY ************   XXXZ ************
      XXYZ -435868.5602   XYYZ -573793.9700   YYYZ ************
      XXZZ -923995.5000   XYZZ -186634.9847   YYZZ ************
      XZZZ -794005.6253   YZZZ -973238.5230   ZZZZ ************
 -----------------------------------------------------------------
Archival summary:
[...]
    2   0.0298353   0.0117344  -0.0525925  -0.0008297  -0.0223963   0.0240076
    3  -0.0089794   0.0103220   0.0292308  -0.0017017  -0.0154334  -0.0188584
          121         122         123         124         125         126
    1   0.0158363  -0.0415484   0.0005716   0.0213329  -0.0150284  -0.0222613
    2   0.0025801   0.0294977   0.0038904   0.0196518  -0.0237701   0.0273621
    3   0.0272626  -0.0961917  -0.0093833  -0.0185237  -0.0134764  -0.0040844
          127         128         129         130         131         132
    1  -0.0342565   0.0022908   0.0149629   0.0157058  -0.0240840   0.0926115
    2  -0.0215159   0.0107075  -0.0142190   0.0053016   0.0250327  -0.0509504
    3   0.0333372   0.0012698   0.0265738  -0.0337732   0.0133213  -0.0325117
          133         134         135         136         137         138
    1   0.0007965  -0.0197995   0.0345635   0.0075648   0.0217550  -0.0064603
    2  -0.0110510  -0.0307704   0.0002591  -0.0158017   0.0425405  -0.0004767
    3  -0.0028064  -0.0106389   0.0013116   0.0322458   0.0248512  -0.0006493
          139         140         141         142         143         144
    1  -0.0049893  -0.0327214  -0.0083044  -0.0304910   0.0037879   0.0221678
    2  -0.0000179   0.0168215  -0.0306261  -0.0090563  -0.0059503   0.0107580
    3   0.0341204  -0.0098439  -0.0076417  -0.1040006   0.0002142   0.0219184
          145         146         147         148         149         150
    1   0.0050056   0.0136983  -0.0298824   0.0018327   0.0176521   0.0202498
    2  -0.0292209  -0.0187239  -0.0247506   0.0073830   0.0165296  -0.0015225
    3   0.0115993  -0.0271908  -0.0443468  -0.0008538   0.0189286  -0.0259576
          151         152         153         154         155         156
    1  -0.0115694  -0.0453580  -0.0018187   0.0168170  -0.0310248  -0.0218720
    2   0.0284051   0.0281499   0.0035125   0.0323578   0.0083181   0.0015297
    3  -0.0163784   0.0962380  -0.0020853   0.0073861  -0.0155151   0.0216078
          157         158         159         160         161         162
    1   0.0505926   0.0010589   0.0235152   0.0153536  -0.0246365  -0.0746767
    2   0.0000212  -0.0008733   0.0222494  -0.0200137  -0.0068947  -0.0806250
    3   0.0273368  -0.0109534  -0.0108133  -0.0126314  -0.0188673   0.0118426
          163         164         165         166         167         168
    1   0.0066046  -0.0089685   0.0190254   0.0206385  -0.0362973   0.0007198
    2   0.0011373   0.0170021  -0.0258651   0.0102594   0.0503886  -0.0063129
    3   0.0042740   0.0280319   0.0072985  -0.0226127   0.0035365   0.0087204
          169         170         171         172         173         174
    1   0.0155585  -0.0004987  -0.0323762   0.0208760   0.0065918   0.0106428
    2  -0.0245253   0.0063403  -0.0025069  -0.0551120  -0.0030419  -0.0110018
    3  -0.0048410   0.0341021   0.0036857  -0.0909648  -0.0047250   0.0291469
          175         176         177         178         179         180
    1  -0.0190651   0.0268625  -0.0441776  -0.0032712   0.0279995  -0.0173639
    2  -0.0196492   0.0186709  -0.0184864   0.0020157   0.0110988  -0.0215944
    3  -0.0178318  -0.0132276   0.0304501  -0.0066142  -0.0131624  -0.0193132
          181         182         183         184         185         186
    1  -0.0241797   0.0621277   0.0043540  -0.0172141   0.0042303   0.0248832
    2   0.0173556   0.0862763   0.0026758   0.0086932  -0.0279196   0.0217229
    3   0.0082657   0.0304961   0.0065403   0.0277941   0.0144737   0.0174848
          187         188         189         190         191         192
    1  -0.0255132  -0.0024661  -0.0253541   0.0110875  -0.0197749   0.0749671
    2   0.0597217  -0.0061282  -0.0039524  -0.0301744   0.0019636  -0.0336563
    3  -0.0005181   0.0003683  -0.0180269  -0.0079176   0.0243947  -0.0655077
          193         194         195         196         197         198
    1  -0.0036170   0.0105696  -0.0024724  -0.0273648   0.0099905   0.0072569
    2   0.0062974   0.0144037   0.0167151  -0.0047404  -0.0355425   0.0052117
    3   0.0008126   0.0306060  -0.0291489   0.0152045   0.0343484  -0.0016161
          199         200         201         202         203         204
    1  -0.0105536   0.0283212   0.0167683  -0.0468001  -0.0048652   0.0176129
    2   0.0230288   0.0114886  -0.0201297  -0.0167961   0.0049492   0.0116553
    3  -0.0232912   0.0219944  -0.0130464  -0.0989919   0.0045185   0.0175114
          205         206         207         208         209         210
    1  -0.0052895  -0.0307763  -0.0426958  -0.0033020  -0.0148831  -0.0022338
    2   0.0282281   0.0056611  -0.0153548  -0.0022586   0.0051122  -0.0360892
    3  -0.0131585   0.0198727  -0.0322276   0.0056434   0.0380828  -0.0005458
          211         212         213         214         215         216
    1   0.0235847   0.1034719  -0.0006518   0.0107705   0.0186297  -0.0241899
    2  -0.0032402   0.0093272   0.0047055   0.0294630  -0.0171614  -0.0107941
    3   0.0126441  -0.0334967  -0.0076231  -0.0112926  -0.0215286  -0.0166674
          217         218         219         220         221         222
    1   0.0502755  -0.0068155  -0.0084311  -0.0197706   0.0256056  -0.0950934
    2   0.0093436  -0.0059281  -0.0181734  -0.0068904  -0.0188675   0.0432674
    3   0.0223703  -0.0034215   0.0259013  -0.0258671  -0.0078135   0.0353162
          223         224         225         226         227         228
    1   0.0017435   0.0025983   0.0301890  -0.0180107  -0.0156885  -0.0059549
    2  -0.0036600  -0.0304336  -0.0055163   0.0031940   0.0485644  -0.0050962
    3   0.0046164  -0.0087376   0.0146474   0.0297610   0.0183353  -0.0050912
          229         230         231         232         233         234
    1  -0.0318059  -0.0133858   0.0252701   0.0860725  -0.0008107   0.0048669
    2  -0.0015509   0.0233795  -0.0238635  -0.0127347  -0.0119471  -0.0112568
    3   0.0171962  -0.0144416  -0.0116387  -0.0689871  -0.0007260  -0.0290812
          235         236         237         238         239         240
    1   0.0146763  -0.0306643  -0.0188581   0.0092141   0.0221177   0.0040253
    2  -0.0258292   0.0133865   0.0481664  -0.0067094   0.0178403  -0.0310634
    3   0.0162428   0.0037889  -0.0366739   0.0010996   0.0130979   0.0020237
          241         242         243         244         245         246
    1   0.0037158  -0.0034159   0.0050501  -0.0123562   0.0098590   0.0274387
    2   0.0004458   0.0112574  -0.0062572  -0.0242210  -0.0144281   0.0178522
    3  -0.0297276   0.1090984   0.0061198   0.0226622  -0.0235417   0.0014096
          247         248         249         250         251         252
    1   0.0145895  -0.0013519  -0.0258329  -0.0090606   0.0193256  -0.0930265
    2   0.0321789   0.0074247   0.0112331  -0.0097998   0.0239229  -0.0582503
    3  -0.0550721   0.0115048  -0.0034841   0.0313003  -0.0057070   0.0041003
          253         254         255         256         257         258
    1  -0.0041518   0.0102014   0.0180156  -0.0325959  -0.0057763  -0.0096879
    2  -0.0039726  -0.0298924   0.0175515   0.0080984   0.0500137  -0.0031480
    3   0.0086861   0.0107626   0.0193180   0.0064556  -0.0209009   0.0005020
          259         260         261         262         263         264
    1  -0.0076806  -0.0450241   0.0075782   0.0865337   0.0002505   0.0289799
    2  -0.0254974   0.0062737  -0.0025657  -0.0680567  -0.0048107   0.0058802
    3   0.0183115  -0.0091836  -0.0272226  -0.0177003  -0.0095887  -0.0164133
          265         266         267         268         269         270
    1   0.0035300  -0.0293092  -0.0456185   0.0073179   0.0098996   0.0325345
    2  -0.0356844  -0.0003575  -0.0149239   0.0060072   0.0255645   0.0047269
    3  -0.0092403  -0.0232327   0.0265992  -0.0066535   0.0198603  -0.0195870
          271         272         273         274         275         276
    1  -0.0255188   0.1017892   0.0096542   0.0005757   0.0146257  -0.0014907
    2   0.0171602  -0.0358528   0.0035131   0.0281336  -0.0307656  -0.0026329
    3  -0.0077362   0.0344566  -0.0014133   0.0195144   0.0068358  -0.0300900
          277         278         279         280         281         282
    1  -0.0305215  -0.0034997   0.0190292  -0.0276988  -0.0020300   0.0702489
    2  -0.0349307   0.0116446   0.0224273   0.0057828  -0.0081331  -0.0356869
    3  -0.0272708   0.0040587  -0.0074167  -0.0124273   0.0279821   0.0895216
  --- DONE ESP SUMMARY ---
Archival summary:
1\1\n0094.mhg0\SP\ProcedureUnspecified\6-31+G*\262652h22\ymao\FriMar1208:43:282021FriMar1208:43:282021\0\\#,ProcedureUnspecified,6-31+G*,\\0,1\S\O,1,1.49773\C,1,1.80678,2,100.857\H,3,1.09269,1,107.833,2,-28.1489,0\H,3,1.09284,1,108.46,2,-147.991,0\H,3,1.09288,1,112.229,2,88.7052,0\C,1,1.80701,2,94.644,3,103.388,0\H,7,1.09294,1,115.464,2,167.146,0\H,7,1.09333,1,116.4,2,-69.3494,0\H,7,1.09374,1,106.143,2,45.6694,0\Gh,2,1.9243,1,121.874,3,-155.923,0\Gh,11,1.01284,2,155.584,1,95.2693,0\Gh,12,1.3793,11,113.69,2,-118.679,0\Gh,13,1.10585,12,110.455,11,-1.63563,0\Gh,13,1.21799,12,125.291,11,-173.038,0\Gh,12,1.46103,11,123.459,2,75.5217,0\Gh,16,1.09682,12,106.743,11,139.108,0\Gh,16,1.53763,12,113.156,11,28.8457,0\Gh,18,1.09654,16,113.13,12,-46.566,0\Gh,18,1.09724,16,105.476,12,69.6255,0\Gh,18,1.53728,16,113.491,12,-175.023,0\Gh,21,1.09695,18,111.413,16,168.083,0\Gh,21,1.09699,18,102.302,16,-67.8105,0\Gh,21,1.53662,18,109.475,16,49.1437,0\Gh,24,1.09691,21,111.809,18,65.3888,0\Gh,24,1.09713,21,109.397,18,173.468,0\Gh,16,1.53765,12,112.054,11,-104.192,0\Gh,27,1.09645,16,103.876,12,62.9709,0\Gh,27,1.097,16,116.898,12,-52.4173,0\Gh,27,1.53746,16,111.335,12,178.546,0\Gh,30,1.09586,27,104.996,16,-173.878,0\Gh,30,1.09666,27,109.292,16,66.7895,0\H,26,2.03385,24,116.67,21,108.074,0\C,33,1.09291,26,128.192,24,-112.426,0\H,34,1.09293,33,109.456,26,-68.1192,0\H,34,1.09326,33,109.934,26,64.9539,0\S,34,1.80672,33,98.6368,26,176.493,0\O,37,1.49676,34,98.2881,33,-56.419,0\C,37,1.80713,34,93.7676,33,-163.021,0\H,39,1.09264,37,107.908,34,-50.8962,0\H,39,1.09285,37,104.1,34,71.2291,0\H,39,1.09357,37,107.541,34,-179.939,0\H,8,2.11111,7,145.694,1,82.2922,0\C,43,1.09305,8,131.301,7,74.3081,0\H,44,1.09293,43,116.579,8,173.214,0\H,44,1.09309,43,118.043,8,33.6906,0\S,44,1.80725,43,102.897,8,-77.0655,0\O,47,1.49705,44,104.009,43,68.02,0\C,47,1.80685,44,102.11,43,176.499,0\H,49,1.09229,47,104.029,44,65.1218,0\H,49,1.09305,47,104.051,44,-53.7784,0\H,49,1.09319,47,110.307,44,-166.224,0\H,29,2.13264,27,165.221,16,141.071,0\C,53,1.09255,29,127.091,27,-55.4309,0\H,54,1.09325,53,105.391,29,167.177,0\H,54,1.0934,53,107.406,29,-75.496,0\S,54,1.80756,53,115.447,29,43.8525,0\O,57,1.49633,54,107.385,53,79.8498,0\C,57,1.80724,54,93.8482,53,-177.897,0\H,59,1.09261,57,104.84,54,-67.3024,0\H,59,1.09332,57,106.424,54,179.484,0\H,59,1.0934,57,108.31,54,56.2348,0\H,43,2.23392,8,68.4553,7,-129.71,0\C,63,1.09329,43,144.637,8,179.1,0\H,64,1.09254,63,104.924,43,169.989,0\H,64,1.09328,63,111.963,43,49.5699,0\S,64,1.80777,63,104.77,43,-73.7132,0\O,67,1.4975,64,108.428,63,-45.0666,0\C,67,1.80678,64,100.646,63,-152.787,0\H,69,1.09258,67,116.333,64,-52.5652,0\H,69,1.09286,67,100.502,64,62.445,0\H,69,1.09367,67,113.502,64,170.985,0\H,71,2.22808,69,138.396,67,-146.685,0\C,73,1.09278,71,128.71,69,114.259,0\H,74,1.09274,73,106.446,71,42.1378,0\H,74,1.0934,73,120.187,71,165.383,0\S,74,1.80695,73,106.866,71,-70.1785,0\O,77,1.49695,74,103.999,73,25.0903,0\C,77,1.80708,74,98.0444,73,-87.9014,0\H,79,1.09244,77,105.944,74,159.394,0\H,79,1.09276,77,108.903,74,46.7004,0\H,79,1.09286,77,106.83,74,-72.931,0\H,53,2.2372,29,68.9565,27,58.0796,0\C,83,1.09301,53,122.331,29,131.344,0\H,84,1.09315,83,112.697,53,-167.855,0\H,84,1.09352,83,111.036,53,-49.0924,0\S,84,1.80622,83,106.844,53,72.3285,0\O,87,1.49693,84,102.615,83,-87.177,0\C,87,1.80694,84,98.6311,83,165.691,0\H,89,1.09263,87,106.729,84,42.3775,0\H,89,1.09276,87,104.811,84,160.548,0\H,89,1.0934,87,113.282,84,-80.9669,0\O,62,2.24759,59,171.257,57,-12.86,0\S,93,1.49685,62,116.73,59,-117.845,0\C,94,1.80633,93,108.531,62,91.1874,0\H,95,1.0924,94,110.471,93,-63.437,0\H,95,1.09286,94,103.543,93,66.0473,0\H,95,1.09339,94,104.125,93,-179.443,0\C,94,1.80645,93,109.043,62,-5.39464,0\H,99,1.0929,94,106.546,93,161.707,0\H,99,1.093,94,104.419,93,-78.7031,0\H,99,1.09366,94,108.072,93,39.6246,0\H,32,2.30061,30,146.02,27,24.6014,0\C,103,1.09349,32,109.26,30,-108.753,0\H,104,1.09293,103,106.126,32,123.776,0\H,104,1.09357,103,113.356,32,-6.91934,0\S,104,1.80676,103,107.26,32,-124.98,0\O,107,1.49747,104,105.498,103,87.3375,0\C,107,1.80629,104,97.6499,103,-164.668,0\H,109,1.09315,107,107.707,104,64.1563,0\H,109,1.09345,107,108.49,104,-176.62,0\H,109,1.09361,107,114.138,104,-54.4567,0\H,103,2.25173,32,134.343,30,67.1118,0\C,113,1.09249,103,124.221,32,87.5417,0\H,114,1.09323,113,109.596,103,68.0892,0\H,114,1.09328,113,114.654,103,-55.783,0\S,114,1.80729,113,109.171,103,-178.545,0\O,117,1.49688,114,103.044,113,170.138,0\C,117,1.80697,114,94.4856,113,58.8331,0\H,119,1.09229,117,108.807,114,-43.416,0\H,119,1.09273,117,106.63,114,71.1351,0\H,119,1.09379,117,110.127,114,-173.574,0\H,113,2.17683,103,85.3411,32,-90.2388,0\C,123,1.09266,113,135.29,103,-133.531,0\H,124,1.09295,123,113.886,113,178.153,0\H,124,1.09335,123,113.467,113,-60.8089,0\S,124,1.80697,123,104.317,113,61.8843,0\O,127,1.49719,124,107.385,123,-61.5778,0\C,127,1.80649,124,96.8771,123,-168.754,0\H,129,1.09262,127,100.147,124,171.874,0\H,129,1.09304,127,109.976,124,-69.3817,0\H,129,1.09371,127,112.561,124,52.5931,0\H,19,2.332,18,137.947,16,-72.8482,0\C,133,1.09349,19,169.386,18,-78.6468,0\H,134,1.09313,133,114.275,19,-80.2571,0\H,134,1.09335,133,108.395,19,59.4557,0\S,134,1.80683,133,107.693,19,170.387,0\O,137,1.49786,134,104.976,133,158.253,0\C,137,1.80663,134,97.111,133,-88.529,0\H,139,1.09232,137,107.285,134,-122.124,0\H,139,1.09291,137,115.164,134,119.166,0\H,139,1.09369,137,111.935,134,-0.905086,0\O,142,2.19364,139,148.243,137,-108.624,0\S,143,1.496,142,118.205,139,-55.4897,0\C,144,1.80747,143,104.577,142,81.2252,0\H,145,1.09263,144,107.113,143,54.4354,0\H,145,1.09311,144,101.949,143,173.284,0\H,145,1.09331,144,105.699,143,-75.0004,0\C,144,1.80748,143,104.448,142,-21.0304,0\H,149,1.0927,144,108.626,143,165.57,0\H,149,1.09291,144,109.08,143,49.0627,0\H,149,1.09309,144,108.266,143,-75.4074,0\H,75,2.37516,74,95.2766,73,81.9256,0\C,153,1.09225,75,122.282,74,143.483,0\H,154,1.09281,153,112.762,75,-81.1759,0\H,154,1.09353,153,115.496,75,156.241,0\S,154,1.80703,153,105.853,75,29.4762,0\O,157,1.49643,154,104.19,153,-86.239,0\C,157,1.80687,154,91.599,153,162.406,0\H,159,1.09316,157,107.317,154,56.9252,0\H,159,1.09319,157,106.811,154,-68.3476,0\H,159,1.09388,157,101.334,154,175.618,0\H,160,2.13178,159,123.462,157,109.776,0\C,163,1.09252,160,163.963,159,-70.4324,0\H,164,1.09285,163,106.129,160,-131.607,0\H,164,1.09299,163,107.49,160,108.059,0\S,164,1.80785,163,109.085,160,-12.4654,0\O,167,1.49731,164,107.465,163,-155.264,0\C,167,1.80627,164,99.1239,163,-51.6374,0\H,169,1.09226,167,97.1514,164,74.134,0\H,169,1.09295,167,111.203,164,-168.193,0\H,169,1.09392,167,109.487,164,-48.3948,0\H,158,2.29553,157,159.99,154,73.3219,0\C,173,1.09236,158,159.624,157,-179.938,0\H,174,1.0926,173,119.548,158,-25.1038,0\H,174,1.09329,173,107.907,158,108.721,0\S,174,1.80675,173,104.429,158,-142.601,0\O,177,1.49716,174,103.4,173,141.298,0\C,177,1.80678,174,95.8341,173,35.5699,0\H,179,1.09293,177,111.239,174,55.5848,0\H,179,1.09297,177,105.474,174,-59.788,0\H,179,1.09393,177,105.067,174,-176.807,0\H,4,2.38203,3,156.522,1,-152.482,0\C,183,1.09311,4,136.03,3,-0.138055,0\H,184,1.09232,183,107.984,4,-70.0731,0\H,184,1.09275,183,116.32,4,54.8693,0\S,184,1.80697,183,106.815,4,175.882,0\O,187,1.49712,184,106.752,183,-166.479,0\C,187,1.80727,184,89.9716,183,-58.8306,0\H,189,1.09252,187,108.214,184,-46.3568,0\H,189,1.09304,187,111.878,184,73.5949,0\H,189,1.09307,187,105.826,184,-159.961,0\O,92,2.47906,89,140.437,87,42.0428,0\S,193,1.49686,92,118.043,89,104.636,0\C,194,1.80692,193,109.062,92,129.967,0\H,195,1.09252,194,113.456,193,-174.875,0\H,195,1.09262,194,106.71,193,-42.2097,0\H,195,1.09311,194,101.233,193,72.3929,0\C,194,1.80752,193,105.292,92,34.2005,0\H,199,1.09304,194,109.138,193,156.372,0\H,199,1.09308,194,105.425,193,-86.7867,0\H,199,1.09326,194,109.58,193,33.1132,0\H,163,2.4984,160,84.3116,159,97.1263,0\C,203,1.0928,163,125.75,160,93.075,0\H,204,1.09221,203,103.609,163,-104.171,0\H,204,1.09352,203,111.049,163,139.716,0\S,204,1.80783,203,114.241,163,9.89197,0\O,207,1.49728,204,97.311,203,-73.1936,0\C,207,1.80619,204,95.6833,203,-176.051,0\H,209,1.09318,207,112.575,204,-169.384,0\H,209,1.09332,207,101.866,204,71.0738,0\H,209,1.09359,207,118.392,204,-51.5204,0\H,206,2.39099,204,138.173,203,112.398,0\C,213,1.09298,206,115.361,204,162.945,0\H,214,1.09303,213,108.647,206,-57.0951,0\H,214,1.09321,213,110.972,206,-176.986,0\S,214,1.80713,213,108.681,206,63.4429,0\O,217,1.49701,214,102.646,213,76.616,0\C,217,1.80743,214,101.033,213,-179.546,0\H,219,1.09249,217,111.669,214,176.342,0\H,219,1.09305,217,109.197,214,56.2491,0\H,219,1.09318,217,105.303,214,-52.1715,0\O,206,2.43295,204,106.672,203,-23.9763,0\S,223,1.49684,206,175.334,204,29.0152,0\C,224,1.80669,223,103.529,206,97.12,0\H,225,1.09281,224,111.987,223,-175.849,0\H,225,1.0931,224,107.695,223,68.9043,0\H,225,1.09337,224,115.161,223,-52.9034,0\C,224,1.80735,223,107.774,206,-153.961,0\H,229,1.09185,224,104.945,223,-37.9266,0\H,229,1.09323,224,110.784,223,80.4128,0\H,229,1.09359,224,113.038,223,-153.572,0\H,226,1.97411,225,143.213,224,-99.7215,0\C,233,1.09305,226,122.614,225,-0.766688,0\H,234,1.09271,233,103.79,226,70.9278,0\H,234,1.09338,233,114.652,226,-42.992,0\S,234,1.80682,233,111.049,226,-167.193,0\O,237,1.49747,234,103.37,233,-78.757,0\C,237,1.80719,234,97.1897,233,172.104,0\H,239,1.0927,237,113.285,234,34.6133,0\H,239,1.09308,237,101.671,234,158.603,0\H,239,1.09371,237,104.718,234,-86.3772,0\H,228,2.10273,225,162.66,224,59.405,0\C,243,1.09273,228,111.267,225,-67.6107,0\H,244,1.09236,243,108.143,228,-111.753,0\H,244,1.09306,243,114.259,228,11.1695,0\S,244,1.80676,243,105.358,228,131.639,0\O,247,1.49698,244,98.3293,243,172.9,0\C,247,1.80683,244,95.4982,243,67.3351,0\H,249,1.09247,247,106.875,244,-61.9366,0\H,249,1.09317,247,113.699,244,59.1288,0\H,249,1.0934,247,106.539,244,176.384,0\H,68,2.59813,67,125.061,64,-79.2483,0\C,253,1.0938,68,125.148,67,-172.216,0\H,254,1.09277,253,110.816,68,143.638,0\H,254,1.09296,253,110.34,68,-100.336,0\S,254,1.80661,253,107.795,68,20.7835,0\O,257,1.49666,254,107.648,253,179.627,0\C,257,1.80721,254,95.8611,253,71.2527,0\H,259,1.09251,257,117.458,254,57.9375,0\H,259,1.09261,257,105.085,254,-176.548,0\H,259,1.09299,257,111.602,254,-50.2335,0\H,251,2.61926,249,109.693,247,-98.2655,0\C,263,1.0933,251,145.578,249,-63.2259,0\H,264,1.09331,263,110.391,251,-53.8874,0\H,264,1.09332,263,104.42,251,179.479,0\S,264,1.80682,263,113.08,251,64.7668,0\O,267,1.49689,264,105.741,263,73.9842,0\C,267,1.80719,264,94.0664,263,176.727,0\H,269,1.09274,267,105.149,264,67.462,0\H,269,1.09329,267,118.128,264,-49.1308,0\H,269,1.09364,267,116.961,264,-173.996,0\O,196,2.84704,195,129.627,194,-44.2136,0\S,273,1.49627,196,163.416,195,22.3337,0\C,274,1.80731,273,102.174,196,140.583,0\H,275,1.09239,274,110.428,273,174.352,0\H,275,1.09244,274,106.053,273,-68.7105,0\H,275,1.09333,274,106.707,273,54.799,0\C,274,1.80764,273,96.2974,196,-125.521,0\H,279,1.09256,274,109.025,273,177.198,0\H,279,1.09268,274,110.337,273,65.2497,0\H,279,1.09292,274,110.83,273,-53.3454,0\\\@

 Total job time:  64.29s(wall), 225.19s(cpu) 
 Fri Mar 12 08:43:28 2021

        *************************************************************
        *                                                           *
        *  Thank you very much for using Q-Chem.  Have a nice day.  *
        *                                                           *
        *************************************************************


