                  Welcome to Q-Chem
     A Quantum Leap Into The Future Of Chemistry


 Q-Chem 5.2 (devel), Q-Chem, Inc., Pleasanton, CA (2019)

 Yihan Shao,  Zhengting Gan,  E. Epifanovsky,  A. T. B. Gilbert,  M. Wormit,  
 J. Kussmann,  A. W. Lange,  A. Behn,  Jia Deng,  Xintian Feng,  D. Ghosh,  
 M. Goldey,  P. R. Horn,  L. D. Jacobson,  I. Kaliman,  T. Kus,  A. Landau,  
 Jie Liu,  E. I. Proynov,  R. M. Richard,  R. P. Steele,  E. J. Sundstrom,  
 H. L. Woodcock III,  P. M. Zimmerman,  D. Zuev,  B. Alam,  B. Albrecht,  
 E. Alguire,  S. A. Baeppler,  D. Barton,  Z. Benda,  Y. A. Bernard,  
 E. J. Berquist,  K. B. Bravaya,  H. Burton,  K. Carter-Fenk,  D. Casanova,  
 Chun-Min Chang,  Yunqing Chen,  A. Chien,  K. D. Closser,  M. P. Coons,  
 S. Coriani,  S. Dasgupta,  A. L. Dempwolff,  M. Diedenhofen,  Hainam Do,  
 R. G. Edgar,  Po-Tung Fang,  S. Faraji,  S. Fatehi,  Qingguo Feng,  
 J. Fosso-Tande,  J. Gayvert,  Qinghui Ge,  A. Ghysels,  G. Gidofalvi,  
 J. Gomes,  J. Gonthier,  A. Gunina,  D. Hait,  M. W. D. Hanson-Heine,  
 P. H. P. Harbach,  A. W. Hauser,  M. F. Herbst,  J. E. Herr,  
 E. G. Hohenstein,  Z. C. Holden,  Kerwin Hui,  B. C. Huynh,  T.-C. Jagau,  
 Hyunjun Ji,  B. Kaduk,  K. Khistyaev,  Jaehoon Kim,  P. Klunzinger,  K. Koh,  
 D. Kosenkov,  L. Koulias,  T. Kowalczyk,  C. M. Krauter,  A. Kunitsa,  
 Ka Un Lao,  A. Laurent,  K. V. Lawler,  Joonho Lee,  D. Lefrancois,  
 S. Lehtola,  D. S. Levine,  Yi-Pei Li,  You-Sheng Lin,  Fenglai Liu,  
 Kuan-Yu Liu,  E. Livshits,  M. Loipersberger,  A. Luenser,  P. Manohar,  
 E. Mansoor,  S. F. Manzer,  Shan-Ping Mao,  Yuezhi Mao,  N. Mardirossian,  
 A. V. Marenich,  T. Markovich,  L. A. Martinez-Martinez,  S. A. Maurer,  
 N. J. Mayhall,  S. C. McKenzie,  J.-M. Mewes,  P. Morgante,  A. F. Morrison,  
 J. W. Mullinax,  K. Nanda,  T. S. Nguyen-Beck,  R. Olivares-Amaya,  
 J. A. Parkhill,  S. K. Paul,  F. Pavosevic,  Zheng Pei,  T. M. Perrine,  
 F. Plasser,  P. Pokhilko,  S. Prager,  A. Prociuk,  E. Ramos,  B. Rana,  
 D. R. Rehn,  F. Rob,  M. Scheurer,  M. Schneider,  N. Sergueev,  
 S. M. Sharada,  S. Sharma,  D. W. Small,  T. Stauch,  C. J. Stein,  
 T. Stein,  Yu-Chuan Su,  S. P. Veccham,  Zhen Tao,  A. J. W. Thom,  
 A. Tkatchenko,  T. Tsuchimochi,  N. M. Tubman,  L. Vogt,  M. L. Vidal,  
 O. Vydrov,  M. A. Watson,  J. Wenzel,  M. de Wergifosse,  T. A. Wesolowski,  
 A. White,  J. Witte,  A. Yamada,  Jun Yang,  K. Yao,  S. Yeganeh,  
 S. R. Yost,  Zhi-Qiang You,  A. Zech,  Igor Ying Zhang,  Xing Zhang,  
 Yan Zhao,  Ying Zhu,  B. R. Brooks,  G. K. L. Chan,  C. J. Cramer,  
 M. S. Gordon,  W. J. Hehre,  A. Klamt,  M. W. Schmidt,  C. D. Sherrill,  
 D. G. Truhlar,  A. Aspuru-Guzik,  R. Baer,  A. T. Bell,  N. A. Besley,  
 Jeng-Da Chai,  A. E. DePrince, III,  R. A. DiStasio Jr.,  A. Dreuw,  
 B. D. Dunietz,  T. R. Furlani,  Chao-Ping Hsu,  Yousung Jung,  Jing Kong,  
 D. S. Lambrecht,  WanZhen Liang,  C. Ochsenfeld,  V. A. Rassolov,  
 L. V. Slipchenko,  J. E. Subotnik,  T. Van Voorhis,  J. M. Herbert,  
 A. I. Krylov,  P. M. W. Gill,  M. Head-Gordon

 Contributors to earlier versions of Q-Chem not listed above: 
 R. D. Adamson,  B. Austin,  J. Baker,  G. J. O. Beran,  K. Brandhorst,  
 S. T. Brown,  E. F. C. Byrd,  A. K. Chakraborty,  C.-L. Cheng,  
 Siu Hung Chien,  D. M. Chipman,  D. L. Crittenden,  H. Dachsel,  
 R. J. Doerksen,  A. D. Dutoi,  L. Fusti-Molnar,  W. A. Goddard III,  
 A. Golubeva-Zadorozhnaya,  S. R. Gwaltney,  G. Hawkins,  A. Heyden,  
 S. Hirata,  G. Kedziora,  F. J. Keil,  C. Kelley,  Jihan Kim,  R. A. King,  
 R. Z. Khaliullin,  P. P. Korambath,  W. Kurlancheek,  A. M. Lee,  M. S. Lee,  
 S. V. Levchenko,  Ching Yeh Lin,  D. Liotard,  R. C. Lochan,  I. Lotan,  
 P. E. Maslen,  N. Nair,  D. P. O'Neill,  D. Neuhauser,  E. Neuscamman,  
 C. M. Oana,  R. Olson,  B. Peters,  R. Peverati,  P. A. Pieniazek,  
 Y. M. Rhee,  J. Ritchie,  M. A. Rohrdanz,  E. Rosta,  N. J. Russ,  
 H. F. Schaefer III,  N. E. Schultz,  N. Shenvi,  A. C. Simmonett,  A. Sodt,  
 D. Stuck,  K. S. Thanthiriwatte,  V. Vanovschi,  Tao Wang,  A. Warshel,  
 C. F. Williams,  Q. Wu,  X. Xu,  W. Zhang

 Please cite Q-Chem as follows:
 Y. Shao et al., Mol. Phys. 113, 184-215 (2015)
 DOI: 10.1080/00268976.2014.952696

 Q-Chem 5.2.2 for Intel X86 EM64T Linux

 Parts of Q-Chem use Armadillo 9.800.1 (Horizon Scraper).
 http://arma.sourceforge.net/

 Q-Chem begins on Thu Mar 11 13:37:37 2021  

Host: n0076.mhg0
0

     Scratch files written to /local/scratch/users/ymao/r7.00_frame_0087_almo_B3LYP_dp.in20210311133733//

Checking the input file for inconsistencies... 	...done.

--------------------------------------------------------------
User input:
--------------------------------------------------------------
$molecule
0 1
--
0 1
C    29.54900   28.42700   24.91200  
C    28.29800   29.02700   25.57400  
C    27.08600   28.08300   25.50100  
C    27.51200   26.65900   25.89100  
C    28.60600   26.11300   24.95800  
C    29.88100   26.94700   25.16600  
H    26.25700   28.46600   26.11000  
H    28.42100   29.06900   26.66300  
H    29.37900   28.52200   23.83300  
H    30.32200   29.17400   25.13100  
H    27.85800   26.57600   26.92800  
H    26.66500   26.03700   25.57600  
H    28.73900   25.04800   25.18300  
H    28.27000   26.05800   23.91500  
H    30.19900   26.95300   26.21600  
H    30.65100   26.43400   24.57800  
H    26.76300   28.00000   24.45600  
N    27.91300   30.30500   24.97800  
H    27.31100   30.33100   24.16400  
C    28.44600   31.53200   25.31100  
H    28.03400   32.43700   24.82900  
O    29.23700   31.62600   26.23200  
--
0 1
C    25.74800   32.47200   22.54200  
H    26.13200   33.45600   22.26600  
H    24.69800   32.55200   22.24900  
H    25.92300   32.30200   23.60800  
S    26.42300   31.13400   21.53300  
C    25.44700   29.66400   21.92100  
H    24.39000   29.87700   21.73900  
H    25.72300   28.80900   21.29900  
H    25.72000   29.50000   22.96600  
O    27.76400   30.89300   22.15500  
C    35.06500   27.41500   24.47600  
H    34.94000   27.54900   23.39800  
H    35.74200   28.23100   24.74100  
H    35.46200   26.41900   24.68600  
S    33.46400   27.66200   25.27800  
C    33.65800   29.45600   25.17300  
H    34.50300   29.87500   25.72500  
H    33.62500   29.68500   24.10500  
H    32.78000   29.95400   25.59100  
O    33.85300   27.29400   26.67600  
C    26.27500   23.63800   32.64900  
H    25.44400   24.32500   32.47100  
H    26.26100   22.84000   31.90100  
H    26.18400   23.28700   33.68000  
S    27.82400   24.56800   32.66100  
C    28.80800   23.09500   33.01700  
H    28.56400   22.47500   32.15000  
H    29.89700   23.17500   33.05700  
H    28.31700   22.81100   33.95100  
O    27.91000   25.27300   33.97900  
C    29.64900   36.10700   22.78300  
H    30.12200   35.17800   22.45400  
H    28.98500   36.50400   22.01200  
H    30.41800   36.81300   23.10800  
S    28.59300   35.69800   24.19100  
C    29.87000   34.60500   24.85300  
H    30.76700   35.21800   24.97300  
H    29.49800   34.31700   25.84000  
H    30.14600   33.81800   24.14600  
O    27.54700   34.88900   23.48900  
C    33.15600   31.18200   21.50500  
H    33.53200   31.37000   22.51400  
H    33.81700   30.64600   20.81900  
H    32.96600   32.18600   21.11700  
S    31.60600   30.25500   21.57300  
C    30.93300   31.43700   22.76300  
H    31.61400   32.26500   22.97200  
H    29.97600   31.79500   22.37400  
H    30.72800   30.95800   23.72400  
O    32.05000   29.00600   22.26700  
C    32.02900   32.74400   26.88500  
H    31.45100   33.56000   27.32700  
H    31.98700   32.89400   25.80300  
H    31.65700   31.75100   27.14800  
S    33.66800   33.02300   27.59400  
C    33.17600   33.66900   29.20800  
H    32.56000   32.85900   29.61000  
H    33.92800   33.69300   30.00100  
H    32.59400   34.59400   29.19400  
O    34.30200   34.16700   26.86800  
C    28.69600   23.05700   27.28600  
H    29.20500   23.93000   27.70400  
H    29.35400   22.33400   26.79700  
H    27.96800   23.30200   26.50900  
S    28.00700   22.07600   28.63800  
C    29.63400   21.72500   29.34100  
H    29.45100   20.98000   30.12000  
H    30.35700   21.17300   28.73500  
H    30.04800   22.63900   29.77500  
O    27.72000   20.79000   27.92700  
C    24.29700   24.66500   27.47700  
H    23.25700   24.37800   27.30000  
H    24.55500   25.61600   27.00500  
H    24.99300   23.86000   27.22900  
S    24.48400   25.03500   29.23500  
C    26.14500   25.74600   29.19500  
H    26.83700   24.94400   28.92600  
H    26.20500   26.62300   28.54600  
H    26.44000   26.10500   30.18400  
O    24.44100   23.66500   29.83600  
C    28.62600   22.42100   22.49900  
H    27.99500   22.62700   21.63000  
H    29.00900   23.40100   22.79500  
H    29.44700   21.85300   22.05300  
S    27.84100   21.44800   23.80400  
C    29.17100   20.23700   23.98000  
H    29.07000   19.87700   25.00700  
H    29.06900   19.51400   23.16800  
H    30.14200   20.73000   23.88200  
O    26.74700   20.74500   23.06300  
C    24.35000   27.30800   32.14600  
H    24.32800   27.94200   31.25500  
H    24.10600   26.26000   31.95300  
H    23.65300   27.69900   32.89100  
S    26.00100   27.60400   32.81900  
C    25.64300   27.00800   34.48700  
H    24.99200   27.79600   34.87500  
H    25.11000   26.06200   34.36600  
H    26.53300   26.98500   35.12200  
O    26.07100   29.07400   33.09400  
C    22.09900   20.47100   25.57900  
H    22.37300   19.58100   25.00700  
H    21.15600   20.16600   26.04000  
H    21.80200   21.41000   25.10400  
S    23.33400   20.89600   26.82700  
C    24.75000   20.98300   25.70800  
H    25.60700   21.05500   26.38200  
H    24.87000   20.10000   25.07500  
H    24.88000   21.85100   25.05600  
O    23.46800   19.61700   27.59300  
C    28.63100   36.70100   29.53000  
H    28.22100   37.07800   28.59000  
H    27.86500   36.46800   30.27400  
H    29.43300   37.41000   29.75300  
S    29.18900   35.09400   28.92000  
C    29.90100   34.56100   30.49300  
H    30.69500   35.31000   30.55800  
H    29.01300   34.57400   31.12900  
H    30.30300   33.55100   30.38000  
O    30.39000   35.51200   28.13000  
C    21.17900   24.05300   24.37800  
H    22.15600   24.05400   24.86800  
H    20.87900   23.07100   24.00200  
H    21.14300   24.74800   23.53500  
S    19.80200   24.50200   25.45700  
C    20.63400   26.01000   26.00500  
H    19.89700   26.61700   26.53800  
H    21.46500   25.69600   26.64000  
H    20.91000   26.62700   25.14600  
O    19.94700   23.58600   26.63200  
C    24.03900   25.43700   21.10100  
H    23.63800   26.37600   20.71100  
H    24.70000   24.97200   20.36500  
H    23.26800   24.73900   21.43800  
S    24.92300   25.88500   22.61200  
C    25.17000   24.14000   23.01200  
H    25.93200   23.69200   22.36900  
H    25.48500   23.98100   24.04600  
H    24.18700   23.67900   22.88100  
O    23.78600   26.08900   23.56300  
C    25.73500   31.17400   29.49300  
H    25.81300   32.15100   29.97700  
H    25.78200   31.22600   28.40200  
H    24.85900   30.66100   29.90000  
S    27.05500   30.08400   30.07300  
C    28.39900   30.89100   29.17300  
H    28.33200   31.97400   29.30400  
H    29.34600   30.42900   29.46400  
H    28.10600   30.59000   28.16400  
O    26.88900   28.76600   29.38400  
C    35.98600   26.03200   18.53700  
H    35.66100   25.02600   18.26000  
H    35.58900   26.76800   17.83400  
H    37.07900   26.01800   18.54100  
S    35.59100   26.44400   20.25100  
C    33.79700   26.39300   20.03700  
H    33.50500   25.97400   19.07000  
H    33.40000   25.84300   20.89400  
H    33.37900   27.39500   19.90900  
O    35.88300   27.91200   20.24900  
C    30.16400   25.38400   20.50600  
H    30.40000   25.39500   21.57400  
H    29.97600   24.35200   20.20000  
H    31.06000   25.65800   19.94500  
S    28.62300   26.22800   20.08200  
C    29.23400   27.85900   20.56300  
H    29.63500   27.87000   21.58000  
H    29.89000   28.40600   19.88100  
H    28.42400   28.58900   20.64200  
O    27.79100   25.65700   21.18700  
C    33.92600   23.23100   25.59200  
H    34.34700   23.39100   24.59600  
H    34.38900   24.02900   26.17900  
H    34.18800   22.21200   25.88500  
S    32.16100   23.48900   25.88200  
C    32.47100   23.07600   27.61300  
H    31.47900   22.99200   28.06400  
H    32.95600   22.09800   27.55100  
H    33.00500   23.92000   28.05800  
O    31.81900   22.15100   25.30400  
C    22.78200   30.37200   27.61900  
H    22.68400   30.55900   28.69100  
H    23.41500   31.11800   27.13000  
H    21.76000   30.32500   27.23500  
S    23.66900   28.80600   27.45700  
C    23.53800   28.59700   25.66600  
H    24.15600   27.82100   25.20900  
H    22.45700   28.54100   25.51400  
H    23.92300   29.54900   25.29200  
O    22.76200   27.79700   28.08900  
C    25.74800   34.38900   28.42300  
H    26.44500   33.91500   29.11900  
H    25.70800   35.46300   28.62000  
H    24.77800   33.88800   28.47700  
S    26.20800   33.99300   26.72000  
C    25.13400   35.23200   25.96100  
H    24.26200   35.48300   26.57000  
H    25.60200   36.15200   25.59900  
H    24.89900   34.60100   25.10000  
O    25.72300   32.63200   26.32700  
C    34.74000   36.33200   21.85900  
H    35.33100   35.41500   21.93400  
H    34.39100   36.56000   20.84900  
H    35.40000   37.15100   22.15600  
S    33.29900   36.18300   22.93900  
C    34.02500   35.99600   24.58400  
H    34.66300   36.87800   24.67800  
H    33.31800   36.04300   25.41600  
H    34.66100   35.10900   24.63500  
O    32.80500   34.80100   22.64500  
C    29.76000   31.49900   32.59300  
H    29.29400   31.42700   33.57900  
H    29.85900   32.51900   32.21100  
H    29.05200   30.85600   32.06400  
S    31.42500   30.79600   32.60600  
C    32.21200   32.06300   33.62600  
H    31.83800   33.03600   33.29800  
H    31.89200   31.90300   34.65900  
H    33.29600   32.00800   33.49300  
O    31.97300   31.11900   31.25100  
C    31.36000   26.45400   28.71600  
H    32.21600   26.14900   29.32200  
H    31.22800   25.87300   27.80000  
H    31.56100   27.42300   28.25100  
S    29.70700   26.46400   29.44700  
C    30.35000   26.94700   31.06500  
H    30.90700   27.88700   31.03000  
H    29.46800   26.96100   31.71000  
H    30.93900   26.12500   31.48000  
O    29.41800   25.03300   29.77700  
C    34.69100   29.25900   28.83900  
H    33.62800   29.34900   28.60500  
H    34.97300   30.23200   29.24900  
H    35.09000   29.04600   27.84400  
S    35.04300   27.91000   29.99000  
C    34.04900   28.58300   31.34100  
H    32.97700   28.57700   31.12500  
H    34.15500   28.13600   32.33200  
H    34.41200   29.61300   31.39800  
O    36.47000   27.98600   30.43500  
$end

$rem
JOBTYPE  SP
METHOD  B3LYP
BASIS  6-31+G(D)
SYMMETRY  FALSE
SYM_IGNORE  TRUE
MEM_TOTAL  16000
MEM_STATIC  8000
MAX_SUB_FILE_NUM  16000
BASIS_LIN_DEP_THRESH  6
THRESH  14
SCF_CONVERGENCE  8
GEN_SCFMAN  TRUE
SCF_GUESS  FRAGMO
FD_MAT_VEC_PROD  FALSE
XC_GRID  000075000302
NL_GRID  1
MAX_SCF_CYCLES  200
FRGM_METHOD  STOLL
SCFMI_MODE  1
$end

$development
almo_efield  1
$end

$rem_frgm
SCF_CONVERGENCE  4
$end

--------------------------------------------------------------
 ----------------------------------------------------------------
             Standard Nuclear Orientation (Angstroms)
    I     Atom           X                Y                Z
 ----------------------------------------------------------------
    1      C      29.5490000000    28.4270000000    24.9120000000
    2      C      28.2980000000    29.0270000000    25.5740000000
    3      C      27.0860000000    28.0830000000    25.5010000000
    4      C      27.5120000000    26.6590000000    25.8910000000
    5      C      28.6060000000    26.1130000000    24.9580000000
    6      C      29.8810000000    26.9470000000    25.1660000000
    7      H      26.2570000000    28.4660000000    26.1100000000
    8      H      28.4210000000    29.0690000000    26.6630000000
    9      H      29.3790000000    28.5220000000    23.8330000000
   10      H      30.3220000000    29.1740000000    25.1310000000
   11      H      27.8580000000    26.5760000000    26.9280000000
   12      H      26.6650000000    26.0370000000    25.5760000000
   13      H      28.7390000000    25.0480000000    25.1830000000
   14      H      28.2700000000    26.0580000000    23.9150000000
   15      H      30.1990000000    26.9530000000    26.2160000000
   16      H      30.6510000000    26.4340000000    24.5780000000
   17      H      26.7630000000    28.0000000000    24.4560000000
   18      N      27.9130000000    30.3050000000    24.9780000000
   19      H      27.3110000000    30.3310000000    24.1640000000
   20      C      28.4460000000    31.5320000000    25.3110000000
   21      H      28.0340000000    32.4370000000    24.8290000000
   22      O      29.2370000000    31.6260000000    26.2320000000
   23      C      25.7480000000    32.4720000000    22.5420000000
   24      H      26.1320000000    33.4560000000    22.2660000000
   25      H      24.6980000000    32.5520000000    22.2490000000
   26      H      25.9230000000    32.3020000000    23.6080000000
   27      S      26.4230000000    31.1340000000    21.5330000000
   28      C      25.4470000000    29.6640000000    21.9210000000
   29      H      24.3900000000    29.8770000000    21.7390000000
   30      H      25.7230000000    28.8090000000    21.2990000000
   31      H      25.7200000000    29.5000000000    22.9660000000
   32      O      27.7640000000    30.8930000000    22.1550000000
   33      C      35.0650000000    27.4150000000    24.4760000000
   34      H      34.9400000000    27.5490000000    23.3980000000
   35      H      35.7420000000    28.2310000000    24.7410000000
   36      H      35.4620000000    26.4190000000    24.6860000000
   37      S      33.4640000000    27.6620000000    25.2780000000
   38      C      33.6580000000    29.4560000000    25.1730000000
   39      H      34.5030000000    29.8750000000    25.7250000000
   40      H      33.6250000000    29.6850000000    24.1050000000
   41      H      32.7800000000    29.9540000000    25.5910000000
   42      O      33.8530000000    27.2940000000    26.6760000000
   43      C      26.2750000000    23.6380000000    32.6490000000
   44      H      25.4440000000    24.3250000000    32.4710000000
   45      H      26.2610000000    22.8400000000    31.9010000000
   46      H      26.1840000000    23.2870000000    33.6800000000
   47      S      27.8240000000    24.5680000000    32.6610000000
   48      C      28.8080000000    23.0950000000    33.0170000000
   49      H      28.5640000000    22.4750000000    32.1500000000
   50      H      29.8970000000    23.1750000000    33.0570000000
   51      H      28.3170000000    22.8110000000    33.9510000000
   52      O      27.9100000000    25.2730000000    33.9790000000
   53      C      29.6490000000    36.1070000000    22.7830000000
   54      H      30.1220000000    35.1780000000    22.4540000000
   55      H      28.9850000000    36.5040000000    22.0120000000
   56      H      30.4180000000    36.8130000000    23.1080000000
   57      S      28.5930000000    35.6980000000    24.1910000000
   58      C      29.8700000000    34.6050000000    24.8530000000
   59      H      30.7670000000    35.2180000000    24.9730000000
   60      H      29.4980000000    34.3170000000    25.8400000000
   61      H      30.1460000000    33.8180000000    24.1460000000
   62      O      27.5470000000    34.8890000000    23.4890000000
   63      C      33.1560000000    31.1820000000    21.5050000000
   64      H      33.5320000000    31.3700000000    22.5140000000
   65      H      33.8170000000    30.6460000000    20.8190000000
   66      H      32.9660000000    32.1860000000    21.1170000000
   67      S      31.6060000000    30.2550000000    21.5730000000
   68      C      30.9330000000    31.4370000000    22.7630000000
   69      H      31.6140000000    32.2650000000    22.9720000000
   70      H      29.9760000000    31.7950000000    22.3740000000
   71      H      30.7280000000    30.9580000000    23.7240000000
   72      O      32.0500000000    29.0060000000    22.2670000000
   73      C      32.0290000000    32.7440000000    26.8850000000
   74      H      31.4510000000    33.5600000000    27.3270000000
   75      H      31.9870000000    32.8940000000    25.8030000000
   76      H      31.6570000000    31.7510000000    27.1480000000
   77      S      33.6680000000    33.0230000000    27.5940000000
   78      C      33.1760000000    33.6690000000    29.2080000000
   79      H      32.5600000000    32.8590000000    29.6100000000
   80      H      33.9280000000    33.6930000000    30.0010000000
   81      H      32.5940000000    34.5940000000    29.1940000000
   82      O      34.3020000000    34.1670000000    26.8680000000
   83      C      28.6960000000    23.0570000000    27.2860000000
   84      H      29.2050000000    23.9300000000    27.7040000000
   85      H      29.3540000000    22.3340000000    26.7970000000
   86      H      27.9680000000    23.3020000000    26.5090000000
   87      S      28.0070000000    22.0760000000    28.6380000000
   88      C      29.6340000000    21.7250000000    29.3410000000
   89      H      29.4510000000    20.9800000000    30.1200000000
   90      H      30.3570000000    21.1730000000    28.7350000000
   91      H      30.0480000000    22.6390000000    29.7750000000
   92      O      27.7200000000    20.7900000000    27.9270000000
   93      C      24.2970000000    24.6650000000    27.4770000000
   94      H      23.2570000000    24.3780000000    27.3000000000
   95      H      24.5550000000    25.6160000000    27.0050000000
   96      H      24.9930000000    23.8600000000    27.2290000000
   97      S      24.4840000000    25.0350000000    29.2350000000
   98      C      26.1450000000    25.7460000000    29.1950000000
   99      H      26.8370000000    24.9440000000    28.9260000000
  100      H      26.2050000000    26.6230000000    28.5460000000
  101      H      26.4400000000    26.1050000000    30.1840000000
  102      O      24.4410000000    23.6650000000    29.8360000000
  103      C      28.6260000000    22.4210000000    22.4990000000
  104      H      27.9950000000    22.6270000000    21.6300000000
  105      H      29.0090000000    23.4010000000    22.7950000000
  106      H      29.4470000000    21.8530000000    22.0530000000
  107      S      27.8410000000    21.4480000000    23.8040000000
  108      C      29.1710000000    20.2370000000    23.9800000000
  109      H      29.0700000000    19.8770000000    25.0070000000
  110      H      29.0690000000    19.5140000000    23.1680000000
  111      H      30.1420000000    20.7300000000    23.8820000000
  112      O      26.7470000000    20.7450000000    23.0630000000
  113      C      24.3500000000    27.3080000000    32.1460000000
  114      H      24.3280000000    27.9420000000    31.2550000000
  115      H      24.1060000000    26.2600000000    31.9530000000
  116      H      23.6530000000    27.6990000000    32.8910000000
  117      S      26.0010000000    27.6040000000    32.8190000000
  118      C      25.6430000000    27.0080000000    34.4870000000
  119      H      24.9920000000    27.7960000000    34.8750000000
  120      H      25.1100000000    26.0620000000    34.3660000000
  121      H      26.5330000000    26.9850000000    35.1220000000
  122      O      26.0710000000    29.0740000000    33.0940000000
  123      C      22.0990000000    20.4710000000    25.5790000000
  124      H      22.3730000000    19.5810000000    25.0070000000
  125      H      21.1560000000    20.1660000000    26.0400000000
  126      H      21.8020000000    21.4100000000    25.1040000000
  127      S      23.3340000000    20.8960000000    26.8270000000
  128      C      24.7500000000    20.9830000000    25.7080000000
  129      H      25.6070000000    21.0550000000    26.3820000000
  130      H      24.8700000000    20.1000000000    25.0750000000
  131      H      24.8800000000    21.8510000000    25.0560000000
  132      O      23.4680000000    19.6170000000    27.5930000000
  133      C      28.6310000000    36.7010000000    29.5300000000
  134      H      28.2210000000    37.0780000000    28.5900000000
  135      H      27.8650000000    36.4680000000    30.2740000000
  136      H      29.4330000000    37.4100000000    29.7530000000
  137      S      29.1890000000    35.0940000000    28.9200000000
  138      C      29.9010000000    34.5610000000    30.4930000000
  139      H      30.6950000000    35.3100000000    30.5580000000
  140      H      29.0130000000    34.5740000000    31.1290000000
  141      H      30.3030000000    33.5510000000    30.3800000000
  142      O      30.3900000000    35.5120000000    28.1300000000
  143      C      21.1790000000    24.0530000000    24.3780000000
  144      H      22.1560000000    24.0540000000    24.8680000000
  145      H      20.8790000000    23.0710000000    24.0020000000
  146      H      21.1430000000    24.7480000000    23.5350000000
  147      S      19.8020000000    24.5020000000    25.4570000000
  148      C      20.6340000000    26.0100000000    26.0050000000
  149      H      19.8970000000    26.6170000000    26.5380000000
  150      H      21.4650000000    25.6960000000    26.6400000000
  151      H      20.9100000000    26.6270000000    25.1460000000
  152      O      19.9470000000    23.5860000000    26.6320000000
  153      C      24.0390000000    25.4370000000    21.1010000000
  154      H      23.6380000000    26.3760000000    20.7110000000
  155      H      24.7000000000    24.9720000000    20.3650000000
  156      H      23.2680000000    24.7390000000    21.4380000000
  157      S      24.9230000000    25.8850000000    22.6120000000
  158      C      25.1700000000    24.1400000000    23.0120000000
  159      H      25.9320000000    23.6920000000    22.3690000000
  160      H      25.4850000000    23.9810000000    24.0460000000
  161      H      24.1870000000    23.6790000000    22.8810000000
  162      O      23.7860000000    26.0890000000    23.5630000000
  163      C      25.7350000000    31.1740000000    29.4930000000
  164      H      25.8130000000    32.1510000000    29.9770000000
  165      H      25.7820000000    31.2260000000    28.4020000000
  166      H      24.8590000000    30.6610000000    29.9000000000
  167      S      27.0550000000    30.0840000000    30.0730000000
  168      C      28.3990000000    30.8910000000    29.1730000000
  169      H      28.3320000000    31.9740000000    29.3040000000
  170      H      29.3460000000    30.4290000000    29.4640000000
  171      H      28.1060000000    30.5900000000    28.1640000000
  172      O      26.8890000000    28.7660000000    29.3840000000
  173      C      35.9860000000    26.0320000000    18.5370000000
  174      H      35.6610000000    25.0260000000    18.2600000000
  175      H      35.5890000000    26.7680000000    17.8340000000
  176      H      37.0790000000    26.0180000000    18.5410000000
  177      S      35.5910000000    26.4440000000    20.2510000000
  178      C      33.7970000000    26.3930000000    20.0370000000
  179      H      33.5050000000    25.9740000000    19.0700000000
  180      H      33.4000000000    25.8430000000    20.8940000000
  181      H      33.3790000000    27.3950000000    19.9090000000
  182      O      35.8830000000    27.9120000000    20.2490000000
  183      C      30.1640000000    25.3840000000    20.5060000000
  184      H      30.4000000000    25.3950000000    21.5740000000
  185      H      29.9760000000    24.3520000000    20.2000000000
  186      H      31.0600000000    25.6580000000    19.9450000000
  187      S      28.6230000000    26.2280000000    20.0820000000
  188      C      29.2340000000    27.8590000000    20.5630000000
  189      H      29.6350000000    27.8700000000    21.5800000000
  190      H      29.8900000000    28.4060000000    19.8810000000
  191      H      28.4240000000    28.5890000000    20.6420000000
  192      O      27.7910000000    25.6570000000    21.1870000000
  193      C      33.9260000000    23.2310000000    25.5920000000
  194      H      34.3470000000    23.3910000000    24.5960000000
  195      H      34.3890000000    24.0290000000    26.1790000000
  196      H      34.1880000000    22.2120000000    25.8850000000
  197      S      32.1610000000    23.4890000000    25.8820000000
  198      C      32.4710000000    23.0760000000    27.6130000000
  199      H      31.4790000000    22.9920000000    28.0640000000
  200      H      32.9560000000    22.0980000000    27.5510000000
  201      H      33.0050000000    23.9200000000    28.0580000000
  202      O      31.8190000000    22.1510000000    25.3040000000
  203      C      22.7820000000    30.3720000000    27.6190000000
  204      H      22.6840000000    30.5590000000    28.6910000000
  205      H      23.4150000000    31.1180000000    27.1300000000
  206      H      21.7600000000    30.3250000000    27.2350000000
  207      S      23.6690000000    28.8060000000    27.4570000000
  208      C      23.5380000000    28.5970000000    25.6660000000
  209      H      24.1560000000    27.8210000000    25.2090000000
  210      H      22.4570000000    28.5410000000    25.5140000000
  211      H      23.9230000000    29.5490000000    25.2920000000
  212      O      22.7620000000    27.7970000000    28.0890000000
  213      C      25.7480000000    34.3890000000    28.4230000000
  214      H      26.4450000000    33.9150000000    29.1190000000
  215      H      25.7080000000    35.4630000000    28.6200000000
  216      H      24.7780000000    33.8880000000    28.4770000000
  217      S      26.2080000000    33.9930000000    26.7200000000
  218      C      25.1340000000    35.2320000000    25.9610000000
  219      H      24.2620000000    35.4830000000    26.5700000000
  220      H      25.6020000000    36.1520000000    25.5990000000
  221      H      24.8990000000    34.6010000000    25.1000000000
  222      O      25.7230000000    32.6320000000    26.3270000000
  223      C      34.7400000000    36.3320000000    21.8590000000
  224      H      35.3310000000    35.4150000000    21.9340000000
  225      H      34.3910000000    36.5600000000    20.8490000000
  226      H      35.4000000000    37.1510000000    22.1560000000
  227      S      33.2990000000    36.1830000000    22.9390000000
  228      C      34.0250000000    35.9960000000    24.5840000000
  229      H      34.6630000000    36.8780000000    24.6780000000
  230      H      33.3180000000    36.0430000000    25.4160000000
  231      H      34.6610000000    35.1090000000    24.6350000000
  232      O      32.8050000000    34.8010000000    22.6450000000
  233      C      29.7600000000    31.4990000000    32.5930000000
  234      H      29.2940000000    31.4270000000    33.5790000000
  235      H      29.8590000000    32.5190000000    32.2110000000
  236      H      29.0520000000    30.8560000000    32.0640000000
  237      S      31.4250000000    30.7960000000    32.6060000000
  238      C      32.2120000000    32.0630000000    33.6260000000
  239      H      31.8380000000    33.0360000000    33.2980000000
  240      H      31.8920000000    31.9030000000    34.6590000000
  241      H      33.2960000000    32.0080000000    33.4930000000
  242      O      31.9730000000    31.1190000000    31.2510000000
  243      C      31.3600000000    26.4540000000    28.7160000000
  244      H      32.2160000000    26.1490000000    29.3220000000
  245      H      31.2280000000    25.8730000000    27.8000000000
  246      H      31.5610000000    27.4230000000    28.2510000000
  247      S      29.7070000000    26.4640000000    29.4470000000
  248      C      30.3500000000    26.9470000000    31.0650000000
  249      H      30.9070000000    27.8870000000    31.0300000000
  250      H      29.4680000000    26.9610000000    31.7100000000
  251      H      30.9390000000    26.1250000000    31.4800000000
  252      O      29.4180000000    25.0330000000    29.7770000000
  253      C      34.6910000000    29.2590000000    28.8390000000
  254      H      33.6280000000    29.3490000000    28.6050000000
  255      H      34.9730000000    30.2320000000    29.2490000000
  256      H      35.0900000000    29.0460000000    27.8440000000
  257      S      35.0430000000    27.9100000000    29.9900000000
  258      C      34.0490000000    28.5830000000    31.3410000000
  259      H      32.9770000000    28.5770000000    31.1250000000
  260      H      34.1550000000    28.1360000000    32.3320000000
  261      H      34.4120000000    29.6130000000    31.3980000000
  262      O      36.4700000000    27.9860000000    30.4350000000
 ----------------------------------------------------------------
 Nuclear Repulsion Energy =       40436.57332446 hartrees
 There are      539 alpha and      539 beta electrons
 Requested basis set is 6-31+G(d)
 There are 863 shells and 2405 basis functions

 Total QAlloc Memory Limit  16000 MB
 Mega-Array Size      7821 MB
 MEM_STATIC part      8000 MB
 A cutoff of  1.0D-14 yielded 151984 shell pairs
 There are   1314925 function pairs
 Smallest overlap matrix eigenvalue = 4.87E-07
 Linear dependence detected in AO basis
 Tighter screening thresholds may be required for diffuse basis sets
 Use S2THRESH > 14 and THRESH = 14 in case of SCF convergence issues
 Number of orthogonalized atomic orbitals = 2403
 Maximum deviation from orthogonality = 1.692E-10

 Scale SEOQF with 1.000000e-03/1.000000e-03/1.000000e-03

 Standard Electronic Orientation quadrupole field applied
 Nucleus-field energy     =     0.0000001251 hartrees
Attempting to make child job directory: /local/scratch/users/ymao/r7.00_frame_0087_almo_B3LYP_dp.in20210311133733//Frg1/
Attempting to make child job directory: /local/scratch/users/ymao/r7.00_frame_0087_almo_B3LYP_dp.in20210311133733//Frg2/
Creating input file /local/scratch/users/ymao/r7.00_frame_0087_almo_B3LYP_dp.in20210311133733/Frg1.input
using default PutDataFrgm: nothing
calling putenv with: QCSCRATCH=/local/scratch/users/ymao/r7.00_frame_0087_almo_B3LYP_dp.in20210311133733/ 
Spawning Job For Fragment 0
Done Job For Fragment 0
calling putenv with: QCSCRATCH=/local/scratch/users/ymao 
calling putenv with: QCTHREADS=8 
Creating input file /local/scratch/users/ymao/r7.00_frame_0087_almo_B3LYP_dp.in20210311133733/Frg2.input
using default PutDataFrgm: nothing
calling putenv with: QCSCRATCH=/local/scratch/users/ymao/r7.00_frame_0087_almo_B3LYP_dp.in20210311133733/ 
Spawning Job For Fragment 1
Done Job For Fragment 1
calling putenv with: QCSCRATCH=/local/scratch/users/ymao 
calling putenv with: QCTHREADS=8 
 Time for running child jobs:  CPU 0.95 s  wall 19305.43 s

 -----------------------------------------------------------------------
  General SCF calculation program by
  Eric Jon Sundstrom, Paul Horn, Yuezhi Mao, Dmitri Zuev, Alec White,
  David Stuck, Shaama M.S., Shane Yost, Joonho Lee, David Small,
  Daniel Levine, Susi Lehtola, Hugh Burton, Evgeny Epifanovsky,
  Bang C. Huynh
 -----------------------------------------------------------------------
Performing Restricted Closed Shell SCFMI
Doing General SCFMI
 Exchange:     0.2000 Hartree-Fock + 0.0800 Slater + 0.7200 B88
 Correlation:  0.1900 VWN1RPA + 0.8100 LYP
 Using Euler-Maclaurin-Lebedev (75,302) quadrature formula
performing fock build before subrot guess so that all methods have access
Printing subrot_rss_gen Method Specification:
Occupied Subspace Method is 0
Virtual Subspace Method is 0
Energy prior to optimization (guess energy) = -13681.064816678700
Begin Timing: Total SCF Calculation
begin iterations for algorithm: DIIS         
the SCF tolerance is set to 1.00e-08
    1  -13681.0648166787      4.37e-05     00000 
    2  -13681.0666158143      6.01e-05     00000 
    3  -13681.0734584612      1.89e-05     00000 
    4  -13681.0741358617      7.04e-06     00000 
    5  -13681.0742559349      3.26e-06     00000 
    6  -13681.0742809990      2.03e-06     00000 
    7  -13681.0742889859      1.50e-06     00000 
    8  -13681.0742931063      7.93e-07     00000 
    9  -13681.0742941987      4.29e-07     00000 
   10  -13681.0742944787      2.89e-07     00000 
   11  -13681.0742946070      1.98e-07     00000 
   12  -13681.0742946817      1.06e-07     00000 
   13  -13681.0742947047      5.66e-08     00000 
   14  -13681.0742947115      3.25e-08     00000 
   15  -13681.0742947135      2.34e-08     00000 
   16  -13681.0742947145      1.41e-08     00000 
   17  -13681.0742947147      7.16e-09     00000 Convergence criterion met
write pseudocanon occs and virts to disk
write pseudocanon orbital energies to disk
Timing for Total SCF: 44747.00s (wall), 355288.29s (cpu)
SCFMI Energy  -13681.0742947147
<S^2>            0.00000
 Total energy in the final basis set =   -13681.0742947147
    ==================================================
        The end of Object-Oriented SCFman: SCFMI      
    ==================================================
 
 --------------------------------------------------------------
 
                    Orbital Energies (a.u.)
 --------------------------------------------------------------
 
 Alpha MOs
 -- Occupied --
-89.0341 -89.0271 -89.0248 -89.0220 -89.0155 -89.0128 -89.0092 -89.0077
-89.0051 -89.0042 -89.0036 -89.0029 -88.9996 -88.9950 -88.9923 -88.9895
-88.9832 -88.9798 -88.9777 -88.9767 -88.9765 -88.9741 -88.9557 -88.9485
-19.1585 -19.1465 -19.1384 -19.1370 -19.1323 -19.1295 -19.1277 -19.1226
-19.1218 -19.1214 -19.1206 -19.1162 -19.1157 -19.1102 -19.1074 -19.1073
-19.1047 -19.1021 -19.0961 -19.0955 -19.0922 -19.0877 -19.0838 -19.0769
-19.0603 -14.3616 -10.2888 -10.2564 -10.2559 -10.2548 -10.2453 -10.2431
-10.2429 -10.2404 -10.2332 -10.2298 -10.2288 -10.2286 -10.2283 -10.2264
-10.2244 -10.2206 -10.2200 -10.2190 -10.2185 -10.2174 -10.2158 -10.2156
-10.2149 -10.2146 -10.2140 -10.2139 -10.2138 -10.2126 -10.2125 -10.2092
-10.2082 -10.2066 -10.2055 -10.2049 -10.2038 -10.2009 -10.1970 -10.1965
-10.1956 -10.1938 -10.1932 -10.1908 -10.1900 -10.1893 -10.1890 -10.1887
-10.1881 -10.1881 -10.1854 -10.1840 -10.1834 -10.1816 -10.1772 -10.1677
-10.1598  -8.0808  -8.0730  -8.0708  -8.0672  -8.0624  -8.0593  -8.0558
 -8.0542  -8.0515  -8.0498  -8.0490  -8.0488  -8.0459  -8.0411  -8.0378
 -8.0354  -8.0283  -8.0255  -8.0227  -8.0227  -8.0227  -8.0207  -8.0015
 -7.9935  -6.0450  -6.0438  -6.0384  -6.0373  -6.0362  -6.0352  -6.0339
 -6.0315  -6.0304  -6.0301  -6.0281  -6.0269  -6.0255  -6.0248  -6.0234
 -6.0225  -6.0203  -6.0193  -6.0190  -6.0186  -6.0170  -6.0169  -6.0157
 -6.0142  -6.0142  -6.0133  -6.0132  -6.0131  -6.0128  -6.0120  -6.0119
 -6.0116  -6.0101  -6.0096  -6.0087  -6.0074  -6.0067  -6.0064  -6.0055
 -6.0043  -6.0037  -6.0024  -6.0009  -5.9999  -5.9987  -5.9982  -5.9949
 -5.9928  -5.9925  -5.9917  -5.9899  -5.9887  -5.9871  -5.9870  -5.9870
 -5.9860  -5.9857  -5.9857  -5.9856  -5.9848  -5.9837  -5.9829  -5.9804
 -5.9802  -5.9801  -5.9784  -5.9660  -5.9648  -5.9585  -5.9578  -5.9569
 -5.9509  -1.0604  -1.0602  -1.0495  -1.0471  -1.0456  -1.0442  -1.0378
 -1.0329  -1.0326  -1.0308  -1.0297  -1.0284  -1.0278  -1.0272  -1.0271
 -1.0150  -1.0132  -1.0069  -1.0049  -1.0049  -1.0018  -0.9967  -0.9964
 -0.9831  -0.9670  -0.9232  -0.8427  -0.8388  -0.8308  -0.8246  -0.8180
 -0.8123  -0.8110  -0.8097  -0.8090  -0.8055  -0.8043  -0.8032  -0.8028
 -0.7995  -0.7985  -0.7974  -0.7951  -0.7869  -0.7866  -0.7788  -0.7782
 -0.7779  -0.7740  -0.7696  -0.7648  -0.7618  -0.7538  -0.7531  -0.7506
 -0.7459  -0.7456  -0.7411  -0.7383  -0.7383  -0.7350  -0.7264  -0.7262
 -0.7256  -0.7234  -0.7204  -0.7199  -0.7197  -0.7179  -0.7108  -0.7057
 -0.7054  -0.7038  -0.7029  -0.7015  -0.6937  -0.6792  -0.6439  -0.6416
 -0.6367  -0.6364  -0.6349  -0.6290  -0.6274  -0.6242  -0.6205  -0.6185
 -0.6182  -0.6175  -0.6157  -0.6143  -0.6140  -0.6096  -0.6046  -0.6024
 -0.5994  -0.5945  -0.5921  -0.5912  -0.5866  -0.5850  -0.5843  -0.5725
 -0.5678  -0.5638  -0.5362  -0.5292  -0.5189  -0.5149  -0.5093  -0.5070
 -0.5036  -0.5022  -0.4967  -0.4941  -0.4936  -0.4919  -0.4916  -0.4910
 -0.4903  -0.4893  -0.4892  -0.4880  -0.4866  -0.4860  -0.4835  -0.4827
 -0.4816  -0.4814  -0.4805  -0.4797  -0.4792  -0.4787  -0.4773  -0.4765
 -0.4751  -0.4739  -0.4735  -0.4728  -0.4726  -0.4723  -0.4711  -0.4693
 -0.4691  -0.4687  -0.4675  -0.4653  -0.4648  -0.4636  -0.4634  -0.4627
 -0.4617  -0.4603  -0.4602  -0.4599  -0.4596  -0.4579  -0.4570  -0.4569
 -0.4559  -0.4558  -0.4555  -0.4549  -0.4535  -0.4524  -0.4517  -0.4506
 -0.4501  -0.4496  -0.4487  -0.4475  -0.4474  -0.4467  -0.4444  -0.4431
 -0.4423  -0.4417  -0.4409  -0.4402  -0.4395  -0.4387  -0.4381  -0.4380
 -0.4375  -0.4365  -0.4358  -0.4350  -0.4344  -0.4325  -0.4323  -0.4318
 -0.4317  -0.4307  -0.4296  -0.4292  -0.4285  -0.4281  -0.4273  -0.4258
 -0.4248  -0.4239  -0.4235  -0.4227  -0.4224  -0.4208  -0.4193  -0.4189
 -0.4188  -0.4178  -0.4169  -0.4160  -0.4153  -0.4136  -0.4127  -0.4124
 -0.4114  -0.4097  -0.4092  -0.4088  -0.4078  -0.4067  -0.4061  -0.4057
 -0.4046  -0.4028  -0.4017  -0.4011  -0.4002  -0.3989  -0.3971  -0.3961
 -0.3960  -0.3953  -0.3948  -0.3934  -0.3921  -0.3921  -0.3913  -0.3902
 -0.3898  -0.3897  -0.3892  -0.3890  -0.3874  -0.3870  -0.3853  -0.3848
 -0.3835  -0.3830  -0.3827  -0.3814  -0.3806  -0.3781  -0.3778  -0.3767
 -0.3765  -0.3760  -0.3758  -0.3746  -0.3723  -0.3717  -0.3703  -0.3679
 -0.3669  -0.3661  -0.3654  -0.3651  -0.3636  -0.3635  -0.3624  -0.3613
 -0.3584  -0.3566  -0.3542  -0.3517  -0.3456  -0.3450  -0.3432  -0.3428
 -0.3404  -0.3382  -0.3364  -0.3325  -0.3223  -0.3219  -0.3214  -0.3201
 -0.3108  -0.3041  -0.3006  -0.2988  -0.2974  -0.2960  -0.2870  -0.2844
 -0.2843  -0.2807  -0.2789  -0.2787  -0.2774  -0.2737  -0.2719  -0.2699
 -0.2692  -0.2681  -0.2667  -0.2650  -0.2637  -0.2633  -0.2632  -0.2585
 -0.2582  -0.2563  -0.2557  -0.2533  -0.2522  -0.2517  -0.2501  -0.2479
 -0.2471  -0.2466  -0.2451  -0.2442  -0.2429  -0.2427  -0.2400  -0.2385
 -0.2264  -0.2260  -0.2216  -0.2199  -0.2181  -0.2180  -0.2179  -0.2168
 -0.2149  -0.1924  -0.1846
 -- Virtual --
 -0.0463  -0.0365  -0.0316  -0.0286  -0.0266  -0.0249  -0.0227  -0.0213
 -0.0179  -0.0171  -0.0170  -0.0153  -0.0141  -0.0133  -0.0117  -0.0105
 -0.0087  -0.0077  -0.0072  -0.0061  -0.0053  -0.0043  -0.0036  -0.0023
 -0.0021  -0.0010  -0.0006   0.0002   0.0017   0.0023   0.0030   0.0042
  0.0057   0.0069   0.0084   0.0093   0.0102   0.0106   0.0115   0.0129
  0.0135   0.0140   0.0151   0.0161   0.0168   0.0174   0.0188   0.0193
  0.0200   0.0206   0.0210   0.0213   0.0223   0.0235   0.0247   0.0255
  0.0265   0.0268   0.0280   0.0287   0.0291   0.0296   0.0303   0.0307
  0.0319   0.0330   0.0337   0.0337   0.0350   0.0365   0.0366   0.0370
  0.0377   0.0383   0.0394   0.0397   0.0403   0.0407   0.0411   0.0419
  0.0428   0.0438   0.0445   0.0450   0.0456   0.0467   0.0478   0.0481
  0.0488   0.0493   0.0497   0.0516   0.0519   0.0524   0.0532   0.0538
  0.0545   0.0555   0.0561   0.0571   0.0577   0.0583   0.0594   0.0600
  0.0601   0.0606   0.0614   0.0628   0.0632   0.0639   0.0644   0.0655
  0.0661   0.0666   0.0670   0.0680   0.0692   0.0700   0.0703   0.0707
  0.0710   0.0715   0.0721   0.0723   0.0733   0.0750   0.0755   0.0756
  0.0760   0.0767   0.0777   0.0791   0.0797   0.0802   0.0811   0.0814
  0.0824   0.0827   0.0835   0.0847   0.0851   0.0863   0.0869   0.0873
  0.0889   0.0893   0.0894   0.0904   0.0909   0.0911   0.0921   0.0926
  0.0934   0.0939   0.0945   0.0952   0.0956   0.0967   0.0974   0.0980
  0.0989   0.0997   0.0998   0.1011   0.1017   0.1022   0.1027   0.1043
  0.1045   0.1051   0.1054   0.1059   0.1064   0.1076   0.1089   0.1091
  0.1100   0.1108   0.1113   0.1121   0.1127   0.1136   0.1144   0.1153
  0.1160   0.1170   0.1175   0.1178   0.1184   0.1195   0.1197   0.1204
  0.1218   0.1225   0.1231   0.1235   0.1246   0.1246   0.1258   0.1270
  0.1277   0.1283   0.1286   0.1287   0.1298   0.1301   0.1311   0.1314
  0.1319   0.1331   0.1340   0.1343   0.1354   0.1363   0.1365   0.1369
  0.1374   0.1388   0.1393   0.1397   0.1404   0.1406   0.1417   0.1421
  0.1433   0.1438   0.1441   0.1443   0.1454   0.1460   0.1471   0.1474
  0.1483   0.1490   0.1493   0.1503   0.1509   0.1516   0.1524   0.1528
  0.1541   0.1542   0.1546   0.1558   0.1561   0.1564   0.1570   0.1573
  0.1585   0.1589   0.1592   0.1603   0.1605   0.1614   0.1628   0.1632
  0.1635   0.1644   0.1649   0.1664   0.1668   0.1674   0.1677   0.1683
  0.1691   0.1694   0.1701   0.1705   0.1718   0.1725   0.1733   0.1738
  0.1750   0.1754   0.1761   0.1765   0.1777   0.1780   0.1787   0.1793
  0.1797   0.1805   0.1812   0.1831   0.1836   0.1840   0.1849   0.1856
  0.1866   0.1868   0.1873   0.1880   0.1884   0.1891   0.1896   0.1900
  0.1911   0.1915   0.1924   0.1927   0.1941   0.1949   0.1952   0.1956
  0.1974   0.1980   0.1985   0.1991   0.2002   0.2007   0.2017   0.2023
  0.2024   0.2040   0.2045   0.2048   0.2049   0.2056   0.2063   0.2068
  0.2070   0.2076   0.2080   0.2090   0.2105   0.2113   0.2118   0.2125
  0.2132   0.2136   0.2140   0.2152   0.2155   0.2166   0.2169   0.2178
  0.2191   0.2193   0.2200   0.2211   0.2213   0.2227   0.2228   0.2243
  0.2247   0.2257   0.2263   0.2264   0.2269   0.2275   0.2283   0.2298
  0.2301   0.2308   0.2317   0.2320   0.2327   0.2330   0.2339   0.2351
  0.2360   0.2371   0.2382   0.2388   0.2393   0.2396   0.2399   0.2411
  0.2430   0.2433   0.2439   0.2448   0.2454   0.2458   0.2479   0.2483
  0.2493   0.2497   0.2505   0.2512   0.2524   0.2531   0.2536   0.2543
  0.2551   0.2560   0.2565   0.2572   0.2581   0.2582   0.2593   0.2604
  0.2609   0.2614   0.2622   0.2629   0.2640   0.2647   0.2658   0.2670
  0.2676   0.2683   0.2689   0.2698   0.2704   0.2708   0.2724   0.2729
  0.2744   0.2748   0.2755   0.2769   0.2776   0.2778   0.2786   0.2792
  0.2794   0.2811   0.2815   0.2822   0.2835   0.2846   0.2856   0.2863
  0.2868   0.2878   0.2884   0.2890   0.2896   0.2901   0.2907   0.2922
  0.2932   0.2944   0.2954   0.2961   0.2969   0.2982   0.2989   0.3000
  0.3007   0.3019   0.3021   0.3030   0.3036   0.3036   0.3046   0.3069
  0.3071   0.3077   0.3088   0.3091   0.3112   0.3120   0.3127   0.3139
  0.3142   0.3154   0.3164   0.3171   0.3173   0.3190   0.3194   0.3203
  0.3207   0.3221   0.3235   0.3240   0.3253   0.3262   0.3268   0.3270
  0.3283   0.3297   0.3307   0.3320   0.3330   0.3335   0.3342   0.3352
  0.3361   0.3365   0.3369   0.3372   0.3388   0.3392   0.3421   0.3423
  0.3437   0.3446   0.3456   0.3459   0.3471   0.3483   0.3493   0.3508
  0.3509   0.3523   0.3529   0.3535   0.3540   0.3552   0.3555   0.3569
  0.3585   0.3589   0.3596   0.3602   0.3623   0.3628   0.3636   0.3649
  0.3660   0.3671   0.3682   0.3706   0.3712   0.3713   0.3719   0.3731
  0.3733   0.3736   0.3749   0.3765   0.3772   0.3776   0.3785   0.3801
  0.3806   0.3814   0.3829   0.3838   0.3853   0.3860   0.3864   0.3883
  0.3890   0.3900   0.3914   0.3918   0.3927   0.3933   0.3940   0.3942
  0.3952   0.3973   0.3984   0.3986   0.3998   0.4002   0.4007   0.4017
  0.4031   0.4044   0.4059   0.4073   0.4083   0.4093   0.4099   0.4113
  0.4122   0.4128   0.4136   0.4142   0.4157   0.4175   0.4181   0.4196
  0.4202   0.4210   0.4218   0.4226   0.4247   0.4257   0.4271   0.4277
  0.4280   0.4283   0.4291   0.4307   0.4327   0.4329   0.4336   0.4351
  0.4357   0.4369   0.4386   0.4397   0.4406   0.4410   0.4435   0.4442
  0.4446   0.4453   0.4468   0.4483   0.4496   0.4504   0.4506   0.4515
  0.4534   0.4549   0.4564   0.4578   0.4588   0.4607   0.4610   0.4643
  0.4649   0.4658   0.4671   0.4688   0.4711   0.4730   0.4736   0.4752
  0.4766   0.4785   0.4794   0.4815   0.4825   0.4854   0.4859   0.4871
  0.4880   0.4889   0.4915   0.4941   0.4949   0.4966   0.4974   0.4999
  0.5006   0.5022   0.5041   0.5060   0.5071   0.5090   0.5110   0.5150
  0.5166   0.5176   0.5196   0.5214   0.5220   0.5260   0.5268   0.5285
  0.5292   0.5305   0.5336   0.5361   0.5393   0.5403   0.5410   0.5444
  0.5454   0.5470   0.5493   0.5499   0.5527   0.5535   0.5560   0.5568
  0.5590   0.5606   0.5627   0.5649   0.5664   0.5689   0.5711   0.5719
  0.5748   0.5753   0.5768   0.5802   0.5809   0.5819   0.5836   0.5842
  0.5874   0.5888   0.5906   0.5913   0.5925   0.5947   0.5962   0.5983
  0.5996   0.6004   0.6033   0.6037   0.6048   0.6065   0.6076   0.6091
  0.6116   0.6142   0.6154   0.6168   0.6186   0.6205   0.6208   0.6234
  0.6245   0.6262   0.6273   0.6277   0.6300   0.6307   0.6314   0.6341
  0.6350   0.6354   0.6361   0.6369   0.6390   0.6397   0.6414   0.6443
  0.6457   0.6474   0.6488   0.6496   0.6510   0.6517   0.6533   0.6536
  0.6542   0.6557   0.6576   0.6583   0.6592   0.6609   0.6617   0.6632
  0.6651   0.6654   0.6673   0.6692   0.6703   0.6721   0.6725   0.6755
  0.6760   0.6766   0.6779   0.6791   0.6801   0.6820   0.6826   0.6839
  0.6844   0.6872   0.6876   0.6879   0.6894   0.6896   0.6924   0.6926
  0.6939   0.6948   0.6967   0.6978   0.6991   0.6998   0.7020   0.7024
  0.7054   0.7057   0.7075   0.7088   0.7109   0.7119   0.7125   0.7138
  0.7151   0.7157   0.7187   0.7211   0.7216   0.7234   0.7245   0.7258
  0.7272   0.7283   0.7314   0.7340   0.7356   0.7375   0.7376   0.7388
  0.7435   0.7461   0.7468   0.7476   0.7487   0.7510   0.7521   0.7530
  0.7552   0.7565   0.7570   0.7580   0.7597   0.7611   0.7624   0.7635
  0.7638   0.7657   0.7680   0.7686   0.7707   0.7718   0.7733   0.7747
  0.7753   0.7782   0.7791   0.7799   0.7808   0.7814   0.7859   0.7869
  0.7881   0.7889   0.7908   0.7914   0.7926   0.7952   0.7970   0.7983
  0.7997   0.8012   0.8021   0.8037   0.8070   0.8079   0.8093   0.8101
  0.8117   0.8126   0.8153   0.8168   0.8190   0.8203   0.8211   0.8218
  0.8239   0.8261   0.8281   0.8293   0.8323   0.8336   0.8357   0.8360
  0.8369   0.8375   0.8388   0.8398   0.8424   0.8430   0.8451   0.8476
  0.8482   0.8491   0.8513   0.8515   0.8542   0.8575   0.8588   0.8591
  0.8599   0.8617   0.8638   0.8640   0.8653   0.8662   0.8672   0.8685
  0.8697   0.8715   0.8741   0.8751   0.8769   0.8780   0.8792   0.8812
  0.8820   0.8831   0.8843   0.8852   0.8862   0.8889   0.8903   0.8909
  0.8924   0.8936   0.8954   0.8971   0.9002   0.9013   0.9034   0.9045
  0.9075   0.9079   0.9085   0.9097   0.9106   0.9112   0.9118   0.9129
  0.9136   0.9146   0.9159   0.9179   0.9187   0.9201   0.9209   0.9223
  0.9239   0.9245   0.9261   0.9279   0.9282   0.9299   0.9319   0.9334
  0.9346   0.9366   0.9371   0.9394   0.9407   0.9418   0.9422   0.9434
  0.9460   0.9474   0.9492   0.9496   0.9500   0.9523   0.9527   0.9543
  0.9555   0.9561   0.9581   0.9598   0.9606   0.9616   0.9626   0.9646
  0.9651   0.9657   0.9677   0.9690   0.9699   0.9712   0.9724   0.9745
  0.9753   0.9763   0.9777   0.9794   0.9797   0.9807   0.9817   0.9827
  0.9833   0.9857   0.9866   0.9893   0.9903   0.9918   0.9933   0.9940
  0.9956   0.9966   0.9972   0.9983   1.0008   1.0017   1.0027   1.0040
  1.0045   1.0065   1.0071   1.0077   1.0093   1.0125   1.0132   1.0146
  1.0149   1.0158   1.0180   1.0191   1.0199   1.0212   1.0229   1.0234
  1.0267   1.0281   1.0282   1.0299   1.0306   1.0327   1.0335   1.0348
  1.0357   1.0375   1.0396   1.0396   1.0403   1.0407   1.0424   1.0434
  1.0444   1.0460   1.0475   1.0496   1.0502   1.0512   1.0523   1.0527
  1.0548   1.0574   1.0580   1.0591   1.0602   1.0623   1.0627   1.0660
  1.0668   1.0682   1.0689   1.0702   1.0707   1.0716   1.0728   1.0751
  1.0757   1.0777   1.0780   1.0796   1.0797   1.0826   1.0830   1.0851
  1.0854   1.0860   1.0889   1.0908   1.0918   1.0936   1.0950   1.0961
  1.0983   1.0998   1.1020   1.1034   1.1047   1.1050   1.1071   1.1087
  1.1089   1.1104   1.1123   1.1130   1.1134   1.1171   1.1186   1.1235
  1.1237   1.1240   1.1249   1.1261   1.1276   1.1285   1.1294   1.1315
  1.1335   1.1340   1.1355   1.1374   1.1390   1.1400   1.1412   1.1430
  1.1443   1.1465   1.1480   1.1494   1.1517   1.1540   1.1543   1.1549
  1.1567   1.1590   1.1597   1.1610   1.1638   1.1649   1.1659   1.1671
  1.1693   1.1699   1.1714   1.1741   1.1746   1.1768   1.1783   1.1798
  1.1810   1.1821   1.1830   1.1843   1.1858   1.1889   1.1894   1.1916
  1.1936   1.1938   1.1961   1.1965   1.1987   1.1996   1.2025   1.2036
  1.2042   1.2082   1.2095   1.2103   1.2122   1.2142   1.2146   1.2179
  1.2197   1.2202   1.2239   1.2251   1.2297   1.2326   1.2334   1.2363
  1.2397   1.2403   1.2428   1.2441   1.2488   1.2502   1.2511   1.2527
  1.2537   1.2580   1.2613   1.2626   1.2662   1.2704   1.2725   1.2729
  1.2762   1.2779   1.2802   1.2840   1.2852   1.2872   1.2887   1.2946
  1.2974   1.2986   1.3001   1.3032   1.3041   1.3067   1.3092   1.3122
  1.3129   1.3156   1.3168   1.3205   1.3214   1.3227   1.3262   1.3288
  1.3301   1.3324   1.3336   1.3352   1.3388   1.3396   1.3409   1.3432
  1.3454   1.3477   1.3498   1.3520   1.3532   1.3570   1.3578   1.3605
  1.3612   1.3642   1.3657   1.3670   1.3686   1.3693   1.3713   1.3742
  1.3771   1.3789   1.3799   1.3826   1.3847   1.3862   1.3887   1.3918
  1.3923   1.3947   1.3957   1.3968   1.3977   1.4013   1.4016   1.4034
  1.4039   1.4060   1.4066   1.4090   1.4107   1.4118   1.4125   1.4159
  1.4170   1.4175   1.4189   1.4213   1.4232   1.4255   1.4267   1.4279
  1.4296   1.4318   1.4325   1.4346   1.4374   1.4383   1.4393   1.4404
  1.4419   1.4434   1.4457   1.4468   1.4484   1.4515   1.4534   1.4541
  1.4579   1.4598   1.4610   1.4630   1.4641   1.4654   1.4684   1.4684
  1.4707   1.4721   1.4742   1.4753   1.4773   1.4796   1.4815   1.4840
  1.4867   1.4869   1.4915   1.4939   1.4955   1.4973   1.4989   1.5006
  1.5045   1.5074   1.5104   1.5120   1.5127   1.5154   1.5164   1.5182
  1.5207   1.5247   1.5255   1.5271   1.5309   1.5328   1.5353   1.5377
  1.5397   1.5458   1.5486   1.5503   1.5518   1.5545   1.5609   1.5640
  1.5660   1.5704   1.5730   1.5770   1.5796   1.5829   1.5858   1.5933
  1.5944   1.5993   1.6062   1.6082   1.6097   1.6156   1.6190   1.6262
  1.6323   1.6339   1.6362   1.6409   1.6429   1.6519   1.6553   1.6593
  1.6606   1.6636   1.6643   1.6673   1.6688   1.6700   1.6716   1.6727
  1.6739   1.6775   1.6802   1.6808   1.6826   1.6831   1.6841   1.6876
  1.6889   1.6895   1.6907   1.6926   1.6928   1.6944   1.6955   1.6974
  1.6987   1.7010   1.7016   1.7042   1.7057   1.7058   1.7099   1.7112
  1.7129   1.7142   1.7149   1.7168   1.7187   1.7217   1.7244   1.7250
  1.7267   1.7283   1.7291   1.7299   1.7320   1.7325   1.7345   1.7379
  1.7391   1.7416   1.7439   1.7442   1.7457   1.7472   1.7483   1.7497
  1.7508   1.7514   1.7532   1.7559   1.7579   1.7601   1.7622   1.7629
  1.7645   1.7670   1.7701   1.7717   1.7734   1.7747   1.7759   1.7765
  1.7772   1.7792   1.7818   1.7848   1.7855   1.7878   1.7903   1.7912
  1.7927   1.7931   1.7946   1.7963   1.8006   1.8016   1.8051   1.8056
  1.8073   1.8088   1.8101   1.8120   1.8149   1.8163   1.8199   1.8242
  1.8246   1.8269   1.8293   1.8318   1.8373   1.8417   1.8459   1.8502
  1.8518   1.8555   1.8560   1.8587   1.8596   1.8608   1.8653   1.8689
  1.8721   1.8731   1.8756   1.8775   1.8795   1.8806   1.8822   1.8833
  1.8840   1.8849   1.8854   1.8871   1.8889   1.8916   1.8935   1.8939
  1.8955   1.8963   1.8986   1.9012   1.9019   1.9026   1.9035   1.9042
  1.9082   1.9095   1.9113   1.9131   1.9140   1.9164   1.9184   1.9191
  1.9208   1.9230   1.9241   1.9243   1.9258   1.9279   1.9293   1.9320
  1.9329   1.9334   1.9348   1.9393   1.9407   1.9427   1.9447   1.9484
  1.9494   1.9508   1.9532   1.9549   1.9556   1.9576   1.9590   1.9594
  1.9651   1.9661   1.9721   1.9746   1.9768   1.9784   1.9866   1.9929
  2.0003   2.0084   2.0105   2.0197   2.0288   2.0334   2.0362   2.0411
  2.0440   2.0453   2.0474   2.0495   2.0508   2.0547   2.0557   2.0631
  2.0661   2.0686   2.0712   2.0744   2.0751   2.0772   2.0781   2.0788
  2.0801   2.0811   2.0822   2.0829   2.0853   2.0856   2.0876   2.0886
  2.0911   2.0934   2.0944   2.0947   2.0962   2.0992   2.1003   2.1038
  2.1056   2.1076   2.1113   2.1125   2.1139   2.1148   2.1157   2.1173
  2.1195   2.1214   2.1230   2.1249   2.1287   2.1318   2.1360   2.1385
  2.1438   2.1462   2.1491   2.1508   2.1517   2.1520   2.1542   2.1568
  2.1597   2.1627   2.1686   2.1699   2.1743   2.1808   2.1864   2.1877
  2.1922   2.1942   2.1983   2.1990   2.2006   2.2080   2.2098   2.2108
  2.2123   2.2141   2.2153   2.2183   2.2191   2.2216   2.2224   2.2236
  2.2249   2.2250   2.2266   2.2291   2.2298   2.2324   2.2347   2.2368
  2.2377   2.2395   2.2418   2.2430   2.2441   2.2448   2.2476   2.2486
  2.2488   2.2503   2.2507   2.2517   2.2537   2.2546   2.2557   2.2565
  2.2571   2.2582   2.2603   2.2613   2.2630   2.2639   2.2648   2.2648
  2.2652   2.2663   2.2679   2.2690   2.2695   2.2709   2.2717   2.2727
  2.2747   2.2755   2.2768   2.2770   2.2786   2.2801   2.2803   2.2830
  2.2836   2.2842   2.2844   2.2860   2.2865   2.2880   2.2884   2.2893
  2.2902   2.2916   2.2934   2.2948   2.2960   2.2966   2.2991   2.2993
  2.3004   2.3023   2.3031   2.3039   2.3045   2.3069   2.3083   2.3117
  2.3129   2.3137   2.3170   2.3182   2.3195   2.3205   2.3221   2.3266
  2.3278   2.3286   2.3290   2.3304   2.3306   2.3322   2.3336   2.3344
  2.3356   2.3379   2.3383   2.3406   2.3416   2.3433   2.3459   2.3468
  2.3481   2.3487   2.3513   2.3531   2.3559   2.3565   2.3580   2.3587
  2.3611   2.3626   2.3653   2.3689   2.3695   2.3745   2.3753   2.3768
  2.3837   2.3855   2.3875   2.3893   2.3903   2.3932   2.3977   2.4062
  2.4099   2.4141   2.4234   2.4282   2.4298   2.4464   2.4589   2.4792
  2.4855   2.5258   2.5714   2.5949   2.6670   2.7207   2.7575   2.7732
  2.8210   2.8254   2.8258   2.8287   2.8299   2.8318   2.8339   2.8374
  2.8481   2.8551   2.8589   2.8599   2.8636   2.8640   2.8651   2.8687
  2.8702   2.8726   2.8746   2.8786   2.8855   2.8859   2.8871   2.8913
  2.8951   2.8964   2.9071   2.9123   2.9467   3.1028   3.2416   3.9328
  3.9421   3.9575   3.9626   3.9688   3.9703   3.9773   3.9810   3.9891
  3.9913   3.9950   3.9974   3.9994   4.0042   4.0045   4.0048   4.0068
  4.0110   4.0121   4.0157   4.0199   4.0368   4.0447   4.0566   4.1823
  4.2005   4.2225   4.2270   4.2295   4.2341   4.2373   4.2463   4.2480
  4.2522   4.2591   4.2596   4.2670   4.2690   4.2721   4.2746   4.2777
  4.2788   4.2800   4.2836   4.2844   4.2860   4.2932   4.2955   4.2996
  4.3015   4.3022   4.3065   4.3091   4.3129   4.3151   4.3192   4.3209
  4.3237   4.3255   4.3268   4.3316   4.3336   4.3369   4.3422   4.3448
  4.3469   4.3479   4.3532   4.3587   4.3658   4.3691   4.3704   4.3720
  4.3728   4.3798   4.3877   4.3901   4.3916   4.4008   4.4060   4.4114
  4.4122   4.4176   4.4253   4.4335   4.4420   4.4451   4.4603   4.4627
  4.4692   4.4910   4.4978   4.5061   4.5208   4.5252   4.5428   4.5503
  4.5719   4.6133   4.6528   4.6777   4.7235   4.7479   4.8106   4.9709
 --------------------------------------------------------------
 
          Ground-State Mulliken Net Atomic Charges

     Atom                 Charge (a.u.)
  ----------------------------------------
      1 C                    -0.052633
      2 C                    -0.173859
      3 C                    -0.491147
      4 C                    -0.526611
      5 C                    -0.366038
      6 C                    -0.739013
      7 H                     0.215389
      8 H                     0.221932
      9 H                     0.213502
     10 H                     0.196184
     11 H                     0.219839
     12 H                     0.200769
     13 H                     0.197653
     14 H                     0.249061
     15 H                     0.177004
     16 H                     0.209440
     17 H                     0.189716
     18 N                    -0.377596
     19 H                     0.426984
     20 C                     0.386448
     21 H                     0.182006
     22 O                    -0.559030
     23 C                    -0.846395
     24 H                     0.319051
     25 H                     0.219804
     26 H                     0.281033
     27 S                     0.742084
     28 C                    -0.675653
     29 H                     0.241688
     30 H                     0.263357
     31 H                     0.235584
     32 O                    -0.783407
     33 C                    -0.878781
     34 H                     0.260478
     35 H                     0.251276
     36 H                     0.248894
     37 S                     0.979799
     38 C                    -0.987264
     39 H                     0.263610
     40 H                     0.264843
     41 H                     0.254333
     42 O                    -0.664386
     43 C                    -0.822610
     44 H                     0.270771
     45 H                     0.291230
     46 H                     0.247260
     47 S                     1.048309
     48 C                    -1.012672
     49 H                     0.232181
     50 H                     0.244882
     51 H                     0.239690
     52 O                    -0.660552
     53 C                    -0.847855
     54 H                     0.290667
     55 H                     0.243364
     56 H                     0.235804
     57 S                     0.791473
     58 C                    -0.910587
     59 H                     0.275722
     60 H                     0.286133
     61 H                     0.282300
     62 O                    -0.654575
     63 C                    -0.866279
     64 H                     0.258818
     65 H                     0.258315
     66 H                     0.274359
     67 S                     0.821762
     68 C                    -0.901038
     69 H                     0.284700
     70 H                     0.297707
     71 H                     0.294900
     72 O                    -0.652945
     73 C                    -0.883526
     74 H                     0.293833
     75 H                     0.271863
     76 H                     0.263704
     77 S                     0.775143
     78 C                    -0.835691
     79 H                     0.280695
     80 H                     0.251460
     81 H                     0.273147
     82 O                    -0.651251
     83 C                    -1.232858
     84 H                     0.274202
     85 H                     0.286705
     86 H                     0.267045
     87 S                     1.236301
     88 C                    -1.078431
     89 H                     0.254693
     90 H                     0.261838
     91 H                     0.279170
     92 O                    -0.674660
     93 C                    -0.754604
     94 H                     0.268448
     95 H                     0.223867
     96 H                     0.257765
     97 S                     0.279831
     98 C                    -0.541773
     99 H                     0.271023
    100 H                     0.277482
    101 H                     0.280146
    102 O                    -0.521735
    103 C                    -1.133572
    104 H                     0.270863
    105 H                     0.257189
    106 H                     0.241192
    107 S                     1.540052
    108 C                    -1.142329
    109 H                     0.272063
    110 H                     0.262002
    111 H                     0.285726
    112 O                    -0.754525
    113 C                    -0.806533
    114 H                     0.275407
    115 H                     0.259216
    116 H                     0.245693
    117 S                     0.854265
    118 C                    -0.818783
    119 H                     0.245497
    120 H                     0.238314
    121 H                     0.284864
    122 O                    -0.715804
    123 C                    -0.896912
    124 H                     0.242987
    125 H                     0.263578
    126 H                     0.211825
    127 S                     1.012285
    128 C                    -0.890187
    129 H                     0.293261
    130 H                     0.269834
    131 H                     0.225019
    132 O                    -0.703122
    133 C                    -0.777212
    134 H                     0.253981
    135 H                     0.224635
    136 H                     0.276363
    137 S                     0.816349
    138 C                    -0.863558
    139 H                     0.264975
    140 H                     0.215260
    141 H                     0.289245
    142 O                    -0.729783
    143 C                    -0.843285
    144 H                     0.279133
    145 H                     0.233720
    146 H                     0.239678
    147 S                     0.730514
    148 C                    -0.711703
    149 H                     0.234985
    150 H                     0.287400
    151 H                     0.224639
    152 O                    -0.690980
    153 C                    -0.799732
    154 H                     0.231333
    155 H                     0.253569
    156 H                     0.244008
    157 S                     0.694597
    158 C                    -0.668220
    159 H                     0.249635
    160 H                     0.256491
    161 H                     0.236140
    162 O                    -0.689357
    163 C                    -0.732847
    164 H                     0.212533
    165 H                     0.299180
    166 H                     0.256015
    167 S                     0.401482
    168 C                    -0.779883
    169 H                     0.206117
    170 H                     0.265769
    171 H                     0.292501
    172 O                    -0.563177
    173 C                    -0.912716
    174 H                     0.232041
    175 H                     0.260926
    176 H                     0.245510
    177 S                     1.045740
    178 C                    -0.911213
    179 H                     0.236712
    180 H                     0.238409
    181 H                     0.293361
    182 O                    -0.754457
    183 C                    -0.857942
    184 H                     0.281608
    185 H                     0.250218
    186 H                     0.228781
    187 S                     0.742959
    188 C                    -0.800818
    189 H                     0.290056
    190 H                     0.255465
    191 H                     0.256322
    192 O                    -0.705569
    193 C                    -0.944030
    194 H                     0.239608
    195 H                     0.227077
    196 H                     0.256127
    197 S                     1.142244
    198 C                    -0.881589
    199 H                     0.267495
    200 H                     0.249181
    201 H                     0.253325
    202 O                    -0.753157
    203 C                    -0.894683
    204 H                     0.252260
    205 H                     0.263135
    206 H                     0.249173
    207 S                     0.785118
    208 C                    -0.803394
    209 H                     0.310222
    210 H                     0.244060
    211 H                     0.222492
    212 O                    -0.605431
    213 C                    -0.967951
    214 H                     0.237485
    215 H                     0.253296
    216 H                     0.272558
    217 S                     0.871310
    218 C                    -0.835716
    219 H                     0.234881
    220 H                     0.267750
    221 H                     0.266582
    222 O                    -0.642432
    223 C                    -0.775223
    224 H                     0.263000
    225 H                     0.250211
    226 H                     0.237916
    227 S                     0.668217
    228 C                    -0.737516
    229 H                     0.216980
    230 H                     0.281981
    231 H                     0.296371
    232 O                    -0.682925
    233 C                    -0.660223
    234 H                     0.261398
    235 H                     0.213698
    236 H                     0.287420
    237 S                     0.679002
    238 C                    -0.794771
    239 H                     0.240414
    240 H                     0.246646
    241 H                     0.266377
    242 O                    -0.696457
    243 C                    -0.988785
    244 H                     0.266325
    245 H                     0.252169
    246 H                     0.275191
    247 S                     1.014715
    248 C                    -1.051764
    249 H                     0.222241
    250 H                     0.298553
    251 H                     0.281859
    252 O                    -0.687234
    253 C                    -0.785974
    254 H                     0.262410
    255 H                     0.250168
    256 H                     0.271380
    257 S                     0.724293
    258 C                    -0.759840
    259 H                     0.231140
    260 H                     0.253045
    261 H                     0.243923
    262 O                    -0.683614
  ----------------------------------------
  Sum of atomic charges =     0.000000

 -----------------------------------------------------------------
                    Cartesian Multipole Moments
 -----------------------------------------------------------------
    Charge (ESU x 10^10)
                -0.0000
    Dipole Moment (Debye)
         X       6.2636      Y      31.3350      Z     -11.6064
       Tot      33.9974
    Quadrupole Moments (Debye-Ang)
        XX    -599.8842     XY     938.1911     YY     894.1730
        XZ    -160.8987     YZ     583.3304     ZZ   -1371.5174
    Octopole Moments (Debye-Ang^2)
       XXX  -67369.4511    XXY    1654.4017    XYY   23763.3731
       YYY    3478.7052    XXZ  -25841.6759    XYZ   17793.8925
       YYZ   18973.9746    XZZ  -34404.6748    YZZ  -12162.7550
       ZZZ  -84943.6795
    Hexadecapole Moments (Debye-Ang^3)
      XXXX ************   XXXY ************   XXYY -129134.2940
      XYYY  -31286.9318   YYYY ************   XXXZ ************
      XXYZ -177268.1243   XYYZ  491653.5112   YYYZ   23778.4173
      XXZZ ************   XYZZ -318311.2346   YYZZ -235389.9906
      XZZZ ************   YZZZ ************   ZZZZ ************
 -----------------------------------------------------------------
Archival summary:
[...]
    3   0.0193353   0.0106943  -0.0108244  -0.0527984  -0.0062222   0.0102235
           85          86          87          88          89          90
    1   0.0233467  -0.0270883  -0.0332794   0.0068700  -0.0080210   0.0122918
    2  -0.0173556   0.0107969   0.0257844  -0.0005396  -0.0178172  -0.0103310
    3  -0.0166791  -0.0179651   0.0330237   0.0042074   0.0288222  -0.0336851
           91          92          93          94          95          96
    1   0.0129467  -0.0234337   0.0002920  -0.0264956   0.0022320   0.0174128
    2   0.0267352  -0.0954998  -0.0006820  -0.0102479   0.0229380  -0.0246195
    3   0.0147479  -0.0504244  -0.0061993  -0.0038783  -0.0301870  -0.0081194
           97          98          99         100         101         102
    1  -0.0437388   0.0104814   0.0268125   0.0036881   0.0074005  -0.0089151
    2   0.0446556   0.0007653  -0.0184410   0.0275059   0.0097267  -0.1007887
    3   0.0160822  -0.0012587  -0.0086127  -0.0199728   0.0267145   0.0429141
          103         104         105         106         107         108
    1   0.0034144  -0.0322890   0.0095982   0.0261735  -0.0079807   0.0075827
    2   0.0050877   0.0023029   0.0287064  -0.0161248   0.0299316  -0.0043392
    3  -0.0082833  -0.0150044   0.0155334  -0.0093015   0.0487665   0.0013802
          109         110         111         112         113         114
    1   0.0004050  -0.0099183   0.0306738  -0.0816143  -0.0076273  -0.0098320
    2  -0.0226023  -0.0270159   0.0156284  -0.0510422   0.0015560   0.0091878
    3   0.0257068  -0.0178262   0.0060690  -0.0534124  -0.0025525  -0.0298676
          115         116         117         118         119         120
    1  -0.0075841  -0.0256048   0.0410963  -0.0013865  -0.0217058  -0.0108855
    2  -0.0284470   0.0140188  -0.0335268  -0.0006397   0.0214708  -0.0316624
    3  -0.0126376   0.0171621  -0.0254517   0.0083955   0.0131380   0.0123882
          121         122         123         124         125         126
    1   0.0273653   0.0069045  -0.0056729   0.0167992  -0.0229194  -0.0038187
    2  -0.0129428   0.1062109  -0.0016249  -0.0183365  -0.0072086   0.0213702
    3   0.0084826   0.0212962  -0.0023207  -0.0243872   0.0281555  -0.0278522
          127         128         129         130         131         132
    1  -0.0128490   0.0105596   0.0299400   0.0042668  -0.0083992   0.0087300
    2   0.0515834  -0.0038010  -0.0095385  -0.0271063   0.0264207  -0.0927409
    3   0.0250839  -0.0043413   0.0205118  -0.0154273  -0.0216120   0.0594954
          133         134         135         136         137         138
    1  -0.0013229  -0.0235584  -0.0255912   0.0270530  -0.0407957   0.0050526
    2   0.0064176   0.0246602   0.0140485   0.0129874  -0.0264927  -0.0008393
    3  -0.0006850  -0.0207257   0.0263129   0.0158641  -0.0140243   0.0034351
          139         140         141         142         143         144
    1   0.0245379  -0.0129446   0.0153966   0.0879674   0.0047806   0.0254493
    2   0.0190835   0.0024363  -0.0254146   0.0348074  -0.0010879   0.0022861
    3   0.0229096   0.0413004   0.0013373  -0.0581731  -0.0041239   0.0141654
          145         146         147         148         149         150
    1   0.0017942   0.0106091  -0.0418061   0.0046374  -0.0145885   0.0226751
    2  -0.0307617   0.0208645   0.0095851   0.0054999   0.0155100   0.0005252
    3  -0.0131816  -0.0260714  -0.0271020   0.0047763   0.0270100   0.0205206
          151         152         153         154         155         156
    1   0.0197444   0.0084284  -0.0026871  -0.0188231   0.0200032  -0.0269120
    2   0.0154491  -0.0680122  -0.0021604   0.0222877  -0.0133786  -0.0133361
    3  -0.0251632   0.0873478  -0.0038455  -0.0153547  -0.0217659   0.0034222
          157         158         159         160         161         162
    1   0.0451931   0.0036239   0.0194499   0.0086517  -0.0227309  -0.0810883
    2   0.0287676  -0.0095702  -0.0167736   0.0039665  -0.0171748   0.0145941
    3  -0.0045984   0.0004006  -0.0194448   0.0304907   0.0002539   0.0707115
          163         164         165         166         167         168
    1  -0.0072168  -0.0020911  -0.0100305  -0.0321414   0.0064091  -0.0025405
    2  -0.0004658   0.0248932   0.0012876  -0.0098080   0.0052983  -0.0055599
    3  -0.0051709   0.0155329  -0.0336569   0.0032545   0.0646872  -0.0021448
          169         170         171         172         173         174
    1   0.0030466   0.0286726  -0.0007438  -0.0129322   0.0030140  -0.0107172
    2   0.0313001  -0.0109336  -0.0089021  -0.1001906  -0.0017279  -0.0313693
    3   0.0048174   0.0096251  -0.0351759  -0.0486744  -0.0066506  -0.0095605
          175         176         177         178         179         180
    1  -0.0087958   0.0323630   0.0168479  -0.0086568  -0.0061773  -0.0234878
    2   0.0266340   0.0041355  -0.0340429   0.0030057  -0.0265107  -0.0104662
    3  -0.0156183  -0.0112567   0.0338178  -0.0009535  -0.0244549   0.0215141
          181         182         183         184         185         186
    1  -0.0032151   0.0222151   0.0077007  -0.0041195  -0.0045394   0.0240992
    2   0.0351066   0.1085138  -0.0057445   0.0069279  -0.0336869   0.0171931
    3   0.0173238   0.0007170   0.0025948   0.0318542  -0.0010679  -0.0169497
          187         188         189         190         191         192
    1  -0.0105668   0.0008157   0.0177261   0.0270092  -0.0323360  -0.0608896
    2  -0.0024494   0.0123857  -0.0045374   0.0034518   0.0186024  -0.0431950
    3  -0.0536417   0.0101184   0.0297133  -0.0220142   0.0073752   0.0818858
          193         194         195         196         197         198
    1   0.0101947  -0.0030618   0.0304072   0.0025704  -0.0163995  -0.0023736
    2   0.0013141   0.0025075   0.0156000  -0.0273269   0.0412653  -0.0028657
    3   0.0007435  -0.0365793   0.0229318   0.0095853  -0.0095025   0.0070958
          199         200         201         202         203         204
    1  -0.0222185   0.0135306   0.0207576  -0.0231351  -0.0030926  -0.0009277
    2  -0.0048032  -0.0259987   0.0159761  -0.0987713   0.0049449   0.0064161
    3   0.0195515   0.0088673   0.0214178  -0.0443727  -0.0016596   0.0299804
          205         206         207         208         209         210
    1   0.0125849  -0.0288360   0.0587566  -0.0002208   0.0076957  -0.0275365
    2   0.0300061  -0.0041334   0.0052198  -0.0012582  -0.0337122  -0.0111860
    3  -0.0135472  -0.0167214   0.0161927  -0.0084875  -0.0108860  -0.0181509
          211         212         213         214         215         216
    1   0.0098355  -0.0645975  -0.0064569   0.0152260  -0.0063819  -0.0339043
    2   0.0301288  -0.0751994  -0.0020431  -0.0119068   0.0311564  -0.0088703
    3  -0.0231322   0.0483480   0.0062780   0.0171560   0.0028400   0.0150326
          217         218         219         220         221         222
    1   0.0644711  -0.0074587  -0.0308081   0.0210069  -0.0214904  -0.0295059
    2   0.0207184   0.0018264   0.0025141   0.0204953  -0.0045011  -0.1003059
    3  -0.0139050  -0.0093426   0.0123055  -0.0112991  -0.0361213  -0.0364424
          223         224         225         226         227         228
    1   0.0089334   0.0123150  -0.0100361   0.0198241  -0.0336907   0.0084622
    2  -0.0011898  -0.0303785  -0.0010042   0.0271709   0.0451651  -0.0031087
    3  -0.0035251  -0.0048860  -0.0306764   0.0096003  -0.0008393   0.0089326
          229         230         231         232         233         234
    1   0.0260863  -0.0199903   0.0113782  -0.0364448  -0.0089073  -0.0102985
    2   0.0262852  -0.0077445  -0.0292345  -0.1010497   0.0021981   0.0077670
    3   0.0143343   0.0207715   0.0082494  -0.0224318   0.0016161   0.0368561
          235         236         237         238         239         240
    1  -0.0056040  -0.0159348   0.0024496   0.0022641  -0.0046048  -0.0014493
    2   0.0258415  -0.0170654  -0.0525804   0.0060620   0.0308184  -0.0019454
    3  -0.0083792  -0.0253727   0.0254302   0.0050024  -0.0092953   0.0353691
          241         242         243         244         245         246
    1   0.0298728   0.0434932   0.0050205   0.0206302   0.0052509   0.0124188
    2  -0.0029121   0.0203576   0.0001998  -0.0141273  -0.0264663   0.0309717
    3  -0.0013640  -0.0969475  -0.0070215   0.0180523  -0.0255298  -0.0082006
          247         248         249         250         251         252
    1  -0.0320598  -0.0005648   0.0127926  -0.0239397   0.0197254  -0.0245257
    2   0.0366827  -0.0002506   0.0271349   0.0097739  -0.0258667  -0.1021672
    3  -0.0238070   0.0096940   0.0052423   0.0233786   0.0032218   0.0250839
          253         254         255         256         257         258
    1  -0.0000038  -0.0337485   0.0191673   0.0218429  -0.0236562  -0.0031619
    2   0.0074135  -0.0055895   0.0267360  -0.0116875  -0.0557345   0.0070959
    3  -0.0068660   0.0008183   0.0094823  -0.0207517  -0.0224261   0.0056303
          259         260         261         262
    1  -0.0273498   0.0148803   0.0018846   0.1063256
    2   0.0056576  -0.0219961   0.0323386   0.0007594
    3  -0.0117466   0.0240514   0.0101475   0.0320859
  --- DONE ESP SUMMARY ---
Archival summary:
1\1\n0076.mhg0\SP\ProcedureUnspecified\6-31+G*\242448h22\ymao\FriMar1209:03:572021FriMar1209:03:572021\0\\#,ProcedureUnspecified,6-31+G*,\\0,1\S\O,1,1.49672\C,1,1.80684,2,97.2879\H,3,1.09277,1,104.167,2,-71.5242,0\H,3,1.09308,1,109.312,2,37.7073,0\H,3,1.09319,1,112.489,2,163.561,0\C,1,1.80745,2,105.098,3,94.2654,0\H,7,1.09224,1,119.597,2,-64.1054,0\H,7,1.09272,1,103.385,2,64.3113,0\H,7,1.09343,1,109.585,2,167.846,0\Gh,9,2.17584,7,113.795,1,74.7437,0\Gh,11,1.09711,9,146.211,7,172.825,0\Gh,12,1.09627,11,108.198,9,-34.8576,0\Gh,12,1.53768,11,111.886,9,80.1358,0\Gh,14,1.0966,12,113.48,11,-63.8775,0\Gh,14,1.09716,12,114.187,11,-178.361,0\Gh,12,1.5379,11,102.438,9,-163.606,0\Gh,17,1.09643,12,106.224,11,171.013,0\Gh,17,1.09704,12,118.047,11,54.5156,0\Gh,17,1.53728,12,118.696,11,-70.7924,0\Gh,20,1.09673,17,110.565,12,67.0666,0\Gh,20,1.46175,17,112.333,12,-164.832,0\Gh,22,1.01276,20,120.445,17,86.7707,0\Gh,22,1.37859,20,125.299,17,-83.7034,0\Gh,24,1.10503,22,118.647,20,-176.691,0\Gh,24,1.21769,22,120.169,20,-5.47394,0\Gh,20,1.53799,17,112.413,12,-42.7165,0\Gh,27,1.09692,20,108.887,17,-68.2881,0\Gh,27,1.09764,20,110.773,17,171.333,0\Gh,27,1.53667,20,109.772,17,45.7575,0\Gh,30,1.09635,27,113.435,20,63.7663,0\Gh,30,1.09705,27,103.798,20,-166.7,0\O,23,2.13474,22,129.57,20,-110.727,0\S,33,1.49775,23,104.075,22,-163.046,0\C,34,1.80664,33,102.812,23,60.6329,0\H,35,1.09174,34,113.26,33,80.2004,0\H,35,1.09305,34,105.272,33,-169.452,0\H,35,1.09356,34,111.685,33,-43.7023,0\C,34,1.80666,33,105.282,23,-50.5088,0\H,39,1.09245,34,101.103,33,42.6774,0\H,39,1.09274,34,112.206,33,-76.0521,0\H,39,1.0935,34,109.145,33,164.818,0\H,21,2.16002,20,134.476,17,131.956,0\C,43,1.09295,21,142.784,20,-157.724,0\H,44,1.09295,43,111.538,21,152.193,0\H,44,1.09313,43,111.199,21,20.8607,0\S,44,1.80765,43,97.8958,21,-92.9323,0\O,47,1.49646,44,104.267,43,40.386,0\C,47,1.80746,44,96.5457,43,-69.6876,0\H,49,1.0931,47,110.17,44,-73.1107,0\H,49,1.09325,47,108.513,44,51.5153,0\H,49,1.09371,47,100.525,44,172.942,0\H,50,2.06089,49,127.054,47,106.922,0\C,53,1.09312,50,116.148,49,73.3381,0\H,54,1.09265,53,109.558,50,135.907,0\H,54,1.09308,53,109.611,50,9.92812,0\S,54,1.80793,53,110.032,50,-98.9875,0\O,57,1.49733,54,111.341,53,80.4523,0\C,57,1.80684,54,95.4084,53,-167.051,0\H,59,1.09282,57,113.435,54,-26.7407,0\H,59,1.09303,57,93.6021,54,-144.394,0\H,59,1.09383,57,117.481,54,102.614,0\H,6,2.18404,3,138.866,1,-106.497,0\C,63,1.09356,6,159.955,3,-21.5681,0\H,64,1.0923,63,105.788,6,-39.7865,0\H,64,1.09358,63,109.929,6,-155.935,0\S,64,1.80725,63,112.921,6,90.9532,0\O,67,1.49671,64,106.453,63,-179.968,0\C,67,1.8079,64,95.2195,63,67.7065,0\H,69,1.09217,67,112.792,64,-61.2862,0\H,69,1.09286,67,112.039,64,56.8918,0\H,69,1.09298,67,111.29,64,-172.941,0\H,19,2.30806,17,121.909,12,138.144,0\C,73,1.09315,19,155.173,17,-50.9168,0\H,74,1.09226,73,106.313,19,-143.528,0\H,74,1.09331,73,106.985,19,97.2821,0\S,74,1.80725,73,111.23,19,-20.2163,0\O,77,1.49625,74,110.551,73,-14.505,0\C,77,1.80733,74,90.4974,73,-116.473,0\H,79,1.09301,77,109.598,74,-62.521,0\H,79,1.09307,77,110.395,74,50.575,0\H,79,1.09308,77,106.901,74,178.966,0\H,31,2.31356,30,115.752,27,75.1213,0\C,83,1.09267,31,115.996,30,120.823,0\H,84,1.09272,83,105.015,31,112.571,0\H,84,1.0929,83,114.081,31,-4.30541,0\S,84,1.80722,83,112.295,31,-126.775,0\O,87,1.49665,84,113.292,83,166.052,0\C,87,1.80622,84,98.8706,83,59.3162,0\H,89,1.09259,87,102.575,84,-51.3259,0\H,89,1.09268,87,107.811,84,68.3023,0\H,89,1.0933,87,108.049,84,-170.378,0\H,81,2.3193,79,121.471,77,46.924,0\C,93,1.09277,81,145.476,79,-157.437,0\H,94,1.09253,93,104.722,81,55.5207,0\H,94,1.09284,93,115.891,81,-59.2344,0\S,94,1.80751,93,105.161,81,171.601,0\O,97,1.49705,94,105.684,93,165.917,0\C,97,1.8076,94,90.8473,93,66.676,0\H,99,1.09258,97,111.169,94,159.195,0\H,99,1.09289,97,109.819,94,31.914,0\H,99,1.09346,97,108.627,94,-79.581,0\H,92,2.32034,89,129.168,87,93.4811,0\C,103,1.09196,92,156.416,89,121.861,0\H,104,1.09304,103,115.288,92,-83.2808,0\H,104,1.09348,103,112.898,92,157.538,0\S,104,1.80737,103,106.662,92,39.6906,0\O,107,1.4969,104,103.178,103,34.1971,0\C,107,1.80609,104,92.1545,103,-70.7855,0\H,109,1.09299,107,114.422,104,51.7165,0\H,109,1.09315,107,106.114,104,-72.2974,0\H,109,1.09348,107,102.68,104,175.269,0\H,112,2.19665,109,113.034,107,-97.8572,0\C,113,1.09341,112,168.943,109,157.715,0\H,114,1.09287,113,122.69,112,63.7041,0\H,114,1.09307,113,100.866,112,-48.4451,0\S,114,1.80648,113,106.486,112,-164.767,0\O,117,1.49685,114,102.34,113,169.08,0\C,117,1.80687,114,96.8485,113,-82.0693,0\H,119,1.09266,117,103.64,114,-169.839,0\H,119,1.09306,117,113.94,114,-51.6159,0\H,119,1.09336,117,120.047,114,76.295,0\H,15,2.32406,14,143.751,12,121.585,0\C,123,1.09258,15,110.681,14,-106.778,0\H,124,1.09308,123,103.372,15,-87.4997,0\H,124,1.09359,123,113.762,15,37.6027,0\S,124,1.80693,123,113.565,15,163.004,0\O,127,1.49723,124,100.608,123,67.3861,0\C,127,1.8068,124,93.0513,123,169.163,0\H,129,1.09301,127,118.557,124,-61.5134,0\H,129,1.09323,127,109.454,124,70.197,0\H,129,1.09332,127,105.003,124,-171.169,0\H,130,2.24006,129,95.0082,127,98.8757,0\C,133,1.09294,130,129.839,129,163.769,0\H,134,1.0934,133,109.552,130,-137.694,0\H,134,1.09341,133,110.932,130,-3.23715,0\S,134,1.80639,133,104.906,130,107.405,0\O,137,1.49709,134,101.82,133,-79.6823,0\C,137,1.80718,134,87.3362,133,-171.091,0\H,139,1.09218,137,108.932,134,58.3022,0\H,139,1.0931,137,120.098,134,-178.229,0\H,139,1.0935,137,102.897,134,-65.108,0\O,36,2.35615,35,128.917,34,-112.008,0\S,143,1.49713,36,172.581,35,85.0423,0\C,144,1.80655,143,109.801,36,-42.7806,0\H,145,1.09306,144,106.32,143,157.245,0\H,145,1.09334,144,112.147,143,42.4021,0\H,145,1.09339,144,104.457,143,-87.3993,0\C,144,1.8069,143,99.512,36,51.2586,0\H,149,1.09222,144,106.084,143,50.3168,0\H,149,1.09317,144,107.159,143,-68.4076,0\H,149,1.09335,144,109.001,143,173.174,0\H,18,2.35937,17,154.022,12,-24.4677,0\C,153,1.09326,18,148.352,17,153.778,0\H,154,1.09301,153,110.81,18,116.68,0\H,154,1.09327,153,101.409,18,12.4091,0\S,154,1.80689,153,112.38,18,-107.121,0\O,157,1.49643,154,109.625,153,45.8162,0\C,157,1.80743,154,94.0573,153,-53.1476,0\H,159,1.09207,157,117.507,154,-63.132,0\H,159,1.0927,157,103.217,154,-176.311,0\H,159,1.09382,157,114.099,154,65.9663,0\H,29,2.3753,27,111.274,20,149.801,0\C,163,1.09222,29,98.5597,27,-157.837,0\H,164,1.09289,163,106.044,29,61.0877,0\H,164,1.09307,163,117.709,29,-175.062,0\S,164,1.80791,163,117.106,29,-52.2361,0\O,167,1.49671,164,107.245,163,-83.6191,0\C,167,1.80703,164,98.8256,163,168.204,0\H,169,1.09259,167,106.279,164,173.4,0\H,169,1.09277,167,112.973,164,58.1024,0\H,169,1.09377,167,105.481,164,-67.5889,0\O,163,2.41786,29,126.023,27,15.7234,0\S,173,1.49626,163,114.461,29,-30.0028,0\C,174,1.80701,173,101.159,163,-146.14,0\H,175,1.09299,174,105.358,173,76.5287,0\H,175,1.09309,174,111.88,173,-163.593,0\H,175,1.09326,174,104.213,173,-43.288,0\C,174,1.80722,173,95.4414,163,122.047,0\H,179,1.09255,174,112.917,173,-64.1689,0\H,179,1.09307,174,111.151,173,175.284,0\H,179,1.0936,174,104.932,173,53.3725,0\H,181,2.43646,179,161.413,174,115.644,0\C,183,1.09351,181,109.263,179,2.09216,0\H,184,1.09303,183,104.389,181,-73.5241,0\H,184,1.09343,183,101.946,181,173.852,0\S,184,1.8072,183,115.127,181,54.8905,0\O,187,1.49671,184,102.291,183,22.5242,0\C,187,1.80732,184,96.3974,183,130.217,0\H,189,1.09201,187,107.607,184,-79.4386,0\H,189,1.09295,187,104.135,184,154.363,0\H,189,1.09339,187,110.04,184,38.4238,0\H,160,2.53188,159,125.737,157,142.613,0\C,193,1.09296,160,94.5067,159,-164.881,0\H,194,1.09321,193,114.466,160,66.4299,0\H,194,1.09358,193,113.801,160,-45.6231,0\S,194,1.80744,193,106.373,160,-169.892,0\O,197,1.49676,194,102.777,193,-122.527,0\C,197,1.80653,194,95.6387,193,135.491,0\H,199,1.09248,197,112.175,194,60.4172,0\H,199,1.09288,197,112.668,194,-64.9359,0\H,199,1.0931,197,102.596,194,-179.232,0\H,148,2.56874,145,109.969,144,-157.791,0\C,203,1.0933,148,112.822,145,-56.2986,0\H,204,1.09252,203,113.643,148,-89.5097,0\H,204,1.09316,203,106.107,148,32.0908,0\S,204,1.80744,203,101.865,148,151.31,0\O,207,1.49592,204,108.18,203,-76.6516,0\C,207,1.80676,204,99.13,203,33.6214,0\H,209,1.09295,207,115.86,204,-61.3142,0\H,209,1.09313,207,117.941,204,163.759,0\H,209,1.09415,207,102.523,204,57.6962,0\O,203,2.36238,148,67.1574,145,115.623,0\S,213,1.49707,203,107.997,148,83.3016,0\C,214,1.80703,213,103.039,203,77.8824,0\H,215,1.09234,214,100.545,213,162.772,0\H,215,1.09292,214,109.117,213,-79.642,0\H,215,1.09346,214,97.8056,213,36.7804,0\C,214,1.80718,213,100.227,203,175.686,0\H,219,1.09262,214,97.602,213,73.7613,0\H,219,1.09297,214,104.868,213,-169.56,0\H,219,1.09344,214,114.769,213,-34.5238,0\H,217,2.14819,215,106.249,214,-141.568,0\C,223,1.09367,217,139.859,215,159.196,0\H,224,1.09295,223,114.528,217,-166.954,0\H,224,1.09296,223,115.993,217,-55.1572,0\S,224,1.80737,223,106.373,217,69.8666,0\O,227,1.49688,224,104.289,223,-48.166,0\C,227,1.80695,224,97.6175,223,55.8697,0\H,229,1.09279,227,107.808,224,-41.7259,0\H,229,1.0932,227,107.655,224,74.8941,0\H,229,1.09351,227,109.137,224,-161.584,0\H,208,2.45001,207,142.985,204,-43.5699,0\C,233,1.09264,208,105.627,207,108.263,0\H,234,1.09261,233,108.144,208,104.791,0\H,234,1.09283,233,112.083,208,-11.8334,0\S,234,1.80778,233,111.113,208,-142.554,0\O,237,1.4968,234,102.461,233,46.5903,0\C,237,1.80695,234,103.423,233,-60.0528,0\H,239,1.09265,237,108.359,234,-173.852,0\H,239,1.09296,237,112.392,234,-56.1696,0\H,239,1.09352,237,108.715,234,61.4223,0\H,132,2.67258,129,102.449,127,-79.7521,0\C,243,1.09345,132,147.713,129,-85.4902,0\H,244,1.09267,243,107.034,132,3.70798,0\H,244,1.09275,243,115.473,132,-126.875,0\S,244,1.80685,243,100.632,132,129.106,0\O,247,1.49718,244,100.32,243,167.711,0\C,247,1.80678,244,92.7846,243,59.5567,0\H,249,1.0928,247,109.234,244,178.441,0\H,249,1.09291,247,103.322,244,64.8192,0\H,249,1.09385,247,113.018,244,-59.1045,0\H,250,2.4089,249,164.235,247,9.66383,0\C,253,1.0932,250,127.454,249,-32.9122,0\H,254,1.09257,253,108.728,250,-113.512,0\H,254,1.09376,253,114.04,250,123.887,0\S,254,1.8073,253,115.255,250,4.87551,0\O,257,1.49714,254,105.779,253,-175.911,0\C,257,1.8071,254,96.2418,253,-74.2646,0\H,259,1.09254,257,106.26,254,46.3132,0\H,259,1.09329,257,101.995,254,-71.014,0\H,259,1.09355,257,112.438,254,174.619,0\\\@

 Total job time:  53.07s(wall), 176.83s(cpu) 
 Fri Mar 12 09:03:57 2021

        *************************************************************
        *                                                           *
        *  Thank you very much for using Q-Chem.  Have a nice day.  *
        *                                                           *
        *************************************************************


