                  Welcome to Q-Chem
     A Quantum Leap Into The Future Of Chemistry


 Q-Chem 5.2 (devel), Q-Chem, Inc., Pleasanton, CA (2019)

 Yihan Shao,  Zhengting Gan,  E. Epifanovsky,  A. T. B. Gilbert,  M. Wormit,  
 J. Kussmann,  A. W. Lange,  A. Behn,  Jia Deng,  Xintian Feng,  D. Ghosh,  
 M. Goldey,  P. R. Horn,  L. D. Jacobson,  I. Kaliman,  T. Kus,  A. Landau,  
 Jie Liu,  E. I. Proynov,  R. M. Richard,  R. P. Steele,  E. J. Sundstrom,  
 H. L. Woodcock III,  P. M. Zimmerman,  D. Zuev,  B. Alam,  B. Albrecht,  
 E. Alguire,  S. A. Baeppler,  D. Barton,  Z. Benda,  Y. A. Bernard,  
 E. J. Berquist,  K. B. Bravaya,  H. Burton,  K. Carter-Fenk,  D. Casanova,  
 Chun-Min Chang,  Yunqing Chen,  A. Chien,  K. D. Closser,  M. P. Coons,  
 S. Coriani,  S. Dasgupta,  A. L. Dempwolff,  M. Diedenhofen,  Hainam Do,  
 R. G. Edgar,  Po-Tung Fang,  S. Faraji,  S. Fatehi,  Qingguo Feng,  
 J. Fosso-Tande,  J. Gayvert,  Qinghui Ge,  A. Ghysels,  G. Gidofalvi,  
 J. Gomes,  J. Gonthier,  A. Gunina,  D. Hait,  M. W. D. Hanson-Heine,  
 P. H. P. Harbach,  A. W. Hauser,  M. F. Herbst,  J. E. Herr,  
 E. G. Hohenstein,  Z. C. Holden,  Kerwin Hui,  B. C. Huynh,  T.-C. Jagau,  
 Hyunjun Ji,  B. Kaduk,  K. Khistyaev,  Jaehoon Kim,  P. Klunzinger,  K. Koh,  
 D. Kosenkov,  L. Koulias,  T. Kowalczyk,  C. M. Krauter,  A. Kunitsa,  
 Ka Un Lao,  A. Laurent,  K. V. Lawler,  Joonho Lee,  D. Lefrancois,  
 S. Lehtola,  D. S. Levine,  Yi-Pei Li,  You-Sheng Lin,  Fenglai Liu,  
 Kuan-Yu Liu,  E. Livshits,  M. Loipersberger,  A. Luenser,  P. Manohar,  
 E. Mansoor,  S. F. Manzer,  Shan-Ping Mao,  Yuezhi Mao,  N. Mardirossian,  
 A. V. Marenich,  T. Markovich,  L. A. Martinez-Martinez,  S. A. Maurer,  
 N. J. Mayhall,  S. C. McKenzie,  J.-M. Mewes,  P. Morgante,  A. F. Morrison,  
 J. W. Mullinax,  K. Nanda,  T. S. Nguyen-Beck,  R. Olivares-Amaya,  
 J. A. Parkhill,  S. K. Paul,  F. Pavosevic,  Zheng Pei,  T. M. Perrine,  
 F. Plasser,  P. Pokhilko,  S. Prager,  A. Prociuk,  E. Ramos,  B. Rana,  
 D. R. Rehn,  F. Rob,  M. Scheurer,  M. Schneider,  N. Sergueev,  
 S. M. Sharada,  S. Sharma,  D. W. Small,  T. Stauch,  C. J. Stein,  
 T. Stein,  Yu-Chuan Su,  S. P. Veccham,  Zhen Tao,  A. J. W. Thom,  
 A. Tkatchenko,  T. Tsuchimochi,  N. M. Tubman,  L. Vogt,  M. L. Vidal,  
 O. Vydrov,  M. A. Watson,  J. Wenzel,  M. de Wergifosse,  T. A. Wesolowski,  
 A. White,  J. Witte,  A. Yamada,  Jun Yang,  K. Yao,  S. Yeganeh,  
 S. R. Yost,  Zhi-Qiang You,  A. Zech,  Igor Ying Zhang,  Xing Zhang,  
 Yan Zhao,  Ying Zhu,  B. R. Brooks,  G. K. L. Chan,  C. J. Cramer,  
 M. S. Gordon,  W. J. Hehre,  A. Klamt,  M. W. Schmidt,  C. D. Sherrill,  
 D. G. Truhlar,  A. Aspuru-Guzik,  R. Baer,  A. T. Bell,  N. A. Besley,  
 Jeng-Da Chai,  A. E. DePrince, III,  R. A. DiStasio Jr.,  A. Dreuw,  
 B. D. Dunietz,  T. R. Furlani,  Chao-Ping Hsu,  Yousung Jung,  Jing Kong,  
 D. S. Lambrecht,  WanZhen Liang,  C. Ochsenfeld,  V. A. Rassolov,  
 L. V. Slipchenko,  J. E. Subotnik,  T. Van Voorhis,  J. M. Herbert,  
 A. I. Krylov,  P. M. W. Gill,  M. Head-Gordon

 Contributors to earlier versions of Q-Chem not listed above: 
 R. D. Adamson,  B. Austin,  J. Baker,  G. J. O. Beran,  K. Brandhorst,  
 S. T. Brown,  E. F. C. Byrd,  A. K. Chakraborty,  C.-L. Cheng,  
 Siu Hung Chien,  D. M. Chipman,  D. L. Crittenden,  H. Dachsel,  
 R. J. Doerksen,  A. D. Dutoi,  L. Fusti-Molnar,  W. A. Goddard III,  
 A. Golubeva-Zadorozhnaya,  S. R. Gwaltney,  G. Hawkins,  A. Heyden,  
 S. Hirata,  G. Kedziora,  F. J. Keil,  C. Kelley,  Jihan Kim,  R. A. King,  
 R. Z. Khaliullin,  P. P. Korambath,  W. Kurlancheek,  A. M. Lee,  M. S. Lee,  
 S. V. Levchenko,  Ching Yeh Lin,  D. Liotard,  R. C. Lochan,  I. Lotan,  
 P. E. Maslen,  N. Nair,  D. P. O'Neill,  D. Neuhauser,  E. Neuscamman,  
 C. M. Oana,  R. Olson,  B. Peters,  R. Peverati,  P. A. Pieniazek,  
 Y. M. Rhee,  J. Ritchie,  M. A. Rohrdanz,  E. Rosta,  N. J. Russ,  
 H. F. Schaefer III,  N. E. Schultz,  N. Shenvi,  A. C. Simmonett,  A. Sodt,  
 D. Stuck,  K. S. Thanthiriwatte,  V. Vanovschi,  Tao Wang,  A. Warshel,  
 C. F. Williams,  Q. Wu,  X. Xu,  W. Zhang

 Please cite Q-Chem as follows:
 Y. Shao et al., Mol. Phys. 113, 184-215 (2015)
 DOI: 10.1080/00268976.2014.952696

 Q-Chem 5.2.2 for Intel X86 EM64T Linux

 Parts of Q-Chem use Armadillo 9.800.1 (Horizon Scraper).
 http://arma.sourceforge.net/

 Q-Chem begins on Thu Mar 11 13:37:44 2021  

Host: n0095.mhg0
0

     Scratch files written to /local/scratch/users/ymao/r7.00_frame_0080_almo_B3LYP_dp.in20210311133741//

Checking the input file for inconsistencies... 	...done.

--------------------------------------------------------------
User input:
--------------------------------------------------------------
$molecule
0 1
--
0 1
C    30.45800   28.83500   28.16900  
C    29.28200   28.47000   29.09100  
C    28.64200   27.15800   28.60900  
C    29.65300   26.00000   28.63300  
C    30.84300   26.29800   27.70700  
C    31.45700   27.68600   27.95600  
H    27.85500   26.90100   29.32900  
H    29.53900   28.25500   30.13500  
H    30.06300   29.07300   27.17400  
H    30.92600   29.76500   28.51200  
H    29.95400   25.97600   29.68800  
H    29.22100   25.03700   28.33300  
H    31.63700   25.55200   27.83500  
H    30.59200   26.22100   26.64200  
H    32.11900   27.56100   28.82100  
H    32.18400   27.93100   27.17200  
H    28.18300   27.11300   27.61400  
N    28.24500   29.49800   29.01600  
H    27.75600   29.66600   28.14400  
C    27.99000   30.49800   29.93000  
H    27.18900   31.16500   29.56500  
O    28.71400   30.56100   30.90800  
--
0 1
C    35.85200   33.09800   29.51500  
H    34.95500   32.47700   29.56900  
H    35.89500   33.57200   30.49900  
H    35.74400   33.84200   28.72100  
S    37.36800   32.13600   29.31200  
C    37.41900   31.22400   30.87100  
H    37.19600   31.85900   31.73200  
H    36.73000   30.37500   30.84600  
H    38.43900   30.87000   31.03900  
O    38.47600   33.14300   29.26300  
C    23.89000   32.09100   22.32300  
H    23.89800   32.75300   21.45400  
H    23.58600   31.11000   21.94900  
H    23.26300   32.51600   23.11100  
S    25.63000   32.13500   22.81000  
C    25.61700   33.86800   23.32000  
H    25.07100   33.92200   24.26500  
H    26.62900   34.27100   23.41900  
H    25.12700   34.50600   22.58000  
O    26.41300   32.03500   21.53800  
C    31.63900   31.51300   26.05900  
H    30.70900   32.08700   26.05000  
H    32.12900   31.53800   25.08200  
H    31.51400   30.45400   26.29700  
S    32.89600   32.13500   27.19900  
C    34.13500   30.94600   26.63500  
H    33.72800   29.93200   26.63600  
H    34.45600   31.13900   25.60900  
H    34.90500   31.03900   27.40600  
O    32.31800   31.72100   28.51600  
C    24.83100   27.37100   33.32300  
H    24.56900   26.76700   32.45100  
H    25.40600   26.70200   33.96800  
H    23.98700   27.84800   33.82900  
S    25.99100   28.66100   32.81900  
C    27.32300   27.49900   32.44500  
H    28.08500   27.95300   31.80700  
H    27.77700   27.17400   33.38400  
H    26.93500   26.61100   31.93800  
O    26.65500   29.29900   33.99900  
C    29.90000   31.60000   22.02100  
H    30.72300   31.29900   22.67400  
H    28.94200   31.13500   22.27100  
H    30.36700   31.32900   21.07100  
S    29.81600   33.40000   22.14900  
C    31.50200   33.95900   21.81300  
H    31.54700   33.89300   20.72300  
H    31.54500   34.99100   22.17000  
H    32.25000   33.32300   22.29300  
O    29.74100   33.59700   23.63100  
C    30.52900   28.20000   21.68500  
H    30.44500   27.33600   21.02100  
H    30.72100   29.14000   21.16100  
H    31.40500   28.11800   22.33400  
S    29.00100   28.13200   22.64700  
C    29.73800   28.76200   24.17200  
H    29.81600   29.85100   24.10700  
H    28.98300   28.61900   24.94800  
H    30.62700   28.18400   24.43800  
O    28.77400   26.65600   22.75600  
C    34.92700   24.35000   32.21000  
H    35.47100   25.29300   32.30600  
H    34.47600   24.05300   33.16000  
H    35.62000   23.57400   31.87500  
S    33.75800   24.62400   30.86000  
C    32.80400   23.12800   31.19900  
H    31.92500   23.20900   30.55500  
H    33.36100   22.27500   30.80200  
H    32.46500   22.93300   32.22000  
O    34.53900   24.23100   29.64500  
C    28.30400   34.21500   31.01900  
H    27.68800   35.07500   30.74000  
H    27.74600   33.30600   30.78000  
H    28.47700   34.13000   32.09400  
S    29.86600   34.42100   30.13500  
C    30.77000   33.11800   31.00100  
H    30.53000   33.19100   32.06500  
H    30.64500   32.14700   30.51500  
H    31.84900   33.29000   31.03700  
O    30.29500   35.69700   30.79000  
C    34.03000   35.37800   32.17500  
H    34.73100   34.80000   31.56600  
H    33.25200   35.87200   31.58800  
H    34.60500   36.14900   32.69500  
S    33.35700   34.24500   33.41200  
C    32.35900   35.47600   34.27900  
H    31.88300   34.98700   35.13300  
H    32.95000   36.28500   34.71500  
H    31.59900   35.90700   33.62200  
O    34.52600   34.05400   34.32800  
C    29.46600   24.26000   31.59000  
H    30.48400   24.44300   31.94200  
H    29.44300   23.86900   30.57000  
H    28.75300   25.08800   31.63000  
S    28.87500   22.85600   32.56200  
C    29.03300   23.63800   34.18300  
H    30.11300   23.72100   34.32600  
H    28.66400   24.66200   34.28300  
H    28.49900   23.14800   35.00100  
O    29.98600   21.85200   32.59700  
C    25.26300   24.84500   27.91300  
H    24.51500   24.74500   27.12300  
H    25.59000   25.88600   27.97300  
H    26.14900   24.22900   27.73400  
S    24.58300   24.35000   29.51200  
C    23.37700   25.69600   29.54600  
H    22.94700   25.68800   30.55000  
H    23.83400   26.62900   29.20400  
H    22.64500   25.38500   28.79700  
O    25.66100   24.59900   30.52100  
C    38.80400   27.70000   26.29200  
H    38.24500   26.99900   25.66600  
H    39.86500   27.45400   26.19600  
H    38.53100   27.52000   27.33400  
S    38.32100   29.37300   25.80900  
C    39.87900   30.19000   26.22200  
H    39.96900   31.26200   26.02900  
H    40.21800   30.11600   27.25800  
H    40.65400   29.81500   25.54800  
O    37.25500   29.87700   26.73200  
C    28.03800   22.87900   25.37900  
H    28.51300   22.05500   25.91700  
H    28.14000   23.75700   26.02300  
H    26.98100   22.68000   25.18600  
S    28.87600   23.10500   23.79400  
C    28.23700   21.58900   23.04600  
H    27.16900   21.72200   22.85300  
H    28.86000   21.31800   22.19000  
H    28.52100   20.75400   23.69200  
O    30.30900   22.82900   24.13000  
C    31.48000   22.70300   27.24500  
H    32.56500   22.64700   27.13000  
H    30.93500   22.78000   26.30100  
H    31.25000   23.65000   27.74100  
S    30.89700   21.37200   28.32000  
C    30.94600   20.04100   27.09900  
H    30.26100   19.24900   27.41200  
H    30.71400   20.46800   26.12000  
H    31.95700   19.63300   27.17400  
O    29.47100   21.74100   28.58700  
C    22.05300   36.10800   27.83200  
H    21.39200   35.39400   28.32900  
H    22.49300   36.93800   28.39200  
H    21.42500   36.54100   27.04900  
S    23.34500   35.25000   26.90600  
C    24.60400   35.19400   28.20100  
H    24.19400   34.68900   29.08000  
H    25.48500   34.65900   27.83600  
H    24.81600   36.22200   28.50400  
O    23.83600   36.16400   25.82700  
C    32.92700   27.28000   32.81200  
H    32.80800   27.89600   33.70700  
H    33.02000   26.22600   33.08800  
H    33.71300   27.57000   32.11100  
S    31.46400   27.58700   31.79800  
C    31.67400   29.37900   31.69800  
H    31.55800   29.63700   30.64300  
H    30.76100   29.80100   32.12700  
H    32.58900   29.64000   32.23700  
O    30.36000   27.26400   32.75600  
C    35.34600   27.92900   24.33800  
H    36.00100   28.61800   24.87800  
H    34.64400   27.40100   24.98900  
H    36.03200   27.29000   23.77600  
S    34.22000   28.75200   23.18800  
C    35.44800   29.95900   22.64100  
H    35.67400   30.56500   23.52200  
H    36.30100   29.41600   22.22600  
H    34.99400   30.64000   21.91700  
O    33.33500   29.40200   24.20500  
C    24.11500   29.08200   25.55100  
H    23.88600   28.88300   24.50100  
H    23.48800   28.58400   26.29500  
H    24.13800   30.14700   25.79700  
S    25.82900   28.60100   25.86200  
C    25.78200   26.91200   25.22100  
H    25.55700   26.88200   24.15200  
H    26.80900   26.59400   25.41900  
H    25.01200   26.30400   25.70200  
O    25.91000   28.47400   27.35100  
C    29.69200   28.01100   36.46000  
H    29.45900   28.14500   35.40000  
H    29.00800   27.27800   36.89600  
H    29.76400   28.97700   36.96600  
S    31.40200   27.42900   36.43600  
C    30.90500   25.79600   35.84400  
H    30.62900   25.89700   34.79100  
H    31.69700   25.06100   36.00900  
H    30.07200   25.39000   36.42400  
O    31.73500   27.26600   37.88600  
C    34.42700   18.13400   29.49400  
H    34.57500   18.07800   28.41300  
H    35.35400   17.77700   29.94800  
H    33.50300   17.61900   29.77000  
S    34.14900   19.88400   29.84900  
C    35.68500   20.39700   29.04800  
H    35.87200   21.47400   29.05700  
H    36.44600   19.82700   29.58700  
H    35.60300   19.97400   28.04300  
O    34.44800   20.05600   31.30600  
C    32.49700   25.51400   23.57200  
H    33.37300   25.81700   24.15000  
H    31.84400   26.38100   23.44500  
H    32.05700   24.58300   23.94000  
S    33.09700   25.20900   21.89500  
C    34.10600   23.79000   22.37800  
H    34.63600   23.36100   21.52300  
H    34.91100   24.08400   23.05600  
H    33.45500   22.99600   22.75200  
O    33.94100   26.38500   21.51400  
C    25.51300   32.56200   32.24200  
H    25.42300   33.16200   31.33400  
H    26.31700   33.00200   32.83800  
H    25.65000   31.49800   32.03200  
S    24.01300   32.85000   33.20700  
C    24.58400   31.90500   34.63700  
H    24.16700   32.32500   35.55600  
H    24.17100   30.89800   34.54200  
H    25.67600   31.93400   34.59200  
O    23.04700   31.98600   32.45700  
C    37.99200   22.88000   26.27300  
H    39.03100   23.18500   26.41800  
H    37.74800   22.41100   27.22900  
H    37.76100   22.33900   25.35100  
S    37.02300   24.39200   26.07400  
C    35.42800   23.57600   26.31400  
H    35.37700   22.70400   25.65600  
H    35.37300   23.33900   27.37900  
H    34.72000   24.33300   25.96900  
O    37.04700   24.68900   24.60700  
C    32.31800   36.19000   27.71000  
H    31.81500   36.24900   28.67800  
H    32.85500   35.24000   27.64700  
H    32.98600   37.02900   27.49900  
S    31.06700   35.87300   26.44500  
C    32.17300   35.94800   25.01800  
H    31.52900   36.00400   24.13600  
H    32.94400   36.72100   25.07100  
H    32.74500   35.01700   25.02600  
O    30.36200   37.19000   26.34300  
C    24.26200   31.66400   28.30400  
H    23.86700   32.23300   27.45900  
H    24.78500   32.36500   28.96000  
H    24.96000   30.90400   27.94400  
S    23.06600   30.87500   29.40500  
C    24.24700   29.58800   29.86700  
H    24.33300   28.91100   29.01300  
H    25.20500   30.06700   30.08600  
H    23.82300   29.06200   30.72600  
O    22.03300   30.14900   28.60100  
C    27.60400   34.57100   26.39300  
H    28.30400   34.65100   25.55800  
H    26.57000   34.54200   26.04100  
H    27.73700   35.42200   27.06700  
S    28.04900   33.03800   27.23900  
C    27.73800   31.83300   25.92900  
H    28.18700   30.87500   26.20100  
H    26.66400   31.65500   25.82800  
H    28.22800   32.25500   25.04800  
O    26.93000   32.76400   28.19500  
C    27.26800   19.41400   25.80000  
H    26.61400   20.23400   26.10800  
H    28.35000   19.55400   25.86200  
H    27.27200   19.09300   24.75500  
S    26.97900   18.07000   26.97200  
C    27.00500   19.15100   28.42000  
H    26.16700   19.83800   28.27900  
H    26.92100   18.42900   29.23700  
H    27.89800   19.74700   28.62300  
O    28.35600   17.48600   26.90800  
C    31.42500   31.88300   34.55900  
H    31.51300   30.82500   34.30000  
H    31.47100   32.47600   33.64200  
H    32.19800   32.14100   35.28700  
S    29.76600   32.09200   35.24400  
C    29.11200   31.19900   33.81500  
H    28.03400   31.32000   33.68600  
H    29.47600   31.59900   32.86500  
H    29.34200   30.13700   33.92900  
O    29.44400   33.52600   34.96000  
C    34.96100   27.42800   28.65500  
H    34.45700   28.37600   28.45000  
H    35.23700   26.85900   27.76400  
H    34.50200   26.70000   29.32900  
S    36.48000   27.91900   29.50300  
C    37.14600   26.27400   29.84500  
H    36.30500   25.70000   30.24200  
H    37.52400   25.84100   28.91500  
H    37.85000   26.47500   30.65600  
O    35.88300   28.24900   30.83500  
$end

$rem
JOBTYPE  SP
METHOD  B3LYP
BASIS  6-31+G(D)
SYMMETRY  FALSE
SYM_IGNORE  TRUE
MEM_TOTAL  16000
MEM_STATIC  8000
MAX_SUB_FILE_NUM  16000
BASIS_LIN_DEP_THRESH  6
THRESH  14
SCF_CONVERGENCE  8
GEN_SCFMAN  TRUE
SCF_GUESS  FRAGMO
FD_MAT_VEC_PROD  FALSE
XC_GRID  000075000302
NL_GRID  1
MAX_SCF_CYCLES  200
FRGM_METHOD  STOLL
SCFMI_MODE  1
$end

$development
almo_efield  1
$end

$rem_frgm
SCF_CONVERGENCE  4
$end

--------------------------------------------------------------
 ----------------------------------------------------------------
             Standard Nuclear Orientation (Angstroms)
    I     Atom           X                Y                Z
 ----------------------------------------------------------------
    1      C      30.4580000000    28.8350000000    28.1690000000
    2      C      29.2820000000    28.4700000000    29.0910000000
    3      C      28.6420000000    27.1580000000    28.6090000000
    4      C      29.6530000000    26.0000000000    28.6330000000
    5      C      30.8430000000    26.2980000000    27.7070000000
    6      C      31.4570000000    27.6860000000    27.9560000000
    7      H      27.8550000000    26.9010000000    29.3290000000
    8      H      29.5390000000    28.2550000000    30.1350000000
    9      H      30.0630000000    29.0730000000    27.1740000000
   10      H      30.9260000000    29.7650000000    28.5120000000
   11      H      29.9540000000    25.9760000000    29.6880000000
   12      H      29.2210000000    25.0370000000    28.3330000000
   13      H      31.6370000000    25.5520000000    27.8350000000
   14      H      30.5920000000    26.2210000000    26.6420000000
   15      H      32.1190000000    27.5610000000    28.8210000000
   16      H      32.1840000000    27.9310000000    27.1720000000
   17      H      28.1830000000    27.1130000000    27.6140000000
   18      N      28.2450000000    29.4980000000    29.0160000000
   19      H      27.7560000000    29.6660000000    28.1440000000
   20      C      27.9900000000    30.4980000000    29.9300000000
   21      H      27.1890000000    31.1650000000    29.5650000000
   22      O      28.7140000000    30.5610000000    30.9080000000
   23      C      35.8520000000    33.0980000000    29.5150000000
   24      H      34.9550000000    32.4770000000    29.5690000000
   25      H      35.8950000000    33.5720000000    30.4990000000
   26      H      35.7440000000    33.8420000000    28.7210000000
   27      S      37.3680000000    32.1360000000    29.3120000000
   28      C      37.4190000000    31.2240000000    30.8710000000
   29      H      37.1960000000    31.8590000000    31.7320000000
   30      H      36.7300000000    30.3750000000    30.8460000000
   31      H      38.4390000000    30.8700000000    31.0390000000
   32      O      38.4760000000    33.1430000000    29.2630000000
   33      C      23.8900000000    32.0910000000    22.3230000000
   34      H      23.8980000000    32.7530000000    21.4540000000
   35      H      23.5860000000    31.1100000000    21.9490000000
   36      H      23.2630000000    32.5160000000    23.1110000000
   37      S      25.6300000000    32.1350000000    22.8100000000
   38      C      25.6170000000    33.8680000000    23.3200000000
   39      H      25.0710000000    33.9220000000    24.2650000000
   40      H      26.6290000000    34.2710000000    23.4190000000
   41      H      25.1270000000    34.5060000000    22.5800000000
   42      O      26.4130000000    32.0350000000    21.5380000000
   43      C      31.6390000000    31.5130000000    26.0590000000
   44      H      30.7090000000    32.0870000000    26.0500000000
   45      H      32.1290000000    31.5380000000    25.0820000000
   46      H      31.5140000000    30.4540000000    26.2970000000
   47      S      32.8960000000    32.1350000000    27.1990000000
   48      C      34.1350000000    30.9460000000    26.6350000000
   49      H      33.7280000000    29.9320000000    26.6360000000
   50      H      34.4560000000    31.1390000000    25.6090000000
   51      H      34.9050000000    31.0390000000    27.4060000000
   52      O      32.3180000000    31.7210000000    28.5160000000
   53      C      24.8310000000    27.3710000000    33.3230000000
   54      H      24.5690000000    26.7670000000    32.4510000000
   55      H      25.4060000000    26.7020000000    33.9680000000
   56      H      23.9870000000    27.8480000000    33.8290000000
   57      S      25.9910000000    28.6610000000    32.8190000000
   58      C      27.3230000000    27.4990000000    32.4450000000
   59      H      28.0850000000    27.9530000000    31.8070000000
   60      H      27.7770000000    27.1740000000    33.3840000000
   61      H      26.9350000000    26.6110000000    31.9380000000
   62      O      26.6550000000    29.2990000000    33.9990000000
   63      C      29.9000000000    31.6000000000    22.0210000000
   64      H      30.7230000000    31.2990000000    22.6740000000
   65      H      28.9420000000    31.1350000000    22.2710000000
   66      H      30.3670000000    31.3290000000    21.0710000000
   67      S      29.8160000000    33.4000000000    22.1490000000
   68      C      31.5020000000    33.9590000000    21.8130000000
   69      H      31.5470000000    33.8930000000    20.7230000000
   70      H      31.5450000000    34.9910000000    22.1700000000
   71      H      32.2500000000    33.3230000000    22.2930000000
   72      O      29.7410000000    33.5970000000    23.6310000000
   73      C      30.5290000000    28.2000000000    21.6850000000
   74      H      30.4450000000    27.3360000000    21.0210000000
   75      H      30.7210000000    29.1400000000    21.1610000000
   76      H      31.4050000000    28.1180000000    22.3340000000
   77      S      29.0010000000    28.1320000000    22.6470000000
   78      C      29.7380000000    28.7620000000    24.1720000000
   79      H      29.8160000000    29.8510000000    24.1070000000
   80      H      28.9830000000    28.6190000000    24.9480000000
   81      H      30.6270000000    28.1840000000    24.4380000000
   82      O      28.7740000000    26.6560000000    22.7560000000
   83      C      34.9270000000    24.3500000000    32.2100000000
   84      H      35.4710000000    25.2930000000    32.3060000000
   85      H      34.4760000000    24.0530000000    33.1600000000
   86      H      35.6200000000    23.5740000000    31.8750000000
   87      S      33.7580000000    24.6240000000    30.8600000000
   88      C      32.8040000000    23.1280000000    31.1990000000
   89      H      31.9250000000    23.2090000000    30.5550000000
   90      H      33.3610000000    22.2750000000    30.8020000000
   91      H      32.4650000000    22.9330000000    32.2200000000
   92      O      34.5390000000    24.2310000000    29.6450000000
   93      C      28.3040000000    34.2150000000    31.0190000000
   94      H      27.6880000000    35.0750000000    30.7400000000
   95      H      27.7460000000    33.3060000000    30.7800000000
   96      H      28.4770000000    34.1300000000    32.0940000000
   97      S      29.8660000000    34.4210000000    30.1350000000
   98      C      30.7700000000    33.1180000000    31.0010000000
   99      H      30.5300000000    33.1910000000    32.0650000000
  100      H      30.6450000000    32.1470000000    30.5150000000
  101      H      31.8490000000    33.2900000000    31.0370000000
  102      O      30.2950000000    35.6970000000    30.7900000000
  103      C      34.0300000000    35.3780000000    32.1750000000
  104      H      34.7310000000    34.8000000000    31.5660000000
  105      H      33.2520000000    35.8720000000    31.5880000000
  106      H      34.6050000000    36.1490000000    32.6950000000
  107      S      33.3570000000    34.2450000000    33.4120000000
  108      C      32.3590000000    35.4760000000    34.2790000000
  109      H      31.8830000000    34.9870000000    35.1330000000
  110      H      32.9500000000    36.2850000000    34.7150000000
  111      H      31.5990000000    35.9070000000    33.6220000000
  112      O      34.5260000000    34.0540000000    34.3280000000
  113      C      29.4660000000    24.2600000000    31.5900000000
  114      H      30.4840000000    24.4430000000    31.9420000000
  115      H      29.4430000000    23.8690000000    30.5700000000
  116      H      28.7530000000    25.0880000000    31.6300000000
  117      S      28.8750000000    22.8560000000    32.5620000000
  118      C      29.0330000000    23.6380000000    34.1830000000
  119      H      30.1130000000    23.7210000000    34.3260000000
  120      H      28.6640000000    24.6620000000    34.2830000000
  121      H      28.4990000000    23.1480000000    35.0010000000
  122      O      29.9860000000    21.8520000000    32.5970000000
  123      C      25.2630000000    24.8450000000    27.9130000000
  124      H      24.5150000000    24.7450000000    27.1230000000
  125      H      25.5900000000    25.8860000000    27.9730000000
  126      H      26.1490000000    24.2290000000    27.7340000000
  127      S      24.5830000000    24.3500000000    29.5120000000
  128      C      23.3770000000    25.6960000000    29.5460000000
  129      H      22.9470000000    25.6880000000    30.5500000000
  130      H      23.8340000000    26.6290000000    29.2040000000
  131      H      22.6450000000    25.3850000000    28.7970000000
  132      O      25.6610000000    24.5990000000    30.5210000000
  133      C      38.8040000000    27.7000000000    26.2920000000
  134      H      38.2450000000    26.9990000000    25.6660000000
  135      H      39.8650000000    27.4540000000    26.1960000000
  136      H      38.5310000000    27.5200000000    27.3340000000
  137      S      38.3210000000    29.3730000000    25.8090000000
  138      C      39.8790000000    30.1900000000    26.2220000000
  139      H      39.9690000000    31.2620000000    26.0290000000
  140      H      40.2180000000    30.1160000000    27.2580000000
  141      H      40.6540000000    29.8150000000    25.5480000000
  142      O      37.2550000000    29.8770000000    26.7320000000
  143      C      28.0380000000    22.8790000000    25.3790000000
  144      H      28.5130000000    22.0550000000    25.9170000000
  145      H      28.1400000000    23.7570000000    26.0230000000
  146      H      26.9810000000    22.6800000000    25.1860000000
  147      S      28.8760000000    23.1050000000    23.7940000000
  148      C      28.2370000000    21.5890000000    23.0460000000
  149      H      27.1690000000    21.7220000000    22.8530000000
  150      H      28.8600000000    21.3180000000    22.1900000000
  151      H      28.5210000000    20.7540000000    23.6920000000
  152      O      30.3090000000    22.8290000000    24.1300000000
  153      C      31.4800000000    22.7030000000    27.2450000000
  154      H      32.5650000000    22.6470000000    27.1300000000
  155      H      30.9350000000    22.7800000000    26.3010000000
  156      H      31.2500000000    23.6500000000    27.7410000000
  157      S      30.8970000000    21.3720000000    28.3200000000
  158      C      30.9460000000    20.0410000000    27.0990000000
  159      H      30.2610000000    19.2490000000    27.4120000000
  160      H      30.7140000000    20.4680000000    26.1200000000
  161      H      31.9570000000    19.6330000000    27.1740000000
  162      O      29.4710000000    21.7410000000    28.5870000000
  163      C      22.0530000000    36.1080000000    27.8320000000
  164      H      21.3920000000    35.3940000000    28.3290000000
  165      H      22.4930000000    36.9380000000    28.3920000000
  166      H      21.4250000000    36.5410000000    27.0490000000
  167      S      23.3450000000    35.2500000000    26.9060000000
  168      C      24.6040000000    35.1940000000    28.2010000000
  169      H      24.1940000000    34.6890000000    29.0800000000
  170      H      25.4850000000    34.6590000000    27.8360000000
  171      H      24.8160000000    36.2220000000    28.5040000000
  172      O      23.8360000000    36.1640000000    25.8270000000
  173      C      32.9270000000    27.2800000000    32.8120000000
  174      H      32.8080000000    27.8960000000    33.7070000000
  175      H      33.0200000000    26.2260000000    33.0880000000
  176      H      33.7130000000    27.5700000000    32.1110000000
  177      S      31.4640000000    27.5870000000    31.7980000000
  178      C      31.6740000000    29.3790000000    31.6980000000
  179      H      31.5580000000    29.6370000000    30.6430000000
  180      H      30.7610000000    29.8010000000    32.1270000000
  181      H      32.5890000000    29.6400000000    32.2370000000
  182      O      30.3600000000    27.2640000000    32.7560000000
  183      C      35.3460000000    27.9290000000    24.3380000000
  184      H      36.0010000000    28.6180000000    24.8780000000
  185      H      34.6440000000    27.4010000000    24.9890000000
  186      H      36.0320000000    27.2900000000    23.7760000000
  187      S      34.2200000000    28.7520000000    23.1880000000
  188      C      35.4480000000    29.9590000000    22.6410000000
  189      H      35.6740000000    30.5650000000    23.5220000000
  190      H      36.3010000000    29.4160000000    22.2260000000
  191      H      34.9940000000    30.6400000000    21.9170000000
  192      O      33.3350000000    29.4020000000    24.2050000000
  193      C      24.1150000000    29.0820000000    25.5510000000
  194      H      23.8860000000    28.8830000000    24.5010000000
  195      H      23.4880000000    28.5840000000    26.2950000000
  196      H      24.1380000000    30.1470000000    25.7970000000
  197      S      25.8290000000    28.6010000000    25.8620000000
  198      C      25.7820000000    26.9120000000    25.2210000000
  199      H      25.5570000000    26.8820000000    24.1520000000
  200      H      26.8090000000    26.5940000000    25.4190000000
  201      H      25.0120000000    26.3040000000    25.7020000000
  202      O      25.9100000000    28.4740000000    27.3510000000
  203      C      29.6920000000    28.0110000000    36.4600000000
  204      H      29.4590000000    28.1450000000    35.4000000000
  205      H      29.0080000000    27.2780000000    36.8960000000
  206      H      29.7640000000    28.9770000000    36.9660000000
  207      S      31.4020000000    27.4290000000    36.4360000000
  208      C      30.9050000000    25.7960000000    35.8440000000
  209      H      30.6290000000    25.8970000000    34.7910000000
  210      H      31.6970000000    25.0610000000    36.0090000000
  211      H      30.0720000000    25.3900000000    36.4240000000
  212      O      31.7350000000    27.2660000000    37.8860000000
  213      C      34.4270000000    18.1340000000    29.4940000000
  214      H      34.5750000000    18.0780000000    28.4130000000
  215      H      35.3540000000    17.7770000000    29.9480000000
  216      H      33.5030000000    17.6190000000    29.7700000000
  217      S      34.1490000000    19.8840000000    29.8490000000
  218      C      35.6850000000    20.3970000000    29.0480000000
  219      H      35.8720000000    21.4740000000    29.0570000000
  220      H      36.4460000000    19.8270000000    29.5870000000
  221      H      35.6030000000    19.9740000000    28.0430000000
  222      O      34.4480000000    20.0560000000    31.3060000000
  223      C      32.4970000000    25.5140000000    23.5720000000
  224      H      33.3730000000    25.8170000000    24.1500000000
  225      H      31.8440000000    26.3810000000    23.4450000000
  226      H      32.0570000000    24.5830000000    23.9400000000
  227      S      33.0970000000    25.2090000000    21.8950000000
  228      C      34.1060000000    23.7900000000    22.3780000000
  229      H      34.6360000000    23.3610000000    21.5230000000
  230      H      34.9110000000    24.0840000000    23.0560000000
  231      H      33.4550000000    22.9960000000    22.7520000000
  232      O      33.9410000000    26.3850000000    21.5140000000
  233      C      25.5130000000    32.5620000000    32.2420000000
  234      H      25.4230000000    33.1620000000    31.3340000000
  235      H      26.3170000000    33.0020000000    32.8380000000
  236      H      25.6500000000    31.4980000000    32.0320000000
  237      S      24.0130000000    32.8500000000    33.2070000000
  238      C      24.5840000000    31.9050000000    34.6370000000
  239      H      24.1670000000    32.3250000000    35.5560000000
  240      H      24.1710000000    30.8980000000    34.5420000000
  241      H      25.6760000000    31.9340000000    34.5920000000
  242      O      23.0470000000    31.9860000000    32.4570000000
  243      C      37.9920000000    22.8800000000    26.2730000000
  244      H      39.0310000000    23.1850000000    26.4180000000
  245      H      37.7480000000    22.4110000000    27.2290000000
  246      H      37.7610000000    22.3390000000    25.3510000000
  247      S      37.0230000000    24.3920000000    26.0740000000
  248      C      35.4280000000    23.5760000000    26.3140000000
  249      H      35.3770000000    22.7040000000    25.6560000000
  250      H      35.3730000000    23.3390000000    27.3790000000
  251      H      34.7200000000    24.3330000000    25.9690000000
  252      O      37.0470000000    24.6890000000    24.6070000000
  253      C      32.3180000000    36.1900000000    27.7100000000
  254      H      31.8150000000    36.2490000000    28.6780000000
  255      H      32.8550000000    35.2400000000    27.6470000000
  256      H      32.9860000000    37.0290000000    27.4990000000
  257      S      31.0670000000    35.8730000000    26.4450000000
  258      C      32.1730000000    35.9480000000    25.0180000000
  259      H      31.5290000000    36.0040000000    24.1360000000
  260      H      32.9440000000    36.7210000000    25.0710000000
  261      H      32.7450000000    35.0170000000    25.0260000000
  262      O      30.3620000000    37.1900000000    26.3430000000
  263      C      24.2620000000    31.6640000000    28.3040000000
  264      H      23.8670000000    32.2330000000    27.4590000000
  265      H      24.7850000000    32.3650000000    28.9600000000
  266      H      24.9600000000    30.9040000000    27.9440000000
  267      S      23.0660000000    30.8750000000    29.4050000000
  268      C      24.2470000000    29.5880000000    29.8670000000
  269      H      24.3330000000    28.9110000000    29.0130000000
  270      H      25.2050000000    30.0670000000    30.0860000000
  271      H      23.8230000000    29.0620000000    30.7260000000
  272      O      22.0330000000    30.1490000000    28.6010000000
  273      C      27.6040000000    34.5710000000    26.3930000000
  274      H      28.3040000000    34.6510000000    25.5580000000
  275      H      26.5700000000    34.5420000000    26.0410000000
  276      H      27.7370000000    35.4220000000    27.0670000000
  277      S      28.0490000000    33.0380000000    27.2390000000
  278      C      27.7380000000    31.8330000000    25.9290000000
  279      H      28.1870000000    30.8750000000    26.2010000000
  280      H      26.6640000000    31.6550000000    25.8280000000
  281      H      28.2280000000    32.2550000000    25.0480000000
  282      O      26.9300000000    32.7640000000    28.1950000000
  283      C      27.2680000000    19.4140000000    25.8000000000
  284      H      26.6140000000    20.2340000000    26.1080000000
  285      H      28.3500000000    19.5540000000    25.8620000000
  286      H      27.2720000000    19.0930000000    24.7550000000
  287      S      26.9790000000    18.0700000000    26.9720000000
  288      C      27.0050000000    19.1510000000    28.4200000000
  289      H      26.1670000000    19.8380000000    28.2790000000
  290      H      26.9210000000    18.4290000000    29.2370000000
  291      H      27.8980000000    19.7470000000    28.6230000000
  292      O      28.3560000000    17.4860000000    26.9080000000
  293      C      31.4250000000    31.8830000000    34.5590000000
  294      H      31.5130000000    30.8250000000    34.3000000000
  295      H      31.4710000000    32.4760000000    33.6420000000
  296      H      32.1980000000    32.1410000000    35.2870000000
  297      S      29.7660000000    32.0920000000    35.2440000000
  298      C      29.1120000000    31.1990000000    33.8150000000
  299      H      28.0340000000    31.3200000000    33.6860000000
  300      H      29.4760000000    31.5990000000    32.8650000000
  301      H      29.3420000000    30.1370000000    33.9290000000
  302      O      29.4440000000    33.5260000000    34.9600000000
  303      C      34.9610000000    27.4280000000    28.6550000000
  304      H      34.4570000000    28.3760000000    28.4500000000
  305      H      35.2370000000    26.8590000000    27.7640000000
  306      H      34.5020000000    26.7000000000    29.3290000000
  307      S      36.4800000000    27.9190000000    29.5030000000
  308      C      37.1460000000    26.2740000000    29.8450000000
  309      H      36.3050000000    25.7000000000    30.2420000000
  310      H      37.5240000000    25.8410000000    28.9150000000
  311      H      37.8500000000    26.4750000000    30.6560000000
  312      O      35.8830000000    28.2490000000    30.8350000000
 ----------------------------------------------------------------
 Nuclear Repulsion Energy =       54447.51749208 hartrees
 There are      644 alpha and      644 beta electrons
 Requested basis set is 6-31+G(d)
 There are 1028 shells and 2865 basis functions

 Total QAlloc Memory Limit  16000 MB
 Mega-Array Size      7821 MB
 MEM_STATIC part      8000 MB
 A cutoff of  1.0D-14 yielded 199494 shell pairs
 There are   1727852 function pairs
 Smallest overlap matrix eigenvalue = 4.05E-07
 Linear dependence detected in AO basis
 Tighter screening thresholds may be required for diffuse basis sets
 Use S2THRESH > 14 and THRESH = 14 in case of SCF convergence issues
 Number of orthogonalized atomic orbitals = 2862
 Maximum deviation from orthogonality = 2.477E-10

 Scale SEOQF with 1.000000e-03/1.000000e-03/1.000000e-03

 Standard Electronic Orientation quadrupole field applied
 Nucleus-field energy     =     0.0000000659 hartrees
Attempting to make child job directory: /local/scratch/users/ymao/r7.00_frame_0080_almo_B3LYP_dp.in20210311133741//Frg1/
Attempting to make child job directory: /local/scratch/users/ymao/r7.00_frame_0080_almo_B3LYP_dp.in20210311133741//Frg2/
Creating input file /local/scratch/users/ymao/r7.00_frame_0080_almo_B3LYP_dp.in20210311133741/Frg1.input
using default PutDataFrgm: nothing
calling putenv with: QCSCRATCH=/local/scratch/users/ymao/r7.00_frame_0080_almo_B3LYP_dp.in20210311133741/ 
Spawning Job For Fragment 0
Done Job For Fragment 0
calling putenv with: QCSCRATCH=/local/scratch/users/ymao 
calling putenv with: QCTHREADS=8 
Creating input file /local/scratch/users/ymao/r7.00_frame_0080_almo_B3LYP_dp.in20210311133741/Frg2.input
using default PutDataFrgm: nothing
calling putenv with: QCSCRATCH=/local/scratch/users/ymao/r7.00_frame_0080_almo_B3LYP_dp.in20210311133741/ 
Spawning Job For Fragment 1
Done Job For Fragment 1
calling putenv with: QCSCRATCH=/local/scratch/users/ymao 
calling putenv with: QCTHREADS=8 
 Time for running child jobs:  CPU 1.01 s  wall 26427.54 s

 -----------------------------------------------------------------------
  General SCF calculation program by
  Eric Jon Sundstrom, Paul Horn, Yuezhi Mao, Dmitri Zuev, Alec White,
  David Stuck, Shaama M.S., Shane Yost, Joonho Lee, David Small,
  Daniel Levine, Susi Lehtola, Hugh Burton, Evgeny Epifanovsky,
  Bang C. Huynh
 -----------------------------------------------------------------------
Performing Restricted Closed Shell SCFMI
Doing General SCFMI
 Exchange:     0.2000 Hartree-Fock + 0.0800 Slater + 0.7200 B88
 Correlation:  0.1900 VWN1RPA + 0.8100 LYP
 Using Euler-Maclaurin-Lebedev (75,302) quadrature formula
performing fock build before subrot guess so that all methods have access
Printing subrot_rss_gen Method Specification:
Occupied Subspace Method is 0
Virtual Subspace Method is 0
Energy prior to optimization (guess energy) = -16447.092116878528
Begin Timing: Total SCF Calculation
begin iterations for algorithm: DIIS         
the SCF tolerance is set to 1.00e-08
    1  -16447.0921168785      3.90e-05     00000 
    2  -16447.0941097716      5.34e-05     00000 
    3  -16447.1020225181      1.76e-05     00000 
    4  -16447.1029067114      6.23e-06     00000 
    5  -16447.1030493003      3.14e-06     00000 
    6  -16447.1030847119      2.04e-06     00000 
    7  -16447.1030985956      1.43e-06     00000 
    8  -16447.1031058314      7.71e-07     00000 
    9  -16447.1031075694      5.21e-07     00000 
   10  -16447.1031081881      3.91e-07     00000 
   11  -16447.1031085686      2.52e-07     00000 
   12  -16447.1031087543      1.58e-07     00000 
   13  -16447.1031088375      9.40e-08     00000 
   14  -16447.1031088653      6.39e-08     00000 
   15  -16447.1031088759      4.61e-08     00000 
   16  -16447.1031088819      2.35e-08     00000 
   17  -16447.1031088842      1.30e-08     00000 
   18  -16447.1031088846      8.76e-09     00000 Convergence criterion met
write pseudocanon occs and virts to disk
write pseudocanon orbital energies to disk
Timing for Total SCF: 69456.00s (wall), 550801.95s (cpu)
SCFMI Energy  -16447.1031088846
<S^2>            0.00000
 Total energy in the final basis set =   -16447.1031088846
    ==================================================
        The end of Object-Oriented SCFman: SCFMI      
    ==================================================
 
 --------------------------------------------------------------
 
                    Orbital Energies (a.u.)
 --------------------------------------------------------------
 
 Alpha MOs
 -- Occupied --
-89.0303 -89.0298 -89.0247 -89.0232 -89.0221 -89.0181 -89.0177 -89.0172
-89.0158 -89.0135 -89.0109 -89.0099 -89.0089 -89.0066 -89.0061 -89.0050
-89.0040 -88.9999 -88.9995 -88.9922 -88.9915 -88.9856 -88.9850 -88.9843
-88.9840 -88.9794 -88.9783 -88.9778 -88.9761 -19.1503 -19.1495 -19.1456
-19.1416 -19.1406 -19.1380 -19.1351 -19.1345 -19.1343 -19.1318 -19.1303
-19.1301 -19.1288 -19.1260 -19.1258 -19.1235 -19.1223 -19.1217 -19.1192
-19.1191 -19.1068 -19.1028 -19.0997 -19.0983 -19.0982 -19.0960 -19.0959
-19.0955 -19.0951 -19.0903 -14.3628 -10.2891 -10.2527 -10.2484 -10.2467
-10.2460 -10.2459 -10.2441 -10.2430 -10.2427 -10.2412 -10.2404 -10.2395
-10.2381 -10.2371 -10.2358 -10.2357 -10.2350 -10.2347 -10.2318 -10.2315
-10.2310 -10.2301 -10.2289 -10.2286 -10.2274 -10.2271 -10.2270 -10.2251
-10.2242 -10.2236 -10.2224 -10.2200 -10.2196 -10.2195 -10.2190 -10.2165
-10.2153 -10.2145 -10.2143 -10.2137 -10.2126 -10.2121 -10.2066 -10.2061
-10.2053 -10.2046 -10.2036 -10.2013 -10.1996 -10.1995 -10.1994 -10.1993
-10.1987 -10.1978 -10.1972 -10.1963 -10.1958 -10.1957 -10.1950 -10.1935
-10.1931 -10.1920 -10.1918 -10.1836 -10.1804  -8.0767  -8.0761  -8.0706
 -8.0683  -8.0683  -8.0643  -8.0635  -8.0633  -8.0615  -8.0595  -8.0578
 -8.0556  -8.0552  -8.0534  -8.0518  -8.0510  -8.0494  -8.0461  -8.0460
 -8.0377  -8.0373  -8.0311  -8.0308  -8.0308  -8.0300  -8.0252  -8.0243
 -8.0240  -8.0220  -6.0410  -6.0405  -6.0397  -6.0393  -6.0351  -6.0343
 -6.0337  -6.0334  -6.0327  -6.0327  -6.0317  -6.0315  -6.0287  -6.0278
 -6.0277  -6.0275  -6.0272  -6.0266  -6.0264  -6.0260  -6.0255  -6.0253
 -6.0246  -6.0239  -6.0226  -6.0219  -6.0218  -6.0209  -6.0208  -6.0208
 -6.0202  -6.0197  -6.0189  -6.0187  -6.0182  -6.0176  -6.0168  -6.0164
 -6.0163  -6.0155  -6.0153  -6.0150  -6.0141  -6.0138  -6.0127  -6.0124
 -6.0124  -6.0107  -6.0106  -6.0105  -6.0093  -6.0089  -6.0089  -6.0083
 -6.0070  -6.0034  -6.0032  -6.0020  -6.0017  -6.0009  -6.0004  -5.9954
 -5.9953  -5.9951  -5.9950  -5.9949  -5.9942  -5.9941  -5.9940  -5.9939
 -5.9930  -5.9896  -5.9887  -5.9886  -5.9884  -5.9881  -5.9881  -5.9881
 -5.9877  -5.9877  -5.9871  -5.9865  -5.9850  -5.9829  -5.9815  -5.9811
 -5.9790  -1.0607  -1.0578  -1.0530  -1.0513  -1.0499  -1.0476  -1.0446
 -1.0439  -1.0436  -1.0403  -1.0398  -1.0383  -1.0380  -1.0373  -1.0339
 -1.0334  -1.0329  -1.0312  -1.0303  -1.0257  -1.0174  -1.0100  -1.0087
 -1.0084  -1.0072  -1.0040  -1.0039  -1.0037  -1.0028  -0.9998  -0.9278
 -0.8390  -0.8369  -0.8322  -0.8293  -0.8272  -0.8246  -0.8243  -0.8222
 -0.8204  -0.8197  -0.8159  -0.8145  -0.8140  -0.8111  -0.8111  -0.8104
 -0.8091  -0.8080  -0.8065  -0.8057  -0.7955  -0.7917  -0.7906  -0.7901
 -0.7898  -0.7872  -0.7841  -0.7835  -0.7761  -0.7725  -0.7618  -0.7611
 -0.7607  -0.7604  -0.7585  -0.7550  -0.7489  -0.7470  -0.7470  -0.7450
 -0.7426  -0.7420  -0.7408  -0.7406  -0.7398  -0.7386  -0.7359  -0.7351
 -0.7328  -0.7296  -0.7233  -0.7217  -0.7200  -0.7163  -0.7152  -0.7135
 -0.7096  -0.7092  -0.7063  -0.7018  -0.6953  -0.6528  -0.6414  -0.6406
 -0.6404  -0.6382  -0.6368  -0.6313  -0.6306  -0.6300  -0.6280  -0.6277
 -0.6268  -0.6257  -0.6243  -0.6228  -0.6192  -0.6178  -0.6176  -0.6127
 -0.6113  -0.6108  -0.6060  -0.6026  -0.6026  -0.6021  -0.5965  -0.5962
 -0.5951  -0.5943  -0.5927  -0.5910  -0.5883  -0.5769  -0.5363  -0.5232
 -0.5108  -0.5096  -0.5080  -0.5073  -0.5051  -0.5045  -0.5034  -0.5031
 -0.5020  -0.5005  -0.4998  -0.4990  -0.4989  -0.4979  -0.4969  -0.4958
 -0.4934  -0.4933  -0.4927  -0.4924  -0.4917  -0.4908  -0.4901  -0.4894
 -0.4891  -0.4887  -0.4886  -0.4880  -0.4876  -0.4871  -0.4868  -0.4859
 -0.4852  -0.4848  -0.4842  -0.4831  -0.4824  -0.4816  -0.4813  -0.4806
 -0.4791  -0.4787  -0.4781  -0.4774  -0.4763  -0.4759  -0.4753  -0.4750
 -0.4739  -0.4732  -0.4729  -0.4721  -0.4714  -0.4701  -0.4699  -0.4693
 -0.4691  -0.4685  -0.4681  -0.4670  -0.4662  -0.4654  -0.4644  -0.4640
 -0.4634  -0.4632  -0.4624  -0.4617  -0.4615  -0.4614  -0.4611  -0.4601
 -0.4587  -0.4573  -0.4569  -0.4555  -0.4548  -0.4538  -0.4535  -0.4532
 -0.4521  -0.4511  -0.4505  -0.4493  -0.4490  -0.4485  -0.4485  -0.4479
 -0.4469  -0.4463  -0.4459  -0.4449  -0.4447  -0.4441  -0.4440  -0.4437
 -0.4429  -0.4428  -0.4426  -0.4417  -0.4405  -0.4399  -0.4394  -0.4392
 -0.4388  -0.4383  -0.4368  -0.4361  -0.4360  -0.4352  -0.4349  -0.4340
 -0.4331  -0.4315  -0.4309  -0.4301  -0.4298  -0.4284  -0.4279  -0.4263
 -0.4257  -0.4251  -0.4249  -0.4243  -0.4241  -0.4228  -0.4222  -0.4218
 -0.4217  -0.4207  -0.4203  -0.4195  -0.4193  -0.4186  -0.4184  -0.4171
 -0.4160  -0.4157  -0.4143  -0.4135  -0.4133  -0.4125  -0.4124  -0.4119
 -0.4108  -0.4105  -0.4101  -0.4093  -0.4078  -0.4075  -0.4060  -0.4055
 -0.4035  -0.4024  -0.4009  -0.4004  -0.3994  -0.3989  -0.3986  -0.3977
 -0.3970  -0.3967  -0.3966  -0.3960  -0.3958  -0.3953  -0.3948  -0.3930
 -0.3925  -0.3912  -0.3909  -0.3905  -0.3899  -0.3891  -0.3879  -0.3877
 -0.3869  -0.3865  -0.3861  -0.3857  -0.3854  -0.3849  -0.3833  -0.3819
 -0.3800  -0.3792  -0.3783  -0.3761  -0.3745  -0.3743  -0.3732  -0.3726
 -0.3721  -0.3711  -0.3693  -0.3683  -0.3672  -0.3669  -0.3665  -0.3652
 -0.3650  -0.3631  -0.3542  -0.3536  -0.3530  -0.3498  -0.3492  -0.3477
 -0.3472  -0.3426  -0.3418  -0.3406  -0.3347  -0.3327  -0.3287  -0.3210
 -0.3091  -0.3082  -0.3068  -0.3039  -0.2995  -0.2995  -0.2986  -0.2960
 -0.2951  -0.2947  -0.2928  -0.2922  -0.2884  -0.2881  -0.2831  -0.2830
 -0.2826  -0.2800  -0.2771  -0.2767  -0.2754  -0.2700  -0.2696  -0.2684
 -0.2670  -0.2643  -0.2642  -0.2610  -0.2609  -0.2600  -0.2595  -0.2589
 -0.2586  -0.2571  -0.2566  -0.2560  -0.2549  -0.2543  -0.2538  -0.2533
 -0.2522  -0.2516  -0.2488  -0.2486  -0.2481  -0.2469  -0.2437  -0.2431
 -0.2422  -0.2384  -0.2334  -0.2291  -0.2274  -0.2264  -0.2260  -0.2231
 -0.2211  -0.2176  -0.2163  -0.2120
 -- Virtual --
 -0.0393  -0.0388  -0.0359  -0.0345  -0.0277  -0.0259  -0.0239  -0.0226
 -0.0221  -0.0202  -0.0195  -0.0181  -0.0172  -0.0162  -0.0157  -0.0144
 -0.0134  -0.0119  -0.0113  -0.0099  -0.0097  -0.0091  -0.0079  -0.0076
 -0.0062  -0.0059  -0.0050  -0.0045  -0.0042  -0.0033  -0.0029  -0.0020
 -0.0019  -0.0016  -0.0004  -0.0003   0.0003   0.0019   0.0025   0.0030
  0.0041   0.0048   0.0059   0.0064   0.0066   0.0074   0.0082   0.0092
  0.0098   0.0103   0.0104   0.0115   0.0120   0.0122   0.0131   0.0138
  0.0141   0.0153   0.0157   0.0162   0.0177   0.0183   0.0185   0.0189
  0.0202   0.0202   0.0210   0.0215   0.0224   0.0230   0.0236   0.0244
  0.0249   0.0258   0.0259   0.0278   0.0283   0.0290   0.0299   0.0305
  0.0311   0.0321   0.0325   0.0327   0.0334   0.0337   0.0351   0.0358
  0.0361   0.0364   0.0371   0.0374   0.0385   0.0389   0.0392   0.0395
  0.0397   0.0403   0.0410   0.0412   0.0414   0.0416   0.0425   0.0430
  0.0436   0.0446   0.0448   0.0452   0.0459   0.0465   0.0472   0.0477
  0.0483   0.0490   0.0497   0.0500   0.0510   0.0516   0.0520   0.0524
  0.0528   0.0543   0.0545   0.0559   0.0560   0.0564   0.0573   0.0575
  0.0578   0.0584   0.0597   0.0603   0.0606   0.0609   0.0612   0.0617
  0.0623   0.0628   0.0630   0.0640   0.0647   0.0655   0.0661   0.0663
  0.0669   0.0682   0.0684   0.0695   0.0701   0.0709   0.0715   0.0717
  0.0724   0.0731   0.0736   0.0746   0.0749   0.0754   0.0763   0.0770
  0.0779   0.0783   0.0787   0.0796   0.0801   0.0810   0.0815   0.0817
  0.0828   0.0834   0.0841   0.0846   0.0853   0.0859   0.0862   0.0870
  0.0877   0.0879   0.0885   0.0892   0.0903   0.0911   0.0922   0.0924
  0.0929   0.0931   0.0937   0.0940   0.0946   0.0954   0.0958   0.0960
  0.0968   0.0978   0.0982   0.0986   0.0993   0.1001   0.1007   0.1011
  0.1016   0.1018   0.1022   0.1034   0.1038   0.1050   0.1056   0.1056
  0.1065   0.1072   0.1077   0.1083   0.1085   0.1096   0.1101   0.1102
  0.1117   0.1125   0.1128   0.1131   0.1139   0.1145   0.1148   0.1153
  0.1158   0.1160   0.1162   0.1169   0.1177   0.1182   0.1186   0.1189
  0.1192   0.1196   0.1203   0.1209   0.1214   0.1220   0.1231   0.1231
  0.1235   0.1242   0.1248   0.1253   0.1262   0.1265   0.1270   0.1276
  0.1284   0.1288   0.1294   0.1304   0.1310   0.1313   0.1325   0.1325
  0.1332   0.1337   0.1345   0.1349   0.1362   0.1364   0.1368   0.1374
  0.1378   0.1386   0.1394   0.1399   0.1404   0.1408   0.1415   0.1417
  0.1430   0.1433   0.1443   0.1454   0.1455   0.1458   0.1464   0.1471
  0.1475   0.1476   0.1481   0.1490   0.1494   0.1498   0.1508   0.1514
  0.1516   0.1517   0.1527   0.1531   0.1539   0.1545   0.1550   0.1560
  0.1562   0.1569   0.1573   0.1576   0.1581   0.1589   0.1594   0.1605
  0.1607   0.1611   0.1613   0.1620   0.1628   0.1638   0.1640   0.1652
  0.1653   0.1660   0.1663   0.1668   0.1674   0.1677   0.1685   0.1689
  0.1702   0.1706   0.1707   0.1710   0.1717   0.1722   0.1730   0.1736
  0.1739   0.1743   0.1750   0.1752   0.1764   0.1775   0.1786   0.1788
  0.1793   0.1799   0.1803   0.1810   0.1816   0.1821   0.1824   0.1828
  0.1836   0.1839   0.1845   0.1853   0.1854   0.1861   0.1867   0.1871
  0.1877   0.1878   0.1886   0.1895   0.1900   0.1904   0.1905   0.1912
  0.1920   0.1922   0.1925   0.1929   0.1936   0.1948   0.1953   0.1959
  0.1964   0.1968   0.1973   0.1974   0.1986   0.1997   0.2002   0.2006
  0.2014   0.2018   0.2022   0.2029   0.2036   0.2040   0.2046   0.2050
  0.2061   0.2063   0.2067   0.2077   0.2080   0.2085   0.2099   0.2105
  0.2108   0.2110   0.2117   0.2121   0.2129   0.2135   0.2142   0.2148
  0.2160   0.2166   0.2167   0.2173   0.2180   0.2193   0.2195   0.2202
  0.2211   0.2217   0.2223   0.2226   0.2234   0.2240   0.2246   0.2254
  0.2259   0.2261   0.2274   0.2283   0.2287   0.2296   0.2302   0.2306
  0.2311   0.2319   0.2327   0.2331   0.2336   0.2341   0.2347   0.2357
  0.2363   0.2367   0.2376   0.2379   0.2387   0.2391   0.2396   0.2403
  0.2410   0.2412   0.2421   0.2425   0.2427   0.2434   0.2443   0.2450
  0.2455   0.2461   0.2468   0.2471   0.2478   0.2488   0.2491   0.2494
  0.2509   0.2512   0.2518   0.2522   0.2540   0.2545   0.2552   0.2555
  0.2564   0.2578   0.2581   0.2589   0.2597   0.2603   0.2605   0.2608
  0.2618   0.2623   0.2624   0.2640   0.2644   0.2651   0.2662   0.2666
  0.2671   0.2677   0.2678   0.2690   0.2700   0.2713   0.2717   0.2723
  0.2732   0.2736   0.2739   0.2753   0.2757   0.2759   0.2767   0.2773
  0.2777   0.2791   0.2799   0.2806   0.2817   0.2819   0.2827   0.2840
  0.2843   0.2852   0.2865   0.2868   0.2878   0.2886   0.2890   0.2894
  0.2904   0.2911   0.2918   0.2920   0.2930   0.2931   0.2941   0.2948
  0.2957   0.2972   0.2979   0.2984   0.2991   0.2998   0.3001   0.3010
  0.3019   0.3026   0.3038   0.3039   0.3043   0.3055   0.3059   0.3070
  0.3079   0.3084   0.3088   0.3103   0.3110   0.3117   0.3122   0.3133
  0.3138   0.3148   0.3156   0.3162   0.3178   0.3183   0.3185   0.3197
  0.3205   0.3212   0.3217   0.3230   0.3235   0.3240   0.3248   0.3263
  0.3266   0.3286   0.3287   0.3291   0.3301   0.3306   0.3310   0.3330
  0.3332   0.3336   0.3347   0.3350   0.3357   0.3362   0.3368   0.3385
  0.3391   0.3401   0.3410   0.3412   0.3413   0.3433   0.3445   0.3452
  0.3454   0.3458   0.3461   0.3476   0.3486   0.3494   0.3500   0.3508
  0.3521   0.3525   0.3532   0.3534   0.3540   0.3555   0.3563   0.3565
  0.3572   0.3583   0.3595   0.3602   0.3611   0.3615   0.3626   0.3628
  0.3640   0.3642   0.3659   0.3671   0.3677   0.3686   0.3690   0.3701
  0.3702   0.3711   0.3716   0.3724   0.3729   0.3745   0.3748   0.3766
  0.3770   0.3772   0.3773   0.3782   0.3791   0.3803   0.3813   0.3819
  0.3827   0.3841   0.3845   0.3855   0.3859   0.3869   0.3882   0.3886
  0.3889   0.3897   0.3901   0.3919   0.3920   0.3924   0.3935   0.3951
  0.3961   0.3963   0.3977   0.3987   0.3992   0.3996   0.4003   0.4011
  0.4016   0.4029   0.4039   0.4053   0.4058   0.4069   0.4073   0.4089
  0.4090   0.4097   0.4103   0.4116   0.4125   0.4142   0.4148   0.4149
  0.4167   0.4175   0.4182   0.4191   0.4200   0.4206   0.4223   0.4239
  0.4245   0.4257   0.4261   0.4267   0.4273   0.4283   0.4297   0.4303
  0.4312   0.4320   0.4327   0.4336   0.4342   0.4345   0.4365   0.4375
  0.4385   0.4390   0.4403   0.4407   0.4420   0.4430   0.4445   0.4452
  0.4456   0.4478   0.4490   0.4503   0.4508   0.4521   0.4527   0.4533
  0.4547   0.4557   0.4575   0.4583   0.4597   0.4598   0.4606   0.4627
  0.4634   0.4654   0.4659   0.4677   0.4702   0.4710   0.4722   0.4731
  0.4736   0.4749   0.4761   0.4766   0.4783   0.4805   0.4829   0.4834
  0.4849   0.4861   0.4877   0.4882   0.4900   0.4914   0.4927   0.4939
  0.4955   0.4974   0.4981   0.4994   0.5004   0.5014   0.5031   0.5040
  0.5052   0.5069   0.5076   0.5110   0.5119   0.5128   0.5131   0.5153
  0.5155   0.5175   0.5197   0.5204   0.5214   0.5222   0.5237   0.5274
  0.5283   0.5287   0.5304   0.5319   0.5345   0.5347   0.5362   0.5366
  0.5371   0.5392   0.5405   0.5424   0.5446   0.5463   0.5471   0.5486
  0.5497   0.5501   0.5519   0.5524   0.5561   0.5564   0.5582   0.5590
  0.5600   0.5617   0.5628   0.5650   0.5663   0.5683   0.5701   0.5704
  0.5716   0.5723   0.5739   0.5760   0.5770   0.5778   0.5791   0.5803
  0.5806   0.5830   0.5859   0.5862   0.5883   0.5885   0.5895   0.5897
  0.5911   0.5941   0.5952   0.5958   0.5959   0.5973   0.5998   0.6005
  0.6018   0.6023   0.6037   0.6046   0.6075   0.6084   0.6091   0.6102
  0.6118   0.6130   0.6137   0.6156   0.6163   0.6169   0.6180   0.6188
  0.6197   0.6213   0.6219   0.6230   0.6249   0.6256   0.6266   0.6284
  0.6296   0.6300   0.6310   0.6321   0.6325   0.6340   0.6353   0.6373
  0.6378   0.6387   0.6412   0.6417   0.6435   0.6442   0.6458   0.6471
  0.6478   0.6497   0.6504   0.6514   0.6522   0.6530   0.6546   0.6550
  0.6563   0.6573   0.6583   0.6587   0.6607   0.6615   0.6633   0.6647
  0.6659   0.6664   0.6674   0.6681   0.6684   0.6706   0.6709   0.6720
  0.6727   0.6733   0.6763   0.6769   0.6775   0.6786   0.6790   0.6803
  0.6805   0.6810   0.6817   0.6827   0.6841   0.6871   0.6886   0.6892
  0.6898   0.6903   0.6916   0.6930   0.6940   0.6956   0.6964   0.6974
  0.6996   0.7006   0.7016   0.7020   0.7024   0.7039   0.7041   0.7055
  0.7063   0.7074   0.7086   0.7092   0.7111   0.7128   0.7140   0.7158
  0.7177   0.7178   0.7192   0.7204   0.7213   0.7221   0.7231   0.7248
  0.7259   0.7267   0.7288   0.7301   0.7312   0.7321   0.7333   0.7339
  0.7340   0.7367   0.7371   0.7380   0.7406   0.7411   0.7431   0.7457
  0.7464   0.7484   0.7491   0.7509   0.7527   0.7530   0.7553   0.7562
  0.7583   0.7594   0.7621   0.7628   0.7641   0.7657   0.7660   0.7671
  0.7688   0.7700   0.7713   0.7722   0.7736   0.7743   0.7760   0.7778
  0.7791   0.7807   0.7829   0.7830   0.7847   0.7856   0.7868   0.7888
  0.7896   0.7915   0.7919   0.7948   0.7970   0.7972   0.7975   0.7998
  0.8008   0.8029   0.8032   0.8043   0.8052   0.8070   0.8082   0.8098
  0.8106   0.8112   0.8117   0.8140   0.8151   0.8169   0.8181   0.8203
  0.8211   0.8241   0.8249   0.8258   0.8266   0.8274   0.8295   0.8299
  0.8308   0.8316   0.8335   0.8360   0.8376   0.8378   0.8398   0.8409
  0.8416   0.8429   0.8440   0.8447   0.8457   0.8483   0.8494   0.8502
  0.8514   0.8531   0.8540   0.8548   0.8560   0.8581   0.8596   0.8606
  0.8619   0.8638   0.8645   0.8650   0.8667   0.8675   0.8683   0.8697
  0.8701   0.8722   0.8731   0.8754   0.8759   0.8766   0.8779   0.8784
  0.8804   0.8810   0.8820   0.8843   0.8848   0.8861   0.8869   0.8881
  0.8889   0.8898   0.8906   0.8918   0.8921   0.8936   0.8944   0.8956
  0.8965   0.8971   0.8985   0.9006   0.9016   0.9030   0.9038   0.9040
  0.9050   0.9066   0.9088   0.9097   0.9108   0.9119   0.9130   0.9148
  0.9150   0.9172   0.9178   0.9185   0.9199   0.9207   0.9211   0.9231
  0.9244   0.9248   0.9263   0.9271   0.9285   0.9297   0.9300   0.9319
  0.9325   0.9329   0.9344   0.9354   0.9369   0.9371   0.9393   0.9395
  0.9405   0.9419   0.9435   0.9440   0.9453   0.9466   0.9477   0.9499
  0.9509   0.9517   0.9529   0.9541   0.9544   0.9553   0.9562   0.9572
  0.9594   0.9604   0.9612   0.9617   0.9625   0.9631   0.9649   0.9662
  0.9664   0.9673   0.9690   0.9697   0.9716   0.9723   0.9738   0.9748
  0.9756   0.9769   0.9774   0.9781   0.9786   0.9813   0.9820   0.9831
  0.9838   0.9848   0.9866   0.9874   0.9878   0.9896   0.9899   0.9904
  0.9917   0.9928   0.9932   0.9949   0.9959   0.9963   0.9979   1.0005
  1.0006   1.0019   1.0027   1.0041   1.0047   1.0059   1.0067   1.0076
  1.0079   1.0093   1.0114   1.0119   1.0126   1.0133   1.0147   1.0155
  1.0156   1.0160   1.0184   1.0195   1.0206   1.0212   1.0222   1.0241
  1.0263   1.0275   1.0289   1.0304   1.0307   1.0318   1.0334   1.0338
  1.0357   1.0372   1.0381   1.0391   1.0397   1.0414   1.0419   1.0434
  1.0438   1.0462   1.0469   1.0494   1.0499   1.0504   1.0516   1.0528
  1.0537   1.0554   1.0564   1.0574   1.0587   1.0590   1.0609   1.0620
  1.0624   1.0634   1.0646   1.0657   1.0668   1.0679   1.0688   1.0701
  1.0705   1.0743   1.0750   1.0755   1.0769   1.0772   1.0789   1.0807
  1.0840   1.0852   1.0862   1.0867   1.0876   1.0878   1.0895   1.0919
  1.0929   1.0938   1.0950   1.0962   1.0984   1.1004   1.1008   1.1017
  1.1026   1.1038   1.1050   1.1056   1.1075   1.1090   1.1101   1.1108
  1.1131   1.1142   1.1149   1.1164   1.1173   1.1179   1.1197   1.1210
  1.1214   1.1230   1.1249   1.1263   1.1275   1.1287   1.1310   1.1318
  1.1322   1.1330   1.1348   1.1359   1.1366   1.1374   1.1393   1.1403
  1.1406   1.1409   1.1423   1.1439   1.1455   1.1469   1.1481   1.1498
  1.1512   1.1519   1.1523   1.1539   1.1554   1.1557   1.1569   1.1581
  1.1588   1.1605   1.1610   1.1617   1.1635   1.1652   1.1658   1.1679
  1.1692   1.1714   1.1729   1.1737   1.1761   1.1765   1.1771   1.1792
  1.1800   1.1809   1.1825   1.1837   1.1865   1.1868   1.1889   1.1897
  1.1919   1.1928   1.1945   1.1962   1.1979   1.1980   1.2001   1.2021
  1.2044   1.2061   1.2071   1.2080   1.2100   1.2110   1.2126   1.2138
  1.2150   1.2156   1.2183   1.2189   1.2215   1.2254   1.2259   1.2275
  1.2280   1.2289   1.2319   1.2333   1.2370   1.2374   1.2401   1.2420
  1.2436   1.2447   1.2475   1.2488   1.2517   1.2527   1.2536   1.2553
  1.2570   1.2575   1.2602   1.2619   1.2641   1.2653   1.2662   1.2688
  1.2718   1.2734   1.2744   1.2765   1.2772   1.2793   1.2818   1.2847
  1.2865   1.2894   1.2904   1.2920   1.2943   1.2967   1.2983   1.2993
  1.3005   1.3058   1.3074   1.3090   1.3104   1.3127   1.3143   1.3157
  1.3170   1.3208   1.3225   1.3239   1.3259   1.3277   1.3291   1.3304
  1.3336   1.3352   1.3359   1.3368   1.3417   1.3427   1.3455   1.3469
  1.3487   1.3496   1.3505   1.3520   1.3529   1.3557   1.3575   1.3587
  1.3608   1.3611   1.3625   1.3630   1.3635   1.3648   1.3666   1.3686
  1.3710   1.3719   1.3729   1.3750   1.3768   1.3777   1.3792   1.3801
  1.3819   1.3836   1.3851   1.3862   1.3870   1.3886   1.3907   1.3915
  1.3932   1.3947   1.3952   1.3957   1.3959   1.3979   1.3990   1.4006
  1.4025   1.4045   1.4057   1.4064   1.4087   1.4094   1.4106   1.4123
  1.4134   1.4138   1.4156   1.4169   1.4178   1.4190   1.4199   1.4222
  1.4240   1.4260   1.4278   1.4282   1.4285   1.4316   1.4325   1.4331
  1.4335   1.4356   1.4367   1.4373   1.4386   1.4404   1.4423   1.4440
  1.4451   1.4470   1.4481   1.4495   1.4508   1.4522   1.4530   1.4559
  1.4562   1.4578   1.4588   1.4606   1.4650   1.4657   1.4689   1.4695
  1.4714   1.4742   1.4755   1.4760   1.4773   1.4804   1.4813   1.4830
  1.4864   1.4875   1.4894   1.4907   1.4915   1.4937   1.4969   1.4995
  1.5014   1.5018   1.5026   1.5049   1.5079   1.5098   1.5124   1.5132
  1.5140   1.5175   1.5190   1.5229   1.5250   1.5275   1.5304   1.5313
  1.5363   1.5376   1.5390   1.5405   1.5430   1.5488   1.5494   1.5505
  1.5552   1.5560   1.5586   1.5617   1.5663   1.5677   1.5707   1.5733
  1.5743   1.5776   1.5796   1.5845   1.5885   1.5895   1.5947   1.6006
  1.6062   1.6079   1.6092   1.6129   1.6154   1.6173   1.6230   1.6292
  1.6295   1.6341   1.6363   1.6380   1.6405   1.6452   1.6455   1.6459
  1.6475   1.6504   1.6506   1.6542   1.6554   1.6576   1.6595   1.6602
  1.6628   1.6640   1.6648   1.6676   1.6702   1.6715   1.6724   1.6745
  1.6767   1.6774   1.6800   1.6810   1.6815   1.6825   1.6833   1.6843
  1.6847   1.6858   1.6874   1.6883   1.6892   1.6895   1.6906   1.6911
  1.6933   1.6946   1.6956   1.6960   1.6976   1.6988   1.6998   1.7007
  1.7017   1.7026   1.7042   1.7057   1.7072   1.7073   1.7091   1.7094
  1.7104   1.7128   1.7132   1.7158   1.7168   1.7192   1.7199   1.7212
  1.7219   1.7226   1.7231   1.7239   1.7246   1.7252   1.7269   1.7285
  1.7300   1.7305   1.7324   1.7355   1.7367   1.7377   1.7383   1.7391
  1.7406   1.7420   1.7439   1.7453   1.7461   1.7478   1.7484   1.7507
  1.7515   1.7532   1.7540   1.7554   1.7558   1.7565   1.7570   1.7586
  1.7598   1.7612   1.7626   1.7639   1.7659   1.7667   1.7689   1.7704
  1.7732   1.7740   1.7753   1.7772   1.7787   1.7815   1.7828   1.7848
  1.7863   1.7884   1.7914   1.7942   1.7957   1.7969   1.7982   1.8010
  1.8022   1.8050   1.8077   1.8091   1.8137   1.8156   1.8184   1.8198
  1.8209   1.8253   1.8310   1.8341   1.8346   1.8362   1.8379   1.8391
  1.8406   1.8418   1.8437   1.8459   1.8483   1.8510   1.8541   1.8551
  1.8589   1.8605   1.8608   1.8656   1.8679   1.8698   1.8702   1.8705
  1.8715   1.8725   1.8730   1.8748   1.8757   1.8771   1.8782   1.8816
  1.8827   1.8843   1.8851   1.8878   1.8880   1.8898   1.8913   1.8920
  1.8940   1.8948   1.8963   1.8982   1.8989   1.8994   1.9018   1.9030
  1.9036   1.9050   1.9051   1.9062   1.9067   1.9081   1.9088   1.9098
  1.9109   1.9121   1.9142   1.9150   1.9154   1.9168   1.9201   1.9209
  1.9221   1.9231   1.9252   1.9273   1.9290   1.9298   1.9300   1.9314
  1.9346   1.9352   1.9375   1.9398   1.9412   1.9424   1.9449   1.9464
  1.9490   1.9533   1.9564   1.9587   1.9601   1.9620   1.9631   1.9659
  1.9685   1.9753   1.9795   1.9811   1.9891   1.9920   1.9951   2.0008
  2.0076   2.0152   2.0155   2.0243   2.0327   2.0337   2.0380   2.0398
  2.0407   2.0429   2.0451   2.0474   2.0532   2.0537   2.0540   2.0557
  2.0572   2.0585   2.0590   2.0613   2.0634   2.0643   2.0656   2.0663
  2.0694   2.0717   2.0720   2.0724   2.0762   2.0775   2.0784   2.0793
  2.0814   2.0836   2.0852   2.0876   2.0879   2.0883   2.0901   2.0910
  2.0921   2.0935   2.0940   2.0947   2.0956   2.0982   2.0988   2.1007
  2.1011   2.1045   2.1053   2.1082   2.1090   2.1109   2.1125   2.1140
  2.1146   2.1175   2.1178   2.1207   2.1240   2.1264   2.1274   2.1315
  2.1320   2.1328   2.1362   2.1414   2.1481   2.1491   2.1532   2.1574
  2.1588   2.1642   2.1650   2.1670   2.1675   2.1710   2.1725   2.1736
  2.1786   2.1820   2.1835   2.1845   2.1888   2.1905   2.1915   2.1941
  2.1973   2.1989   2.2024   2.2029   2.2035   2.2077   2.2096   2.2115
  2.2123   2.2126   2.2136   2.2174   2.2179   2.2180   2.2197   2.2210
  2.2221   2.2227   2.2245   2.2252   2.2267   2.2287   2.2289   2.2298
  2.2315   2.2332   2.2355   2.2364   2.2371   2.2380   2.2405   2.2418
  2.2430   2.2436   2.2445   2.2453   2.2455   2.2462   2.2488   2.2491
  2.2496   2.2498   2.2500   2.2512   2.2517   2.2522   2.2531   2.2540
  2.2554   2.2560   2.2562   2.2584   2.2584   2.2594   2.2608   2.2617
  2.2634   2.2649   2.2652   2.2663   2.2667   2.2679   2.2684   2.2687
  2.2695   2.2706   2.2711   2.2722   2.2724   2.2740   2.2747   2.2756
  2.2766   2.2784   2.2794   2.2801   2.2808   2.2826   2.2838   2.2842
  2.2850   2.2851   2.2861   2.2875   2.2890   2.2905   2.2914   2.2926
  2.2938   2.2957   2.2969   2.2976   2.2986   2.2996   2.3010   2.3018
  2.3023   2.3033   2.3036   2.3049   2.3069   2.3074   2.3077   2.3093
  2.3106   2.3111   2.3120   2.3129   2.3137   2.3153   2.3158   2.3169
  2.3183   2.3201   2.3206   2.3210   2.3222   2.3244   2.3250   2.3255
  2.3268   2.3287   2.3292   2.3306   2.3306   2.3344   2.3366   2.3379
  2.3401   2.3406   2.3415   2.3432   2.3444   2.3460   2.3469   2.3482
  2.3498   2.3540   2.3553   2.3563   2.3587   2.3604   2.3624   2.3635
  2.3668   2.3688   2.3706   2.3730   2.3738   2.3767   2.3784   2.3793
  2.3813   2.3829   2.3857   2.3886   2.3940   2.3982   2.4021   2.4038
  2.4092   2.4117   2.4138   2.4235   2.4270   2.4318   2.4469   2.4592
  2.4869   2.4971   2.5186   2.5624   2.5916   2.6649   2.7306   2.7486
  2.7908   2.8139   2.8176   2.8206   2.8237   2.8242   2.8262   2.8303
  2.8306   2.8311   2.8324   2.8342   2.8424   2.8458   2.8480   2.8530
  2.8537   2.8557   2.8585   2.8610   2.8613   2.8638   2.8658   2.8697
  2.8728   2.8748   2.8771   2.8785   2.8800   2.8860   2.8888   2.8939
  2.8998   2.9040   2.9354   3.1350   3.2701   3.9392   3.9433   3.9470
  3.9516   3.9541   3.9620   3.9625   3.9669   3.9678   3.9774   3.9789
  3.9803   3.9837   3.9881   3.9916   3.9919   3.9932   3.9954   4.0017
  4.0042   4.0089   4.0123   4.0137   4.0157   4.0251   4.0265   4.0321
  4.0407   4.0448   4.1759   4.1950   4.2112   4.2174   4.2199   4.2257
  4.2327   4.2337   4.2388   4.2402   4.2430   4.2456   4.2513   4.2546
  4.2616   4.2628   4.2646   4.2711   4.2718   4.2734   4.2767   4.2809
  4.2814   4.2825   4.2848   4.2870   4.2888   4.2901   4.2937   4.2974
  4.2985   4.3003   4.3007   4.3020   4.3048   4.3069   4.3104   4.3131
  4.3161   4.3176   4.3197   4.3219   4.3249   4.3265   4.3294   4.3311
  4.3346   4.3364   4.3388   4.3429   4.3437   4.3488   4.3525   4.3551
  4.3567   4.3625   4.3646   4.3711   4.3759   4.3773   4.3788   4.3861
  4.3907   4.3925   4.3966   4.4040   4.4067   4.4079   4.4130   4.4190
  4.4277   4.4290   4.4349   4.4379   4.4443   4.4552   4.4664   4.4751
  4.4801   4.4901   4.5021   4.5145   4.5275   4.5480   4.5684   4.5793
  4.6028   4.6224   4.6395   4.6936   4.7076   4.7354   4.7699   4.7807
  4.8306   4.9987
 --------------------------------------------------------------
 
          Ground-State Mulliken Net Atomic Charges

     Atom                 Charge (a.u.)
  ----------------------------------------
      1 C                    -0.174628
      2 C                    -1.185833
      3 C                    -0.028541
      4 C                    -0.460617
      5 C                    -0.255380
      6 C                    -0.514154
      7 H                     0.238527
      8 H                     0.212178
      9 H                     0.185326
     10 H                     0.279143
     11 H                     0.205943
     12 H                     0.209877
     13 H                     0.178074
     14 H                     0.201929
     15 H                     0.213882
     16 H                     0.201533
     17 H                     0.195684
     18 N                    -0.172537
     19 H                     0.419933
     20 C                     0.376770
     21 H                     0.237325
     22 O                    -0.564436
     23 C                    -0.885367
     24 H                     0.260599
     25 H                     0.241776
     26 H                     0.254424
     27 S                     0.901193
     28 C                    -0.858436
     29 H                     0.255487
     30 H                     0.289000
     31 H                     0.252280
     32 O                    -0.687851
     33 C                    -0.903563
     34 H                     0.263488
     35 H                     0.248962
     36 H                     0.249008
     37 S                     0.842679
     38 C                    -0.879620
     39 H                     0.252622
     40 H                     0.285600
     41 H                     0.262875
     42 O                    -0.650730
     43 C                    -0.810079
     44 H                     0.269563
     45 H                     0.267122
     46 H                     0.283122
     47 S                     0.274034
     48 C                    -0.625605
     49 H                     0.276424
     50 H                     0.262241
     51 H                     0.263116
     52 O                    -0.575193
     53 C                    -0.936553
     54 H                     0.261556
     55 H                     0.253370
     56 H                     0.251365
     57 S                     0.658730
     58 C                    -0.777683
     59 H                     0.283849
     60 H                     0.279788
     61 H                     0.256682
     62 O                    -0.663296
     63 C                    -0.729133
     64 H                     0.276775
     65 H                     0.304097
     66 H                     0.242489
     67 S                     0.611364
     68 C                    -0.762991
     69 H                     0.235507
     70 H                     0.258358
     71 H                     0.251071
     72 O                    -0.765949
     73 C                    -0.873075
     74 H                     0.273797
     75 H                     0.231747
     76 H                     0.250903
     77 S                     0.852470
     78 C                    -0.808705
     79 H                     0.257952
     80 H                     0.247783
     81 H                     0.275826
     82 O                    -0.659577
     83 C                    -0.772537
     84 H                     0.280852
     85 H                     0.264664
     86 H                     0.290352
     87 S                     0.481092
     88 C                    -0.841798
     89 H                     0.267202
     90 H                     0.272587
     91 H                     0.295497
     92 O                    -0.654189
     93 C                    -0.929341
     94 H                     0.250691
     95 H                     0.278497
     96 H                     0.285162
     97 S                     0.870638
     98 C                    -0.883240
     99 H                     0.238524
    100 H                     0.297727
    101 H                     0.275230
    102 O                    -0.661608
    103 C                    -0.840866
    104 H                     0.223132
    105 H                     0.268104
    106 H                     0.259558
    107 S                     1.030835
    108 C                    -0.922815
    109 H                     0.274091
    110 H                     0.252078
    111 H                     0.273088
    112 O                    -0.729791
    113 C                    -0.914525
    114 H                     0.238430
    115 H                     0.295585
    116 H                     0.286009
    117 S                     0.921668
    118 C                    -0.830569
    119 H                     0.252879
    120 H                     0.248204
    121 H                     0.243161
    122 O                    -0.687885
    123 C                    -0.789626
    124 H                     0.225638
    125 H                     0.297603
    126 H                     0.254269
    127 S                     0.720928
    128 C                    -0.792737
    129 H                     0.250754
    130 H                     0.259364
    131 H                     0.240008
    132 O                    -0.659336
    133 C                    -0.751931
    134 H                     0.274902
    135 H                     0.244840
    136 H                     0.258177
    137 S                     0.826783
    138 C                    -1.011998
    139 H                     0.281644
    140 H                     0.271349
    141 H                     0.237701
    142 O                    -0.582414
    143 C                    -0.911156
    144 H                     0.300572
    145 H                     0.265043
    146 H                     0.227966
    147 S                     1.007520
    148 C                    -0.826100
    149 H                     0.239484
    150 H                     0.264092
    151 H                     0.238065
    152 O                    -0.754482
    153 C                    -0.812426
    154 H                     0.237450
    155 H                     0.311078
    156 H                     0.260869
    157 S                     0.566956
    158 C                    -0.813221
    159 H                     0.306181
    160 H                     0.255355
    161 H                     0.228438
    162 O                    -0.585737
    163 C                    -0.960069
    164 H                     0.254320
    165 H                     0.245169
    166 H                     0.261805
    167 S                     0.919478
    168 C                    -0.763042
    169 H                     0.244054
    170 H                     0.285923
    171 H                     0.254430
    172 O                    -0.679532
    173 C                    -0.758472
    174 H                     0.282064
    175 H                     0.242036
    176 H                     0.293148
    177 S                     0.755488
    178 C                    -0.995767
    179 H                     0.291218
    180 H                     0.332454
    181 H                     0.265715
    182 O                    -0.592430
    183 C                    -0.915929
    184 H                     0.252298
    185 H                     0.229539
    186 H                     0.289957
    187 S                     0.960208
    188 C                    -0.957961
    189 H                     0.258626
    190 H                     0.254975
    191 H                     0.245103
    192 O                    -0.643173
    193 C                    -0.635695
    194 H                     0.237158
    195 H                     0.305603
    196 H                     0.272468
    197 S                     0.383755
    198 C                    -0.842359
    199 H                     0.264924
    200 H                     0.264826
    201 H                     0.237769
    202 O                    -0.598529
    203 C                    -0.837463
    204 H                     0.262534
    205 H                     0.245865
    206 H                     0.255717
    207 S                     0.936431
    208 C                    -0.946055
    209 H                     0.282169
    210 H                     0.255025
    211 H                     0.251268
    212 O                    -0.717618
    213 C                    -0.860792
    214 H                     0.222510
    215 H                     0.261202
    216 H                     0.262914
    217 S                     0.990887
    218 C                    -0.890174
    219 H                     0.257391
    220 H                     0.256088
    221 H                     0.217232
    222 O                    -0.668282
    223 C                    -0.965517
    224 H                     0.237768
    225 H                     0.250579
    226 H                     0.293839
    227 S                     1.066453
    228 C                    -0.941928
    229 H                     0.249940
    230 H                     0.287842
    231 H                     0.249072
    232 O                    -0.662237
    233 C                    -1.042329
    234 H                     0.246778
    235 H                     0.242764
    236 H                     0.280957
    237 S                     1.121961
    238 C                    -0.877847
    239 H                     0.239808
    240 H                     0.265911
    241 H                     0.262202
    242 O                    -0.698259
    243 C                    -0.860584
    244 H                     0.249600
    245 H                     0.238912
    246 H                     0.261104
    247 S                     0.895600
    248 C                    -0.921198
    249 H                     0.256537
    250 H                     0.279319
    251 H                     0.259335
    252 O                    -0.676351
    253 C                    -0.827985
    254 H                     0.304713
    255 H                     0.224989
    256 H                     0.248199
    257 S                     1.012551
    258 C                    -0.928828
    259 H                     0.240659
    260 H                     0.249778
    261 H                     0.229300
    262 O                    -0.708774
    263 C                    -0.999583
    264 H                     0.253750
    265 H                     0.282161
    266 H                     0.277880
    267 S                     0.942864
    268 C                    -0.845544
    269 H                     0.290161
    270 H                     0.250056
    271 H                     0.244673
    272 O                    -0.634450
    273 C                    -0.886104
    274 H                     0.306044
    275 H                     0.257697
    276 H                     0.309505
    277 S                     0.559961
    278 C                    -0.835815
    279 H                     0.261545
    280 H                     0.266733
    281 H                     0.303921
    282 O                    -0.621326
    283 C                    -0.816554
    284 H                     0.205131
    285 H                     0.269613
    286 H                     0.245706
    287 S                     0.895774
    288 C                    -0.834014
    289 H                     0.214435
    290 H                     0.247667
    291 H                     0.320680
    292 O                    -0.760432
    293 C                    -0.855012
    294 H                     0.236284
    295 H                     0.240586
[...]
    2  -0.0189541  -0.0165984   0.0302714   0.0655002   0.0005200   0.0153890
    3   0.0252451  -0.0013050   0.0052594  -0.0817823   0.0019202   0.0273872
          175         176         177         178         179         180
    1   0.0000804   0.0436643   0.0067338   0.0020877   0.0184880  -0.0125876
    2  -0.0274044   0.0089361  -0.0278281   0.0049290   0.0127079   0.0066158
    3   0.0077596  -0.0062407  -0.0540243  -0.0012591  -0.0389666   0.0209724
          181         182         183         184         185         186
    1   0.0291521  -0.0809365   0.0070498   0.0034135  -0.0101978   0.0133231
    2   0.0187311  -0.0289320  -0.0036985   0.0263583  -0.0168917  -0.0328222
    3   0.0057208   0.0651335   0.0033505   0.0212242   0.0235349  -0.0122714
          187         188         189         190         191         192
    1  -0.0190039   0.0029153   0.0157381   0.0277942  -0.0104087  -0.0654014
    2  -0.0383446   0.0060556   0.0161578  -0.0092964   0.0164929   0.0437325
    3  -0.0458517   0.0010285   0.0247157  -0.0131632  -0.0262104   0.0744188
          193         194         195         196         197         198
    1  -0.0065356  -0.0156672  -0.0222708  -0.0124040   0.0372706   0.0008416
    2   0.0033264  -0.0013205  -0.0114823   0.0309900   0.0344298  -0.0065733
    3   0.0036999  -0.0281166   0.0192184   0.0033875  -0.0318932  -0.0013936
          199         200         201         202         203         204
    1   0.0034404   0.0264625  -0.0156946   0.0134117  -0.0053221  -0.0191949
    2   0.0009124  -0.0232773  -0.0149401  -0.0016518   0.0023985   0.0080913
    3  -0.0337061   0.0006428   0.0203887   0.1100537  -0.0011406  -0.0285291
          205         206         207         208         209         210
    1  -0.0176913  -0.0114168   0.0280104  -0.0029386  -0.0066525   0.0287189
    2  -0.0153582   0.0256618   0.0257571  -0.0075993   0.0010044  -0.0176902
    3   0.0211077   0.0190528  -0.0338408  -0.0027919  -0.0320171   0.0012108
          211         212         213         214         215         216
    1  -0.0251061   0.0266562   0.0013441  -0.0004461   0.0206833  -0.0193251
    2  -0.0068575  -0.0105174  -0.0064159  -0.0134082  -0.0131700  -0.0235063
    3   0.0196935   0.1077990  -0.0006603  -0.0344465   0.0242289   0.0115404
          217         218         219         220         221         222
    1  -0.0455617   0.0056645   0.0003860   0.0288360   0.0083153   0.0197059
    2   0.0198829  -0.0006518   0.0295021  -0.0074720  -0.0028152   0.0131938
    3  -0.0244710  -0.0006356   0.0047748   0.0171102  -0.0359005   0.1083883
          223         224         225         226         227         228
    1  -0.0022300   0.0227839  -0.0270689  -0.0260816  -0.0486509   0.0085058
    2   0.0009051   0.0076049   0.0154719  -0.0200402  -0.0201700  -0.0048744
    3   0.0066751   0.0206407   0.0085558   0.0148483  -0.0340374   0.0028487
          229         230         231         232         233         234
    1   0.0122573   0.0224197  -0.0193579   0.0582023   0.0030062  -0.0023580
    2  -0.0080513   0.0094553  -0.0220001   0.0869448   0.0005880   0.0118989
    3  -0.0300646   0.0252842   0.0161963  -0.0314577  -0.0044718  -0.0325166
          235         236         237         238         239         240
    1   0.0290690  -0.0012296  -0.0075001   0.0014245  -0.0076428  -0.0058989
    2   0.0100701  -0.0282135   0.0520048  -0.0068636   0.0142041  -0.0306822
    3   0.0093697  -0.0067265   0.0092682   0.0052679   0.0284369  -0.0059948
          241         242         243         244         245         246
    1   0.0267112  -0.0730262   0.0038839   0.0345554  -0.0127410   0.0041021
    2  -0.0113519  -0.0611213  -0.0043881   0.0032113  -0.0239722  -0.0238830
    3   0.0137314  -0.0575489  -0.0008209  -0.0095799   0.0234368  -0.0234021
          247         248         249         250         251         252
    1   0.0075950  -0.0059611  -0.0048404  -0.0187875  -0.0300185   0.0025061
    2   0.0362218  -0.0023960  -0.0249854  -0.0043796   0.0153929   0.0238741
    3   0.0413011   0.0018655  -0.0182423   0.0324335  -0.0022782  -0.1076824
          253         254         255         256         257         258
    1   0.0036386  -0.0137720   0.0300529   0.0121015  -0.0234221   0.0042908
    2  -0.0001096   0.0077916  -0.0260191   0.0279971  -0.0445919  -0.0007917
    3   0.0062423   0.0291466   0.0133618  -0.0067800   0.0069525  -0.0043203
          259         260         261         262         263         264
    1  -0.0161335   0.0110502   0.0150486  -0.0525359   0.0118431  -0.0179703
    2   0.0046952   0.0331499  -0.0328088   0.0974126  -0.0001577   0.0135279
    3  -0.0221520   0.0021422  -0.0090161  -0.0069534  -0.0024410  -0.0198441
          265         266         267         268         269         270
    1   0.0301933   0.0309147  -0.0123179   0.0051708   0.0101525   0.0330622
    2   0.0150199  -0.0168681   0.0385097  -0.0053020  -0.0143566   0.0074545
    3   0.0084111  -0.0086543   0.0466331  -0.0037313  -0.0270418   0.0051805
          271         272         273         274         275         276
    1  -0.0072040  -0.0780826  -0.0018010   0.0180968  -0.0276143   0.0062509
    2  -0.0121198  -0.0505967   0.0076121   0.0099478   0.0005767   0.0237025
    3   0.0244124  -0.0557437  -0.0070934  -0.0285840  -0.0123429   0.0164465
          277         278         279         280         281         282
    1   0.0570640  -0.0035645   0.0128920  -0.0291388   0.0107372  -0.0814237
    2  -0.0032068  -0.0053984  -0.0304079  -0.0014437   0.0035037  -0.0301006
    3   0.0144779  -0.0044373   0.0149964  -0.0014433  -0.0331207   0.0723471
          283         284         285         286         287         288
    1   0.0051699  -0.0117501   0.0293216  -0.0232625  -0.0430911   0.0043067
    2   0.0034241   0.0331257   0.0134148  -0.0131346  -0.0235623   0.0055701
    3  -0.0018736  -0.0061556   0.0212848  -0.0306452  -0.0043136   0.0076751
          289         290         291         292         293         294
    1  -0.0293747  -0.0106763   0.0311724   0.1008379   0.0087417   0.0141736
    2   0.0206993  -0.0097435   0.0181089  -0.0451252   0.0011636  -0.0295950
    3   0.0147125   0.0333075  -0.0042879  -0.0058397  -0.0013632  -0.0048705
          295         296         297         298         299         300
    1   0.0076870   0.0262095  -0.0071786  -0.0061543  -0.0368442   0.0199799
    2   0.0179500   0.0106572  -0.0261786  -0.0027121  -0.0042843   0.0151830
    3  -0.0167737   0.0188904   0.0475153   0.0002473   0.0167461  -0.0122177
          301         302         303         304         305         306
    1  -0.0015749  -0.0244815  -0.0060043  -0.0245994  -0.0001440  -0.0244890
    2  -0.0354283   0.1078337  -0.0055270   0.0193336  -0.0126317  -0.0123692
    3   0.0057292  -0.0158009  -0.0017386  -0.0073545  -0.0337101   0.0156571
          307         308         309         310         311         312
    1   0.0335565  -0.0031091  -0.0174979   0.0172081   0.0271664  -0.0425489
    2   0.0315760  -0.0070065  -0.0229657  -0.0207139  -0.0033033   0.0252238
    3  -0.0319800   0.0031291   0.0044584  -0.0207351   0.0198466   0.0971146
  --- DONE ESP SUMMARY ---
Archival summary:
1\1\n0095.mhg0\SP\ProcedureUnspecified\6-31+G*\292958h22\ymao\FriMar1218:47:522021FriMar1218:47:522021\0\\#,ProcedureUnspecified,6-31+G*,\\0,1\S\O,1,1.49697\C,1,1.80633,2,101.619\H,3,1.09238,1,100.219,2,-177.263,0\H,3,1.093,1,106.004,2,-55.1338,0\H,3,1.0935,1,111.987,2,65.1163,0\C,1,1.80703,2,109.578,3,-100.803,0\H,7,1.09227,1,105.983,2,-123.392,0\H,7,1.09348,1,105.306,2,-16.3473,0\H,7,1.09356,1,107.857,2,106.213,0\Gh,8,2.22643,7,165.514,1,37.9558,0\Gh,11,1.09616,8,111.834,7,-23.5114,0\Gh,12,1.09667,11,104.688,8,171.831,0\Gh,12,1.53739,11,113.578,8,-73.363,0\Gh,14,1.0964,12,111.608,11,49.3382,0\Gh,14,1.09691,12,111.27,11,-62.5339,0\Gh,14,1.53803,12,115.944,11,170.05,0\Gh,17,1.09688,14,108.173,12,83.4027,0\Gh,17,1.09697,14,107.811,12,-165.434,0\Gh,17,1.537,14,112.738,12,-42.5706,0\Gh,20,1.09727,17,108.075,14,175.08,0\Gh,20,1.09736,17,111.783,14,-62.9978,0\Gh,20,1.53742,17,110.713,14,50.2696,0\Gh,23,1.09669,20,104.98,17,70.2029,0\Gh,23,1.09719,20,106.56,17,-176.97,0\Gh,23,1.53729,20,111.356,17,-60.5957,0\Gh,26,1.09645,23,103.225,20,-63.8199,0\Gh,26,1.46211,23,106.78,20,179.465,0\Gh,28,1.01377,26,120.182,23,-55.0414,0\Gh,28,1.37856,26,127.388,23,139.062,0\Gh,30,1.10441,28,110.679,26,176.012,0\Gh,30,1.21845,28,117.372,26,1.24558,0\H,19,1.94325,17,121.053,14,175.269,0\C,33,1.09349,19,145.864,17,122.926,0\H,34,1.09251,33,107.519,19,42.952,0\H,34,1.09274,33,103.057,19,-77.8719,0\S,34,1.80751,33,107.464,19,161.558,0\O,37,1.49697,34,103.404,33,52.5444,0\C,37,1.80688,34,97.5731,33,164.369,0\H,39,1.0928,37,104.699,34,89.0382,0\H,39,1.09291,37,108.862,34,-157.005,0\H,39,1.09297,37,108.164,34,-32.6519,0\O,31,2.1215,30,139.215,28,-78.0814,0\S,43,1.49705,31,117.327,30,11.7658,0\C,44,1.80661,43,105.678,31,-172.475,0\H,45,1.09253,44,105.201,43,-168.213,0\H,45,1.09266,44,111.188,43,-47.702,0\H,45,1.09369,44,109.982,43,73.7915,0\C,44,1.80689,43,102.255,31,82.6613,0\H,49,1.09241,44,109.486,43,-84.8251,0\H,49,1.09286,44,104.464,43,156.474,0\H,49,1.09333,44,110.159,43,31.9696,0\H,47,2.1007,45,102.241,44,70.6255,0\C,53,1.09344,47,136.772,45,136.741,0\H,54,1.09249,53,113.368,47,-80.8641,0\H,54,1.09351,53,110.149,47,159.893,0\S,54,1.807,53,109.713,47,39.6348,0\O,57,1.4969,54,107.877,53,-69.7781,0\C,57,1.80635,54,98.3766,53,177.821,0\H,59,1.09258,57,110.825,54,-91.4549,0\H,59,1.09314,57,103.407,54,157.968,0\H,59,1.09366,57,109.585,54,43.8148,0\H,13,2.18671,12,105.185,11,35.4985,0\C,63,1.09259,13,140.842,12,-105.579,0\H,64,1.09291,63,114.425,13,-16.8446,0\H,64,1.09328,63,105.551,13,-139.466,0\S,64,1.80736,63,106.006,13,110.449,0\O,67,1.49665,64,101.026,63,-53.8387,0\C,67,1.80747,64,93.0692,63,58.1881,0\H,69,1.09223,67,112.231,64,67.9138,0\H,69,1.09263,67,110.785,64,-50.2576,0\H,69,1.09361,67,101.93,64,-167.161,0\H,27,2.23627,26,125.873,23,-68.7758,0\C,73,1.09261,27,161.111,26,72.1454,0\H,74,1.09246,73,109.614,27,108.154,0\H,74,1.09368,73,108.307,27,-9.11824,0\S,74,1.80675,73,111.579,27,-131.447,0\O,77,1.49678,74,96.3314,73,-85.8604,0\C,77,1.80658,74,94.1223,73,161.775,0\H,79,1.09263,77,109.029,74,-67.0685,0\H,79,1.0928,77,105.304,74,45.1541,0\H,79,1.09357,77,108.251,74,166.953,0\O,36,2.25998,34,165.823,33,125.827,0\S,83,1.49752,36,118.986,34,179.813,0\C,84,1.80708,83,102.938,36,-14.5111,0\H,85,1.09272,84,108.939,83,-36.8068,0\H,85,1.09275,84,108.447,83,-158.606,0\H,85,1.09363,84,111.891,83,80.0095,0\C,84,1.80723,83,106.058,36,-114.104,0\H,89,1.09284,84,109.308,83,-56.0169,0\H,89,1.09325,84,107.715,83,48.5398,0\H,89,1.09342,84,108.444,83,175.808,0\H,43,2.31202,31,76.6747,30,175.659,0\C,93,1.09328,43,110.851,31,-92.8142,0\H,94,1.09262,93,107.642,43,-82.3703,0\H,94,1.09289,93,109.756,43,37.0626,0\S,94,1.80697,93,103.356,43,152.816,0\O,97,1.49686,94,109.955,93,165.293,0\C,97,1.80681,94,91.9594,93,-88.9813,0\H,99,1.09286,97,106.871,94,168.132,0\H,99,1.09318,97,107.025,94,-73.734,0\H,99,1.09324,97,108.174,94,45.9741,0\H,9,2.31812,7,150.694,1,64.8552,0\C,103,1.09258,9,100.873,7,135.945,0\H,104,1.09241,103,109.13,9,120.185,0\H,104,1.09316,103,112.102,9,9.53228,0\S,104,1.80754,103,108.757,9,-115.753,0\O,107,1.4969,104,104.209,103,177.919,0\C,107,1.80698,104,88.5874,103,74.1702,0\H,109,1.09274,107,111.691,104,-167.938,0\H,109,1.09279,107,106.007,104,-49.0535,0\H,109,1.093,107,107.093,104,67.0388,0\H,112,1.97069,109,148.007,107,-32.6704,0\C,113,1.09317,112,130.527,109,-126.313,0\H,114,1.09301,113,117.839,112,71.3125,0\H,114,1.09322,113,100.028,112,-42.2878,0\S,114,1.80693,113,107.968,112,-160.989,0\O,117,1.49708,114,105.163,113,56.9628,0\C,117,1.80658,114,96.6511,113,-42.7149,0\H,119,1.09214,117,110.705,114,45.7727,0\H,119,1.09305,117,115.418,114,-71.1934,0\H,119,1.09403,117,105.807,114,169.344,0\O,101,2.33241,99,136.542,97,105.944,0\S,123,1.4966,101,131.03,99,-118.041,0\C,124,1.80716,123,105.962,101,-108.468,0\H,125,1.09267,124,112.473,123,51.5741,0\H,125,1.09283,124,112.208,123,170.571,0\H,125,1.09319,124,100.556,123,-71.103,0\C,124,1.80717,123,104.19,101,-4.15324,0\H,129,1.09295,124,108.396,123,-161.886,0\H,129,1.09301,124,107.798,123,-34.6056,0\H,129,1.09328,124,101.572,123,78.3669,0\H,126,2.16719,125,148.269,124,-104.37,0\C,133,1.09252,126,104.553,125,32.6119,0\H,134,1.0928,133,109.376,126,28.6568,0\H,134,1.09384,133,112.624,126,-90.9876,0\S,134,1.80672,133,110.928,126,148.88,0\O,137,1.49739,134,106.251,133,-176.915,0\C,137,1.80757,134,93.6548,133,-64.737,0\H,139,1.09224,137,105.932,134,-170.408,0\H,139,1.0925,137,102.836,134,72.6136,0\H,139,1.09376,137,110.521,134,-42.4128,0\H,91,2.33429,89,132.343,84,123.896,0\C,143,1.0932,91,103.199,89,-104.966,0\H,144,1.09278,143,95.0618,91,-50.6226,0\H,144,1.09315,143,119.458,91,76.5185,0\S,144,1.8065,143,113.722,91,-156.69,0\O,147,1.49709,144,96.6232,143,76.961,0\C,147,1.80719,144,94.1574,143,-177.661,0\H,149,1.09265,147,119.137,144,-58.7967,0\H,149,1.09275,147,105.168,144,62.2823,0\H,149,1.09354,147,101.688,144,-175.379,0\H,22,2.34062,20,108.789,17,-120.87,0\C,153,1.09262,22,91.4351,20,-159.657,0\H,154,1.09257,153,112.353,22,-74.8061,0\H,154,1.09341,153,106.943,22,56.139,0\S,154,1.80701,153,102.546,22,172.782,0\O,157,1.49785,154,106.905,153,73.4775,0\C,157,1.80669,154,96.7603,153,178.017,0\H,159,1.09258,157,103.695,154,-69.3795,0\H,159,1.09288,157,115.77,154,163.991,0\H,159,1.09304,157,117.262,154,45.1831,0\H,160,2.28418,159,108.803,157,125.834,0\C,163,1.09325,160,99.5031,159,109.743,0\H,164,1.09303,163,112.983,160,55.7788,0\H,164,1.09322,163,110.668,160,-58.9337,0\S,164,1.8067,163,107.551,160,178.676,0\O,167,1.49665,164,106.274,163,178.409,0\C,167,1.80649,164,92.0147,163,73.7559,0\H,169,1.09288,167,103.212,164,170.916,0\H,169,1.09327,167,112.428,164,44.3265,0\H,169,1.09355,167,103.196,164,-73.6747,0\H,155,2.35011,154,107.051,153,-18.7107,0\C,173,1.09267,155,100.623,154,-158.281,0\H,174,1.09334,173,108.311,155,40.8777,0\H,174,1.09337,173,104.693,155,159.334,0\S,174,1.80639,173,104.646,155,-87.1741,0\O,177,1.49688,174,102.148,173,-84.3926,0\C,177,1.80669,174,94.3523,173,171.046,0\H,179,1.09275,177,115.074,174,-45.0232,0\H,179,1.09289,177,104.883,174,-167.686,0\H,179,1.093,177,106.792,174,76.8277,0\H,181,2.26303,179,104.982,177,-54.9076,0\C,183,1.09287,181,135.184,179,-155.781,0\H,184,1.09258,183,108.834,181,17.7182,0\H,184,1.09329,183,111.534,181,150.679,0\S,184,1.80736,183,105.261,181,-91.1594,0\O,187,1.49651,184,100.328,183,53.7145,0\C,187,1.80764,184,98.6964,183,-46.3128,0\H,189,1.09262,187,108.164,184,-60.6829,0\H,189,1.09304,187,103.879,184,177.232,0\H,189,1.09313,187,104.152,184,50.8571,0\H,188,2.28854,187,93.525,184,135.238,0\C,193,1.09369,188,162.633,187,-66.5684,0\H,194,1.09268,193,109.883,188,-5.66488,0\H,194,1.09283,193,109.909,188,-120.646,0\S,194,1.80688,193,110.751,188,114.587,0\O,197,1.49804,194,110.282,193,-170.147,0\C,197,1.80691,194,101.272,193,78.5563,0\H,199,1.09232,197,113.07,194,-64.8807,0\H,199,1.09306,197,107.398,194,48.7207,0\H,199,1.09345,197,111.318,194,170.731,0\H,201,2.00034,199,136.345,197,179.078,0\C,203,1.09379,201,173.899,199,78.8105,0\H,204,1.09265,203,113.337,201,-96.7264,0\H,204,1.09337,203,107.481,201,143.858,0\S,204,1.80743,203,106.765,201,27.9521,0\O,207,1.49736,204,102.002,203,72.1471,0\C,207,1.80639,204,96.1435,203,176.854,0\H,209,1.09264,207,113.407,204,-61.5305,0\H,209,1.09317,207,111.366,204,61.7261,0\H,209,1.09317,207,108.101,204,-177.24,0\H,121,2.39248,119,119.676,117,-162.2,0\C,213,1.09205,121,98.371,119,-100.793,0\H,214,1.09314,213,112.667,121,-79.6708,0\H,214,1.09327,213,107.023,121,46.2088,0\S,214,1.8067,213,106.744,121,157.978,0\O,217,1.49738,214,100.143,213,77.5426,0\C,217,1.80664,214,94.4154,213,-173.916,0\H,219,1.09254,217,107.087,214,-95.8936,0\H,219,1.09309,217,110.115,214,148.77,0\H,219,1.09331,217,105.618,214,25.3542,0\H,47,2.40532,45,146.559,44,-87.6518,0\C,223,1.09273,47,109.87,45,-23.1476,0\H,224,1.09304,223,109.429,47,-125.556,0\H,224,1.09378,223,111.458,47,-9.70664,0\S,224,1.80653,223,107.166,47,112.987,0\O,227,1.49702,224,107.922,223,-178.194,0\C,227,1.8074,224,95.307,223,73.2544,0\H,229,1.09246,227,101.101,224,67.4629,0\H,229,1.093,227,112.446,224,179.974,0\H,229,1.09302,227,110.397,224,-48.9506,0\O,51,2.46942,49,161.287,44,21.8095,0\S,233,1.49692,51,121.822,49,172.626,0\C,234,1.8065,233,101.748,51,-45.8252,0\H,235,1.09272,234,109.183,233,-156.482,0\H,235,1.09286,234,105.493,233,-52.6822,0\H,235,1.09384,234,111.51,233,71.5104,0\C,234,1.80775,233,100.956,51,-153.402,0\H,239,1.09285,234,105.544,233,-58.3268,0\H,239,1.09289,234,112.132,233,64.2186,0\H,239,1.09292,234,101.835,233,-175.879,0\H,240,2.21169,239,136.271,234,70.3466,0\C,243,1.09352,240,133.571,239,58.7564,0\H,244,1.09271,243,110.966,240,-20.3939,0\H,244,1.09306,243,114.727,240,96.421,0\S,244,1.80698,243,106.178,240,-135.39,0\O,247,1.4973,244,101.413,243,-62.6562,0\C,247,1.80713,244,96.9967,243,-167.147,0\H,249,1.09248,247,108.119,244,176.344,0\H,249,1.09301,247,114.999,244,47.3166,0\H,249,1.09309,247,98.4697,244,-70.4772,0\H,236,2.21926,235,106.113,234,170.985,0\C,253,1.09318,236,147.095,235,11.4304,0\H,254,1.09291,253,113.707,236,144.574,0\H,254,1.0933,253,102.023,236,-95.5049,0\S,254,1.80689,253,115.855,236,25.2092,0\O,257,1.49733,254,101.774,253,158.588,0\C,257,1.80712,254,95.2376,253,-89.5713,0\H,259,1.09209,257,105.786,254,-169.771,0\H,259,1.09323,257,110.65,254,-52.2555,0\H,259,1.09372,257,109.029,254,80.265,0\H,256,2.10813,254,122.785,253,-170.824,0\C,263,1.09281,256,147.075,254,109.529,0\H,264,1.09237,263,108.7,256,84.2238,0\H,264,1.09352,263,118.303,256,-146.071,0\S,264,1.80703,263,102.971,256,-27.6283,0\O,267,1.49682,264,106.908,263,65.8633,0\C,267,1.80691,264,94.0077,263,-179.986,0\H,269,1.09275,267,109.234,264,63.8015,0\H,269,1.09277,267,111.465,264,-64.3282,0\H,269,1.0936,267,111.698,264,-179.58,0\H,265,2.19737,264,149.978,263,-14.1669,0\C,273,1.09334,265,119.483,264,-77.7598,0\H,274,1.09305,273,115.264,265,-53.8165,0\H,274,1.09332,273,113.26,265,-173.776,0\S,274,1.80768,273,101.462,265,64.0886,0\O,277,1.49667,274,97.6874,273,51.7639,0\C,277,1.80667,274,94.2087,273,161.105,0\H,279,1.09273,277,109.546,274,-178.441,0\H,279,1.09292,277,105.482,274,-64.8297,0\H,279,1.09302,277,108.271,274,58.5753,0\H,186,2.51648,184,114.113,183,150.183,0\C,283,1.0921,186,144.041,184,-159.518,0\H,284,1.09337,283,106.814,186,-96.0476,0\H,284,1.09351,283,108.226,186,19.4948,0\S,284,1.80707,283,109.925,186,136.858,0\O,287,1.49743,284,109.702,283,-21.1493,0\C,287,1.80705,284,97.2986,283,91.7626,0\H,289,1.09256,287,116.976,284,-58.8919,0\H,289,1.09295,287,118.3,284,178.454,0\H,289,1.0934,287,108.371,284,66.042,0\O,176,2.52181,174,146.459,173,-126.56,0\S,293,1.49728,176,79.6608,174,154.549,0\C,294,1.80667,293,103.24,176,94.1385,0\H,295,1.09295,294,103.017,293,49.9218,0\H,295,1.09315,294,114.932,293,-73.4191,0\H,295,1.09347,294,103.526,293,162.023,0\C,294,1.80715,293,105.764,176,-168.544,0\H,299,1.0922,294,111.434,293,-44.7939,0\H,299,1.09252,294,105.358,293,-159.583,0\H,299,1.09324,294,106.055,293,83.923,0\H,297,2.55791,295,132.81,294,-93.9266,0\C,303,1.09244,297,141.988,295,-44.7056,0\H,304,1.0924,303,115.188,297,154.635,0\H,304,1.09359,303,114.283,297,26.6796,0\S,304,1.80762,303,105.771,297,-92.8975,0\O,307,1.49695,304,103.522,303,179.842,0\C,307,1.80685,304,94.6364,303,72.7851,0\H,309,1.09244,307,109.624,304,-55.3177,0\H,309,1.09251,307,106.919,304,-165.701,0\H,309,1.09368,307,101.995,304,71.1787,0\\\@

 Total job time:  98.17s(wall), 329.41s(cpu) 
 Fri Mar 12 18:47:52 2021

        *************************************************************
        *                                                           *
        *  Thank you very much for using Q-Chem.  Have a nice day.  *
        *                                                           *
        *************************************************************


