                  Welcome to Q-Chem
     A Quantum Leap Into The Future Of Chemistry


 Q-Chem 6.0 (devel), Q-Chem, Inc., Pleasanton, CA (2022)

 E. Epifanovsky,  A. T. B. Gilbert,  Xintian Feng,  Joonho Lee,  Yuezhi Mao,  
 N. Mardirossian,  P. Pokhilko,  A. White,  M. Wormit,  M. P. Coons,  
 A. L. Dempwolff,  Zhengting Gan,  D. Hait,  P. R. Horn,  L. D. Jacobson,  
 I. Kaliman,  J. Kussmann,  A. W. Lange,  Ka Un Lao,  D. S. Levine,  Jie Liu,  
 S. C. McKenzie,  A. F. Morrison,  K. Nanda,  F. Plasser,  D. R. Rehn,  
 M. L. Vidal,  Zhi-Qiang You,  Ying Zhu,  B. Alam,  B. Albrecht,  
 A. Aldossary,  E. Alguire,  J. H. Andersen,  V. Athavale,  D. Barton,  
 K. Begam,  A. Behn,  N. Bellonzi,  Y. A. Bernard,  E. J. Berquist,  
 H. Burton,  A. Carreras,  K. Carter-Fenk,  Romit Chakraborty,  
 Chandrima Chakravarty,  Junhan Chen,  A. D. Chien,  K. D. Closser,  
 V. Cofer-Shabica,  L. Cunha,  S. Dasgupta,  Jia Deng,  M. de Wergifosse,  
 M. Diedenhofen,  Hainam Do,  S. Ehlert,  Po-Tung Fang,  S. Fatehi,  
 Qingguo Feng,  T. Friedhoff,  B. Ganoe,  J. Gayvert,  Qinghui Ge,  
 G. Gidofalvi,  M. Goldey,  J. Gomes,  C. Gonzalez-Espinoza,  S. Gulania,  
 A. Gunina,  J. A. Gyamfi,  M. W. D. Hanson-Heine,  P. H. P. Harbach,  
 A. W. Hauser,  M. F. Herbst,  M. Hernandez Vera,  M. Hodecker,  
 Z. C. Holden,  S. Houck,  Xunkun Huang,  Kerwin Hui,  B. C. Huynh,  
 K. Ikeda,  M. Ivanov,  Hyunjun Ji,  Zuxin Jin,  Hanjie Jiang,  B. Kaduk,  
 S. Kaehler,  R. Kang,  K. Khistyaev,  Jaehoon Kim,  Yongbin Kim,  
 P. Klunzinger,  Z. Koczor-Benda,  Joong Hoon Koh,  D. Kosenkov,  
 Saikiran Kotaru,  L. Koulias,  T. Kowalczyk,  C. M. Krauter,  K. Kue,  
 A. Kunitsa,  T. Kus,  A. Landau,  K. V. Lawler,  D. Lefrancois,  S. Lehtola,  
 Rain Li,  Shaozhi Li,  Yi-Pei Li,  Jiashu Liang,  M. Liebenthal,  
 Hung-Hsuan Lin,  You-Sheng Lin,  Fenglai Liu,  Kuan-Yu Liu,  
 M. Loipersberger,  A. Luenser,  C. Malbon,  A. Manjanath,  P. Manohar,  
 E. Mansoor,  S. F. Manzer,  Shan-Ping Mao,  A. V. Marenich,  T. Markovich,  
 S. Mason,  F. Matz,  S. A. Maurer,  P. F. McLaughlin,  M. F. S. J. Menger,  
 J.-M. Mewes,  S. A. Mewes,  P. Morgante,  Mohammad Mostafanejad,  
 J. W. Mullinax,  K. J. Oosterbaan,  G. Paran,  V. Parravicini,  
 Alexander C. Paul,  Suranjan K. Paul,  F. Pavosevic,  Zheng Pei,  S. Prager,  
 E. I. Proynov,  E. Ramos,  B. Rana,  A. E. Rask,  A. Rettig,  R. M. Richard,  
 F. Rob,  E. Rossomme,  T. Scheele,  M. Scheurer,  M. Schneider,  
 P. E. Schneider,  N. Sergueev,  S. M. Sharada,  Hengyuan Shen,  
 W. Skomorowski,  D. W. Small,  C. J. Stein,  Yingli Su,  Yu-Chuan Su,  
 E. J. Sundstrom,  Zhen Tao,  J. Thirman,  Hung-Yi Tsai,  T. Tsuchimochi,  
 N. M. Tubman,  C. Utku,  S. P. Veccham,  O. Vydrov,  J. Wenzel,  
 Jonathan Wong,  J. Witte,  A. Yamada,  Chou-Hsun Yang,  Kun Yao,  
 S. Yeganeh,  S. R. Yost,  A. Zech,  F. Zeller,  Igor Ying Zhang,  
 Xing Zhang,  Yu Zhang,  D. Zuev,  A. Aspuru-Guzik,  A. T. Bell,  
 N. A. Besley,  K. B. Bravaya,  B. R. Brooks,  D. Casanova,  Jeng-Da Chai,  
 Hsing-Ta Chen,  S. Coriani,  C. J. Cramer,  A. E. DePrince, III,  
 R. A. DiStasio Jr.,  A. Dreuw,  B. D. Dunietz,  T. R. Furlani,  
 W. A. Goddard III,  S. Grimme,  S. Hammes-Schiffer,  T. Head-Gordon,  
 W. J. Hehre,  Chao-Ping Hsu,  T.-C. Jagau,  Yousung Jung,  A. Klamt,  
 Jing Kong,  D. S. Lambrecht,  Xiangyuan Li,  WanZhen Liang,  N. J. Mayhall,  
 C. W. McCurdy,  J. B. Neaton,  T. Neudecker,  C. Ochsenfeld,  
 J. A. Parkhill,  R. Peverati,  V. A. Rassolov,  Haisheng Ren,  Yihan Shao,  
 L. V. Slipchenko,  R. P. Steele,  J. E. Subotnik,  A. J. W. Thom,  
 A. Tkatchenko,  D. G. Truhlar,  T. Van Voorhis,  Fan Wang,  
 T. A. Wesolowski,  K. B. Whaley,  H. L. Woodcock III,  P. M. Zimmerman,  
 S. Faraji,  P. M. W. Gill,  M. Head-Gordon,  J. M. Herbert,  A. I. Krylov

 Contributors to earlier versions of Q-Chem not listed above: 
 R. D. Adamson,  B. Austin,  R. Baer,  J. Baker,  G. J. O. Beran,  
 K. Brandhorst,  S. T. Brown,  E. F. C. Byrd,  Arup K. Chakraborty,  
 G. K. L. Chan,  Chun-Min Chang,  Yunqing Chen,  C.-L. Cheng,  
 Siu Hung Chien,  D. M. Chipman,  D. L. Crittenden,  H. Dachsel,  
 R. J. Doerksen,  A. D. Dutoi,  R. G. Edgar,  J. Fosso-Tande,  
 L. Fusti-Molnar,  D. Ghosh,  A. Ghysels,  A. Golubeva-Zadorozhnaya,  
 J. Gonthier,  M. S. Gordon,  S. R. Gwaltney,  G. Hawkins,  J. E. Herr,  
 A. Heyden,  S. Hirata,  E. G. Hohenstein,  G. Kedziora,  F. J. Keil,  
 C. Kelley,  Jihan Kim,  R. A. King,  R. Z. Khaliullin,  P. P. Korambath,  
 W. Kurlancheek,  A. Laurent,  A. M. Lee,  M. S. Lee,  S. V. Levchenko,  
 Ching Yeh Lin,  D. Liotard,  E. Livshits,  R. C. Lochan,  I. Lotan,  
 L. A. Martinez-Martinez,  P. E. Maslen,  N. Nair,  D. P. O'Neill,  
 D. Neuhauser,  E. Neuscamman,  C. M. Oana,  R. Olivares-Amaya,  R. Olson,  
 T. M. Perrine,  B. Peters,  P. A. Pieniazek,  A. Prociuk,  Y. M. Rhee,  
 J. Ritchie,  M. A. Rohrdanz,  E. Rosta,  N. J. Russ,  H. F. Schaefer III,  
 M. W. Schmidt,  N. E. Schultz,  S. Sharma,  N. Shenvi,  C. D. Sherrill,  
 A. C. Simmonett,  A. Sodt,  T. Stein,  D. Stuck,  K. S. Thanthiriwatte,  
 V. Vanovschi,  L. Vogt,  Tao Wang,  A. Warshel,  M. A. Watson,  
 C. F. Williams,  Q. Wu,  X. Xu,  Jun Yang,  W. Zhang,  Yan Zhao

   Please cite Q-Chem as follows:
  "Software for the frontiers of quantum chemistry:
   An overview of developments in the Q-Chem 5 package"
   J. Chem. Phys. 155, 084801 (2021)
   https://doi.org/10.1063/5.0055522 (open access)

 Q-Chem 6.0.0 for Intel X86 EM64T Linux

 Parts of Q-Chem use Armadillo 9.900.5 (Nocturnal Misbehaviour).
 http://arma.sourceforge.net/

 Q-Chem begins on Thu Jul 21 09:24:32 2022  

 Host: nid00561
0

     Scratch files written to /global/cscratch1/sd/ymao90/r7.00_frame_0070_almo_B3LYP_dp20220721031503//
 Processing $rem in /global/homes/y/ymao90/my_qchem/qchem_embedding_5p4/config/preferences:
 Processing $rem in /global/homes/y/ymao90/.qchemrc:

 Checking the input file for inconsistencies... 	...done.

--------------------------------------------------------------
User input:
--------------------------------------------------------------
$molecule
0 1
--
0 1
C    26.22900   24.25800   26.21400  
C    26.28300   25.74600   26.60000  
C    24.92200   26.43100   26.80300  
C    23.93900   25.61800   27.66100  
C    23.84600   24.12300   27.31400  
C    25.23200   23.49200   27.09900  
H    25.11200   27.42200   27.23300  
H    26.69900   25.75900   27.61500  
H    25.79800   24.12200   25.21500  
H    27.22800   23.80600   26.24900  
H    24.32900   25.65100   28.68600  
H    22.93000   26.03400   27.55200  
H    23.18200   23.65900   28.05300  
H    23.32400   24.07000   26.35000  
H    25.64000   23.38700   28.11200  
H    25.23900   22.47300   26.69500  
H    24.41400   26.68800   25.86400  
N    27.12200   26.41700   25.60900  
H    27.02700   26.28100   24.61000  
C    28.01000   27.42700   25.91400  
H    28.56400   27.76200   25.01800  
O    28.22200   27.77200   27.06300  
--
0 1
C    24.04300   28.83500   23.73800  
H    24.71400   29.69300   23.82400  
H    23.50600   28.59600   24.65900  
H    24.63300   27.93900   23.52700  
S    22.91200   29.09000   22.35100  
C    21.91600   30.41400   23.07200  
H    22.57700   31.08400   23.62700  
H    21.43800   31.11900   22.38700  
H    21.10500   30.02100   23.69100  
O    21.93300   27.97400   22.54200  
C    22.42900   27.93200   31.05400  
H    21.66500   28.27900   30.35400  
H    22.66300   28.77100   31.71400  
H    23.25300   27.59000   30.42200  
S    21.83900   26.58700   32.10800  
C    21.57400   25.60900   30.61200  
H    20.68300   25.84400   30.02500  
H    22.49200   25.45100   30.03900  
H    21.34200   24.63000   31.03900  
O    20.43600   26.96000   32.47400  
C    25.73100   30.10200   31.34500  
H    25.55800   29.38700   30.53700  
H    24.86800   30.75500   31.49700  
H    26.62200   30.72000   31.20700  
S    25.91000   29.07600   32.82200  
C    27.53700   28.40600   32.41100  
H    27.74400   27.63400   33.15700  
H    27.39500   27.84600   31.48300  
H    28.29400   29.19300   32.45500  
O    24.99400   27.96200   32.41800  
C    30.31100   29.06200   29.42400  
H    30.10700   28.03000   29.13100  
H    30.04600   29.11100   30.48300  
H    29.68300   29.81000   28.93400  
S    32.03500   29.51400   29.12400  
C    32.57600   28.16300   30.19500  
H    32.56500   27.18600   29.70500  
H    33.60600   28.28400   30.54200  
H    31.82600   28.13100   30.98900  
O    32.24500   30.71000   30.00100  
C    27.70800   21.67400   28.83500  
H    27.31000   21.00300   28.07000  
H    27.05300   21.62300   29.70800  
H    27.70200   22.68500   28.42000  
S    29.34000   21.26300   29.49400  
C    29.92300   20.47800   27.97400  
H    29.50600   19.47200   27.88200  
H    29.66800   21.18400   27.18000  
H    31.01100   20.38400   28.03100  
O    28.98800   20.04000   30.28300  
C    28.41300   35.21600   27.89600  
H    27.41100   35.65100   27.92500  
H    29.09200   36.06500   27.78800  
H    28.49500   34.61700   26.98500  
S    28.84700   34.16500   29.30000  
C    30.56100   33.82000   28.84600  
H    30.92200   33.02600   29.50500  
H    30.57700   33.51500   27.79700  
H    31.05500   34.76100   29.10200  
O    28.08100   32.88700   29.15300  
C    25.08100   23.73400   32.05100  
H    24.29000   24.22800   31.48200  
H    25.57600   23.06900   31.33800  
H    24.66400   23.17400   32.89200  
S    26.32100   24.77400   32.85500  
C    27.47900   24.55300   31.48600  
H    27.29500   25.23700   30.65300  
H    28.45500   24.74100   31.94100  
H    27.60300   23.52400   31.13700  
O    26.78900   23.89300   33.97100  
C    19.71500   22.14000   28.13300  
H    20.69300   22.40800   28.53900  
H    18.97300   22.45300   28.87200  
H    19.59500   21.08400   27.87900  
S    19.54100   23.08700   26.60400  
C    20.98800   22.27300   25.89000  
H    21.04800   22.73700   24.90200  
H    21.85900   22.48000   26.51600  
H    20.84400   21.19100   25.93800  
O    20.11200   24.42100   26.97100  
C    30.98900   27.14100   22.71400  
H    30.26500   26.53300   23.26300  
H    30.60400   28.12300   22.42700  
H    31.32800   26.71300   21.76700  
S    32.52800   27.13300   23.66100  
C    33.37000   28.53600   22.89400  
H    32.80800   29.37300   23.31700  
H    34.45100   28.59200   23.04900  
H    33.19900   28.55800   21.81500  
O    33.16800   25.88200   23.14500  
C    18.57300   26.93500   22.30800  
H    19.40700   26.51500   21.74000  
H    17.84600   26.12700   22.42500  
H    18.13200   27.78900   21.78800  
S    19.10000   27.54600   23.92400  
C    19.64300   25.93700   24.54100  
H    20.48000   25.62800   23.90900  
H    20.05400   26.18900   25.52100  
H    18.78400   25.27200   24.66600  
O    17.81500   27.67100   24.68200  
C    17.65900   25.19400   29.73200  
H    18.42900   25.46000   29.00200  
H    17.64000   26.08500   30.36500  
H    17.91900   24.39000   30.42500  
S    16.21300   24.91900   28.68400  
C    15.63100   26.62000   28.49800  
H    16.52000   27.02200   28.00400  
H    14.70800   26.66700   27.91500  
H    15.47300   26.99600   29.51200  
O    15.14400   24.27300   29.51000  
C    19.20700   17.33400   30.02200  
H    18.46100   18.03000   30.41200  
H    18.98300   16.27600   30.17700  
H    20.16900   17.67800   30.41100  
S    19.58200   17.66800   28.28600  
C    20.93500   16.47100   28.25300  
H    20.44400   15.51600   28.45700  
H    21.34100   16.34600   27.24600  
H    21.75000   16.56900   28.97400  
O    20.28600   18.97800   28.45600  
C    29.04800   30.88200   26.39800  
H    28.37500   31.08400   25.56100  
H    28.68500   30.03700   26.99000  
H    29.23600   31.75800   27.02400  
S    30.57200   30.36900   25.57400  
C    30.79400   31.92600   24.68400  
H    29.86200   32.20200   24.18500  
H    31.00300   32.66000   25.46700  
H    31.62100   31.80800   23.97900  
O    30.27700   29.41500   24.45900  
C    17.90600   21.48400   31.23200  
H    17.42000   21.07600   32.12200  
H    17.55800   22.51400   31.12500  
H    17.51300   20.83600   30.44500  
S    19.71000   21.44400   31.33800  
C    19.85500   20.13200   32.57200  
H    19.62800   20.53500   33.56300  
H    19.08000   19.38300   32.39000  
H    20.87500   19.75000   32.66700  
O    19.80400   22.73300   32.09400  
C    28.11800   27.84300   19.62700  
H    28.65700   28.65600   19.13600  
H    28.85900   27.24600   20.16500  
H    27.57000   27.25300   18.88800  
S    27.04400   28.48400   20.93100  
C    28.22300   29.75400   21.44400  
H    29.23000   29.38200   21.23900  
H    27.99300   30.69200   20.93200  
H    28.11700   29.96400   22.51200  
O    27.13200   27.39200   21.95100  
C    24.63300   33.68100   27.13000  
H    25.70700   33.67100   26.93000  
H    24.10600   34.38500   26.48200  
H    24.44300   33.92100   28.18000  
S    23.97100   32.01000   26.94600  
C    25.15900   31.08400   27.94500  
H    25.53400   31.65100   28.80100  
H    24.70900   30.19100   28.38600  
H    26.00400   30.75500   27.33500  
O    24.27500   31.66300   25.52100  
C    20.09400   22.94600   21.06700  
H    21.15000   22.87400   21.33900  
H    19.69600   22.14800   20.43400  
H    19.97200   23.91500   20.57600  
S    19.00200   23.08700   22.49900  
C    19.09900   21.32200   22.87300  
H    20.10500   20.96200   23.10400  
H    18.41900   21.08900   23.69700  
H    18.81900   20.79700   21.95700  
O    17.60700   23.29500   21.99700  
C    19.45000   30.05000   27.05300  
H    18.82500   29.39400   26.44200  
H    18.99000   30.20600   28.03300  
H    19.68500   31.04000   26.65600  
S    20.99600   29.15200   27.31400  
C    20.14400   27.82800   28.19900  
H    19.66200   27.05900   27.59000  
H    20.95000   27.19800   28.58400  
H    19.51600   28.17900   29.02200  
O    21.63100   30.03400   28.34400  
C    23.32200   18.95500   22.22300  
H    22.33600   19.31300   21.91500  
H    23.87700   18.47700   21.41100  
H    23.05300   18.30600   23.06000  
S    24.25000   20.35200   22.89400  
C    25.17200   19.41800   24.13500  
H    24.42500   19.14900   24.88700  
H    25.70000   18.53200   23.77300  
H    25.94300   20.09200   24.51800  
O    23.14500   21.20400   23.43500  
C    23.63700   19.48000   27.88900  
H    24.50100   19.81400   27.30900  
H    23.73100   18.39100   27.89600  
H    22.64200   19.84100   27.61600  
S    24.12400   19.97700   29.55600  
C    22.54700   19.69400   30.39100  
H    22.10000   18.69800   30.44700  
H    22.51200   20.21200   31.35300  
H    21.84000   20.12400   29.67700  
O    24.29000   21.44900   29.33900  
C    25.16500   23.97700   21.84000  
H    26.02600   23.93600   21.16700  
H    25.47400   24.11300   22.88000  
H    24.55800   23.09400   21.62600  
S    24.21000   25.44700   21.40300  
C    23.29100   25.23200   22.94500  
H    22.40900   25.86900   22.84100  
H    22.93200   24.20100   23.00200  
H    23.88500   25.61100   23.78000  
O    23.28600   24.96700   20.32800  
C    28.03400   21.54800   23.94300  
H    27.88800   22.01300   24.92100  
H    27.29400   21.90000   23.21900  
H    28.23600   20.47900   24.05100  
S    29.55300   22.30900   23.32900  
C    29.03100   24.03700   23.25700  
H    29.64400   24.56600   23.99200  
H    29.02700   24.53000   22.28200  
H    28.01200   24.05900   23.65100  
O    29.47000   21.87300   21.89900  
C    27.65600   15.37000   29.27500  
H    27.09200   14.65900   29.88300  
H    28.43700   14.82600   28.73800  
H    28.03000   16.05500   30.04000  
S    26.56900   16.09700   28.02800  
C    27.74300   17.23200   27.25400  
H    28.74200   16.80100   27.15100  
H    27.26300   17.49800   26.30900  
H    27.74600   18.05900   27.96800  
O    25.67000   17.09200   28.69300  
C    29.73800   25.02900   28.53100  
H    30.27200   25.85100   29.01500  
H    28.97300   25.58200   27.98000  
H    29.14300   24.48800   29.27100  
S    30.63700   23.96300   27.38100  
C    31.23200   25.49000   26.62000  
H    31.81500   25.07300   25.79500  
H    30.44300   26.13400   26.22400  
H    31.92900   25.94200   27.33100  
O    29.59500   23.43400   26.44500  
$end

$rem
JOBTYPE  SP
METHOD  B3LYP
BASIS  6-31+G(D)
SYMMETRY  FALSE
SYM_IGNORE  TRUE
MEM_TOTAL  12000
MEM_STATIC  4000
BASIS_LIN_DEP_THRESH  6
THRESH  14
SCF_CONVERGENCE  8
FD_MAT_VEC_PROD  FALSE
XC_GRID  000075000302
NL_GRID  1
MAX_SCF_CYCLES  200
FRGM_METHOD  STOLL
SCFMI_MODE  1
ALMO_EFIELD  TRUE
$end

$rem_frgm
SCF_CONVERGENCE  4
$end


--------------------------------------------------------------
 ----------------------------------------------------------------
             Standard Nuclear Orientation (Angstroms)
    I     Atom           X                Y                Z
 ----------------------------------------------------------------
    1      C      26.2290000000    24.2580000000    26.2140000000
    2      C      26.2830000000    25.7460000000    26.6000000000
    3      C      24.9220000000    26.4310000000    26.8030000000
    4      C      23.9390000000    25.6180000000    27.6610000000
    5      C      23.8460000000    24.1230000000    27.3140000000
    6      C      25.2320000000    23.4920000000    27.0990000000
    7      H      25.1120000000    27.4220000000    27.2330000000
    8      H      26.6990000000    25.7590000000    27.6150000000
    9      H      25.7980000000    24.1220000000    25.2150000000
   10      H      27.2280000000    23.8060000000    26.2490000000
   11      H      24.3290000000    25.6510000000    28.6860000000
   12      H      22.9300000000    26.0340000000    27.5520000000
   13      H      23.1820000000    23.6590000000    28.0530000000
   14      H      23.3240000000    24.0700000000    26.3500000000
   15      H      25.6400000000    23.3870000000    28.1120000000
   16      H      25.2390000000    22.4730000000    26.6950000000
   17      H      24.4140000000    26.6880000000    25.8640000000
   18      N      27.1220000000    26.4170000000    25.6090000000
   19      H      27.0270000000    26.2810000000    24.6100000000
   20      C      28.0100000000    27.4270000000    25.9140000000
   21      H      28.5640000000    27.7620000000    25.0180000000
   22      O      28.2220000000    27.7720000000    27.0630000000
   23      C      24.0430000000    28.8350000000    23.7380000000
   24      H      24.7140000000    29.6930000000    23.8240000000
   25      H      23.5060000000    28.5960000000    24.6590000000
   26      H      24.6330000000    27.9390000000    23.5270000000
   27      S      22.9120000000    29.0900000000    22.3510000000
   28      C      21.9160000000    30.4140000000    23.0720000000
   29      H      22.5770000000    31.0840000000    23.6270000000
   30      H      21.4380000000    31.1190000000    22.3870000000
   31      H      21.1050000000    30.0210000000    23.6910000000
   32      O      21.9330000000    27.9740000000    22.5420000000
   33      C      22.4290000000    27.9320000000    31.0540000000
   34      H      21.6650000000    28.2790000000    30.3540000000
   35      H      22.6630000000    28.7710000000    31.7140000000
   36      H      23.2530000000    27.5900000000    30.4220000000
   37      S      21.8390000000    26.5870000000    32.1080000000
   38      C      21.5740000000    25.6090000000    30.6120000000
   39      H      20.6830000000    25.8440000000    30.0250000000
   40      H      22.4920000000    25.4510000000    30.0390000000
   41      H      21.3420000000    24.6300000000    31.0390000000
   42      O      20.4360000000    26.9600000000    32.4740000000
   43      C      25.7310000000    30.1020000000    31.3450000000
   44      H      25.5580000000    29.3870000000    30.5370000000
   45      H      24.8680000000    30.7550000000    31.4970000000
   46      H      26.6220000000    30.7200000000    31.2070000000
   47      S      25.9100000000    29.0760000000    32.8220000000
   48      C      27.5370000000    28.4060000000    32.4110000000
   49      H      27.7440000000    27.6340000000    33.1570000000
   50      H      27.3950000000    27.8460000000    31.4830000000
   51      H      28.2940000000    29.1930000000    32.4550000000
   52      O      24.9940000000    27.9620000000    32.4180000000
   53      C      30.3110000000    29.0620000000    29.4240000000
   54      H      30.1070000000    28.0300000000    29.1310000000
   55      H      30.0460000000    29.1110000000    30.4830000000
   56      H      29.6830000000    29.8100000000    28.9340000000
   57      S      32.0350000000    29.5140000000    29.1240000000
   58      C      32.5760000000    28.1630000000    30.1950000000
   59      H      32.5650000000    27.1860000000    29.7050000000
   60      H      33.6060000000    28.2840000000    30.5420000000
   61      H      31.8260000000    28.1310000000    30.9890000000
   62      O      32.2450000000    30.7100000000    30.0010000000
   63      C      27.7080000000    21.6740000000    28.8350000000
   64      H      27.3100000000    21.0030000000    28.0700000000
   65      H      27.0530000000    21.6230000000    29.7080000000
   66      H      27.7020000000    22.6850000000    28.4200000000
   67      S      29.3400000000    21.2630000000    29.4940000000
   68      C      29.9230000000    20.4780000000    27.9740000000
   69      H      29.5060000000    19.4720000000    27.8820000000
   70      H      29.6680000000    21.1840000000    27.1800000000
   71      H      31.0110000000    20.3840000000    28.0310000000
   72      O      28.9880000000    20.0400000000    30.2830000000
   73      C      28.4130000000    35.2160000000    27.8960000000
   74      H      27.4110000000    35.6510000000    27.9250000000
   75      H      29.0920000000    36.0650000000    27.7880000000
   76      H      28.4950000000    34.6170000000    26.9850000000
   77      S      28.8470000000    34.1650000000    29.3000000000
   78      C      30.5610000000    33.8200000000    28.8460000000
   79      H      30.9220000000    33.0260000000    29.5050000000
   80      H      30.5770000000    33.5150000000    27.7970000000
   81      H      31.0550000000    34.7610000000    29.1020000000
   82      O      28.0810000000    32.8870000000    29.1530000000
   83      C      25.0810000000    23.7340000000    32.0510000000
   84      H      24.2900000000    24.2280000000    31.4820000000
   85      H      25.5760000000    23.0690000000    31.3380000000
   86      H      24.6640000000    23.1740000000    32.8920000000
   87      S      26.3210000000    24.7740000000    32.8550000000
   88      C      27.4790000000    24.5530000000    31.4860000000
   89      H      27.2950000000    25.2370000000    30.6530000000
   90      H      28.4550000000    24.7410000000    31.9410000000
   91      H      27.6030000000    23.5240000000    31.1370000000
   92      O      26.7890000000    23.8930000000    33.9710000000
   93      C      19.7150000000    22.1400000000    28.1330000000
   94      H      20.6930000000    22.4080000000    28.5390000000
   95      H      18.9730000000    22.4530000000    28.8720000000
   96      H      19.5950000000    21.0840000000    27.8790000000
   97      S      19.5410000000    23.0870000000    26.6040000000
   98      C      20.9880000000    22.2730000000    25.8900000000
   99      H      21.0480000000    22.7370000000    24.9020000000
  100      H      21.8590000000    22.4800000000    26.5160000000
  101      H      20.8440000000    21.1910000000    25.9380000000
  102      O      20.1120000000    24.4210000000    26.9710000000
  103      C      30.9890000000    27.1410000000    22.7140000000
  104      H      30.2650000000    26.5330000000    23.2630000000
  105      H      30.6040000000    28.1230000000    22.4270000000
  106      H      31.3280000000    26.7130000000    21.7670000000
  107      S      32.5280000000    27.1330000000    23.6610000000
  108      C      33.3700000000    28.5360000000    22.8940000000
  109      H      32.8080000000    29.3730000000    23.3170000000
  110      H      34.4510000000    28.5920000000    23.0490000000
  111      H      33.1990000000    28.5580000000    21.8150000000
  112      O      33.1680000000    25.8820000000    23.1450000000
  113      C      18.5730000000    26.9350000000    22.3080000000
  114      H      19.4070000000    26.5150000000    21.7400000000
  115      H      17.8460000000    26.1270000000    22.4250000000
  116      H      18.1320000000    27.7890000000    21.7880000000
  117      S      19.1000000000    27.5460000000    23.9240000000
  118      C      19.6430000000    25.9370000000    24.5410000000
  119      H      20.4800000000    25.6280000000    23.9090000000
  120      H      20.0540000000    26.1890000000    25.5210000000
  121      H      18.7840000000    25.2720000000    24.6660000000
  122      O      17.8150000000    27.6710000000    24.6820000000
  123      C      17.6590000000    25.1940000000    29.7320000000
  124      H      18.4290000000    25.4600000000    29.0020000000
  125      H      17.6400000000    26.0850000000    30.3650000000
  126      H      17.9190000000    24.3900000000    30.4250000000
  127      S      16.2130000000    24.9190000000    28.6840000000
  128      C      15.6310000000    26.6200000000    28.4980000000
  129      H      16.5200000000    27.0220000000    28.0040000000
  130      H      14.7080000000    26.6670000000    27.9150000000
  131      H      15.4730000000    26.9960000000    29.5120000000
  132      O      15.1440000000    24.2730000000    29.5100000000
  133      C      19.2070000000    17.3340000000    30.0220000000
  134      H      18.4610000000    18.0300000000    30.4120000000
  135      H      18.9830000000    16.2760000000    30.1770000000
  136      H      20.1690000000    17.6780000000    30.4110000000
  137      S      19.5820000000    17.6680000000    28.2860000000
  138      C      20.9350000000    16.4710000000    28.2530000000
  139      H      20.4440000000    15.5160000000    28.4570000000
  140      H      21.3410000000    16.3460000000    27.2460000000
  141      H      21.7500000000    16.5690000000    28.9740000000
  142      O      20.2860000000    18.9780000000    28.4560000000
  143      C      29.0480000000    30.8820000000    26.3980000000
  144      H      28.3750000000    31.0840000000    25.5610000000
  145      H      28.6850000000    30.0370000000    26.9900000000
  146      H      29.2360000000    31.7580000000    27.0240000000
  147      S      30.5720000000    30.3690000000    25.5740000000
  148      C      30.7940000000    31.9260000000    24.6840000000
  149      H      29.8620000000    32.2020000000    24.1850000000
  150      H      31.0030000000    32.6600000000    25.4670000000
  151      H      31.6210000000    31.8080000000    23.9790000000
  152      O      30.2770000000    29.4150000000    24.4590000000
  153      C      17.9060000000    21.4840000000    31.2320000000
  154      H      17.4200000000    21.0760000000    32.1220000000
  155      H      17.5580000000    22.5140000000    31.1250000000
  156      H      17.5130000000    20.8360000000    30.4450000000
  157      S      19.7100000000    21.4440000000    31.3380000000
  158      C      19.8550000000    20.1320000000    32.5720000000
  159      H      19.6280000000    20.5350000000    33.5630000000
  160      H      19.0800000000    19.3830000000    32.3900000000
  161      H      20.8750000000    19.7500000000    32.6670000000
  162      O      19.8040000000    22.7330000000    32.0940000000
  163      C      28.1180000000    27.8430000000    19.6270000000
  164      H      28.6570000000    28.6560000000    19.1360000000
  165      H      28.8590000000    27.2460000000    20.1650000000
  166      H      27.5700000000    27.2530000000    18.8880000000
  167      S      27.0440000000    28.4840000000    20.9310000000
  168      C      28.2230000000    29.7540000000    21.4440000000
  169      H      29.2300000000    29.3820000000    21.2390000000
  170      H      27.9930000000    30.6920000000    20.9320000000
  171      H      28.1170000000    29.9640000000    22.5120000000
  172      O      27.1320000000    27.3920000000    21.9510000000
  173      C      24.6330000000    33.6810000000    27.1300000000
  174      H      25.7070000000    33.6710000000    26.9300000000
  175      H      24.1060000000    34.3850000000    26.4820000000
  176      H      24.4430000000    33.9210000000    28.1800000000
  177      S      23.9710000000    32.0100000000    26.9460000000
  178      C      25.1590000000    31.0840000000    27.9450000000
  179      H      25.5340000000    31.6510000000    28.8010000000
  180      H      24.7090000000    30.1910000000    28.3860000000
  181      H      26.0040000000    30.7550000000    27.3350000000
  182      O      24.2750000000    31.6630000000    25.5210000000
  183      C      20.0940000000    22.9460000000    21.0670000000
  184      H      21.1500000000    22.8740000000    21.3390000000
  185      H      19.6960000000    22.1480000000    20.4340000000
  186      H      19.9720000000    23.9150000000    20.5760000000
  187      S      19.0020000000    23.0870000000    22.4990000000
  188      C      19.0990000000    21.3220000000    22.8730000000
  189      H      20.1050000000    20.9620000000    23.1040000000
  190      H      18.4190000000    21.0890000000    23.6970000000
  191      H      18.8190000000    20.7970000000    21.9570000000
  192      O      17.6070000000    23.2950000000    21.9970000000
  193      C      19.4500000000    30.0500000000    27.0530000000
  194      H      18.8250000000    29.3940000000    26.4420000000
  195      H      18.9900000000    30.2060000000    28.0330000000
  196      H      19.6850000000    31.0400000000    26.6560000000
  197      S      20.9960000000    29.1520000000    27.3140000000
  198      C      20.1440000000    27.8280000000    28.1990000000
  199      H      19.6620000000    27.0590000000    27.5900000000
  200      H      20.9500000000    27.1980000000    28.5840000000
  201      H      19.5160000000    28.1790000000    29.0220000000
  202      O      21.6310000000    30.0340000000    28.3440000000
  203      C      23.3220000000    18.9550000000    22.2230000000
  204      H      22.3360000000    19.3130000000    21.9150000000
  205      H      23.8770000000    18.4770000000    21.4110000000
  206      H      23.0530000000    18.3060000000    23.0600000000
  207      S      24.2500000000    20.3520000000    22.8940000000
  208      C      25.1720000000    19.4180000000    24.1350000000
  209      H      24.4250000000    19.1490000000    24.8870000000
  210      H      25.7000000000    18.5320000000    23.7730000000
  211      H      25.9430000000    20.0920000000    24.5180000000
  212      O      23.1450000000    21.2040000000    23.4350000000
  213      C      23.6370000000    19.4800000000    27.8890000000
  214      H      24.5010000000    19.8140000000    27.3090000000
  215      H      23.7310000000    18.3910000000    27.8960000000
  216      H      22.6420000000    19.8410000000    27.6160000000
  217      S      24.1240000000    19.9770000000    29.5560000000
  218      C      22.5470000000    19.6940000000    30.3910000000
  219      H      22.1000000000    18.6980000000    30.4470000000
  220      H      22.5120000000    20.2120000000    31.3530000000
  221      H      21.8400000000    20.1240000000    29.6770000000
  222      O      24.2900000000    21.4490000000    29.3390000000
  223      C      25.1650000000    23.9770000000    21.8400000000
  224      H      26.0260000000    23.9360000000    21.1670000000
  225      H      25.4740000000    24.1130000000    22.8800000000
  226      H      24.5580000000    23.0940000000    21.6260000000
  227      S      24.2100000000    25.4470000000    21.4030000000
  228      C      23.2910000000    25.2320000000    22.9450000000
  229      H      22.4090000000    25.8690000000    22.8410000000
  230      H      22.9320000000    24.2010000000    23.0020000000
  231      H      23.8850000000    25.6110000000    23.7800000000
  232      O      23.2860000000    24.9670000000    20.3280000000
  233      C      28.0340000000    21.5480000000    23.9430000000
  234      H      27.8880000000    22.0130000000    24.9210000000
  235      H      27.2940000000    21.9000000000    23.2190000000
  236      H      28.2360000000    20.4790000000    24.0510000000
  237      S      29.5530000000    22.3090000000    23.3290000000
  238      C      29.0310000000    24.0370000000    23.2570000000
  239      H      29.6440000000    24.5660000000    23.9920000000
  240      H      29.0270000000    24.5300000000    22.2820000000
  241      H      28.0120000000    24.0590000000    23.6510000000
  242      O      29.4700000000    21.8730000000    21.8990000000
  243      C      27.6560000000    15.3700000000    29.2750000000
  244      H      27.0920000000    14.6590000000    29.8830000000
  245      H      28.4370000000    14.8260000000    28.7380000000
  246      H      28.0300000000    16.0550000000    30.0400000000
  247      S      26.5690000000    16.0970000000    28.0280000000
  248      C      27.7430000000    17.2320000000    27.2540000000
  249      H      28.7420000000    16.8010000000    27.1510000000
  250      H      27.2630000000    17.4980000000    26.3090000000
  251      H      27.7460000000    18.0590000000    27.9680000000
  252      O      25.6700000000    17.0920000000    28.6930000000
  253      C      29.7380000000    25.0290000000    28.5310000000
  254      H      30.2720000000    25.8510000000    29.0150000000
  255      H      28.9730000000    25.5820000000    27.9800000000
  256      H      29.1430000000    24.4880000000    29.2710000000
  257      S      30.6370000000    23.9630000000    27.3810000000
  258      C      31.2320000000    25.4900000000    26.6200000000
  259      H      31.8150000000    25.0730000000    25.7950000000
  260      H      30.4430000000    26.1340000000    26.2240000000
  261      H      31.9290000000    25.9420000000    27.3310000000
  262      O      29.5950000000    23.4340000000    26.4450000000
 ----------------------------------------------------------------
 Nuclear Repulsion Energy =       39508.58594287 hartrees
 There are      539 alpha and      539 beta electrons
 Requested basis set is 6-31+G(d)
 There are 863 shells and 2405 basis functions

 Total QAlloc Memory Limit  12000 MB
 Mega-Array Size      3911 MB
 MEM_STATIC part      4000 MB

 A cutoff of  1.0D-14 yielded 149053 shell pairs
 There are   1279160 function pairs
 Smallest overlap matrix eigenvalue = 5.62E-07
 Linear dependence detected in AO basis
 Tighter screening thresholds may be required for diffuse basis sets
 Use S2THRESH > 14 and THRESH = 14 in case of SCF convergence issues
 Number of orthogonalized atomic orbitals = 2403
 Maximum deviation from orthogonality = 1.097E-10

 Scale SEOQF with 1.000000e-03/1.000000e-03/1.000000e-03

 Standard Electronic Orientation quadrupole field applied
 Nucleus-field energy     =    -0.0000000982 hartrees
 Attempting to make child job directory: /global/cscratch1/sd/ymao90/r7.00_frame_0070_almo_B3LYP_dp20220721031503//Frg1/
 Attempting to make child job directory: /global/cscratch1/sd/ymao90/r7.00_frame_0070_almo_B3LYP_dp20220721031503//Frg2/
 Creating input file /global/cscratch1/sd/ymao90/r7.00_frame_0070_almo_B3LYP_dp20220721031503/Frg1.input
 using default PutDataFrgm: nothing
 calling putenv with: QCSCRATCH=/global/cscratch1/sd/ymao90/r7.00_frame_0070_almo_B3LYP_dp20220721031503/ 
 Spawning Job For Fragment 0
 Done Job For Fragment 0
 calling putenv with: QCSCRATCH=/global/cscratch1/sd/ymao90 
 calling putenv with: QCTHREADS=16 
 Creating input file /global/cscratch1/sd/ymao90/r7.00_frame_0070_almo_B3LYP_dp20220721031503/Frg2.input
 using default PutDataFrgm: nothing
 calling putenv with: QCSCRATCH=/global/cscratch1/sd/ymao90/r7.00_frame_0070_almo_B3LYP_dp20220721031503/ 
 Spawning Job For Fragment 1
 Done Job For Fragment 1
 calling putenv with: QCSCRATCH=/global/cscratch1/sd/ymao90 
 calling putenv with: QCTHREADS=16 
 Time for running child jobs:  CPU 0.36 s  wall 9810.51 s

 -----------------------------------------------------------------------
  General SCF calculation program by
  Eric Jon Sundstrom, Paul Horn, Yuezhi Mao, Dmitri Zuev, Alec White,
  David Stuck, Shaama M.S., Shane Yost, Joonho Lee, David Small,
  Daniel Levine, Susi Lehtola, Hugh Burton, Evgeny Epifanovsky,
  Bang C. Huynh
 -----------------------------------------------------------------------
Performing Restricted Closed Shell SCFMI
Doing General SCFMI
 Exchange:     0.2000 Hartree-Fock + 0.0800 Slater + 0.7200 B88
 Correlation:  0.1900 VWN1RPA + 0.8100 LYP
 Using Euler-Maclaurin-Lebedev (75,302) quadrature formula
performing fock build before subrot guess so that all methods have access
 using 16 threads for integral computing
 -------------------------------------------------------
 OpenMP Integral computing Module                
 Release: version 1.0, May 2013, Q-Chem Inc. Pittsburgh 
 -------------------------------------------------------
Printing subrot_rss_gen Method Specification:
Occupied Subspace Method is 0
Virtual Subspace Method is 0
Energy prior to optimization (guess energy) = -13681.088082724018
Begin Timing: Total SCF Calculation
begin iterations for algorithm: DIIS         
the SCF tolerance is set to 1.00e-08
    1  -13681.0880827240      3.30e-05     00000 
    2  -13681.0940766761      2.42e-05     00000 
    3  -13681.0948716979      1.99e-05     00000 
    4  -13681.0956214750      6.08e-06     00000 
    5  -13681.0956990693      2.58e-06     00000 
    6  -13681.0957158090      1.27e-06     00000 
    7  -13681.0957185777      1.11e-06     00000 
    8  -13681.0957208413      5.35e-07     00000 
    9  -13681.0957213537      2.49e-07     00000 
   10  -13681.0957214441      1.64e-07     00000 
   11  -13681.0957214880      1.11e-07     00000 
   12  -13681.0957215111      6.06e-08     00000 
   13  -13681.0957215186      2.74e-08     00000 
   14  -13681.0957215201      1.53e-08     00000 
   15  -13681.0957215205      9.76e-09     00000 Convergence criterion met
write pseudocanon occs and virts to disk
write pseudocanon orbital energies to disk
Timing for Total SCF: 11578.00s (wall), 159373.99s (cpu)
SCFMI Energy  -13681.0957215205
<S^2>            0.00000
 Total energy in the final basis set =   -13681.0957215205
    ==================================================
        The end of Object-Oriented SCFman: SCFMI      
    ==================================================

 --------------------------------------------------------------

                    Orbital Energies (a.u.)
 --------------------------------------------------------------

 Alpha MOs
 -- Occupied --
-89.0360 -89.0274 -89.0237 -89.0230 -89.0198 -89.0177 -89.0172 -89.0165
-88.9998 -88.9989 -88.9985 -88.9984 -88.9927 -88.9925 -88.9897 -88.9887
-88.9884 -88.9849 -88.9844 -88.9809 -88.9797 -88.9697 -88.9610 -88.9595
-19.1487 -19.1475 -19.1466 -19.1451 -19.1431 -19.1420 -19.1331 -19.1325
-19.1319 -19.1110 -19.1107 -19.1082 -19.1061 -19.1059 -19.1030 -19.1029
-19.1022 -19.0992 -19.0982 -19.0972 -19.0970 -19.0942 -19.0815 -19.0763
-19.0741 -14.3798 -10.3031 -10.2505 -10.2488 -10.2475 -10.2471 -10.2442
-10.2436 -10.2397 -10.2367 -10.2365 -10.2349 -10.2344 -10.2343 -10.2340
-10.2334 -10.2321 -10.2296 -10.2292 -10.2242 -10.2222 -10.2211 -10.2191
-10.2191 -10.2154 -10.2142 -10.2128 -10.2095 -10.2088 -10.2087 -10.2087
-10.2081 -10.2078 -10.2073 -10.2064 -10.2027 -10.2011 -10.2004 -10.2001
-10.1996 -10.1946 -10.1933 -10.1923 -10.1911 -10.1910 -10.1891 -10.1886
-10.1881 -10.1878 -10.1830 -10.1785 -10.1766 -10.1754 -10.1741 -10.1700
-10.1650  -8.0821  -8.0731  -8.0699  -8.0694  -8.0656  -8.0639  -8.0637
 -8.0625  -8.0461  -8.0448  -8.0448  -8.0443  -8.0385  -8.0380  -8.0358
 -8.0345  -8.0343  -8.0309  -8.0299  -8.0266  -8.0254  -8.0159  -8.0073
 -8.0048  -6.0464  -6.0450  -6.0397  -6.0374  -6.0358  -6.0344  -6.0338
 -6.0329  -6.0325  -6.0308  -6.0298  -6.0286  -6.0282  -6.0280  -6.0272
 -6.0271  -6.0269  -6.0268  -6.0264  -6.0255  -6.0233  -6.0210  -6.0210
 -6.0199  -6.0102  -6.0092  -6.0089  -6.0089  -6.0087  -6.0081  -6.0079
 -6.0076  -6.0039  -6.0031  -6.0024  -6.0024  -6.0021  -6.0018  -6.0016
 -6.0011  -6.0001  -5.9991  -5.9988  -5.9986  -5.9977  -5.9971  -5.9956
 -5.9954  -5.9951  -5.9942  -5.9940  -5.9931  -5.9929  -5.9920  -5.9915
 -5.9909  -5.9897  -5.9897  -5.9884  -5.9883  -5.9877  -5.9841  -5.9832
 -5.9805  -5.9791  -5.9730  -5.9716  -5.9703  -5.9691  -5.9678  -5.9649
 -5.9626  -1.0632  -1.0604  -1.0561  -1.0543  -1.0485  -1.0460  -1.0421
 -1.0414  -1.0411  -1.0208  -1.0203  -1.0184  -1.0181  -1.0181  -1.0168
 -1.0152  -1.0132  -1.0102  -1.0090  -1.0082  -1.0052  -1.0042  -0.9898
 -0.9880  -0.9814  -0.9390  -0.8358  -0.8327  -0.8305  -0.8300  -0.8280
 -0.8261  -0.8211  -0.8199  -0.8174  -0.8006  -0.7979  -0.7963  -0.7950
 -0.7941  -0.7938  -0.7922  -0.7920  -0.7903  -0.7876  -0.7859  -0.7822
 -0.7802  -0.7756  -0.7600  -0.7598  -0.7586  -0.7574  -0.7528  -0.7523
 -0.7517  -0.7495  -0.7469  -0.7422  -0.7398  -0.7382  -0.7333  -0.7316
 -0.7293  -0.7280  -0.7262  -0.7240  -0.7234  -0.7137  -0.7133  -0.7102
 -0.7092  -0.7049  -0.7031  -0.7019  -0.6891  -0.6779  -0.6490  -0.6461
 -0.6417  -0.6384  -0.6351  -0.6339  -0.6334  -0.6305  -0.6293  -0.6208
 -0.6182  -0.6129  -0.6127  -0.6117  -0.6078  -0.6051  -0.6046  -0.6036
 -0.6008  -0.5990  -0.5986  -0.5978  -0.5961  -0.5921  -0.5819  -0.5731
 -0.5723  -0.5626  -0.5382  -0.5156  -0.5142  -0.5094  -0.5079  -0.5059
 -0.5021  -0.5005  -0.4998  -0.4983  -0.4973  -0.4962  -0.4949  -0.4914
 -0.4911  -0.4910  -0.4908  -0.4898  -0.4884  -0.4882  -0.4869  -0.4864
 -0.4835  -0.4834  -0.4814  -0.4804  -0.4800  -0.4794  -0.4788  -0.4773
 -0.4771  -0.4752  -0.4745  -0.4729  -0.4723  -0.4721  -0.4716  -0.4711
 -0.4699  -0.4665  -0.4659  -0.4659  -0.4651  -0.4642  -0.4640  -0.4637
 -0.4629  -0.4628  -0.4620  -0.4615  -0.4608  -0.4604  -0.4596  -0.4592
 -0.4578  -0.4572  -0.4559  -0.4556  -0.4553  -0.4553  -0.4542  -0.4531
 -0.4505  -0.4502  -0.4499  -0.4496  -0.4486  -0.4479  -0.4477  -0.4476
 -0.4467  -0.4460  -0.4457  -0.4449  -0.4433  -0.4414  -0.4407  -0.4381
 -0.4375  -0.4373  -0.4361  -0.4358  -0.4353  -0.4345  -0.4338  -0.4335
 -0.4328  -0.4327  -0.4324  -0.4308  -0.4307  -0.4303  -0.4300  -0.4299
 -0.4295  -0.4286  -0.4279  -0.4276  -0.4264  -0.4261  -0.4244  -0.4242
 -0.4227  -0.4205  -0.4188  -0.4180  -0.4165  -0.4159  -0.4152  -0.4144
 -0.4136  -0.4127  -0.4114  -0.4104  -0.4100  -0.4089  -0.4082  -0.4078
 -0.4065  -0.4059  -0.4057  -0.4053  -0.4033  -0.4025  -0.4010  -0.4008
 -0.3994  -0.3989  -0.3985  -0.3980  -0.3970  -0.3966  -0.3957  -0.3936
 -0.3934  -0.3927  -0.3921  -0.3915  -0.3906  -0.3894  -0.3892  -0.3887
 -0.3866  -0.3842  -0.3837  -0.3829  -0.3811  -0.3808  -0.3792  -0.3779
 -0.3776  -0.3763  -0.3760  -0.3755  -0.3753  -0.3746  -0.3703  -0.3643
 -0.3636  -0.3631  -0.3608  -0.3608  -0.3592  -0.3568  -0.3563  -0.3560
 -0.3516  -0.3513  -0.3500  -0.3498  -0.3488  -0.3464  -0.3459  -0.3456
 -0.3419  -0.3418  -0.3329  -0.3311  -0.3271  -0.3267  -0.3199  -0.3136
 -0.3081  -0.3068  -0.3057  -0.3053  -0.3029  -0.3022  -0.2941  -0.2939
 -0.2913  -0.2837  -0.2792  -0.2783  -0.2743  -0.2741  -0.2712  -0.2702
 -0.2678  -0.2667  -0.2656  -0.2639  -0.2622  -0.2615  -0.2604  -0.2594
 -0.2591  -0.2590  -0.2582  -0.2575  -0.2574  -0.2567  -0.2552  -0.2527
 -0.2425  -0.2391  -0.2378  -0.2373  -0.2351  -0.2351  -0.2335  -0.2315
 -0.2298  -0.2280  -0.2271  -0.2262  -0.2256  -0.2250  -0.2223  -0.2214
 -0.2054  -0.2044  -0.2036
 -- Virtual --
 -0.0383  -0.0359  -0.0303  -0.0299  -0.0296  -0.0265  -0.0259  -0.0257
 -0.0212  -0.0189  -0.0172  -0.0164  -0.0146  -0.0137  -0.0121  -0.0112
 -0.0093  -0.0083  -0.0073  -0.0068  -0.0061  -0.0049  -0.0045  -0.0030
 -0.0018  -0.0007   0.0008   0.0010   0.0029   0.0033   0.0041   0.0046
  0.0056   0.0057   0.0068   0.0076   0.0077   0.0090   0.0098   0.0101
  0.0108   0.0127   0.0131   0.0138   0.0141   0.0146   0.0155   0.0164
  0.0171   0.0182   0.0195   0.0200   0.0213   0.0217   0.0224   0.0232
  0.0241   0.0243   0.0251   0.0256   0.0263   0.0273   0.0285   0.0290
  0.0300   0.0302   0.0306   0.0311   0.0316   0.0327   0.0339   0.0341
  0.0349   0.0355   0.0365   0.0373   0.0377   0.0387   0.0390   0.0403
  0.0405   0.0409   0.0416   0.0433   0.0439   0.0440   0.0444   0.0448
  0.0460   0.0471   0.0485   0.0496   0.0498   0.0505   0.0508   0.0513
  0.0528   0.0529   0.0532   0.0537   0.0545   0.0554   0.0559   0.0566
  0.0576   0.0579   0.0590   0.0601   0.0610   0.0614   0.0623   0.0630
  0.0635   0.0641   0.0647   0.0652   0.0654   0.0666   0.0672   0.0684
  0.0688   0.0692   0.0699   0.0710   0.0712   0.0722   0.0733   0.0738
  0.0743   0.0747   0.0751   0.0758   0.0767   0.0773   0.0779   0.0784
  0.0790   0.0797   0.0800   0.0802   0.0816   0.0822   0.0835   0.0837
  0.0848   0.0854   0.0861   0.0871   0.0872   0.0880   0.0890   0.0894
  0.0902   0.0913   0.0920   0.0920   0.0924   0.0938   0.0940   0.0947
  0.0962   0.0966   0.0975   0.0982   0.0988   0.0994   0.1003   0.1007
  0.1015   0.1022   0.1032   0.1039   0.1043   0.1045   0.1053   0.1061
  0.1072   0.1075   0.1083   0.1086   0.1094   0.1101   0.1116   0.1121
  0.1127   0.1131   0.1137   0.1152   0.1154   0.1167   0.1168   0.1176
  0.1184   0.1185   0.1196   0.1214   0.1219   0.1221   0.1224   0.1233
  0.1242   0.1249   0.1252   0.1258   0.1267   0.1274   0.1276   0.1287
  0.1293   0.1298   0.1299   0.1305   0.1313   0.1316   0.1323   0.1329
  0.1343   0.1346   0.1352   0.1369   0.1375   0.1385   0.1388   0.1393
  0.1397   0.1401   0.1405   0.1408   0.1420   0.1431   0.1437   0.1439
  0.1442   0.1461   0.1466   0.1471   0.1473   0.1479   0.1486   0.1495
  0.1505   0.1508   0.1516   0.1524   0.1531   0.1538   0.1545   0.1549
  0.1559   0.1563   0.1565   0.1569   0.1581   0.1588   0.1593   0.1605
  0.1609   0.1621   0.1626   0.1634   0.1639   0.1650   0.1653   0.1661
  0.1669   0.1682   0.1688   0.1691   0.1698   0.1701   0.1710   0.1714
  0.1716   0.1729   0.1732   0.1734   0.1740   0.1745   0.1759   0.1767
  0.1769   0.1787   0.1789   0.1792   0.1802   0.1805   0.1807   0.1814
  0.1818   0.1824   0.1832   0.1838   0.1847   0.1856   0.1859   0.1866
  0.1876   0.1878   0.1884   0.1891   0.1895   0.1906   0.1908   0.1915
  0.1926   0.1933   0.1937   0.1944   0.1951   0.1957   0.1962   0.1971
  0.1976   0.1983   0.1990   0.1994   0.2015   0.2021   0.2032   0.2037
  0.2046   0.2051   0.2057   0.2062   0.2076   0.2080   0.2087   0.2094
  0.2101   0.2105   0.2113   0.2119   0.2126   0.2130   0.2141   0.2145
  0.2152   0.2162   0.2166   0.2172   0.2180   0.2184   0.2188   0.2193
  0.2199   0.2215   0.2223   0.2229   0.2237   0.2245   0.2254   0.2261
  0.2271   0.2274   0.2282   0.2285   0.2293   0.2301   0.2308   0.2312
  0.2322   0.2323   0.2330   0.2335   0.2347   0.2358   0.2361   0.2367
  0.2377   0.2394   0.2396   0.2400   0.2405   0.2410   0.2418   0.2421
  0.2431   0.2440   0.2447   0.2455   0.2463   0.2469   0.2475   0.2483
  0.2493   0.2500   0.2505   0.2507   0.2523   0.2525   0.2544   0.2549
  0.2559   0.2562   0.2564   0.2576   0.2583   0.2592   0.2593   0.2606
  0.2611   0.2617   0.2622   0.2629   0.2635   0.2654   0.2657   0.2666
  0.2673   0.2686   0.2699   0.2709   0.2717   0.2718   0.2734   0.2741
  0.2747   0.2751   0.2758   0.2773   0.2778   0.2787   0.2798   0.2807
  0.2809   0.2824   0.2829   0.2836   0.2839   0.2853   0.2856   0.2873
  0.2877   0.2887   0.2902   0.2915   0.2925   0.2930   0.2947   0.2953
  0.2955   0.2961   0.2966   0.2978   0.2996   0.3005   0.3008   0.3018
  0.3025   0.3043   0.3049   0.3060   0.3068   0.3073   0.3082   0.3088
  0.3094   0.3107   0.3111   0.3126   0.3134   0.3140   0.3148   0.3156
  0.3162   0.3180   0.3190   0.3206   0.3212   0.3223   0.3231   0.3239
  0.3244   0.3248   0.3255   0.3262   0.3275   0.3285   0.3292   0.3310
  0.3316   0.3323   0.3330   0.3344   0.3356   0.3363   0.3368   0.3378
  0.3398   0.3401   0.3405   0.3412   0.3424   0.3433   0.3451   0.3459
  0.3479   0.3480   0.3482   0.3492   0.3504   0.3519   0.3522   0.3534
  0.3537   0.3540   0.3557   0.3564   0.3575   0.3596   0.3601   0.3610
  0.3619   0.3628   0.3637   0.3645   0.3653   0.3661   0.3673   0.3682
  0.3688   0.3697   0.3703   0.3710   0.3719   0.3732   0.3746   0.3764
  0.3768   0.3774   0.3784   0.3797   0.3797   0.3814   0.3821   0.3825
  0.3834   0.3842   0.3850   0.3864   0.3868   0.3878   0.3885   0.3894
  0.3900   0.3911   0.3920   0.3935   0.3941   0.3950   0.3959   0.3978
  0.3990   0.3998   0.4001   0.4010   0.4029   0.4035   0.4048   0.4056
  0.4061   0.4068   0.4091   0.4105   0.4113   0.4121   0.4128   0.4149
  0.4152   0.4157   0.4165   0.4183   0.4191   0.4205   0.4212   0.4217
  0.4234   0.4241   0.4253   0.4255   0.4265   0.4294   0.4298   0.4302
  0.4322   0.4324   0.4345   0.4349   0.4359   0.4373   0.4377   0.4400
  0.4412   0.4427   0.4438   0.4471   0.4480   0.4486   0.4500   0.4504
  0.4511   0.4519   0.4532   0.4538   0.4548   0.4561   0.4571   0.4595
  0.4602   0.4615   0.4628   0.4645   0.4657   0.4670   0.4685   0.4707
  0.4725   0.4727   0.4746   0.4758   0.4762   0.4780   0.4783   0.4800
  0.4818   0.4831   0.4849   0.4862   0.4872   0.4891   0.4894   0.4912
  0.4948   0.4959   0.4971   0.4996   0.5023   0.5031   0.5043   0.5064
  0.5076   0.5098   0.5125   0.5138   0.5162   0.5172   0.5192   0.5201
  0.5227   0.5230   0.5258   0.5266   0.5273   0.5299   0.5314   0.5332
  0.5345   0.5360   0.5371   0.5390   0.5411   0.5418   0.5450   0.5478
  0.5499   0.5513   0.5533   0.5540   0.5552   0.5559   0.5590   0.5610
  0.5626   0.5643   0.5659   0.5670   0.5693   0.5707   0.5734   0.5736
  0.5743   0.5754   0.5777   0.5790   0.5802   0.5836   0.5845   0.5862
  0.5879   0.5902   0.5917   0.5930   0.5939   0.5960   0.5967   0.5990
  0.6000   0.6015   0.6036   0.6042   0.6060   0.6096   0.6101   0.6105
  0.6109   0.6137   0.6145   0.6154   0.6167   0.6183   0.6192   0.6207
  0.6222   0.6239   0.6242   0.6266   0.6273   0.6284   0.6297   0.6315
  0.6321   0.6332   0.6362   0.6379   0.6389   0.6408   0.6425   0.6433
  0.6457   0.6465   0.6476   0.6482   0.6492   0.6508   0.6515   0.6526
  0.6540   0.6550   0.6573   0.6580   0.6603   0.6607   0.6614   0.6634
  0.6649   0.6656   0.6669   0.6679   0.6685   0.6691   0.6698   0.6708
  0.6714   0.6738   0.6745   0.6759   0.6779   0.6787   0.6800   0.6815
  0.6822   0.6835   0.6850   0.6862   0.6869   0.6883   0.6905   0.6910
  0.6924   0.6930   0.6949   0.6962   0.6984   0.6989   0.6994   0.7000
  0.7029   0.7051   0.7055   0.7069   0.7083   0.7096   0.7105   0.7118
  0.7124   0.7149   0.7155   0.7176   0.7194   0.7201   0.7219   0.7237
  0.7239   0.7251   0.7259   0.7265   0.7297   0.7309   0.7317   0.7339
  0.7343   0.7377   0.7404   0.7409   0.7433   0.7439   0.7447   0.7456
  0.7481   0.7508   0.7519   0.7537   0.7544   0.7550   0.7573   0.7597
  0.7611   0.7625   0.7633   0.7654   0.7659   0.7689   0.7700   0.7711
  0.7734   0.7759   0.7773   0.7790   0.7818   0.7834   0.7857   0.7876
  0.7881   0.7902   0.7911   0.7937   0.7951   0.7958   0.7965   0.8004
  0.8013   0.8015   0.8030   0.8047   0.8080   0.8103   0.8109   0.8122
  0.8130   0.8147   0.8157   0.8165   0.8196   0.8210   0.8218   0.8238
  0.8254   0.8256   0.8271   0.8294   0.8313   0.8317   0.8328   0.8346
  0.8348   0.8360   0.8393   0.8404   0.8415   0.8422   0.8437   0.8453
  0.8476   0.8487   0.8504   0.8516   0.8556   0.8562   0.8576   0.8583
  0.8613   0.8621   0.8624   0.8647   0.8674   0.8679   0.8688   0.8710
  0.8735   0.8744   0.8760   0.8765   0.8781   0.8790   0.8800   0.8825
  0.8834   0.8836   0.8836   0.8867   0.8881   0.8894   0.8905   0.8922
  0.8932   0.8949   0.8965   0.8972   0.8984   0.9004   0.9021   0.9032
  0.9051   0.9059   0.9079   0.9089   0.9107   0.9113   0.9118   0.9132
  0.9141   0.9150   0.9165   0.9183   0.9189   0.9212   0.9228   0.9236
  0.9240   0.9256   0.9273   0.9281   0.9285   0.9302   0.9321   0.9333
  0.9343   0.9370   0.9376   0.9400   0.9406   0.9420   0.9431   0.9448
  0.9459   0.9475   0.9486   0.9500   0.9509   0.9518   0.9528   0.9536
  0.9559   0.9573   0.9580   0.9590   0.9601   0.9613   0.9625   0.9638
  0.9651   0.9656   0.9666   0.9671   0.9697   0.9703   0.9718   0.9726
  0.9746   0.9748   0.9760   0.9774   0.9788   0.9798   0.9811   0.9819
  0.9835   0.9838   0.9857   0.9864   0.9882   0.9891   0.9896   0.9908
  0.9917   0.9929   0.9934   0.9950   0.9967   0.9974   0.9990   1.0005
  1.0015   1.0029   1.0035   1.0049   1.0057   1.0083   1.0084   1.0095
  1.0104   1.0122   1.0134   1.0145   1.0163   1.0190   1.0194   1.0206
  1.0216   1.0238   1.0256   1.0259   1.0271   1.0284   1.0296   1.0308
  1.0335   1.0338   1.0352   1.0371   1.0380   1.0408   1.0418   1.0441
  1.0446   1.0461   1.0481   1.0493   1.0496   1.0510   1.0523   1.0535
  1.0558   1.0570   1.0581   1.0597   1.0603   1.0610   1.0628   1.0631
  1.0657   1.0679   1.0693   1.0703   1.0727   1.0747   1.0765   1.0770
  1.0784   1.0793   1.0813   1.0819   1.0838   1.0845   1.0860   1.0895
  1.0922   1.0935   1.0952   1.0960   1.0977   1.0994   1.1019   1.1029
  1.1035   1.1040   1.1056   1.1081   1.1103   1.1116   1.1126   1.1137
  1.1151   1.1160   1.1172   1.1182   1.1194   1.1202   1.1222   1.1228
  1.1247   1.1261   1.1267   1.1292   1.1304   1.1329   1.1344   1.1348
  1.1363   1.1371   1.1377   1.1425   1.1429   1.1430   1.1443   1.1480
  1.1488   1.1504   1.1521   1.1533   1.1539   1.1557   1.1571   1.1585
  1.1611   1.1630   1.1641   1.1669   1.1684   1.1689   1.1704   1.1719
  1.1748   1.1784   1.1788   1.1796   1.1812   1.1827   1.1845   1.1861
  1.1888   1.1891   1.1903   1.1925   1.1939   1.1946   1.1971   1.2008
  1.2020   1.2037   1.2059   1.2086   1.2106   1.2120   1.2129   1.2154
  1.2155   1.2164   1.2189   1.2232   1.2257   1.2268   1.2280   1.2307
  1.2332   1.2347   1.2391   1.2419   1.2430   1.2445   1.2468   1.2487
  1.2499   1.2516   1.2535   1.2581   1.2598   1.2601   1.2639   1.2656
  1.2672   1.2701   1.2739   1.2762   1.2777   1.2801   1.2837   1.2840
  1.2862   1.2893   1.2918   1.2955   1.2956   1.2991   1.3007   1.3056
  1.3068   1.3084   1.3094   1.3133   1.3158   1.3166   1.3189   1.3222
  1.3245   1.3253   1.3297   1.3305   1.3328   1.3339   1.3353   1.3371
  1.3396   1.3416   1.3436   1.3439   1.3452   1.3491   1.3500   1.3509
  1.3535   1.3548   1.3563   1.3570   1.3585   1.3607   1.3644   1.3656
  1.3663   1.3676   1.3702   1.3715   1.3728   1.3773   1.3786   1.3806
  1.3811   1.3846   1.3856   1.3869   1.3873   1.3882   1.3911   1.3925
  1.3933   1.3961   1.3981   1.3990   1.4008   1.4017   1.4020   1.4044
  1.4060   1.4088   1.4089   1.4124   1.4140   1.4153   1.4182   1.4199
  1.4207   1.4219   1.4244   1.4254   1.4278   1.4290   1.4297   1.4324
  1.4329   1.4353   1.4360   1.4377   1.4388   1.4406   1.4426   1.4450
  1.4473   1.4485   1.4497   1.4515   1.4525   1.4566   1.4570   1.4590
  1.4615   1.4633   1.4643   1.4663   1.4687   1.4703   1.4710   1.4719
  1.4734   1.4756   1.4784   1.4791   1.4819   1.4839   1.4889   1.4902
  1.4919   1.4932   1.4973   1.5000   1.5020   1.5044   1.5052   1.5069
  1.5096   1.5118   1.5156   1.5189   1.5212   1.5240   1.5243   1.5301
  1.5332   1.5360   1.5374   1.5403   1.5435   1.5469   1.5529   1.5542
  1.5610   1.5621   1.5639   1.5661   1.5674   1.5699   1.5738   1.5790
  1.5829   1.5880   1.5919   1.5944   1.5980   1.6029   1.6061   1.6125
  1.6159   1.6212   1.6269   1.6279   1.6334   1.6371   1.6376   1.6480
  1.6515   1.6547   1.6558   1.6565   1.6599   1.6627   1.6642   1.6658
  1.6666   1.6693   1.6718   1.6757   1.6764   1.6775   1.6797   1.6812
  1.6822   1.6839   1.6851   1.6878   1.6900   1.6908   1.6915   1.6928
  1.6946   1.6955   1.6966   1.6982   1.6999   1.7008   1.7018   1.7034
  1.7045   1.7055   1.7061   1.7077   1.7098   1.7111   1.7126   1.7140
  1.7153   1.7158   1.7173   1.7185   1.7200   1.7202   1.7211   1.7227
  1.7256   1.7260   1.7277   1.7293   1.7305   1.7322   1.7340   1.7365
  1.7377   1.7399   1.7408   1.7423   1.7460   1.7471   1.7486   1.7510
  1.7517   1.7533   1.7558   1.7568   1.7574   1.7588   1.7596   1.7606
  1.7624   1.7646   1.7665   1.7672   1.7690   1.7702   1.7714   1.7726
  1.7755   1.7772   1.7783   1.7786   1.7792   1.7828   1.7859   1.7877
  1.7895   1.7904   1.7911   1.7951   1.7961   1.7986   1.8016   1.8060
  1.8089   1.8128   1.8159   1.8176   1.8195   1.8254   1.8267   1.8299
  1.8324   1.8348   1.8353   1.8378   1.8456   1.8465   1.8499   1.8524
  1.8562   1.8569   1.8599   1.8640   1.8650   1.8652   1.8688   1.8698
  1.8716   1.8721   1.8731   1.8737   1.8746   1.8779   1.8817   1.8819
  1.8849   1.8867   1.8878   1.8888   1.8899   1.8916   1.8927   1.8936
  1.8946   1.8970   1.8992   1.9002   1.9009   1.9014   1.9055   1.9061
  1.9075   1.9095   1.9103   1.9123   1.9135   1.9151   1.9157   1.9170
  1.9176   1.9194   1.9210   1.9222   1.9234   1.9262   1.9295   1.9306
  1.9312   1.9329   1.9335   1.9372   1.9410   1.9438   1.9457   1.9471
  1.9481   1.9495   1.9550   1.9561   1.9573   1.9604   1.9647   1.9701
  1.9744   1.9760   1.9866   1.9966   2.0005   2.0109   2.0285   2.0312
  2.0332   2.0360   2.0387   2.0395   2.0398   2.0428   2.0447   2.0505
  2.0549   2.0590   2.0603   2.0611   2.0642   2.0689   2.0712   2.0712
  2.0724   2.0749   2.0762   2.0767   2.0781   2.0798   2.0805   2.0809
  2.0828   2.0834   2.0841   2.0866   2.0878   2.0902   2.0917   2.0972
  2.0983   2.0989   2.1005   2.1011   2.1020   2.1050   2.1060   2.1080
  2.1081   2.1108   2.1153   2.1171   2.1223   2.1257   2.1309   2.1322
  2.1332   2.1372   2.1396   2.1431   2.1439   2.1466   2.1472   2.1485
  2.1488   2.1564   2.1629   2.1662   2.1740   2.1770   2.1818   2.1851
  2.1857   2.1888   2.1903   2.1915   2.1930   2.1935   2.1956   2.1977
  2.1989   2.2021   2.2052   2.2067   2.2083   2.2123   2.2134   2.2147
  2.2174   2.2198   2.2219   2.2244   2.2259   2.2271   2.2273   2.2299
  2.2314   2.2330   2.2333   2.2355   2.2380   2.2395   2.2413   2.2431
  2.2445   2.2453   2.2485   2.2500   2.2507   2.2516   2.2522   2.2541
  2.2550   2.2558   2.2565   2.2571   2.2597   2.2597   2.2612   2.2613
  2.2625   2.2634   2.2642   2.2644   2.2655   2.2661   2.2669   2.2692
  2.2711   2.2727   2.2741   2.2751   2.2753   2.2766   2.2774   2.2788
  2.2806   2.2813   2.2816   2.2831   2.2836   2.2844   2.2858   2.2875
  2.2890   2.2909   2.2914   2.2918   2.2941   2.2949   2.2957   2.2963
  2.2996   2.2999   2.3015   2.3021   2.3032   2.3049   2.3058   2.3061
  2.3084   2.3103   2.3111   2.3121   2.3143   2.3161   2.3174   2.3177
  2.3183   2.3202   2.3214   2.3233   2.3248   2.3259   2.3260   2.3285
  2.3310   2.3333   2.3357   2.3371   2.3380   2.3417   2.3444   2.3452
  2.3466   2.3479   2.3495   2.3515   2.3532   2.3547   2.3572   2.3589
  2.3598   2.3625   2.3641   2.3660   2.3676   2.3709   2.3725   2.3747
  2.3773   2.3801   2.3820   2.3832   2.3892   2.3930   2.3936   2.3982
  2.3996   2.4075   2.4086   2.4126   2.4196   2.4414   2.4482   2.4508
  2.4700   2.5024   2.5162   2.5864   2.6533   2.7136   2.7359   2.7857
  2.8090   2.8149   2.8157   2.8210   2.8239   2.8292   2.8305   2.8317
  2.8357   2.8429   2.8460   2.8487   2.8502   2.8532   2.8565   2.8642
  2.8687   2.8709   2.8714   2.8718   2.8732   2.8807   2.8824   2.8869
  2.8919   2.8973   2.8998   2.9030   2.9424   3.0714   3.2172   3.9492
  3.9503   3.9548   3.9591   3.9647   3.9676   3.9694   3.9710   3.9780
  3.9808   3.9828   3.9844   3.9853   3.9882   3.9904   3.9941   4.0004
  4.0057   4.0074   4.0154   4.0183   4.0204   4.0215   4.0354   4.2051
  4.2159   4.2216   4.2239   4.2274   4.2288   4.2297   4.2345   4.2348
  4.2404   4.2407   4.2415   4.2497   4.2540   4.2584   4.2628   4.2642
  4.2653   4.2687   4.2704   4.2711   4.2745   4.2790   4.2808   4.2853
  4.2863   4.2921   4.2930   4.2954   4.2987   4.3028   4.3070   4.3094
  4.3112   4.3137   4.3156   4.3204   4.3213   4.3215   4.3296   4.3310
  4.3341   4.3387   4.3396   4.3446   4.3460   4.3493   4.3518   4.3529
  4.3567   4.3620   4.3701   4.3740   4.3751   4.3801   4.3848   4.3912
  4.3945   4.4024   4.4099   4.4143   4.4229   4.4297   4.4326   4.4419
  4.4520   4.4578   4.4670   4.4845   4.4850   4.4935   4.5034   4.5040
  4.5123   4.5426   4.5654   4.6102   4.7034   4.7164   4.7480   4.8185
 --------------------------------------------------------------

          Ground-State Mulliken Net Atomic Charges

     Atom                 Charge (a.u.)
  ----------------------------------------
      1 C                    -0.485643
      2 C                    -0.277088
      3 C                    -0.221170
      4 C                    -0.588212
      5 C                    -0.402192
      6 C                    -0.333543
      7 H                     0.216606
      8 H                     0.213939
      9 H                     0.191698
     10 H                     0.260867
     11 H                     0.190491
     12 H                     0.219602
     13 H                     0.234542
     14 H                     0.198978
     15 H                     0.212669
     16 H                     0.188918
     17 H                     0.196821
     18 N                    -0.380093
     19 H                     0.442757
     20 C                     0.283964
     21 H                     0.220039
     22 O                    -0.583952
     23 C                    -1.002734
     24 H                     0.267417
     25 H                     0.280111
     26 H                     0.272814
     27 S                     1.118322
     28 C                    -0.920066
     29 H                     0.277846
     30 H                     0.240889
     31 H                     0.280724
     32 O                    -0.750961
     33 C                    -0.980204
     34 H                     0.277648
     35 H                     0.244204
     36 H                     0.243748
     37 S                     1.186342
     38 C                    -1.053361
     39 H                     0.258253
     40 H                     0.229178
     41 H                     0.294281
     42 O                    -0.683872
     43 C                    -0.850167
     44 H                     0.268710
     45 H                     0.261924
     46 H                     0.249230
     47 S                     0.895354
     48 C                    -0.831432
     49 H                     0.268396
     50 H                     0.253505
     51 H                     0.229692
     52 O                    -0.758792
     53 C                    -0.869968
     54 H                     0.254457
     55 H                     0.251870
     56 H                     0.257416
     57 S                     0.997389
     58 C                    -0.869725
     59 H                     0.223711
     60 H                     0.258226
     61 H                     0.241351
     62 O                    -0.728735
     63 C                    -1.177106
     64 H                     0.256140
     65 H                     0.291569
     66 H                     0.255748
     67 S                     1.159201
     68 C                    -0.946881
     69 H                     0.244985
     70 H                     0.275731
     71 H                     0.247977
     72 O                    -0.740685
     73 C                    -0.781283
     74 H                     0.262279
     75 H                     0.240287
     76 H                     0.243082
     77 S                     0.737019
     78 C                    -0.784812
     79 H                     0.318655
     80 H                     0.207749
     81 H                     0.238523
     82 O                    -0.694348
     83 C                    -0.824865
     84 H                     0.248787
     85 H                     0.247799
     86 H                     0.259202
     87 S                     1.080988
     88 C                    -1.002397
     89 H                     0.235063
     90 H                     0.249721
     91 H                     0.250200
     92 O                    -0.720962
     93 C                    -0.753783
     94 H                     0.282982
     95 H                     0.243558
     96 H                     0.272797
     97 S                     0.777733
     98 C                    -0.866562
     99 H                     0.259336
    100 H                     0.293270
    101 H                     0.244336
    102 O                    -0.628580
    103 C                    -0.922644
    104 H                     0.251071
    105 H                     0.251350
    106 H                     0.256027
    107 S                     1.056852
    108 C                    -1.008214
    109 H                     0.235002
    110 H                     0.255499
    111 H                     0.242879
    112 O                    -0.683037
    113 C                    -1.085116
    114 H                     0.255374
    115 H                     0.286847
    116 H                     0.236996
    117 S                     1.145143
    118 C                    -1.002065
    119 H                     0.221977
    120 H                     0.273893
    121 H                     0.270417
    122 O                    -0.723534
    123 C                    -0.917549
    124 H                     0.262663
    125 H                     0.278915
    126 H                     0.268366
    127 S                     0.932754
    128 C                    -0.818874
    129 H                     0.234814
    130 H                     0.256442
    131 H                     0.251640
    132 O                    -0.718863
    133 C                    -0.790481
    134 H                     0.254783
    135 H                     0.232049
    136 H                     0.241519
    137 S                     1.003047
    138 C                    -0.880873
    139 H                     0.229907
    140 H                     0.257206
    141 H                     0.273396
    142 O                    -0.789277
    143 C                    -0.820155
    144 H                     0.244035
    145 H                     0.317792
    146 H                     0.250329
    147 S                     0.713310
    148 C                    -0.780468
    149 H                     0.253362
    150 H                     0.220630
    151 H                     0.252080
    152 O                    -0.671872
    153 C                    -0.972177
    154 H                     0.254550
    155 H                     0.288286
    156 H                     0.234868
    157 S                     1.112783
    158 C                    -1.013233
    159 H                     0.288887
    160 H                     0.232365
    161 H                     0.238236
    162 O                    -0.668882
    163 C                    -0.879893
    164 H                     0.239738
    165 H                     0.275221
    166 H                     0.260332
    167 S                     0.974296
    168 C                    -0.875977
    169 H                     0.239756
    170 H                     0.242907
    171 H                     0.276342
    172 O                    -0.669035
    173 C                    -0.927899
    174 H                     0.246953
    175 H                     0.249251
    176 H                     0.234305
    177 S                     1.004506
    178 C                    -0.814030
    179 H                     0.258861
    180 H                     0.270608
    181 H                     0.257996
    182 O                    -0.719067
    183 C                    -0.800994
    184 H                     0.272139
    185 H                     0.228706
    186 H                     0.267828
    187 S                     0.898023
    188 C                    -0.994464
    189 H                     0.265144
    190 H                     0.250133
    191 H                     0.242122
    192 O                    -0.667905
    193 C                    -0.848862
    194 H                     0.284806
    195 H                     0.256679
    196 H                     0.245039
    197 S                     1.078264
    198 C                    -1.195212
    199 H                     0.287493
    200 H                     0.257381
    201 H                     0.268765
    202 O                    -0.703927
    203 C                    -0.746800
    204 H                     0.269682
    205 H                     0.246900
    206 H                     0.238971
    207 S                     0.388610
    208 C                    -0.494614
    209 H                     0.254417
    210 H                     0.253456
    211 H                     0.258543
    212 O                    -0.620515
    213 C                    -0.830542
    214 H                     0.240426
    215 H                     0.276733
    216 H                     0.265244
    217 S                     0.720703
    218 C                    -0.803042
    219 H                     0.236987
    220 H                     0.232078
    221 H                     0.298553
    222 O                    -0.620454
    223 C                    -0.781710
    224 H                     0.250993
    225 H                     0.217158
    226 H                     0.274283
    227 S                     0.775627
    228 C                    -0.973344
    229 H                     0.324986
    230 H                     0.270048
    231 H                     0.233593
    232 O                    -0.671634
    233 C                    -0.938374
    234 H                     0.267421
    235 H                     0.264517
    236 H                     0.237539
    237 S                     1.035338
    238 C                    -0.919863
    239 H                     0.244049
    240 H                     0.283669
    241 H                     0.246428
    242 O                    -0.749064
    243 C                    -0.840475
    244 H                     0.252182
    245 H                     0.226730
    246 H                     0.281721
    247 S                     0.869128
    248 C                    -0.771422
    249 H                     0.230736
    250 H                     0.232830
    251 H                     0.293316
    252 O                    -0.737784
    253 C                    -0.829257
    254 H                     0.226366
    255 H                     0.314460
    256 H                     0.256783
    257 S                     1.011221
    258 C                    -1.015414
    259 H                     0.276186
    260 H                     0.294607
    261 H                     0.228345
    262 O                    -0.730049
  ----------------------------------------
  Sum of atomic charges =     0.000000

 -----------------------------------------------------------------
                    Cartesian Multipole Moments
 -----------------------------------------------------------------
    Charge (ESU x 10^10)
                 0.0000
    Dipole Moment (Debye)
         X      17.1204      Y      -2.3142      Z      -6.2149
       Tot      18.3599
    Quadrupole Moments (Debye-Ang)
        XX    -125.7584     XY     519.7674     YY    -650.3141
        XZ     295.7058     YZ    -267.4440     ZZ   -1320.5680
    Octopole Moments (Debye-Ang^2)
       XXX  -39787.4569    XXY    2689.6936    XYY    2126.2772
       YYY  -45412.6319    XXZ   -7511.9216    XYZ    8608.1535
       YYZ  -23930.6657    XZZ  -20763.6336    YZZ  -37432.3312
       ZZZ  -93661.4575
    Hexadecapole Moments (Debye-Ang^3)
      XXXX ************   XXXY -775092.2795   XXYY -139188.9921
      XYYY -576708.4788   YYYY ************   XXXZ ************
      XXYZ  -64715.4451   XYYZ -111323.7768   YYYZ ************
      XXZZ -942534.7387   XYZZ -522341.1322   YYZZ ************
      XZZZ ************   YZZZ ************   ZZZZ ************
 -----------------------------------------------------------------
 Total job time:  22754.58s(wall), 178483.02s(cpu) 
 Thu Jul 21 15:43:47 2022

        *************************************************************
        *                                                           *
        *  Thank you very much for using Q-Chem.  Have a nice day.  *
        *                                                           *
        *************************************************************


 
User input: 2 of 2 
 
                  Welcome to Q-Chem
     A Quantum Leap Into The Future Of Chemistry


 Q-Chem 6.0 (devel), Q-Chem, Inc., Pleasanton, CA (2022)

 E. Epifanovsky,  A. T. B. Gilbert,  Xintian Feng,  Joonho Lee,  Yuezhi Mao,  
 N. Mardirossian,  P. Pokhilko,  A. White,  M. Wormit,  M. P. Coons,  
 A. L. Dempwolff,  Zhengting Gan,  D. Hait,  P. R. Horn,  L. D. Jacobson,  
 I. Kaliman,  J. Kussmann,  A. W. Lange,  Ka Un Lao,  D. S. Levine,  Jie Liu,  
 S. C. McKenzie,  A. F. Morrison,  K. Nanda,  F. Plasser,  D. R. Rehn,  
 M. L. Vidal,  Zhi-Qiang You,  Ying Zhu,  B. Alam,  B. Albrecht,  
 A. Aldossary,  E. Alguire,  J. H. Andersen,  V. Athavale,  D. Barton,  
 K. Begam,  A. Behn,  N. Bellonzi,  Y. A. Bernard,  E. J. Berquist,  
 H. Burton,  A. Carreras,  K. Carter-Fenk,  Romit Chakraborty,  
 Chandrima Chakravarty,  Junhan Chen,  A. D. Chien,  K. D. Closser,  
 V. Cofer-Shabica,  L. Cunha,  S. Dasgupta,  Jia Deng,  M. de Wergifosse,  
 M. Diedenhofen,  Hainam Do,  S. Ehlert,  Po-Tung Fang,  S. Fatehi,  
 Qingguo Feng,  T. Friedhoff,  B. Ganoe,  J. Gayvert,  Qinghui Ge,  
 G. Gidofalvi,  M. Goldey,  J. Gomes,  C. Gonzalez-Espinoza,  S. Gulania,  
 A. Gunina,  J. A. Gyamfi,  M. W. D. Hanson-Heine,  P. H. P. Harbach,  
 A. W. Hauser,  M. F. Herbst,  M. Hernandez Vera,  M. Hodecker,  
 Z. C. Holden,  S. Houck,  Xunkun Huang,  Kerwin Hui,  B. C. Huynh,  
 K. Ikeda,  M. Ivanov,  Hyunjun Ji,  Zuxin Jin,  Hanjie Jiang,  B. Kaduk,  
 S. Kaehler,  R. Kang,  K. Khistyaev,  Jaehoon Kim,  Yongbin Kim,  
 P. Klunzinger,  Z. Koczor-Benda,  Joong Hoon Koh,  D. Kosenkov,  
 Saikiran Kotaru,  L. Koulias,  T. Kowalczyk,  C. M. Krauter,  K. Kue,  
 A. Kunitsa,  T. Kus,  A. Landau,  K. V. Lawler,  D. Lefrancois,  S. Lehtola,  
 Rain Li,  Shaozhi Li,  Yi-Pei Li,  Jiashu Liang,  M. Liebenthal,  
 Hung-Hsuan Lin,  You-Sheng Lin,  Fenglai Liu,  Kuan-Yu Liu,  
 M. Loipersberger,  A. Luenser,  C. Malbon,  A. Manjanath,  P. Manohar,  
 E. Mansoor,  S. F. Manzer,  Shan-Ping Mao,  A. V. Marenich,  T. Markovich,  
 S. Mason,  F. Matz,  S. A. Maurer,  P. F. McLaughlin,  M. F. S. J. Menger,  
 J.-M. Mewes,  S. A. Mewes,  P. Morgante,  Mohammad Mostafanejad,  
 J. W. Mullinax,  K. J. Oosterbaan,  G. Paran,  V. Parravicini,  
 Alexander C. Paul,  Suranjan K. Paul,  F. Pavosevic,  Zheng Pei,  S. Prager,  
 E. I. Proynov,  E. Ramos,  B. Rana,  A. E. Rask,  A. Rettig,  R. M. Richard,  
 F. Rob,  E. Rossomme,  T. Scheele,  M. Scheurer,  M. Schneider,  
 P. E. Schneider,  N. Sergueev,  S. M. Sharada,  Hengyuan Shen,  
 W. Skomorowski,  D. W. Small,  C. J. Stein,  Yingli Su,  Yu-Chuan Su,  
 E. J. Sundstrom,  Zhen Tao,  J. Thirman,  Hung-Yi Tsai,  T. Tsuchimochi,  
 N. M. Tubman,  C. Utku,  S. P. Veccham,  O. Vydrov,  J. Wenzel,  
 Jonathan Wong,  J. Witte,  A. Yamada,  Chou-Hsun Yang,  Kun Yao,  
 S. Yeganeh,  S. R. Yost,  A. Zech,  F. Zeller,  Igor Ying Zhang,  
 Xing Zhang,  Yu Zhang,  D. Zuev,  A. Aspuru-Guzik,  A. T. Bell,  
 N. A. Besley,  K. B. Bravaya,  B. R. Brooks,  D. Casanova,  Jeng-Da Chai,  
 Hsing-Ta Chen,  S. Coriani,  C. J. Cramer,  A. E. DePrince, III,  
 R. A. DiStasio Jr.,  A. Dreuw,  B. D. Dunietz,  T. R. Furlani,  
 W. A. Goddard III,  S. Grimme,  S. Hammes-Schiffer,  T. Head-Gordon,  
 W. J. Hehre,  Chao-Ping Hsu,  T.-C. Jagau,  Yousung Jung,  A. Klamt,  
 Jing Kong,  D. S. Lambrecht,  Xiangyuan Li,  WanZhen Liang,  N. J. Mayhall,  
 C. W. McCurdy,  J. B. Neaton,  T. Neudecker,  C. Ochsenfeld,  
 J. A. Parkhill,  R. Peverati,  V. A. Rassolov,  Haisheng Ren,  Yihan Shao,  
 L. V. Slipchenko,  R. P. Steele,  J. E. Subotnik,  A. J. W. Thom,  
 A. Tkatchenko,  D. G. Truhlar,  T. Van Voorhis,  Fan Wang,  
 T. A. Wesolowski,  K. B. Whaley,  H. L. Woodcock III,  P. M. Zimmerman,  
 S. Faraji,  P. M. W. Gill,  M. Head-Gordon,  J. M. Herbert,  A. I. Krylov

 Contributors to earlier versions of Q-Chem not listed above: 
 R. D. Adamson,  B. Austin,  R. Baer,  J. Baker,  G. J. O. Beran,  
 K. Brandhorst,  S. T. Brown,  E. F. C. Byrd,  Arup K. Chakraborty,  
 G. K. L. Chan,  Chun-Min Chang,  Yunqing Chen,  C.-L. Cheng,  
 Siu Hung Chien,  D. M. Chipman,  D. L. Crittenden,  H. Dachsel,  
 R. J. Doerksen,  A. D. Dutoi,  R. G. Edgar,  J. Fosso-Tande,  
 L. Fusti-Molnar,  D. Ghosh,  A. Ghysels,  A. Golubeva-Zadorozhnaya,  
 J. Gonthier,  M. S. Gordon,  S. R. Gwaltney,  G. Hawkins,  J. E. Herr,  
 A. Heyden,  S. Hirata,  E. G. Hohenstein,  G. Kedziora,  F. J. Keil,  
 C. Kelley,  Jihan Kim,  R. A. King,  R. Z. Khaliullin,  P. P. Korambath,  
 W. Kurlancheek,  A. Laurent,  A. M. Lee,  M. S. Lee,  S. V. Levchenko,  
 Ching Yeh Lin,  D. Liotard,  E. Livshits,  R. C. Lochan,  I. Lotan,  
 L. A. Martinez-Martinez,  P. E. Maslen,  N. Nair,  D. P. O'Neill,  
 D. Neuhauser,  E. Neuscamman,  C. M. Oana,  R. Olivares-Amaya,  R. Olson,  
 T. M. Perrine,  B. Peters,  P. A. Pieniazek,  A. Prociuk,  Y. M. Rhee,  
 J. Ritchie,  M. A. Rohrdanz,  E. Rosta,  N. J. Russ,  H. F. Schaefer III,  
 M. W. Schmidt,  N. E. Schultz,  S. Sharma,  N. Shenvi,  C. D. Sherrill,  
 A. C. Simmonett,  A. Sodt,  T. Stein,  D. Stuck,  K. S. Thanthiriwatte,  
 V. Vanovschi,  L. Vogt,  Tao Wang,  A. Warshel,  M. A. Watson,  
 C. F. Williams,  Q. Wu,  X. Xu,  Jun Yang,  W. Zhang,  Yan Zhao

   Please cite Q-Chem as follows:
  "Software for the frontiers of quantum chemistry:
   An overview of developments in the Q-Chem 5 package"
   J. Chem. Phys. 155, 084801 (2021)
   https://doi.org/10.1063/5.0055522 (open access)

 Q-Chem 6.0.0 for Intel X86 EM64T Linux

 Parts of Q-Chem use Armadillo 9.900.5 (Nocturnal Misbehaviour).
 http://arma.sourceforge.net/

 Q-Chem begins on Thu Jul 21 15:43:47 2022  

 Host: nid00561
0

     Scratch files written to /global/cscratch1/sd/ymao90/r7.00_frame_0070_almo_B3LYP_dp20220721031503//
 Processing $rem in /global/homes/y/ymao90/my_qchem/qchem_embedding_5p4/config/preferences:
 Processing $rem in /global/homes/y/ymao90/.qchemrc:

 Checking the input file for inconsistencies... 	...done.

--------------------------------------------------------------
User input:
--------------------------------------------------------------

$molecule
0 1
@C    26.22900   24.25800   26.21400  
@C    26.28300   25.74600   26.60000  
@C    24.92200   26.43100   26.80300  
@C    23.93900   25.61800   27.66100  
@C    23.84600   24.12300   27.31400  
@C    25.23200   23.49200   27.09900  
@H    25.11200   27.42200   27.23300  
@H    26.69900   25.75900   27.61500  
@H    25.79800   24.12200   25.21500  
@H    27.22800   23.80600   26.24900  
@H    24.32900   25.65100   28.68600  
@H    22.93000   26.03400   27.55200  
@H    23.18200   23.65900   28.05300  
@H    23.32400   24.07000   26.35000  
@H    25.64000   23.38700   28.11200  
@H    25.23900   22.47300   26.69500  
@H    24.41400   26.68800   25.86400  
@N    27.12200   26.41700   25.60900  
@H    27.02700   26.28100   24.61000  
@C    28.01000   27.42700   25.91400  
@H    28.56400   27.76200   25.01800  
@O    28.22200   27.77200   27.06300  
C    24.04300   28.83500   23.73800  
H    24.71400   29.69300   23.82400  
H    23.50600   28.59600   24.65900  
H    24.63300   27.93900   23.52700  
S    22.91200   29.09000   22.35100  
C    21.91600   30.41400   23.07200  
H    22.57700   31.08400   23.62700  
H    21.43800   31.11900   22.38700  
H    21.10500   30.02100   23.69100  
O    21.93300   27.97400   22.54200  
C    22.42900   27.93200   31.05400  
H    21.66500   28.27900   30.35400  
H    22.66300   28.77100   31.71400  
H    23.25300   27.59000   30.42200  
[...]
          145         146         147         148         149         150
    1  -0.4662445   0.7127714   1.8060398   1.5903097  -0.4497105   1.9312769
    2  -0.3210576   2.7913883   1.3153028   2.9176556   2.9333562   3.5466156
    3   1.1006372   0.8165365   0.1843200  -1.4757382  -2.2044029   0.2436147
          151         152         153         154         155         156
    1   2.9689411   0.6778606  -3.1721000  -3.2549979  -3.1258414  -3.2684568
    2   2.0586891  -0.1600313  -0.8988539  -1.4912188   0.8837171  -2.1202290
    3  -2.3387327  -2.0391838   1.2750390   2.9618862   1.3470114  -0.2807587
          157         158         159         160         161         162
    1  -0.8413986  -0.7810581  -1.2028103  -2.3801432   1.0376189  -0.8368598
    2  -1.2046278  -2.1223096  -0.7671342  -2.9682613  -2.2635076   1.3794647
    3   1.0804868   2.8737889   4.2162816   1.9931679   2.7365852   3.0905961
          163         164         165         166         167         168
    1   1.3725871   1.9199045   2.5726366  -0.0342938  -0.1456944   1.3252595
    2   0.0634960   1.8327214  -1.0017868  -0.8119673   1.4638514   2.4013080
    3  -3.3717172  -3.5439258  -1.9869811  -4.0210953  -2.3964015  -1.4405519
          169         170         171         172         173         174
    1   2.8809304   0.4257264   0.5426631   0.6797833  -0.1315666   1.5841058
    2   1.1722179   3.5521481   2.2620886  -0.9391673   3.5294341   2.8081361
    3  -2.0843061  -2.4772511   0.2932362  -0.0844666   0.1382122  -0.5572455
          175         176         177         178         179         180
    1  -1.2585393  -0.8027236  -1.0627185   0.6437783   0.6075998  -0.3890981
    2   3.9983938   3.2653452   2.1144976   0.8403084   2.2637473  -0.3851005
    3  -1.2103871   2.2570626   0.5335479   1.0827947   2.3015612   1.4081182
          181         182         183         184         185         186
    1   1.7599888   0.1465141  -0.3363620   0.9377983  -1.3626991  -1.0255129
    2   0.3746101   1.5837678  -0.8228730  -1.0341809  -2.2495468   1.1510248
    3  -0.5218223  -2.4992917  -3.1466137  -2.1366400  -3.7462510  -3.6468222
          187         188         189         190         191         192
    1  -1.1875095  -1.5291296   0.1835740  -2.9548023  -1.9547910  -4.0293787
    2  -0.4544373  -2.6640027  -2.6623374  -2.4200093  -3.0112574  -0.2173676
    3  -1.0902555  -1.0269896  -0.9230821   0.3322623  -2.8504071  -2.1991276
          193         194         195         196         197         198
    1  -2.7742134  -3.3413067  -3.1164681  -1.7395584  -0.7889338  -1.8144294
    2   2.6130433   1.2586891   2.5284975   4.0072569   1.0518751   0.2877503
    3  -0.0679923  -0.9009063   2.0488305  -0.7510568  -0.4164360   1.0977264
          199         200         201         202         203         204
    1  -2.2326019   0.2147612  -2.8760888  -0.0939476  -0.8140094  -2.3697234
    2  -0.3824158  -0.4808517   1.5957280   2.8697173  -2.8802671  -1.7423327
    3  -0.2423961   1.1864635   2.4385164   2.1077582  -2.2073539  -2.5045115
          205         206         207         208         209         210
    1   0.6020366  -1.1437805   0.7312190   1.0291145  -0.7489197   1.5901950
    2  -2.9439732  -3.6554530  -1.4860624  -2.4242088  -2.6261688  -3.6425487
    3  -3.2491066  -0.2308794  -1.9597741  -0.2902493   0.6665655  -1.4974115
          211         212         213         214         215         216
    1   1.8996915  -1.6018851  -0.2604840   1.4277515  -0.1233528  -1.6510247
    2  -0.8542824  -0.1339240  -1.8887676  -1.0016898  -3.7089201  -1.0451760
    3   0.0517274  -0.5139687  -1.1328106  -1.6380008  -0.5558927  -1.1467509
          217         218         219         220         221         222
    1   0.6538743  -0.7725866  -0.8169668  -0.1280598  -1.5993857   0.5083515
    2  -1.9510239  -1.7734918  -3.4621148  -0.6876566  -0.6259350   1.2507986
    3   1.4093419   2.1437127   1.9321794   3.6294422   0.2389183   0.5530623
          223         224         225         226         227         228
    1   1.1217463   2.1495709   1.2512797  -0.3244421   0.5326032  -0.6410545
    2  -1.4741918  -1.0777487  -0.5867397  -2.4735149   0.4962382  -0.2830343
    3  -1.5635139  -3.1605349   0.5966240  -2.3613157  -1.9623781  -0.0329882
          229         230         231         232         233         234
    1  -1.9014794  -1.0202179   0.8745066  -1.5241429   0.0221826   0.0347530
    2   0.6418225  -1.9412790   0.4337733  -0.7539118  -1.9200487  -0.6645409
    3  -1.0040117  -0.5664812   1.2273895  -4.1572224  -0.5552099   1.0147574
          235         236         237         238         239         240
    1  -0.8387065   1.1535205   2.0588885   0.8265062   1.9335133   1.0173978
    2  -0.8717341  -3.6190081  -1.2197032   0.6023094   0.8258844   0.6274929
    3  -2.1977415  -0.6712632  -0.6818560  -1.3684250  -0.0449678  -3.1999476
          241         242         243         244         245         246
    1  -0.9936474   1.3794411   1.5350955  -0.0847925   2.5380676   1.8656801
    2   0.2514913  -1.8830478  -2.6147214  -3.4107831  -3.1317060  -1.0359853
    3  -0.3848282  -3.7565437   1.4239791   2.0655418  -0.1812812   2.5550197
          247         248         249         250         251         252
    1   0.4711732   1.8999409   3.2154986   0.5327398   1.5650303  -0.8865994
    2  -2.9356809  -1.3204788  -2.3482209  -1.3270751  -0.2567363  -1.0427083
    3  -0.4473120  -0.9621811  -0.7606152  -2.4751771   0.8491326   1.3720838
          253         254         255         256         257         258
    1   0.8393301   2.0931577  -0.7340408   0.2810696   2.6390411   2.4043510
    2   0.5968617   1.2962525   1.3754688  -0.4909033  -0.7661455   0.7511780
    3   1.6454586   2.0844030  -0.0236792   2.3373733   0.7802628  -0.2572470
          259         260         261         262
    1   3.3705604   0.2790946   3.5651713   0.0361079
    2  -0.8053124   1.4145003   0.8478270  -1.2688963
    3  -1.4338783  -0.7180541   1.3224637  -1.2479457
 EField
            1           2           3           4           5           6
    1  -0.0012492  -0.0040152  -0.0041279  -0.0049717  -0.0035862  -0.0062750
    2  -0.0018573  -0.0032513  -0.0025144  -0.0047900  -0.0044518  -0.0046865
    3   0.0005122  -0.0038992  -0.0015923  -0.0018734   0.0031364   0.0050346
            7           8           9          10          11          12
    1  -0.0050249  -0.0086073  -0.0027827   0.0105653  -0.0031477  -0.0055070
    2  -0.0019909  -0.0046491  -0.0002123  -0.0006021  -0.0048586  -0.0070971
    3  -0.0028910  -0.0050769   0.0036997   0.0012051  -0.0032249  -0.0033240
           13          14          15          16          17          18
    1   0.0019438  -0.0039997  -0.0126800  -0.0070789  -0.0027002  -0.0027065
    2  -0.0059175   0.0012554  -0.0104034   0.0015860  -0.0015537  -0.0008998
    3   0.0053240   0.0016556   0.0043847   0.0084059   0.0008781  -0.0088847
           19          20          21          22          23          24
    1   0.0005987  -0.0046175   0.0035052  -0.0079120   0.0059897   0.0180382
    2   0.0049709  -0.0006824   0.0072627  -0.0039895  -0.0023355   0.0248318
    3  -0.0121194  -0.0140670  -0.0180169  -0.0094024   0.0075698   0.0140673
           25          26          27          28          29          30
    1  -0.0211657   0.0235483   0.0251142  -0.0045575   0.0184170  -0.0140866
    2   0.0012497  -0.0259455   0.0118250   0.0089065   0.0163736   0.0104303
    3   0.0258356  -0.0124474  -0.0446442   0.0087968   0.0306395  -0.0332800
           31          32          33          34          35          36
    1  -0.0148885  -0.0723159  -0.0008456  -0.0276837   0.0160459   0.0311202
    2  -0.0225504  -0.0802690   0.0088896   0.0100854   0.0224366  -0.0031984
    3   0.0184215   0.0138788  -0.0040644  -0.0117416   0.0127506  -0.0071713
           37          38          39          40          41          42
    1   0.0382264  -0.0040170  -0.0215758   0.0237484  -0.0124719  -0.1030684
    2  -0.0198566  -0.0104512   0.0155023  -0.0040131  -0.0364166   0.0255417
    3   0.0293205  -0.0030859  -0.0123541  -0.0247504   0.0059285   0.0295659
           43          44          45          46          47          48
    1  -0.0013807  -0.0092846  -0.0283194   0.0234804  -0.0034356   0.0023091
    2   0.0035619  -0.0176145   0.0169920   0.0225855   0.0268663  -0.0047559
    3  -0.0050310  -0.0212524  -0.0002450  -0.0115187   0.0464145   0.0012413
           49          50          51          52          53          54
    1   0.0075936  -0.0009666   0.0261816  -0.0705270  -0.0046142  -0.0064472
    2  -0.0203074  -0.0100805   0.0197273  -0.0815115   0.0027343  -0.0245398
    3   0.0262758  -0.0284857  -0.0023491  -0.0271575   0.0073264  -0.0128218
           55          56          57          58          59          60
    1   0.0021574  -0.0191165   0.0171198   0.0047085   0.0005455   0.0272535
    2   0.0109925   0.0199447  -0.0039029  -0.0056241  -0.0305198   0.0123332
    3   0.0377128  -0.0102606  -0.0511063   0.0081490  -0.0170155   0.0155326
           61          62          63          64          65          66
    1  -0.0060639   0.0194610  -0.0112694  -0.0084456  -0.0274604  -0.0074407
    2  -0.0010454   0.0891085   0.0032831  -0.0241195  -0.0023292   0.0307180
    3   0.0349766   0.0647139  -0.0010807  -0.0190751   0.0193709  -0.0171145
           67          68          69          70          71          72
    1   0.0249782   0.0015088  -0.0175995  -0.0054728   0.0316724  -0.0263592
    2   0.0366245  -0.0013466  -0.0236905   0.0131513  -0.0044556  -0.0902635
    3   0.0130115  -0.0083657   0.0017430  -0.0354726  -0.0012853   0.0592129
           73          74          75          76          77          78
    1  -0.0017268  -0.0316369   0.0233866  -0.0017867   0.0005014   0.0071999
    2   0.0043325   0.0062784   0.0263515  -0.0167511   0.0324010  -0.0024669
    3  -0.0093439   0.0084139  -0.0013694  -0.0288043   0.0537769   0.0013592
           79          80          81          82          83          84
    1   0.0157881   0.0126461   0.0293485  -0.0577741  -0.0069505  -0.0250809
    2  -0.0246046  -0.0048062   0.0243410  -0.0913869  -0.0094099   0.0183428
    3   0.0165703  -0.0299240  -0.0008774  -0.0059193  -0.0048510  -0.0123282
           85          86          87          88          89          90
    1   0.0052620  -0.0158693  -0.0183030   0.0046367  -0.0102522   0.0307409
    2  -0.0270707  -0.0196893   0.0559230  -0.0056719   0.0172233   0.0109613
    3  -0.0164630   0.0194127   0.0064472  -0.0010255  -0.0224872   0.0112833
           91          92          93          94          95          96
    1  -0.0085860   0.0319397   0.0023390   0.0310048  -0.0225891   0.0027653
    2  -0.0323846  -0.0631766  -0.0046776   0.0047736   0.0098160  -0.0353108
    3  -0.0062501   0.0847208   0.0063732   0.0119007   0.0148176   0.0058704
           97          98          99         100         101         102
    1  -0.0424402   0.0068880   0.0181900   0.0274429  -0.0007034   0.0424524
    2  -0.0119652  -0.0002172   0.0017170   0.0165014  -0.0330921   0.0977383
    3  -0.0252350  -0.0022802  -0.0307774   0.0150715  -0.0131487   0.0251298
          103         104         105         106         107         108
    1  -0.0083007  -0.0277142  -0.0173093   0.0030402  -0.0092690   0.0000605
    2   0.0015829  -0.0122142   0.0289809  -0.0280206   0.0079474   0.0053439
    3  -0.0082034   0.0071343   0.0112401  -0.0246552   0.0569387  -0.0056341
          109         110         111         112         113         114
    1  -0.0085670   0.0282605  -0.0040325   0.0465398  -0.0035055   0.0285531
    2   0.0319595  -0.0035681  -0.0043786  -0.0930407  -0.0050380  -0.0035574
    3   0.0103406   0.0120500  -0.0343809  -0.0374243  -0.0063044  -0.0188846
          115         116         117         118         119         120
    1  -0.0266642  -0.0143381   0.0412451   0.0047886   0.0222253   0.0119979
    2  -0.0194152   0.0199326   0.0339604  -0.0033915  -0.0207292  -0.0104123
    3   0.0071004  -0.0198754  -0.0019133   0.0056637  -0.0141766   0.0301795
          121         122         123         124         125         126
    1  -0.0223624  -0.0940881   0.0081923   0.0350762  -0.0107506   0.0087699
    2  -0.0156966   0.0090259   0.0054462  -0.0069343   0.0258974  -0.0248010
    3  -0.0005249   0.0550927   0.0053806  -0.0172851   0.0235170   0.0112137
          127         128         129         130         131         132
    1   0.0145059   0.0000103   0.0145064  -0.0220231  -0.0057858  -0.0800579
    2  -0.0229197   0.0060684   0.0363801  -0.0005389   0.0155015  -0.0481298
    3  -0.0512600   0.0014776  -0.0212055  -0.0200264   0.0274217   0.0586538
          133         134         135         136         137         138
    1   0.0025497  -0.0264630  -0.0081838   0.0231663  -0.0384870   0.0063693
    2   0.0002750   0.0152666  -0.0287511   0.0026432  -0.0113043  -0.0071738
    3   0.0077218   0.0070509   0.0145134   0.0276254  -0.0357779  -0.0006611
          139         140         141         142         143         144
    1  -0.0079961   0.0143140   0.0220491   0.0511437  -0.0089408  -0.0325228
    2  -0.0360321   0.0036503   0.0140542   0.0957909   0.0053179   0.0094084
    3   0.0059158  -0.0290403   0.0207589   0.0118956  -0.0022541  -0.0218854
          145         146         147         148         149         150
    1  -0.0142784  -0.0041284   0.0450927  -0.0000769  -0.0252177   0.0141440
    2  -0.0091983   0.0278112  -0.0052403   0.0053630   0.0065748   0.0311563
    3   0.0084374   0.0210349   0.0362038  -0.0044580  -0.0215566   0.0129120
          151         152         153         154         155         156
    1   0.0224754  -0.0212332  -0.0109195  -0.0094063  -0.0051521  -0.0136675
    2   0.0007465  -0.0746539   0.0008519  -0.0034360   0.0261577  -0.0117817
    3  -0.0208289  -0.0853550  -0.0010747   0.0336021  -0.0042278  -0.0328882
          157         158         159         160         161         162
    1   0.0263255  -0.0007660  -0.0080430  -0.0148157   0.0256630   0.0054009
    2  -0.0081402  -0.0016915   0.0227550  -0.0293744  -0.0156263   0.0960471
    3  -0.0496769   0.0089158   0.0254784  -0.0045466  -0.0025417   0.0548498
          163         164         165         166         167         168
    1   0.0060203   0.0138626   0.0169121  -0.0154121  -0.0498812   0.0051282
    2  -0.0050207   0.0227299  -0.0246215  -0.0195137   0.0214646   0.0025613
    3  -0.0031251  -0.0201979   0.0150869  -0.0175686  -0.0179153   0.0060238
          169         170         171         172         173         174
    1   0.0294006  -0.0023553  -0.0009635   0.0042048   0.0034968   0.0301641
    2  -0.0046814   0.0265253  -0.0049193  -0.0833606   0.0044333   0.0013426
    3   0.0002510  -0.0194850   0.0324791   0.0785773   0.0012626  -0.0074868
          175         176         177         178         179         180
    1  -0.0167362  -0.0024331  -0.0607206   0.0059096   0.0143901  -0.0269589
    2   0.0165154   0.0173149  -0.0026818  -0.0049503   0.0224548  -0.0239914
    3  -0.0209583   0.0308615   0.0231722   0.0048366   0.0218432   0.0049339
          181         182         183         184         185         186
    1   0.0189768   0.0187731   0.0037702   0.0318137  -0.0054757   0.0016309
    2  -0.0023986  -0.0258226   0.0024313  -0.0062423  -0.0198316   0.0246347
    3  -0.0233315  -0.1049531  -0.0071711   0.0059669  -0.0243017  -0.0238938
          187         188         189         190         191         192
    1   0.0268174  -0.0001469   0.0332371  -0.0213117  -0.0193106  -0.1032492
    2   0.0331737  -0.0074040  -0.0030447  -0.0074179  -0.0169240   0.0177630
    3   0.0425884   0.0000778   0.0119275   0.0202189  -0.0235434  -0.0344051
          193         194         195         196         197         198
    1  -0.0081792  -0.0292991  -0.0111925   0.0030372   0.0196694  -0.0015503
    2   0.0015009  -0.0090049   0.0042131   0.0259067  -0.0168561  -0.0099707
    3  -0.0014983  -0.0255627   0.0281327  -0.0182488  -0.0475621   0.0047717
          199         200         201         202         203         204
    1  -0.0223298   0.0231538  -0.0152276   0.0455836  -0.0064462  -0.0219460
    2  -0.0146622  -0.0152512   0.0113078   0.0661156  -0.0043486   0.0188170
    3  -0.0271479   0.0180653   0.0233567   0.0728669  -0.0019062  -0.0175693
          205         206         207         208         209         210
    1   0.0116515  -0.0027331   0.0399976   0.0015929  -0.0147983   0.0101391
    2  -0.0180480  -0.0280075   0.0232149  -0.0008340  -0.0078382  -0.0260361
    3  -0.0226892   0.0215096  -0.0461801   0.0093283   0.0302604  -0.0181601
          211         212         213         214         215         216
    1   0.0170978  -0.0799948  -0.0018693   0.0158870  -0.0009263  -0.0249270
    2   0.0198291   0.0660198  -0.0041496   0.0179343  -0.0347009   0.0127716
    3   0.0185453   0.0356842  -0.0047933  -0.0235309  -0.0048078  -0.0109070
          217         218         219         220         221         222
    1   0.0484726  -0.0123999   0.0045489   0.0047846  -0.0278348   0.0149163
    2  -0.0375827   0.0045333  -0.0346200   0.0162126   0.0220231   0.1081011
    3   0.0188293  -0.0026655   0.0041978   0.0235566  -0.0100187  -0.0182215
          223         224         225         226         227         228
    1   0.0039452   0.0294597   0.0138500  -0.0210782   0.0312504  -0.0105443
    2  -0.0042371  -0.0029607  -0.0047389  -0.0217272   0.0458183   0.0024409
    3  -0.0014608  -0.0137635   0.0317601   0.0012651   0.0023586   0.0035951
          229         230         231         232         233         234
    1  -0.0195665  -0.0024250   0.0156658  -0.0665353  -0.0048235  -0.0137264
    2   0.0254532  -0.0312955   0.0050015  -0.0319784   0.0049534   0.0107510
    3   0.0000878   0.0094189   0.0315191  -0.0801469   0.0024549   0.0351522
          235         236         237         238         239         240
    1  -0.0259501   0.0004007   0.0456857  -0.0050544   0.0134219   0.0043684
    2  -0.0027976  -0.0290699  -0.0094686   0.0107324   0.0176814   0.0040107
    3  -0.0216897  -0.0041166   0.0308356   0.0017104   0.0176697  -0.0309996
          241         242         243         244         245         246
    1  -0.0339132  -0.0050969   0.0047468  -0.0203836   0.0282987   0.0150982
    2   0.0125591  -0.0314918  -0.0013559  -0.0251482  -0.0169797   0.0307628
    3   0.0097440  -0.1058626   0.0085964   0.0124634  -0.0089664   0.0136422
          247         248         249         250         251         252
    1  -0.0182125   0.0040747   0.0303028  -0.0050636   0.0003732  -0.0658797
    2  -0.0396249   0.0070516  -0.0091437   0.0145408   0.0275348   0.0739317
    3  -0.0362420   0.0017273  -0.0090665  -0.0287981   0.0180734   0.0485889
          253         254         255         256         257         258
    1  -0.0108085   0.0285197  -0.0235317  -0.0095515   0.0432119   0.0071951
    2  -0.0013608   0.0085604  -0.0001621  -0.0239915  -0.0275113   0.0005565
    3   0.0067744   0.0208356  -0.0262715   0.0258702   0.0228031  -0.0115202
          259         260         261         262
    1   0.0240031  -0.0220000   0.0237309  -0.0773788
    2   0.0023098   0.0156421   0.0195112  -0.0419013
    3  -0.0337210  -0.0131264   0.0114437  -0.0699420
  --- DONE ESP SUMMARY ---
 Total job time:  21.87s(wall), 58.65s(cpu) 
 Thu Jul 21 15:44:09 2022

        *************************************************************
        *                                                           *
        *  Thank you very much for using Q-Chem.  Have a nice day.  *
        *                                                           *
        *************************************************************


